Membrane in water
40347
    1TMC1    C1    1   3.679   0.238  10.950 -0.3999 -0.4023  0.7577
    1TMC1    C2    2   3.544   0.234  10.956 -0.8247  0.4075  0.1713
    1TMC1    C3    3   3.480   0.306  10.858 -0.4202 -0.2161  0.1515
    1TMC1    C4    4   3.749   0.303  10.847  0.1287 -0.5656 -0.1073
    1TMC1    C5    5   3.680   0.377  10.758  0.0334 -0.4593  0.4013
    1TMC1    C6    6   3.545   0.373  10.764 -0.1619  0.8511 -0.4572
    1TMC1     C    7   3.750   0.178  11.060 -0.1290 -0.3509 -0.2260
    1TMC1     O    8   3.688   0.145  11.161  0.5340  0.0935  0.6338
    1TMC1     H    9   3.487   0.175  11.026 -1.3673  2.1098  1.1707
    1TMC1    H1   10   3.854   0.291  10.824  0.5847  0.3204  1.5093
    1TMC1    H2   11   3.493   0.434  10.691  0.8429  2.5257  0.2271
    1TMC1    C7   12   3.747   0.417  10.638  0.6164  0.0585  0.0919
    1TMC1    C8   13   3.338   0.334  10.861 -0.0606 -0.9985  0.2509
    1TMC1    O1   14   3.693   0.434  10.531  0.4057 -0.2724 -0.3185
    1TMC1    O2   15   3.274   0.372  10.762  0.5621 -0.5285  0.2870
    1TMC1    O3   16   3.845   0.496  10.680  0.2966 -0.2035 -0.4067
    1TMC1    H3   17   3.892   0.477  10.765 -0.2583  2.0662  0.4323
    1TMC1    O5   18   3.288   0.286  10.973  0.2186  0.1591 -0.3457
    1TMC1    H5   19   3.357   0.270  11.041 -0.5406 -0.0961  0.3575
    2MPD2     C   20   4.171   4.713  11.275  0.8159  0.3835  0.1460
    2MPD2    C1   21   4.035   4.675  11.291  0.6979  0.1963 -0.0239
    2MPD2    C2   22   3.945   0.024  11.220  0.7516  0.0767 -0.4081
    2MPD2    C3   23   3.979   0.129  11.134  0.2037  0.5240  0.2361
    2MPD2    C4   24   4.111   0.169  11.132 -0.8364 -0.3540 -0.6875
    2MPD2    C5   25   4.203   0.088  11.196 -0.1728  0.3942 -0.0536
    2MPD2     H   26   3.841   4.730  11.233  0.7145  0.8311  0.8000
    2MPD2    H1   27   4.133   0.257  11.074  2.0514 -0.9163 -0.4213
    2MPD2    H2   28   4.253   4.671  11.331 -1.6035 -0.0153  3.3594
    2MPD2    H3   29   4.304   0.130  11.193 -0.0521  0.1344  0.3125
    2MPD2     N   30   3.888   0.189  11.056 -0.7433  0.2603 -0.1395
    2MPD2    H5   31   3.924   0.259  10.991  0.1608 -0.2701 -0.1991
    2MPD2    N1   32   3.984   4.564  11.356  0.0102 -0.3422  0.2661
    2MPD2    H7   33   3.884   4.549  11.354 -0.2530  1.2529  1.6360
    3TMC1    C1   34   2.683   1.003  10.795  0.5495 -0.0280 -0.0259
    3TMC1    C2   35   2.763   0.915  10.728  0.0966  0.6916 -0.2063
    3TMC1    C3   36   2.750   0.906  10.594  0.3958  0.4959  0.0746
    3TMC1    C4   37   2.589   1.082  10.741 -0.0787 -0.0235  0.4758
    3TMC1    C5   38   2.576   1.057  10.608 -0.2455  0.0398  0.8800
    3TMC1    C6   39   2.661   0.983  10.530  0.0462 -0.1920  0.2908
    3TMC1     C   40   2.699   1.027  10.932  0.6311  0.0152  0.1834
    3TMC1     O   41   2.731   0.933  11.003  0.1207 -0.2015  0.4891
    3TMC1     H   42   2.840   0.871  10.791  0.8845  1.7353 -0.4453
    3TMC1    H1   43   2.531   1.154  10.798  2.0805 -0.4479  3.1912
    3TMC1    H2   44   2.623   0.960  10.431 -0.9823  2.9220 -0.0375
    3TMC1    C7   45   2.454   1.098  10.544 -0.0856  0.4493 -0.9634
    3TMC1    C8   46   2.841   0.812  10.522  0.9740 -0.1227 -0.5018
    3TMC1    O1   47   2.448   1.101  10.421 -0.4668 -0.5765  0.0777
    3TMC1    O2   48   2.905   0.722  10.572 -0.6759  0.3614  0.2276
    3TMC1    O3   49   2.346   1.109  10.631 -0.6064  0.2323 -0.0208
    3TMC1    H3   50   2.360   1.059  10.714  0.6395  1.8129  0.7208
    3TMC1    O5   51   2.868   0.871  10.404  0.1051 -0.0174 -0.3531
    3TMC1    H5   52   2.809   0.949  10.395 -1.0733 -1.0742 -1.7105
    4MPD2     C   53   2.883   1.321  11.313  0.1478  0.5947  0.5925
    4MPD2    C1   54   2.874   1.394  11.198  0.5214 -0.5645  0.4051
    4MPD2    C2   55   2.799   1.343  11.093 -0.7885 -0.0480 -0.9604
    4MPD2    C3   56   2.760   1.213  11.086  0.1253  0.0324  0.1026
    4MPD2    C4   57   2.778   1.135  11.196 -0.5262 -0.0621  0.2573
    4MPD2    C5   58   2.835   1.189  11.312 -0.5660  0.8061 -0.5875
    4MPD2     H   59   2.796   1.406  11.004  3.0062  0.8759 -0.4446
    4MPD2    H1   60   2.753   1.029  11.198 -0.1328 -0.0976  2.5299
    4MPD2    H2   61   2.926   1.361  11.404 -0.2544  1.6116  0.3494
    4MPD2    H3   62   2.829   1.144  11.410  0.5203  1.4116 -0.2422
    4MPD2     N   63   2.704   1.161  10.962  0.3171  0.0933  0.3537
    4MPD2    H5   64   2.684   1.234  10.894  0.4705  0.9381  1.2242
    4MPD2    N1   65   2.950   1.514  11.171 -0.4603 -0.2971 -1.1889
    4MPD2    H7   66   2.919   1.559  11.086  0.2525 -0.0449 -1.3099
    5TCq1    O1   67   4.376   2.975  12.421  1.0054 -0.5579 -0.1275
    5TCq1    C1   68   4.243   2.957  12.432  0.0131 -0.6432  0.7678
    5TCq1    O2   69   4.180   2.915  12.530  0.0714 -0.3787 -0.7354
    5TCq1    C2   70   4.185   3.023  12.309 -0.4566 -0.3747 -0.1307
    5TCq1    C3   71   4.064   3.085  12.334  0.1300  0.1359  0.4149
    5TCq1    C4   72   4.004   3.147  12.230 -0.5184 -0.5718  0.3423
    5TCq1    C5   73   4.061   3.144  12.109  0.4591 -0.3302 -0.3842
    5TCq1    C6   74   4.181   3.085  12.090  0.1887  0.4973  0.2119
    5TCq1    C7   75   4.249   3.021  12.189  0.6184  0.1947 -0.4932
    5TCq1    C8   76   4.240   3.089  11.958  0.6780  0.7616 -0.4561
    5TCq1    O4   77   4.307   2.994  11.928 -0.6711 -0.5468 -0.4946
    5TCq1    C9   78   3.874   3.215  12.244  0.5170  0.1895  0.4169
    5TCq1    O5   79   3.834   3.280  12.143  0.2986 -0.2442 -0.4887
    5TCq1    O6   80   3.827   3.215  12.361 -0.4292  0.2141  0.5415
    5TCq1    H1   81   4.397   3.045  12.356  0.0599  0.5975  0.8145
    5TCq1    H2   82   4.024   3.065  12.433 -0.0873  0.8111  0.4662
    5TCq1    H3   83   4.011   3.184  12.022  0.8467  0.2815 -0.3225
    5TCq1    H4   84   4.343   2.970  12.172  0.4674 -0.4310  0.5570
    6MPD2     C   85   4.254   3.376  11.726 -0.2831  0.2943 -0.2094
    6MPD2    C1   86   4.274   3.245  11.764  0.1852  0.1580 -0.0343
    6MPD2    C2   87   4.290   3.151  11.665  0.5928 -0.2795 -0.0934
    6MPD2    C3   88   4.278   3.181  11.533 -0.2007  0.3408  0.6098
    6MPD2    C4   89   4.244   3.310  11.496  0.1795 -0.5890  0.6126
    6MPD2    C5   90   4.231   3.406  11.592  0.6111  0.0230  0.2569
    6MPD2     H   91   4.304   3.049  11.698 -1.7232 -0.5478  0.0813
    6MPD2    H1   92   4.232   3.331  11.391 -0.4843 -0.5372  0.6981
    6MPD2    H2   93   4.248   3.453  11.802  0.4777 -0.6895  0.8453
    6MPD2    H3   94   4.230   3.506  11.551 -0.3408  0.2532  0.8391
    6MPD2     N   95   4.296   3.081  11.436  0.1970 -0.1973 -0.4081
    6MPD2    H5   96   4.272   2.987  11.466  0.3443  0.3270  1.3138
    6MPD2    N1   97   4.235   3.212  11.897 -0.5549  0.7907  0.7045
    6MPD2    H7   98   4.209   3.284  11.964  0.9921  0.4350  1.6869
    7TCq1    O1   99   1.357   1.811  13.020 -0.0459  0.1003  0.3121
    7TCq1    C1  100   1.233   1.781  13.071  0.5299  0.2917  0.4943
    7TCq1    O2  101   1.142   1.861  13.075 -0.1359  0.0177  0.1552
    7TCq1    C2  102   1.227   1.638  13.067 -0.4681  0.3601 -0.0829
    7TCq1    C3  103   1.104   1.583  13.032 -0.1257 -0.2864 -1.0230
    7TCq1    C4  104   1.085   1.455  13.062  0.2603 -0.0832 -0.3021
    7TCq1    C5  105   1.185   1.376  13.112 -0.6717  0.4757 -1.0708
    7TCq1    C6  106   1.301   1.435  13.143 -0.0714  0.6529  0.1362
    7TCq1    C7  107   1.326   1.567  13.124  0.5453 -0.0434 -0.4831
    7TCq1    C8  108   1.400   1.368  13.222 -0.2668  0.4592  0.0070
    7TCq1    O4  109   1.378   1.261  13.281  0.2911 -0.4689 -0.3220
    7TCq1    C9  110   0.959   1.397  13.039  0.2430  0.1081 -0.4477
    7TCq1    O5  111   0.936   1.277  13.068 -0.0784 -0.2586  0.1368
    7TCq1    O6  112   0.882   1.470  12.979 -0.4784  0.5632  0.6293
    7TCq1    H1  113   1.422   1.738  13.025 -0.0736  0.0161 -0.5722
    7TCq1    H2  114   1.027   1.643  12.987 -2.2401 -1.6546  0.7802
    7TCq1    H3  115   1.174   1.268  13.120 -1.8660  0.7780  1.4665
    7TCq1    H4  116   1.404   1.618  13.180 -0.8999  0.5085  1.0541
    8MPD2     C  117   1.863   1.370  13.446 -0.1788  0.5674  0.5394
    8MPD2    C1  118   1.753   1.293  13.472  0.0021  0.0813 -0.3861
    8MPD2    C2  119   1.640   1.313  13.398  0.3785 -0.3411 -0.2905
    8MPD2    C3  120   1.639   1.403  13.288 -0.5788  0.7089  0.0970
    8MPD2    C4  121   1.754   1.476  13.261  1.1362 -0.2811  0.4182
    8MPD2    C5  122   1.864   1.456  13.339  0.2432  0.0854 -0.1990
    8MPD2     H  123   1.551   1.255  13.420  0.9341  0.1067  3.2058
    8MPD2    H1  124   1.745   1.546  13.179 -0.6465  2.2308  2.7840
    8MPD2    H2  125   1.957   1.364  13.500 -0.3737 -1.1903  0.6843
    8MPD2    H3  126   1.959   1.505  13.318 -0.8150  2.3288  0.1973
    8MPD2     N  127   1.525   1.430  13.209  0.3422 -0.3240 -0.2398
    8MPD2    H5  128   1.544   1.497  13.136  0.7542  0.4013  0.5297
    8MPD2    N1  129   1.766   1.208  13.581 -0.3431 -0.5641 -0.2403
    8MPD2    H7  130   1.854   1.203  13.631 -1.4781 -1.3516  1.6471
    9TMC1    C1  131   2.923   0.511  10.908 -0.4775 -0.0634  0.0365
    9TMC1    C2  132   2.803   0.578  10.898 -0.5358 -1.0324 -0.3751
    9TMC1    C3  133   2.692   0.514  10.938  0.5272 -0.4750 -0.2263
    9TMC1    C4  134   2.928   0.378  10.940 -0.2058 -0.2970 -0.3258
    9TMC1    C5  135   2.808   0.312  10.952 -0.6776 -0.4035 -0.1465
    9TMC1    C6  136   2.691   0.378  10.957 -0.1278  0.1614 -0.4684
    9TMC1     C  137   3.046   0.588  10.924  1.0778 -0.0657  0.0735
    9TMC1     O  138   3.058   0.694  10.858  0.6947 -0.0268  0.0546
    9TMC1     H  139   2.804   0.685  10.916 -3.0333 -0.7294 -2.0252
    9TMC1    H1  140   3.023   0.328  10.925  0.4042  0.4657  1.0155
    9TMC1    H2  141   2.595   0.327  10.964  0.4985 -0.7951  1.0079
    9TMC1    C7  142   2.794   0.171  10.973  0.0102  0.4535 -0.7981
    9TMC1    C8  143   2.562   0.590  10.924 -0.7392 -1.0211 -0.2104
    9TMC1    O1  144   2.693   0.104  10.942 -0.5967  0.3619  0.1886
    9TMC1    O2  145   2.560   0.705  10.892  0.1219  0.2101  0.2401
    9TMC1    O3  146   2.903   0.125  11.043  0.3338 -0.4636  0.0325
    9TMC1    H3  147   2.954   0.196  11.088  1.0817 -1.4029  0.6693
    9TMC1    O5  148   2.475   0.548  11.018  0.3811 -0.1431  0.3877
    9TMC1    H5  149   2.480   0.456  11.053 -0.0741 -0.0260  0.7511
   10MPD2     C  150   3.291   0.739  11.051 -0.0109 -0.0412 -0.5821
   10MPD2    C1  151   3.226   0.625  11.101  0.3996  0.2629  0.1135
   10MPD2    C2  152   3.253   0.582  11.230 -0.8767 -0.1501 -0.0318
   10MPD2    C3  153   3.362   0.634  11.303  0.3838 -0.9408  0.1099
   10MPD2    C4  154   3.426   0.745  11.254  0.5469  0.7175  0.6207
   10MPD2    C5  155   3.390   0.800  11.128 -0.3780  0.4118  0.6288
   10MPD2     H  156   3.194   0.496  11.260  1.4712 -1.6750  0.2208
   10MPD2    H1  157   3.505   0.798  11.306  0.0601  1.2579  0.8066
   10MPD2    H2  158   3.266   0.793  10.960 -2.1455 -0.7187 -0.3911
   10MPD2    H3  159   3.440   0.890  11.093  0.6146 -0.3929 -0.0115
   10MPD2     N  160   3.404   0.593  11.437  0.3295  0.4344  0.4213
   10MPD2    H5  161   3.455   0.658  11.496 -0.3475 -0.1064  1.6062
   10MPD2    N1  162   3.117   0.549  11.033  0.3754  0.3591 -0.9397
   10MPD2    H7  163   3.085   0.468  11.087  0.6154 -0.2937 -1.7716
   11TCq1    O1  164   4.447   0.762  14.934  0.0476  0.1015  0.0536
   11TCq1    C1  165   4.349   0.796  14.847  0.4563  0.0570 -0.5694
   11TCq1    O2  166   4.270   0.884  14.879  0.4548  0.3077  0.2015
   11TCq1    C2  167   4.389   0.771  14.708 -0.4683  0.5375  0.0390
   11TCq1    C3  168   4.493   0.686  14.683  0.2017  0.8513  0.2291
   11TCq1    C4  169   4.563   0.705  14.566  0.0293 -0.7266 -0.4343
   11TCq1    C5  170   4.522   0.779  14.465  0.1155 -1.4182  1.0889
   11TCq1    C6  171   4.404   0.849  14.480  0.2833  0.5487 -0.0602
   11TCq1    C7  172   4.345   0.853  14.603  0.4965  0.2891  1.2478
   11TCq1    C8  173   4.312   0.863  14.367  0.2775  0.4671  0.8187
   11TCq1    O4  174   4.228   0.951  14.389  0.8409 -0.2645 -0.0510
   11TCq1    C9  175   4.680   0.619  14.547 -0.2332  0.2189  0.0313
   11TCq1    O5  176   4.713   0.588  14.432 -0.3217 -0.0728 -1.1329
   11TCq1    O6  177   0.018   0.595  14.645  0.2909 -0.0343 -0.6318
   11TCq1    H1  178   4.525   0.724  14.889 -0.3057  0.2888 -0.7167
   11TCq1    H2  179   4.529   0.616  14.757 -1.9735  1.2827  1.7037
   11TCq1    H3  180   4.572   0.770  14.369 -0.9999  1.8829  0.1879
   11TCq1    H4  181   4.258   0.917  14.608 -0.2311 -0.7074  1.5358
   12MPD2     C  182   4.140   0.847  14.129  0.3436  1.0535  1.0305
   12MPD2    C1  183   4.238   0.757  14.164  0.0022 -0.5731 -0.8697
   12MPD2    C2  184   4.261   0.660  14.066  1.0457 -0.8111  0.5993
   12MPD2    C3  185   4.181   0.639  13.957  0.9110 -0.6603 -0.3606
   12MPD2    C4  186   4.082   0.728  13.930 -0.2074  0.6611 -0.2338
   12MPD2    C5  187   4.061   0.839  14.017  1.4178  0.3408  0.1306
   12MPD2     H  188   4.354   0.608  14.084  1.8685  0.4170 -0.1382
   12MPD2    H1  189   4.027   0.723  13.837  0.3331  1.8060 -0.6145
   12MPD2    H2  190   4.117   0.933  14.192 -3.9189 -0.2364  1.2605
   12MPD2    H3  191   3.997   0.915  13.974 -1.5848 -0.8073  2.5800
   12MPD2     N  192   4.199   0.526  13.861  0.2595  0.1824 -0.4080
   12MPD2    H5  193   4.145   0.524  13.775 -2.9033 -1.2573  1.6338
   12MPD2    N1  194   4.320   0.765  14.279  0.8505 -0.8942  0.4427
   12MPD2    H7  195   4.400   0.702  14.285  0.1149 -1.7618  1.1482
   13TCq1    O1  196   2.869   2.005  10.452 -0.4848  0.0358 -0.5022
   13TCq1    C1  197   2.974   2.019  10.368 -0.0096 -0.4408 -0.2840
   13TCq1    O2  198   2.976   2.093  10.269 -0.1513 -0.2758  0.4737
   13TCq1    C2  199   3.086   1.967  10.440 -1.0985 -0.3904 -0.5794
   13TCq1    C3  200   3.195   2.052  10.440  0.5799  0.0557  0.7321
   13TCq1    C4  201   3.292   2.025  10.528  0.3725 -0.0590 -0.2917
   13TCq1    C5  202   3.282   1.914  10.617  0.1283  0.1468  0.3916
   13TCq1    C6  203   3.172   1.837  10.621  0.3326 -0.5659 -1.0101
   13TCq1    C7  204   3.065   1.868  10.533 -0.1677  0.1012  0.2914
   13TCq1    C8  205   3.165   1.719  10.699  0.6495  0.2311 -0.3825
   13TCq1    O4  206   3.224   1.708  10.806 -0.0861 -0.6183  0.1442
   13TCq1    C9  207   3.404   2.109  10.519 -0.1949 -0.1305 -0.1424
   13TCq1    O5  208   3.404   2.195  10.431 -0.1224  0.9375  0.1215
   13TCq1    O6  209   3.484   2.102  10.617 -0.1009 -0.2432  0.5075
   13TCq1    H1  210   2.898   1.961  10.535  0.9958  1.5519 -0.2037
   13TCq1    H2  211   3.184   2.144  10.382 -3.3812 -0.1846  1.0953
   13TCq1    H3  212   3.362   1.906  10.690  1.2375  0.4768 -0.7859
   13TCq1    H4  213   2.978   1.805  10.525  0.1588 -0.7020  2.9846
   14MPD2     C  214   2.992   1.402  10.601 -0.2315  0.0020  0.7874
   14MPD2    C1  215   3.063   1.487  10.684 -0.5594 -0.2335 -0.7686
   14MPD2    C2  216   3.096   1.438  10.809 -0.0778 -0.0899 -0.5403
   14MPD2    C3  217   3.072   1.304  10.845  0.5595 -0.3688  0.2638
   14MPD2    C4  218   2.995   1.228  10.763 -0.2322  0.0744  0.1334
   14MPD2    C5  219   2.958   1.277  10.639 -0.1009  0.2895 -0.5983
   14MPD2     H  220   3.150   1.500  10.880 -2.0202 -0.2813  1.0971
   14MPD2    H1  221   2.959   1.129  10.789  0.0594  0.0978  0.6272
   14MPD2    H2  222   2.957   1.439  10.506  0.3893  0.2965  0.6723
   14MPD2    H3  223   2.895   1.208  10.584 -0.9658  1.3197 -0.9194
   14MPD2     N  224   3.125   1.258  10.970  0.1920 -0.1246  0.0591
   14MPD2    H5  225   3.195   1.315  11.016 -0.7991  1.4162 -0.3328
   14MPD2    N1  226   3.095   1.618  10.639 -0.0168 -0.2449  0.5042
   14MPD2    H7  227   3.054   1.636  10.548 -1.7413 -0.8749  1.1692
   15TCq1    O1  228   0.147   4.159   1.558 -0.0694 -0.4488  0.4034
   15TCq1    C1  229   0.219   4.222   1.455  0.2466 -0.7162  0.6161
   15TCq1    O2  230   0.187   4.250   1.342  0.0302 -0.1408  0.2409
   15TCq1    C2  231   0.356   4.204   1.494 -0.0902  0.1757 -0.1372
   15TCq1    C3  232   0.396   4.209   1.622 -0.6668 -0.6528  0.1994
   15TCq1    C4  233   0.531   4.194   1.649 -0.0735  0.6099  0.2167
   15TCq1    C5  234   0.619   4.150   1.551 -1.0059  0.4357 -0.5034
   15TCq1    C6  235   0.569   4.142   1.420 -0.1267  0.6866  0.1919
   15TCq1    C7  236   0.443   4.165   1.396  0.0584 -0.1073 -0.0622
   15TCq1    C8  237   0.651   4.079   1.319  0.9369 -0.4113 -0.3304
   15TCq1    O4  238   0.731   3.998   1.363  0.3743  0.1254 -0.5283
   15TCq1    C9  239   0.582   4.211   1.787 -0.4387 -0.3702  1.0694
   15TCq1    O5  240   0.703   4.199   1.806  0.1571  0.1174  0.4962
   15TCq1    O6  241   0.499   4.249   1.875 -0.4778 -0.5407 -0.3237
   15TCq1    H1  242   0.211   4.120   1.622  1.3784 -1.0403 -1.3994
   15TCq1    H2  243   0.325   4.229   1.702  1.1725  0.6966  1.4908
   15TCq1    H3  244   0.719   4.114   1.571 -0.9145  0.2543 -1.2732
   15TCq1    H4  245   0.400   4.148   1.297 -1.2421  1.2268  0.2824
   16MPD2     C  246   0.723   4.190   0.983 -0.5434  0.0504  0.5758
   16MPD2    C1  247   0.729   4.103   1.091  0.0565  0.2292 -0.1331
   16MPD2    C2  248   0.806   3.989   1.081 -0.5856  0.3408  0.4108
   16MPD2    C3  249   0.882   3.967   0.965 -0.1866  0.1819 -0.4294
   16MPD2    C4  250   0.861   4.048   0.853 -0.3694 -0.1942 -0.6382
   16MPD2    C5  251   0.781   4.158   0.867 -0.4829 -0.2683  0.1886
   16MPD2     H  252   0.806   3.917   1.162  0.3544  0.0647  0.1566
   16MPD2    H1  253   0.924   4.042   0.765 -1.0839  2.4842 -1.3337
   16MPD2    H2  254   0.649   4.269   0.981 -1.3664 -0.6868  2.2243
   16MPD2    H3  255   0.758   4.231   0.791  1.9131  0.5395  0.2449
   16MPD2     N  256   0.979   3.869   0.969 -0.4481  0.8505 -0.1206
   16MPD2    H5  257   0.992   3.818   1.056 -0.2078 -0.2542 -0.8114
   16MPD2    N1  258   0.648   4.144   1.206 -0.0323 -0.4724  0.1172
   16MPD2    H7  259   0.587   4.225   1.207 -0.4372 -0.7264 -2.4519
   17TMC1    C1  260   3.240   4.601  10.650 -0.3188 -0.6584 -1.0661
   17TMC1    C2  261   3.112   4.654  10.653  0.8355  0.6137  0.3388
   17TMC1    C3  262   3.044   4.663  10.770 -0.2020  0.2296 -0.1091
   17TMC1    C4  263   3.295   4.540  10.762 -0.3467 -0.0996 -0.5435
   17TMC1    C5  264   3.224   4.550  10.877 -0.3966  0.8072  0.7611
   17TMC1    C6  265   3.099   4.612  10.883  0.7430  0.3620  0.7246
   17TMC1     C  266   3.332   4.675  10.560  0.2753  0.2875 -0.6146
   17TMC1     O  267   3.288   4.719  10.453  0.2313 -0.0607 -0.2872
   17TMC1     H  268   3.059   4.665  10.559  0.9657 -0.3445  0.1570
   17TMC1    H1  269   3.386   4.482  10.767  0.1679  0.6700 -0.9445
   17TMC1    H2  270   3.036   4.600  10.970  0.1892  0.6755  0.3677
   17TMC1    C7  271   3.233   4.428  10.950  0.0871  0.1743  0.9909
   17TMC1    C8  272   2.914   4.607  10.749 -0.4499 -0.5048 -0.2040
   17TMC1    O1  273   3.265   4.321  10.892 -0.4402 -0.0263  0.4036
   17TMC1    O2  274   2.877   4.518  10.822  0.3449  0.0705  0.0591
   17TMC1    O3  275   3.188   4.447  11.075  0.0678  0.4564 -0.8834
   17TMC1    H3  276   3.191   4.542  11.102  1.6203  0.3317 -0.5745
   17TMC1    O5  277   2.849   4.708  10.690  0.2746  0.0954  0.5303
   17TMC1    H5  278   2.904   0.033  10.633  0.8118 -0.7768  0.1708
   18MPD2     C  279   3.556   0.087  10.424  0.0669 -0.2483 -0.4951
   18MPD2    C1  280   3.568   0.027  10.549  0.1890 -0.7143  0.2488
   18MPD2    C2  281   3.695   0.034  10.614  0.5505 -1.2623  0.0352
   18MPD2    C3  282   3.813   0.080  10.542  0.0480  0.2160 -0.4214
   18MPD2    C4  283   3.801   0.124  10.413 -0.2114  0.0413  0.1011
   18MPD2    C5  284   3.673   0.129  10.364 -0.2064 -0.3492  0.1815
   18MPD2     H  285   3.712   4.717  10.709 -1.1487 -0.7481  0.5954
   18MPD2    H1  286   3.883   0.169  10.357 -1.0645  0.9136 -0.4464
   18MPD2    H2  287   3.472   0.106  10.359  0.9761  1.1231 -1.2743
   18MPD2    H3  288   3.657   0.175  10.268 -0.0293 -0.4181  0.1202
   18MPD2     N  289   3.944   0.093  10.591  0.4341 -0.5284 -0.4383
   18MPD2    H5  290   4.018   0.114  10.524  3.1758 -0.4150  2.6283
   18MPD2    N1  291   3.461   4.690  10.614 -0.1362  0.4432  0.1040
   18MPD2    H7  292   3.474   4.649  10.706 -0.7083  1.7727  0.7698
   19TMC2    C1  293   0.952   0.626  14.217 -0.6270 -0.1744 -0.2450
   19TMC2    C2  294   0.964   0.691  14.104 -0.3177  0.0446  0.9083
   19TMC2    C3  295   0.867   0.661  14.013  0.4048  0.0748 -0.1454
   19TMC2    C4  296   0.871   0.519  14.242  0.4927  0.2982 -0.2695
   19TMC2    C5  297   0.785   0.484  14.136 -0.0693 -0.4454 -0.3990
   19TMC2    C6  298   0.792   0.544  14.015  0.1098 -0.1189  0.5054
   19TMC2     C  299   1.025   0.687  14.327  0.2175 -0.3053 -0.4926
   19TMC2     O  300   1.042   0.808  14.331  0.4583  0.8082  1.1425
   19TMC2     H  301   1.018   0.785  14.110  1.3021 -0.7251 -1.6074
   19TMC2    H1  302   0.852   0.472  14.337  1.8627 -0.6753 -0.4820
   19TMC2    H2  303   0.740   0.513  13.926  0.4452 -0.3883  0.4074
   19TMC2    C7  304   0.690   0.379  14.160 -0.6013 -0.5805 -0.4772
   19TMC2    C8  305   0.899   0.716  13.880  0.0481 -0.4814  0.1517
   19TMC2    O1  306   0.716   0.284  14.235 -0.4904 -0.7875  0.0030
   19TMC2    O2  307   0.889   0.634  13.792 -0.0590 -0.2281 -0.3918
   19TMC2    O5  308   0.837   0.837  13.874 -0.4150  0.7782 -0.4572
   19TMC2    H5  309   0.841   0.887  13.959  0.2245  1.1629 -0.7154
   20MPD2     C  310   1.165   0.750  14.584 -1.1502  0.8234  0.1888
   20MPD2    C1  311   1.163   0.621  14.527  0.1626  0.3954 -0.6177
   20MPD2    C2  312   1.240   0.511  14.581 -0.1966  0.0132 -0.3459
   20MPD2    C3  313   1.298   0.530  14.704  0.7792  0.8596  0.0067
   20MPD2    C4  314   1.283   0.654  14.767 -0.2313 -0.0812  0.3440
   20MPD2    C5  315   1.220   0.760  14.706  0.0161 -0.2190  0.4894
   20MPD2     H  316   1.235   0.413  14.533 -2.0193 -0.6717  1.2279
   20MPD2    H1  317   1.330   0.681  14.861 -2.3973  4.6893  0.0539
   20MPD2    H2  318   1.107   0.832  14.543 -0.9662 -0.5786 -2.9217
   20MPD2    H3  319   1.215   0.860  14.745 -0.1150 -0.2281  0.4970
   20MPD2     N  320   1.376   0.440  14.778  0.0883 -0.4392  0.2519
   20MPD2    H5  321   1.403   0.469  14.871  0.7921  1.0879 -0.4191
   20MPD2    N1  322   1.088   0.589  14.403 -0.6267 -0.4339 -0.3028
   20MPD2    H7  323   1.079   0.490  14.379  0.2967 -0.8475  1.0125
   21TMC2    C1  324   3.246   0.414  14.714  0.2242 -0.1410 -0.1516
   21TMC2    C2  325   3.302   0.331  14.808 -0.5343 -0.2677  0.5985
   21TMC2    C3  326   3.228   0.299  14.921 -0.2058  0.0203  0.2819
   21TMC2    C4  327   3.120   0.472  14.724  0.5088  0.1766  0.5350
   21TMC2    C5  328   3.054   0.441  14.837  0.8134  0.0645  0.2291
   21TMC2    C6  329   3.109   0.356  14.933 -0.9386 -0.3411 -0.5252
   21TMC2     C  330   3.322   0.451  14.594  0.7058  0.1907  0.3781
   21TMC2     O  331   3.442   0.449  14.623 -0.0173  0.4067 -0.6196
   21TMC2     H  332   3.408   0.313  14.795 -0.2638  2.9030 -1.6177
   21TMC2    H1  333   3.082   0.545  14.654 -0.3147 -0.4158  0.3581
   21TMC2    H2  334   3.053   0.335  15.023 -1.6470  1.6840 -0.4966
   21TMC2    C7  335   2.930   0.503  14.882 -0.4385 -0.0020 -0.5128
   21TMC2    C8  336   3.296   0.267  15.040  0.9264  0.1204  0.3307
   21TMC2    O1  337   2.891   0.481  14.994 -0.2608  0.0093  0.6032
   21TMC2    O2  338   3.266   0.302  15.151  0.4578 -0.7401 -0.2595
   21TMC2    O5  339   3.380   0.166  15.012  0.3351  0.7993  0.5375
   21TMC2    H5  340   3.380   0.148  14.916  1.3671 -0.4733  0.7774
   22MPD2     C  341   3.392   0.594  14.102  0.4647  0.2124  0.6702
   22MPD2    C1  342   3.479   0.589  14.209 -0.7261 -0.3114 -0.7526
   22MPD2    C2  343   3.433   0.555  14.336 -0.3580  0.2449 -0.0920
   22MPD2    C3  344   3.301   0.531  14.361  1.0868  0.3911  0.2455
   22MPD2    C4  345   3.213   0.534  14.254 -0.0495 -0.4133 -0.6439
   22MPD2    C5  346   3.260   0.565  14.126 -0.1782  0.1144  0.8303
   22MPD2     H  347   3.507   0.566  14.415 -0.3500 -1.7566  0.1793
   22MPD2    H1  348   3.108   0.511  14.267 -0.9793  2.1007 -3.7228
   22MPD2    H2  349   3.421   0.609  13.999  2.2210 -0.4399  1.0625
   22MPD2    H3  350   3.198   0.570  14.038 -1.4354 -1.7529  1.6124
   22MPD2     N  351   3.249   0.482  14.483 -0.3482 -0.0660  0.0162
   22MPD2    H5  352   3.149   0.461  14.487 -0.2943  0.0528  2.2874
   22MPD2    N1  353   3.619   0.624  14.198  0.2597 -0.2755 -0.0233
   22MPD2    H7  354   3.667   0.634  14.287 -0.9783  0.3449  0.5702
   23TMC2    C1  355   4.107   1.654  14.296  0.0724  0.5069 -0.1852
   23TMC2    C2  356   4.097   1.790  14.267  0.0975 -0.6759  0.0100
   23TMC2    C3  357   3.973   1.845  14.267  0.3389 -0.0182  0.4841
   23TMC2    C4  358   3.992   1.585  14.335 -0.2979  0.1664 -0.0581
   23TMC2    C5  359   3.877   1.658  14.348  0.4441 -0.1149  0.1714
   23TMC2    C6  360   3.861   1.782  14.302  0.1576  0.3884  0.4807
   23TMC2     C  361   4.232   1.592  14.338 -0.6226  0.1932 -0.0130
   23TMC2     O  362   4.236   1.504  14.421  0.8625  0.1588 -0.8236
   23TMC2     H  363   4.184   1.852  14.245  0.2605 -0.4715  1.2807
   23TMC2    H1  364   4.007   1.480  14.354 -0.1589  0.2827  0.4683
   23TMC2    H2  365   3.767   1.830  14.276 -0.5772 -0.7230  1.0444
   23TMC2    C7  366   3.760   1.586  14.388  0.2000  0.3468 -0.2439
   23TMC2    C8  367   3.960   1.981  14.213 -0.1511 -0.8251 -0.3603
   23TMC2    O1  368   3.754   1.463  14.365  0.4310 -0.5759 -0.2530
   23TMC2    O2  369   4.035   2.019  14.124  0.1930  0.6868 -0.1179
   23TMC2    O5  370   3.853   2.044  14.261 -0.2211  0.4787  0.0259
   23TMC2    H5  371   3.797   1.998  14.327  2.2132 -0.5140  1.4070
   24MPD2     C  372   0.003   1.549  14.331  0.5506 -0.5618 -0.4982
   24MPD2    C1  373   4.653   1.562  14.440  0.3819  0.6841 -0.1101
   24MPD2    C2  374   4.522   1.603  14.427  0.5627 -0.4899  0.7708
   24MPD2    C3  375   4.470   1.629  14.299  0.3023  0.0117 -0.1825
   24MPD2    C4  376   4.554   1.624  14.196 -0.0785 -0.1919  0.1519
   24MPD2    C5  377   4.685   1.580  14.210  0.6788  0.0169  0.0644
   24MPD2     H  378   4.456   1.600  14.513 -0.5987 -1.7714 -0.1700
   24MPD2    H1  379   4.517   1.646  14.097 -1.4603  2.0648  1.1604
   24MPD2    H2  380   0.107   1.520  14.338  0.6006 -0.4936 -0.9151
   24MPD2    H3  381   0.014   1.578  14.120  1.3567 -0.9170  0.5482
   24MPD2     N  382   4.336   1.648  14.266  0.2596 -0.3359 -0.5115
   24MPD2    H5  383   4.312   1.692  14.178  4.0771  0.3519 -1.2134
   24MPD2    N1  384   4.686   1.544  14.579  0.0810 -0.0541 -0.1320
   24MPD2    H7  385   4.613   1.572  14.644 -0.4779  1.5966 -1.4942
   25TMC2    C1  386   3.097   4.431  11.707 -0.1513  0.7201 -0.6942
   25TMC2    C2  387   3.094   4.565  11.677 -0.3760 -0.5536 -0.0229
   25TMC2    C3  388   3.036   4.643  11.774  0.1616 -0.1183 -0.0477
   25TMC2    C4  389   3.016   4.379  11.794 -0.2861  0.0556  0.2431
   25TMC2    C5  390   2.949   4.458  11.888 -0.1843  0.2765  0.8678
   25TMC2    C6  391   2.969   4.592  11.881 -0.8915  0.0257  1.0382
   25TMC2     C  392   3.144   4.335  11.609  0.1189 -0.5394  0.1554
   25TMC2     O  393   3.101   4.221  11.632 -0.3580  0.4702 -0.1204
   25TMC2     H  394   3.154   4.595  11.592  0.9793  0.3552  1.2369
   25TMC2    H1  395   3.011   4.271  11.808  2.2209 -0.0092  0.6959
   25TMC2    H2  396   2.931   4.653  11.962 -0.7218 -0.1384  1.2404
   25TMC2    C7  397   2.896   4.381  12.000 -0.1074 -0.6953  0.2521
   25TMC2    C8  398   3.004   0.049  11.730 -0.5074  0.4873 -0.4731
   25TMC2    O1  399   2.945   4.270  12.013 -0.3824  0.2695 -0.6130
   25TMC2    O2  400   3.086   0.099  11.655 -0.4826  0.0823  0.2325
   25TMC2    O5  401   2.928   0.108  11.828  0.1481 -0.3340  0.0054
   25TMC2    H5  402   2.856   0.048  11.855  1.0352 -1.4012  0.0173
   26MPD2     C  403   3.408   4.113  11.236 -0.3001  0.6003  0.0358
   26MPD2    C1  404   3.286   4.089  11.287  0.0906  0.4534  0.4677
   26MPD2    C2  405   3.218   4.178  11.372 -0.7158  0.0001 -0.0159
   26MPD2    C3  406   3.285   4.289  11.414  0.4801  0.1613  0.1905
   26MPD2    C4  407   3.404   4.314  11.365 -0.0352 -0.0967 -0.0989
   26MPD2    C5  408   3.471   4.225  11.280 -0.4592  0.7569  0.5611
   26MPD2     H  409   3.116   4.162  11.403 -0.4962 -2.1642 -0.3846
   26MPD2    H1  410   3.449   4.408  11.395  1.0386 -0.0254 -1.9285
   26MPD2    H2  411   3.460   4.042  11.172  1.1035 -0.1639  2.0381
   26MPD2    H3  412   3.566   4.254  11.235 -0.6765  0.8991  0.1898
   26MPD2     N  413   3.239   4.376  11.517  0.6686 -0.3483  0.6216
   26MPD2    H5  414   3.282   4.468  11.521 -0.8129  0.3334  0.9912
   26MPD2    N1  415   3.222   3.971  11.239 -0.8190  0.9000 -0.3120
   26MPD2    H7  416   3.267   3.918  11.165 -0.4833 -0.5946  0.9839
   27TMC2    C1  417   2.375   1.696  12.067  0.6462  0.3071  0.1423
   27TMC2    C2  418   2.431   1.799  11.989 -0.1840 -0.1396  1.1603
   27TMC2    C3  419   2.476   1.916  12.043  0.6241 -0.3619  0.2222
   27TMC2    C4  420   2.366   1.723  12.202 -0.5040  0.0733  0.7512
   27TMC2    C5  421   2.409   1.845  12.251 -0.7422 -1.1129  0.0048
   27TMC2    C6  422   2.460   1.945  12.174 -0.7402 -0.2254  0.3014
   27TMC2     C  423   2.248   1.654  12.004  0.3014  0.7129 -0.1644
   27TMC2     O  424   2.238   1.639  11.884 -0.1912  0.0511 -0.1157
   27TMC2     H  425   2.450   1.789  11.882  0.8734  0.9921  1.2462
   27TMC2    H1  426   2.340   1.644  12.272  2.6969 -1.3684  0.3043
   27TMC2    H2  427   2.504   2.030  12.226 -1.4152  0.8197 -0.8090
   27TMC2    C7  428   2.377   1.873  12.396 -0.3366  0.0274  0.2462
   27TMC2    C8  429   2.556   2.013  11.966 -0.2250  0.5427  0.2353
   27TMC2    O1  430   2.348   1.775  12.463 -0.0270 -0.6227  0.1888
   27TMC2    O2  431   2.514   2.061  11.862 -0.3459  0.0409  0.3341
   27TMC2    O5  432   2.637   2.080  12.051 -0.2771  0.1019 -0.6060
   27TMC2    H5  433   2.673   2.031  12.128  0.5071  0.8667 -0.4877
   28MPD2     C  434   1.750   1.518  12.056 -0.7663 -0.4712  0.2388
   28MPD2    C1  435   1.807   1.542  12.179 -0.4699  0.2390 -0.0245
   28MPD2    C2  436   1.943   1.569  12.187  0.3713  0.3038 -0.0898
   28MPD2    C3  437   2.020   1.583  12.076  0.1739 -0.3103 -1.2179
   28MPD2    C4  438   1.962   1.559  11.947  0.1925  0.3790  0.1965
   28MPD2    C5  439   1.829   1.525  11.941  0.3063  0.0400 -1.1128
   28MPD2     H  440   1.982   1.580  12.288  0.6886 -0.7483 -0.0970
   28MPD2    H1  441   2.025   1.568  11.859  2.0326 -1.3352  1.3540
   28MPD2    H2  442   1.645   1.492  12.044 -1.1442  0.8631  0.5621
   28MPD2    H3  443   1.784   1.505  11.844 -0.5837 -1.0082 -0.4902
   28MPD2     N  444   2.153   1.623  12.095  1.0557  0.2551  0.2069
   28MPD2    H5  445   2.185   1.634  12.191 -0.1981 -0.4317  0.6996
   28MPD2    N1  446   1.724   1.528  12.292 -0.4148 -0.6224  0.0182
   28MPD2    H7  447   1.634   1.483  12.278 -1.0849  0.5292  0.6921
   29TMC2    C1  448   1.752   3.872  14.717 -0.0974  0.2923  0.6561
   29TMC2    C2  449   1.780   3.866  14.853  0.0156  0.0067  0.0797
   29TMC2    C3  450   1.760   3.984  14.918  0.4479 -0.3214 -0.0828
   29TMC2    C4  451   1.720   3.990  14.657 -0.0536 -0.0471  0.2069
   29TMC2    C5  452   1.698   4.098  14.733 -0.7044  0.5400 -0.3472
   29TMC2    C6  453   1.713   4.097  14.868 -0.2138  0.0922  0.7582
   29TMC2     C  454   1.715   3.742  14.665 -0.1850 -0.3184  1.0161
   29TMC2     O  455   1.764   3.640  14.709 -0.4264 -0.2206  0.3303
   29TMC2     H  456   1.808   3.773  14.901 -0.4079  0.4530  1.1956
   29TMC2    H1  457   1.700   4.003  14.552 -1.5448 -1.2444  0.3428
   29TMC2    H2  458   1.700   4.187  14.927 -2.9762 -0.2034  0.5979
   29TMC2    C7  459   1.692   4.227  14.662  0.1928  0.2199 -0.1408
   29TMC2    C8  460   1.783   3.977  15.064  0.0064 -0.2380 -0.8357
   29TMC2    O1  461   1.661   4.225  14.546 -0.2057  0.4492 -0.0374
   29TMC2    O2  462   1.731   3.900  15.141 -0.3766  0.0678 -0.0596
   29TMC2    O5  463   1.879   4.074  15.087  0.1457 -0.5801  0.1345
   29TMC2    H5  464   1.911   4.125  15.010  1.5330 -1.0456  0.4052
   30MPD2     C  465   1.511   3.465  14.289  0.2887 -0.0052  0.6136
   30MPD2    C1  466   1.603   3.433  14.388  0.5482  0.4292 -0.4952
   30MPD2    C2  467   1.644   3.531  14.472 -0.3205  0.1377 -0.2611
   30MPD2    C3  468   1.591   3.660  14.478 -0.1287 -0.5802  0.0096
   30MPD2    C4  469   1.492   3.685  14.386  0.5335 -0.1822  0.1078
   30MPD2    C5  470   1.459   3.593  14.287 -0.4172 -0.2383  0.1518
   30MPD2     H  471   1.725   3.501  14.538 -1.4959  0.2888  1.2490
   30MPD2    H1  472   1.454   3.786  14.374 -0.7219 -0.5205  1.1940
   30MPD2    H2  473   1.494   3.394  14.210  0.0719 -0.0437  0.6938
   30MPD2    H3  474   1.391   3.629  14.211 -1.3865 -0.9535  0.6898
   30MPD2     N  475   1.632   3.759  14.562  0.3328  0.0645 -0.0093
   30MPD2    H5  476   1.594   3.851  14.540  1.8252  0.5809 -0.4417
   30MPD2    N1  477   1.672   3.311  14.387 -0.6707 -0.4527 -0.0160
   30MPD2    H7  478   1.749   3.305  14.453 -0.9645  0.4880  0.4230
   31TMC2    C1  479   4.446   2.829  15.194  0.3259 -0.3775 -0.5788
   31TMC2    C2  480   4.344   2.745  15.234 -0.8951  0.4818  0.2243
   31TMC2    C3  481   4.375   2.645  15.321 -0.3823  0.6730 -0.7484
   31TMC2    C4  482   4.578   2.810  15.236 -0.3646  0.7721 -0.5946
   31TMC2    C5  483   4.607   2.697  15.313 -1.0037  0.4742 -0.0999
   31TMC2    C6  484   4.506   2.620  15.365 -0.0800 -1.4154  0.1052
   31TMC2     C  485   4.428   2.930  15.090  0.1809  0.0629 -0.3489
   31TMC2     O  486   4.336   2.919  15.011  0.9156 -0.1938 -0.1021
   31TMC2     H  487   4.242   2.762  15.200 -0.5101  0.5362 -0.8777
   31TMC2    H1  488   4.661   2.869  15.199 -1.0746  2.4016  0.4121
   31TMC2    H2  489   4.528   2.538  15.433  2.9996 -2.2699 -1.9622
   31TMC2    C7  490   0.003   2.626  15.304  0.1920 -0.8577 -0.4061
   31TMC2    C8  491   4.266   2.594  15.398 -0.6042  0.3120  0.0111
   31TMC2    O1  492   0.006   2.506  15.313  0.2110  0.4260  0.9909
   31TMC2    O2  493   4.177   2.662  15.445 -0.4595 -0.4217  0.1364
   31TMC2    O5  494   4.285   2.458  15.407  0.2572 -0.6043 -0.2082
   31TMC2    H5  495   4.348   2.423  15.340 -1.4517  0.9321 -2.6469
   32MPD2     C  496   4.582   3.333  14.811  0.2704 -0.0063 -0.1415
   32MPD2    C1  497   4.510   3.221  14.772 -0.1046  0.3004  0.2298
   32MPD2    C2  498   4.499   3.111  14.856  0.4148  0.1332 -0.0471
   32MPD2    C3  499   4.536   3.131  14.988  0.2741 -0.0914 -0.3041
   32MPD2    C4  500   4.604   3.246  15.030  0.4188 -0.0758 -0.8662
   32MPD2    C5  501   4.629   3.342  14.939 -0.0123  0.4946 -0.3919
   32MPD2     H  502   4.461   3.017  14.818  1.7842 -0.2204 -0.5261
   32MPD2    H1  503   4.630   3.261  15.134  1.0731  0.8964 -1.1735
   32MPD2    H2  504   4.619   3.410  14.744  0.6022  0.8027  0.9872
   32MPD2    H3  505   4.699   3.423  14.958  0.2475  0.0667  0.4842
   32MPD2     N  506   4.523   3.030  15.087 -0.3868  0.3038  0.0966
   32MPD2    H5  507   4.569   3.035  15.178  1.8983 -0.3864 -1.0064
   32MPD2    N1  508   4.485   3.220  14.634 -0.0219 -0.2355 -0.0581
   32MPD2    H7  509   4.520   3.298  14.579 -1.6536 -1.2509 -2.5187
   33TMC2    C1  510   4.409   0.839  10.115 -0.0082  0.4847 -0.5987
   33TMC2    C2  511   4.282   0.836  10.061  0.9054  0.0818  0.3615
   33TMC2    C3  512   4.261   0.929   9.962 -0.7136  0.5031  0.4397
   33TMC2    C4  513   4.505   0.931  10.082  0.1967  0.3268  0.7228
   33TMC2    C5  514   4.484   1.010   9.972  0.2419 -1.0220 -0.0708
   33TMC2    C6  515   4.356   1.013   9.912 -0.3327 -0.4317 -0.4295
   33TMC2     C  516   4.415   0.763  10.241  0.1134 -0.0230  0.1810
   33TMC2     O  517   4.308   0.724  10.285  0.2048  0.2095 -0.0587
   33TMC2     H  518   4.199   0.781  10.104 -0.3665  1.6946 -0.0438
   33TMC2    H1  519   4.607   0.909  10.110  0.5934  0.7299 -0.3836
   33TMC2    H2  520   4.338   1.063   9.817 -0.8789 -1.1232 -0.6909
   33TMC2    C7  521   4.585   1.102   9.932 -0.4577  0.2552  0.2769
   33TMC2    C8  522   4.124   0.971   9.941 -0.4901  0.4780 -1.3621
   33TMC2    O1  523   4.643   1.155  10.027 -0.2590 -0.1164  0.3323
   33TMC2    O2  524   4.029   0.895   9.957  0.2698  0.5310  0.2578
   33TMC2    O5  525   4.124   1.099   9.901 -0.2045 -0.3377  0.3275
   33TMC2    H5  526   4.205   1.143   9.934 -0.0746  1.0904 -1.9368
   34MPD2     C  527   4.657   0.572  10.661 -0.2171 -0.3861 -0.4136
   34MPD2    C1  528   4.536   0.527  10.602 -0.3062 -0.1203  0.5172
   34MPD2    C2  529   4.492   0.598  10.490  0.3707 -0.4344 -0.2491
   34MPD2    C3  530   4.566   0.700  10.436  0.0831 -0.2401 -0.3555
   34MPD2    C4  531   4.689   0.730  10.491  0.0388 -0.3616  0.0545
   34MPD2    C5  532   4.728   0.671  10.605 -0.0211 -0.2532 -0.0781
   34MPD2     H  533   4.401   0.572  10.436  0.4554 -3.8554  1.2395
   34MPD2    H1  534   0.021   0.806  10.448  0.9932 -1.1872  0.0293
   34MPD2    H2  535   4.704   0.531  10.750 -0.3380  0.0280 -0.1545
   34MPD2    H3  536   0.096   0.691  10.642 -0.2599  0.2628  0.2886
   34MPD2     N  537   4.541   0.763  10.310  0.3915 -0.4751  0.1368
   34MPD2    H5  538   4.609   0.830  10.275  0.2304  1.6068  3.7458
   34MPD2    N1  539   4.469   0.413  10.666  0.8164 -0.2558  0.0856
   34MPD2    H7  540   4.513   0.370  10.746  2.6958  0.5124 -0.5346
   35TMC2    C1  541   0.148   1.702  11.362  0.2347 -0.0647 -0.5796
   35TMC2    C2  542   0.078   1.736  11.249  0.1651  0.0495 -0.1986
   35TMC2    C3  543   4.681   1.693  11.233 -0.3863 -0.3517 -0.2636
   35TMC2    C4  544   0.090   1.631  11.469  0.1421 -0.6166  0.0498
   35TMC2    C5  545   4.694   1.579  11.445  0.3973  0.0524  0.6669
   35TMC2    C6  546   4.623   1.617  11.332  0.0876  0.4040 -0.2823
   35TMC2     C  547   0.280   1.769  11.379 -0.6324 -0.5518  0.5774
   35TMC2     O  548   0.296   1.875  11.322  0.1306  0.4369  0.0066
   35TMC2     H  549   0.117   1.808  11.179  1.9953  0.7288  1.5246
   35TMC2    H1  550   0.141   1.592  11.556  2.1108  0.4929 -0.6206
   35TMC2    H2  551   4.527   1.570  11.311  0.8880 -1.5363  0.4077
   35TMC2    C7  552   4.661   1.460  11.522  0.5370 -0.1542  0.0479
   35TMC2    C8  553   4.592   1.793  11.171  0.5929 -0.2633  1.0287
   35TMC2    O1  554   4.714   1.441  11.631  0.5574  0.6543 -0.0477
   35TMC2    O2  555   4.475   1.812  11.211  0.3354 -0.3533  0.2131
   35TMC2    O5  556   4.642   1.861  11.068 -0.2134  0.5332 -0.0879
   35TMC2    H5  557   4.726   1.819  11.037  0.6516  2.8218 -0.8254
   36MPD2     C  558   0.756   1.815  11.568  1.0078 -0.2576 -0.3756
   36MPD2    C1  559   0.699   1.691  11.600 -0.2601  0.2411 -0.8304
   36MPD2    C2  560   0.569   1.652  11.566 -0.6901 -0.1545 -0.0496
   36MPD2    C3  561   0.493   1.745  11.500  0.3628 -0.7913  0.7933
   36MPD2    C4  562   0.544   1.873  11.474  0.2655  0.5429 -1.0975
   36MPD2    C5  563   0.673   1.900  11.504 -0.6245 -1.0956  1.1204
   36MPD2     H  564   0.526   1.557  11.597  1.1113 -1.3600 -1.1961
   36MPD2    H1  565   0.483   1.951  11.430 -2.8035 -0.6922  1.0126
   36MPD2    H2  566   0.854   1.851  11.597  1.1273 -1.2314  0.4511
   36MPD2    H3  567   0.728   1.991  11.482 -1.9941 -0.9706 -1.7584
   36MPD2     N  568   0.363   1.704  11.465 -0.1793  0.2818 -0.9113
   36MPD2    H5  569   0.340   1.618  11.514  2.0503  0.1325 -0.1328
   36MPD2    N1  570   0.781   1.615  11.686 -0.5990 -0.1219  0.0043
   36MPD2    H7  571   0.864   1.670  11.710 -0.8541 -0.1893  1.0475
   37TMC2    C1  572   3.356   2.421  11.864 -0.3656 -0.0561  0.3374
   37TMC2    C2  573   3.327   2.449  11.732 -0.3518 -0.9049  0.3225
   37TMC2    C3  574   3.432   2.479  11.645 -0.2832 -0.3855  0.0000
   37TMC2    C4  575   3.483   2.435  11.910  0.3368 -0.4103 -0.6203
   37TMC2    C5  576   3.583   2.448  11.816 -0.1399  0.3586 -0.0256
   37TMC2    C6  577   3.560   2.478  11.682  0.1394 -0.9225 -0.2978
   37TMC2     C  578   3.259   2.351  11.947 -0.0278 -0.2584  0.3083
   37TMC2     O  579   3.141   2.351  11.918 -0.2456 -0.4333 -0.4890
   37TMC2     H  580   3.228   2.434  11.691  0.1364  0.8270 -1.4845
   37TMC2    H1  581   3.502   2.426  12.017  0.7234 -3.0601 -0.8971
   37TMC2    H2  582   3.638   2.489  11.607  0.2770  1.2822  0.1786
   37TMC2    C7  583   3.715   2.454  11.867  1.3434  0.2899  0.0072
   37TMC2    C8  584   3.404   2.539  11.518 -0.2085 -0.5646  0.2391
   37TMC2    O1  585   3.735   2.414  11.979  0.3278  0.0728  0.3256
   37TMC2    O2  586   3.286   2.544  11.478  0.0067 -0.1464  0.2138
   37TMC2    O5  587   3.473   2.643  11.520  0.2285  0.1410  0.0676
   37TMC2    H5  588   3.565   2.637  11.555 -0.0342  1.1185  0.9359
   38MPD2     C  589   3.143   2.081  12.380 -0.2256  0.2192  0.1753
   38MPD2    C1  590   3.266   2.044  12.337  0.6910  0.2575  0.3135
   38MPD2    C2  591   3.318   2.108  12.225 -0.3536 -0.7101  0.5836
   38MPD2    C3  592   3.252   2.207  12.153 -0.2434 -0.5730 -0.7232
   38MPD2    C4  593   3.122   2.235  12.192  0.3552  0.1916  1.3357
   38MPD2    C5  594   3.076   2.182  12.307  0.9504 -0.0333 -0.6220
   38MPD2     H  595   3.414   2.083  12.183 -0.4940  0.6871 -0.5879
   38MPD2    H1  596   3.055   2.305  12.145 -1.5036 -0.8258  2.4787
   38MPD2    H2  597   3.096   2.044  12.471  1.4633  3.1414  2.2644
   38MPD2    H3  598   2.978   2.207  12.347  1.6531  1.5326  0.1308
   38MPD2     N  599   3.316   2.272  12.048  0.1183 -0.0752  0.4470
   38MPD2    H5  600   3.412   2.246  12.028 -0.7184 -0.5936 -2.9125
   38MPD2    N1  601   3.346   1.955  12.402  0.0260 -0.8772 -0.5039
   38MPD2    H7  602   3.439   1.942  12.364  0.7734 -0.7589  1.2490
   39TMC2    C1  603   1.721   3.633   1.479 -0.3734  0.3767  0.3839
   39TMC2    C2  604   1.648   3.722   1.559 -0.0376 -0.1144 -0.6704
   39TMC2    C3  605   1.718   3.811   1.638 -0.3578 -0.6025  0.4003
   39TMC2    C4  606   1.854   3.648   1.459 -0.0042  0.0530 -0.8297
   39TMC2    C5  607   1.915   3.753   1.527  0.0532  0.5994  1.3736
   39TMC2    C6  608   1.850   3.837   1.619 -0.0979  0.6648  0.0593
   39TMC2     C  609   1.644   3.565   1.377 -0.4363 -0.1059  0.0907
   39TMC2     O  610   1.533   3.610   1.357 -0.5039  0.0982  0.1151
   39TMC2     H  611   1.540   3.712   1.560 -0.0516  0.0069 -1.3466
   39TMC2    H1  612   1.898   3.606   1.369 -0.3727 -2.2350  0.0717
   39TMC2    H2  613   1.900   3.916   1.674 -1.8200  0.5216  1.8290
   39TMC2    C7  614   2.054   3.776   1.528  0.4768  0.2768  0.0440
   39TMC2    C8  615   1.650   3.866   1.758  0.7246 -0.3417  0.0207
   39TMC2    O1  616   2.098   3.883   1.566  0.1805 -0.2023  0.1993
   39TMC2    O2  617   1.697   3.876   1.873 -0.5130  0.2818  0.1862
   39TMC2    O5  618   1.546   3.937   1.712 -0.2545  0.3075  0.5383
   39TMC2    H5  619   1.526   3.917   1.618 -2.7937  1.1415  0.8799
   40MPD2     C  620   1.733   3.252   1.188 -1.0045  0.0414  0.3663
   40MPD2    C1  621   1.651   3.353   1.232 -0.1487 -0.7068  0.5925
   40MPD2    C2  622   1.528   3.366   1.166  0.3556 -0.0306  0.0679
   40MPD2    C3  623   1.478   3.271   1.078 -0.0473 -0.3811  0.3062
   40MPD2    C4  624   1.555   3.163   1.049  0.2229  0.1217  0.1353
   40MPD2    C5  625   1.681   3.156   1.101 -0.2456  1.2085 -0.3036
   40MPD2     H  626   1.466   3.451   1.195  0.9737 -0.0604  1.4922
   40MPD2    H1  627   1.520   3.097   0.970 -1.1454  0.5804  0.3654
   40MPD2    H2  628   1.835   3.238   1.222 -0.3394 -0.1108 -1.6731
   40MPD2    H3  629   1.752   3.081   1.066 -1.1044  0.6820 -0.9332
   40MPD2     N  630   1.346   3.272   1.013  0.4835  0.7927 -0.3693
   40MPD2    H5  631   1.303   3.191   0.970  0.5971 -1.3944  3.6479
   40MPD2    N1  632   1.706   3.448   1.328  0.0961 -0.6320  0.0556
   40MPD2    H7  633   1.794   3.418   1.369 -0.6667 -2.1293  0.5921
   41TMC2    C1  634   0.232   0.974  13.827 -0.2301 -0.2033 -0.2144
   41TMC2    C2  635   0.230   0.861  13.763  0.0442  0.4266  0.3472
   41TMC2    C3  636   0.264   0.867  13.633 -0.0048  1.1065  0.2649
   41TMC2    C4  637   0.273   1.094  13.770 -0.0116 -0.0474  0.0416
   41TMC2    C5  638   0.288   1.102  13.638  0.7410  0.8177 -0.4124
   41TMC2    C6  639   0.287   0.984  13.568 -0.0497  0.2037 -0.0603
   41TMC2     C  640   0.221   0.975  13.975  0.0003 -0.3936 -0.1265
   41TMC2     O  641   0.135   0.899  14.025  0.3409  0.5386 -0.8436
   41TMC2     H  642   0.216   0.765  13.810 -0.7143 -0.1272 -0.9995
   41TMC2    H1  643   0.262   1.189  13.821  1.1516 -1.0078  2.0849
   41TMC2    H2  644   0.310   0.975  13.462 -1.3762 -0.7855 -0.2707
   41TMC2    C7  645   0.382   1.197  13.594 -0.5661 -0.2111 -0.3159
   41TMC2    C8  646   0.305   0.744  13.566 -0.1985 -0.3626  0.0497
   41TMC2    O1  647   0.439   1.251  13.691  0.7368  0.6288 -0.3163
   41TMC2    O2  648   0.412   0.739  13.510  0.5742 -0.1856 -0.3662
   41TMC2    O5  649   0.212   0.649  13.575  0.8317  0.0497  0.2737
   41TMC2    H5  650   0.127   0.670  13.620 -1.0914 -0.4945 -3.0944
   42MPD2     C  651   0.281   0.992  14.259 -0.4061  0.1047 -0.7385
   42MPD2    C1  652   0.353   1.051  14.163  0.0691 -0.9157  0.1588
   42MPD2    C2  653   0.472   1.120  14.199 -0.4890 -0.0286 -0.4051
   42MPD2    C3  654   0.518   1.126  14.330 -0.0369 -1.0039  0.0030
   42MPD2    C4  655   0.448   1.046  14.424  0.0161  0.3468 -0.3202
   42MPD2    C5  656   0.328   1.000  14.389 -0.7328 -0.0920 -0.0645
   42MPD2     H  657   0.535   1.159  14.119  1.9592 -1.5491  0.7965
   42MPD2    H1  658   0.467   1.016  14.526 -1.6154 -2.3944 -0.8253
   42MPD2    H2  659   0.192   0.931  14.248 -1.3186  1.1598  0.8843
   42MPD2    H3  660   0.275   0.944  14.465 -0.7043  2.1052  1.5970
   42MPD2     N  661   0.638   1.185  14.373  0.5219 -0.5741  0.1060
   42MPD2    H5  662   0.656   1.161  14.470 -1.0134 -1.3762  0.1934
   42MPD2    N1  663   0.337   1.036  14.028  0.1652  0.0091 -0.1562
   42MPD2    H7  664   0.408   1.069  13.964 -0.5484 -1.3784 -1.6603
   43TMC2    C1  665   1.834   0.048   0.826  0.5768  0.0632  0.6713
   43TMC2    C2  666   1.754   0.153   0.863 -0.2903 -0.2774  0.2810
   43TMC2    C3  667   1.762   0.199   0.990 -1.1362  0.2047  0.1716
   43TMC2    C4  668   1.914   4.722   0.927 -0.0084  1.3849 -0.0003
   43TMC2    C5  669   1.922   0.048   1.044 -0.2068 -0.9160  0.1045
   43TMC2    C6  670   1.848   0.151   1.084 -0.1189  0.1317 -0.3813
   43TMC2     C  671   1.853   0.001   0.686  0.1640  0.5275  0.0363
   43TMC2     O  672   1.961   4.683   0.660  0.4565  0.1122  0.2630
   43TMC2     H  673   1.688   0.197   0.789 -0.8942 -0.5950  0.6278
   43TMC2    H1  674   1.983   4.642   0.901 -1.2627  0.6408 -1.0187
   43TMC2    H2  675   1.849   0.198   1.182 -1.7411  2.4615 -1.4771
   43TMC2    C7  676   2.045   0.014   1.121  0.3931 -0.8153  0.2694
   43TMC2    C8  677   1.710   0.332   1.000 -0.2675 -0.4494  0.5581
   43TMC2    O1  678   2.102   4.648   1.088 -0.4277  0.2757 -0.1767
   43TMC2    O2  679   1.600   0.360   0.957 -0.4228 -0.3752 -0.4583
   43TMC2    O5  680   1.791   0.403   1.080 -0.4682 -0.7312  0.4954
   43TMC2    H5  681   1.872   0.356   1.112 -1.3071 -0.1889  3.3727
   44MPD2     C  682   1.731   4.639   0.196  0.3111  0.1518 -0.3513
   44MPD2    C1  683   1.837   4.597   0.272  0.0421 -0.6824  1.2166
   44MPD2    C2  684   1.836   4.630   0.403  0.4975  0.3060  0.4383
   44MPD2    C3  685   1.739   4.709   0.462 -0.0008 -0.3216 -0.0830
   44MPD2    C4  686   1.627   0.017   0.384  0.3271  0.6629  0.5134
   44MPD2    C5  687   1.630   4.710   0.255 -0.1288 -0.5788 -0.1337
   44MPD2     H  688   1.926   4.603   0.457  0.9867  0.0701 -0.4880
   44MPD2    H1  689   1.543   0.080   0.412 -0.7284 -1.2370  1.6019
   44MPD2    H2  690   1.723   4.606   0.094 -0.4633 -0.7439 -0.0008
   44MPD2    H3  691   1.550   0.013   0.191 -0.4688 -2.6962 -0.8725
   44MPD2     N  692   1.745   0.017   0.600 -0.1081  0.1248  0.7819
   44MPD2    H5  693   1.672   0.073   0.642  0.2289  1.2657 -0.1557
   44MPD2    N1  694   1.941   4.514   0.225  0.5010 -0.1378  0.1827
   44MPD2    H7  695   2.020   4.487   0.282  1.4497  0.9418 -0.6125
   45TMC2    C1  696   2.802   2.312   9.452  0.3809  0.5676 -0.4605
   45TMC2    C2  697   2.922   2.296   9.380 -0.2415  0.6487 -0.2325
   45TMC2    C3  698   2.995   2.415   9.363  0.0187 -0.1842  0.3794
   45TMC2    C4  699   2.757   2.435   9.509 -0.6350  0.1792  0.0363
   45TMC2    C5  700   2.837   2.541   9.486 -0.2350  0.5624 -0.5401
   45TMC2    C6  701   2.949   2.538   9.408 -0.0089 -0.1023 -0.3510
   45TMC2     C  702   2.748   2.180   9.483  0.4128  1.0954  0.4183
   45TMC2     O  703   2.825   2.083   9.492  0.0354  0.3634 -0.3934
   45TMC2     H  704   2.950   2.199   9.341 -1.7435  1.1212 -2.4622
   45TMC2    H1  705   2.675   2.433   9.579  0.8293  0.5482  1.7817
   45TMC2    H2  706   3.009   2.623   9.378 -1.3813  0.5297 -1.3104
   45TMC2    C7  707   2.796   2.672   9.532 -0.5925  0.2293  0.1640
   45TMC2    C8  708   3.093   2.412   9.257  0.0098  0.2890 -0.1899
   45TMC2    O1  709   2.787   2.680   9.654  0.9815 -0.2886 -0.5489
   45TMC2    O2  710   3.108   2.507   9.183  0.3076 -0.0312  0.8726
   45TMC2    O5  711   3.175   2.317   9.283  0.3973  1.2989 -0.2379
   45TMC2    H5  712   3.158   2.268   9.366 -1.1068 -1.9382 -2.4726
   46MPD2     C  713   2.571   1.932   9.504  0.3799 -0.1301  0.3582
   46MPD2    C1  714   2.525   2.065   9.501  0.2617  0.0775  0.7611
   46MPD2    C2  715   2.388   2.084   9.517  0.9743 -0.5653  0.0060
   46MPD2    C3  716   2.293   1.985   9.534  0.1262  0.2204  0.2226
   46MPD2    C4  717   2.344   1.859   9.533  0.1467  0.2031 -0.9621
   46MPD2    C5  718   2.477   1.833   9.521 -0.0376 -0.0245 -0.2897
   46MPD2     H  719   2.344   2.181   9.498 -1.3126 -1.3416  1.3547
   46MPD2    H1  720   2.284   1.768   9.529  0.1061  0.2060 -0.3540
   46MPD2    H2  721   2.674   1.899   9.495  0.7958  1.6362 -1.2722
   46MPD2    H3  722   2.491   1.726   9.517  0.8709  0.1501 -1.7631
   46MPD2     N  723   2.157   2.020   9.552  0.0987  0.0231  0.4938
   46MPD2    H5  724   2.134   2.118   9.536 -0.3954 -0.5335 -2.0600
   46MPD2    N1  725   2.605   2.179   9.478 -1.0049  0.2503  0.6253
   46MPD2    H7  726   2.552   2.265   9.470 -2.0357 -0.3319  1.2089
   47TMC2    C1  727   4.157   3.264   9.809 -0.4448  0.0571 -0.4905
   47TMC2    C2  728   4.166   3.211   9.937 -0.0810 -0.1439 -0.5454
   47TMC2    C3  729   4.055   3.211  10.021  0.9933  0.2032 -0.2149
   47TMC2    C4  730   4.035   3.297   9.760  0.3697 -0.2820 -0.0792
   47TMC2    C5  731   3.933   3.319   9.849  0.1616  0.0178 -0.3923
   47TMC2    C6  732   3.938   3.272   9.981 -0.4590  0.1256 -0.0452
   47TMC2     C  733   4.281   3.297   9.731  0.4590  0.0793 -0.3342
   47TMC2     O  734   4.260   3.382   9.646  0.1612 -0.4722 -0.2093
   47TMC2     H  735   4.266   3.193   9.977 -0.8107 -0.8146  0.9738
   47TMC2    H1  736   4.026   3.332   9.658  0.3290 -0.4155 -0.1206
   47TMC2    H2  737   3.850   3.286  10.041  0.5463  1.7129  1.0669
   47TMC2    C7  738   3.818   3.405   9.807  0.3579 -0.0522 -0.2938
   47TMC2    C8  739   4.080   3.188  10.158 -0.7161  0.0471 -0.3999
   47TMC2    O1  740   3.713   3.384   9.866  0.1957  0.1094  0.1057
   47TMC2    O2  741   4.081   3.282  10.236  0.4209 -0.8968 -0.3720
   47TMC2    O5  742   4.153   3.076  10.159 -0.1044 -0.0453 -0.2845
   47TMC2    H5  743   4.113   3.025  10.086  1.7130 -1.9667  0.0542
   48MPD2     C  744   4.546   3.358   9.615  0.2461  0.4334 -0.0492
   48MPD2    C1  745   4.523   3.258   9.708 -0.2981  0.1888 -0.7321
   48MPD2    C2  746   4.632   3.179   9.750  0.5317  0.5526  0.2308
   48MPD2    C3  747   0.027   3.195   9.690 -0.5852 -0.1818 -0.6151
   48MPD2    C4  748   0.039   3.283   9.584 -1.0261 -0.6310 -0.7563
   48MPD2    C5  749   4.671   3.368   9.559  0.1194  0.0322 -0.3332
   48MPD2     H  750   4.621   3.116   9.837 -0.2838  1.1078  0.5234
   48MPD2    H1  751   0.130   3.304   9.528 -1.8361  1.8237 -1.1654
   48MPD2    H2  752   4.468   3.426   9.584 -1.5191 -0.8336  1.6052
   48MPD2    H3  753   4.692   3.449   9.490  0.3893 -1.0755 -1.5406
   48MPD2     N  754   0.126   3.108   9.740  0.4086 -0.7376 -0.1388
   48MPD2    H5  755   0.095   3.060   9.825  0.9774 -0.7087  0.0849
   48MPD2    N1  756   4.396   3.233   9.762 -0.3251  0.2281  0.2262
   48MPD2    H7  757   4.391   3.160   9.833 -0.1557 -0.8242 -0.8439
   49TMC2    C1  758   3.242   4.298   9.875  0.0453  0.0526  0.1302
   49TMC2    C2  759   3.207   4.169   9.877 -0.7635 -0.0995 -0.0824
   49TMC2    C3  760   3.249   4.092   9.768  0.7812  0.2397  0.4860
   49TMC2    C4  761   3.323   4.355   9.782 -0.2706  0.5807 -0.3596
   49TMC2    C5  762   3.344   4.278   9.666  0.5719 -0.2681 -0.3898
   49TMC2    C6  763   3.319   4.143   9.663  0.8361 -1.3633  0.6404
   49TMC2     C  764   3.200   4.392   9.981 -0.5359  0.5142 -0.1604
   49TMC2     O  765   3.263   4.493   9.994 -0.4287  0.1707 -0.7948
   49TMC2     H  766   3.151   4.120   9.956  0.6438  1.8781  2.1367
   49TMC2    H1  767   3.340   4.462   9.780 -2.1346  0.8832  0.0987
   49TMC2    H2  768   3.365   4.067   9.601 -0.7140 -0.9784 -1.0019
   49TMC2    C7  769   3.421   4.342   9.561  0.0658  0.2465  0.4811
   49TMC2    C8  770   3.220   3.950   9.769 -0.3153 -0.1663  0.2790
   49TMC2    O1  771   3.468   4.449   9.590  0.5630  1.0580  0.0095
   49TMC2    O2  772   3.170   3.895   9.672  0.2939  0.3705  0.4303
   49TMC2    O5  773   3.225   3.905   9.897  0.5091 -0.3812 -0.3490
   49TMC2    H5  774   3.296   3.955   9.941  0.9265 -0.2373 -1.1861
   50MPD2     C  775   3.056   4.538  10.196  1.3581  0.0126 -0.9660
   50MPD2    C1  776   3.020   4.409  10.166 -0.0445 -0.7608 -0.0558
   50MPD2    C2  777   2.913   4.351  10.226 -0.2107  0.0993 -0.0525
   50MPD2    C3  778   2.844   4.420  10.328 -0.1156 -1.0006  0.3384
   50MPD2    C4  779   2.894   4.540  10.376  0.0152 -0.8190  0.2193
   50MPD2    C5  780   2.993   4.607  10.298 -0.7057  0.1530 -0.3200
   50MPD2     H  781   2.890   4.247  10.202  0.3937 -0.5784  2.3381
   50MPD2    H1  782   2.838   4.591  10.453 -0.3962  0.0509 -0.6475
   50MPD2    H2  783   3.140   4.589  10.150  0.6851 -0.0399 -2.2441
   50MPD2    H3  784   3.028   4.706  10.322 -1.0939  0.7375 -2.1325
   50MPD2     N  785   2.734   4.359  10.390 -0.2587 -0.8498  0.2041
   50MPD2    H5  786   2.686   4.411  10.463 -1.0799 -0.1957 -0.7893
   50MPD2    N1  787   3.091   4.343  10.057 -0.0947  0.0610  0.2911
   50MPD2    H7  788   3.053   4.256  10.020  1.6432 -0.2229 -0.8203
   51TMC2    C1  789   3.139   3.603   0.703  0.0381 -0.1350  1.3185
   51TMC2    C2  790   3.046   3.626   0.606 -0.0905  0.2764  0.5962
   51TMC2    C3  791   3.091   3.650   0.478 -0.2824  0.5102 -0.3264
   51TMC2    C4  792   3.271   3.613   0.683  0.1125 -0.6332 -0.2335
   51TMC2    C5  793   3.319   3.641   0.556  0.1063  0.2610 -0.3150
   51TMC2    C6  794   3.232   3.659   0.452 -0.7344  0.2763  0.4537
   51TMC2     C  795   3.104   3.494   0.795  0.3450 -0.3293  0.0982
   51TMC2     O  796   3.203   3.441   0.850  0.1879 -0.4611  0.2336
   51TMC2     H  797   2.943   3.603   0.632  0.1768 -0.4097  1.0301
   51TMC2    H1  798   3.332   3.591   0.770  1.0767  0.9403 -0.5023
   51TMC2    H2  799   3.269   3.667   0.350  2.8928 -0.7804  1.6675
   51TMC2    C7  800   3.454   3.603   0.520 -0.4090  0.2385 -0.4789
   51TMC2    C8  801   2.996   3.687   0.369 -0.0146 -0.0937 -0.2595
   51TMC2    O1  802   3.488   3.607   0.403  0.1708 -0.3056 -0.4695
   51TMC2    O2  803   2.874   3.673   0.387  0.1634  0.5195 -0.1604
   51TMC2    O5  804   3.061   3.706   0.253 -0.2884 -0.0622  0.0151
   51TMC2    H5  805   3.150   3.747   0.259  0.7311 -2.2042 -0.6373
   52MPD2     C  806   2.821   3.268   1.151 -0.4765  0.4090  0.9971
   52MPD2    C1  807   2.941   3.228   1.096 -0.1543  0.6614 -0.2900
   52MPD2    C2  808   2.983   3.302   0.989  0.0082  0.2922 -0.7212
   52MPD2    C3  809   2.924   3.424   0.952  0.3034 -0.3856 -0.2050
   52MPD2    C4  810   2.819   3.470   1.020 -0.3461  1.2881 -0.8001
   52MPD2    C5  811   2.767   3.392   1.122 -0.3963  0.5530 -0.0903
   52MPD2     H  812   3.080   3.274   0.948  1.0826  0.2763  1.7721
   52MPD2    H1  813   2.770   3.566   1.007 -0.1808  1.0572 -3.1589
   52MPD2    H2  814   2.780   3.224   1.242  0.2110 -1.0375  0.6072
   52MPD2    H3  815   2.679   3.422   1.178  0.8506  1.1573  1.5554
   52MPD2     N  816   2.972   3.506   0.845  0.0537  0.0243 -1.1272
   52MPD2    H5  817   2.909   3.571   0.798  0.6222  0.9364 -0.6316
   52MPD2    N1  818   3.017   3.112   1.126  0.2725 -0.9402  0.0411
   52MPD2    H7  819   3.113   3.109   1.095 -0.1412  1.6953 -1.4459
   53TMC2    C1  820   4.389   2.276  12.160  0.3237  0.0393  0.1600
   53TMC2    C2  821   4.526   2.290  12.194  0.3871  0.1815  0.0743
   53TMC2    C3  822   4.562   2.256  12.319  0.7979 -0.0059 -0.8186
   53TMC2    C4  823   4.296   2.223  12.252 -0.2618  0.0611  0.0073
   53TMC2    C5  824   4.341   2.187  12.372  0.8045 -0.0452 -0.5688
   53TMC2    C6  825   4.474   2.192  12.407 -0.4481  0.7554 -0.5082
   53TMC2     C  826   4.351   2.302  12.027 -0.1994 -0.4684 -0.0406
   53TMC2     O  827   4.440   2.289  11.940  0.2380  0.2800 -0.6464
   53TMC2     H  828   4.589   2.347  12.126 -1.3088  0.6537 -1.0861
   53TMC2    H1  829   4.195   2.198  12.222 -0.0080 -0.1895 -0.6374
   53TMC2    H2  830   4.511   2.174  12.508 -0.1462  1.4252 -0.5014
   53TMC2    C7  831   4.248   2.118  12.464 -0.5848 -0.3005  0.3516
   53TMC2    C8  832   4.703   2.233  12.343 -0.5985  0.6661  0.2188
   53TMC2    O1  833   4.297   2.069  12.560  0.3798 -0.0728 -0.0944
   53TMC2    O2  834   0.017   2.155  12.426 -1.1307  0.6239 -0.2869
   53TMC2    O5  835   0.043   2.329  12.273 -0.4672 -0.6203 -0.0618
   53TMC2    H5  836   4.724   2.400  12.228  2.1450  1.0461 -0.3989
   54MPD2     C  837   4.224   2.414  11.781 -0.4609 -0.3969  0.0937
   54MPD2    C1  838   4.155   2.398  11.902  0.4574 -0.1059 -0.5883
   54MPD2    C2  839   4.016   2.423  11.905 -1.0066  0.4656 -0.2165
   54MPD2    C3  840   3.948   2.454  11.786  0.4074 -0.3422 -0.1021
   54MPD2    C4  841   4.014   2.475  11.674 -0.2383 -0.6354 -0.4156
   54MPD2    C5  842   4.152   2.450  11.667 -0.1418  0.0109  0.6355
   54MPD2     H  843   3.954   2.426  11.994  0.0193 -0.8119  0.5386
   54MPD2    H1  844   3.964   2.498  11.581  1.8185 -0.3246 -1.4452
   54MPD2    H2  845   4.330   2.395  11.769  0.1937  2.8889  0.7018
   54MPD2    H3  846   4.186   2.455  11.564 -0.6372 -1.1869  0.4108
   54MPD2     N  847   3.811   2.491  11.773  1.1951 -0.5803 -0.1629
   54MPD2    H5  848   3.771   2.505  11.681  2.2973  0.6872 -0.4385
   54MPD2    N1  849   4.214   2.335  12.015 -0.0911  0.3071 -0.2379
   54MPD2    H7  850   4.156   2.336  12.098  0.5346 -0.6300  0.2162
   55TMC2    C1  851   0.293   4.573   0.302  0.1607  0.2396 -0.2297
   55TMC2    C2  852   0.364   4.568   0.188 -0.9090  0.2429 -0.5973
   55TMC2    C3  853   0.393   4.443   0.141  0.4231 -0.7577 -0.0124
   55TMC2    C4  854   0.245   4.472   0.372  0.2055  0.3810 -0.6039
   55TMC2    C5  855   0.277   4.348   0.318 -0.1420  0.4232  0.0300
   55TMC2    C6  856   0.343   4.330   0.201 -0.8663 -0.7076  0.0406
   55TMC2     C  857   0.218   4.692   0.320  0.0740 -0.8040  0.3848
   55TMC2     O  858   0.132   4.685   0.407 -0.4351 -0.3846  0.0222
   55TMC2     H  859   0.356   4.643   0.110 -2.0308 -1.9861 -2.6367
   55TMC2    H1  860   0.202   4.482   0.471  0.3749 -1.6995 -0.3297
   55TMC2    H2  861   0.378   4.236   0.160  1.7967 -0.3084  1.4129
   55TMC2    C7  862   0.243   4.228   0.394 -0.0729 -0.3442 -0.0488
   55TMC2    C8  863   0.457   4.427   0.016  0.4003 -0.0687 -0.4812
   55TMC2    O1  864   0.302   4.129   0.360 -0.4473 -0.5108 -0.3754
   55TMC2    O2  865   0.417   4.362  17.652  0.1765 -0.0950  0.2795
   55TMC2    O5  866   0.544   4.531   0.006 -0.1832  0.0587  0.1002
   55TMC2    H5  867   0.542   4.575   0.094  2.0024 -0.6981  0.5230
   56MPD2     C  868   0.264   0.308   0.204 -0.9264  0.4564  1.1936
   56MPD2    C1  869   0.201   0.197   0.254  0.2234  0.1800 -0.2935
   56MPD2    C2  870   0.070   0.218   0.303 -0.0375  0.1592 -0.0749
   56MPD2    C3  871   0.018   0.340   0.322 -0.1526  0.4485  0.4990
   56MPD2    C4  872   0.080   0.449   0.268  0.2183  0.6717 -0.5541
   56MPD2    C5  873   0.205   0.429   0.204  0.8487 -0.2383  0.5797
   56MPD2     H  874   0.008   0.131   0.326 -0.0792  0.0812 -0.4906
   56MPD2    H1  875   0.046   0.552   0.264  1.3932  1.0545 -0.6517
   56MPD2    H2  876   0.362   0.308   0.157 -1.7057  0.6059 -0.4072
   56MPD2    H3  877   0.258   0.508   0.152 -2.3921  0.6029 -1.4466
   56MPD2     N  878   4.631   0.350   0.384 -0.3259  0.1477  0.1024
   56MPD2    H5  879   4.584   0.261   0.400  2.2547 -1.5704 -1.9946
   56MPD2    N1  880   0.263   0.071   0.249  0.3506 -0.2006  0.2502
   56MPD2    H7  881   0.349   0.069   0.195 -0.2596  2.4223 -0.8366
   57TMC2    C1  882   3.609   0.812  13.364 -0.6082  0.2872 -0.3918
   57TMC2    C2  883   3.542   0.704  13.320 -0.0919 -0.4991 -0.0626
   57TMC2    C3  884   3.601   0.628  13.231  0.3813  0.3112  0.0443
   57TMC2    C4  885   3.732   0.859  13.308 -0.1617 -0.2917 -0.1168
   57TMC2    C5  886   3.767   0.796  13.191 -0.1959 -0.5626  0.6971
   57TMC2    C6  887   3.706   0.678  13.155 -0.3925 -0.2747 -0.2801
   57TMC2     C  888   3.556   0.886  13.474  0.4692  0.3261 -0.1009
   57TMC2     O  889   3.611   0.993  13.504 -0.2050  0.0897 -0.1016
   57TMC2     H  890   3.442   0.673  13.349  1.0565 -2.1441  2.0824
   57TMC2    H1  891   3.778   0.955  13.331 -1.6884  0.6550 -1.0321
   57TMC2    H2  892   3.721   0.643  13.054 -2.8033 -2.0740 -0.0064
   57TMC2    C7  893   3.905   0.817  13.160  0.0388  0.2370  0.0200
   57TMC2    C8  894   3.511   0.558  13.148  0.1220  0.8289 -0.7193
   57TMC2    O1  895   3.956   0.930  13.178  0.4108  0.1477  0.7558
   57TMC2    O2  896   3.396   0.592  13.116 -0.5488 -0.1313 -0.2715
   57TMC2    O5  897   3.578   0.450  13.098  0.0370  0.2596  0.3586
   57TMC2    H5  898   3.655   0.423  13.152 -0.3365 -2.8016 -0.6465
   58MPD2     C  899   3.189   0.941  13.824 -0.4122  0.1464  0.0093
   58MPD2    C1  900   3.219   1.027  13.720  0.2950  0.4565  1.1767
   58MPD2    C2  901   3.323   0.993  13.633 -0.3058  0.4330  0.7196
   58MPD2    C3  902   3.384   0.870  13.646  0.3285  0.3763 -0.1756
   58MPD2    C4  903   3.347   0.781  13.744  0.5590 -1.0267  0.5007
   58MPD2    C5  904   3.252   0.823  13.836 -0.1937 -0.1119 -0.0382
   58MPD2     H  905   3.341   1.056  13.546  1.7557  0.3519  1.1011
   58MPD2    H1  906   3.382   0.679  13.753  1.0369 -0.8131  1.0188
   58MPD2    H2  907   3.109   0.961  13.895 -0.2971  0.3344  0.0878
   58MPD2    H3  908   3.221   0.760  13.918  0.5214  1.3454  1.3639
   58MPD2     N  909   3.475   0.817  13.556  0.5590 -0.3771  0.5085
   58MPD2    H5  910   3.477   0.717  13.539  0.2048 -0.2944 -0.0028
   58MPD2    N1  911   3.143   1.137  13.694 -0.0152 -0.8068 -0.0594
   58MPD2    H7  912   3.154   1.164  13.597  2.0717  2.3295  1.0332
   59TMC2    C1  913   1.279   1.024  12.947  0.2185  0.6116  0.1435
   59TMC2    C2  914   1.254   0.955  13.062  0.7029  0.0853  0.6266
   59TMC2    C3  915   1.136   0.885  13.071 -0.2763  0.5710  0.6712
   59TMC2    C4  916   1.184   1.026  12.848  0.4765  0.3461 -0.0464
   59TMC2    C5  917   1.074   0.947  12.858 -0.2965  0.4424 -0.0032
   59TMC2    C6  918   1.050   0.876  12.969 -0.2171 -0.5415 -0.4732
   59TMC2     C  919   1.385   1.121  12.941 -0.3935 -1.1475 -0.7625
   59TMC2     O  920   1.361   1.216  12.863  0.1445 -0.8561  0.7917
   59TMC2     H  921   1.307   0.978  13.153 -0.7385 -1.5602  1.8904
   59TMC2    H1  922   1.191   1.093  12.762  0.0344  1.8582  1.0895
   59TMC2    H2  923   0.962   0.814  12.983  0.9073 -2.0280  0.0717
   59TMC2    C7  924   0.995   0.911  12.741  0.4234 -0.2459 -0.6849
   59TMC2    C8  925   1.109   0.795  13.183 -0.0894 -0.5241 -0.3688
   59TMC2    O1  926   0.896   0.843  12.758 -0.5374 -0.1016 -0.5258
   59TMC2    O2  927   1.001   0.737  13.186  0.1257  0.1411 -0.1006
   59TMC2    O5  928   1.216   0.788  13.266 -0.0691  0.1580 -0.3967
   59TMC2    H5  929   1.283   0.855  13.242 -0.7356  0.5384 -1.1854
   60MPD2     C  930   1.649   1.259  12.934  0.0627 -0.5937 -0.4203
   60MPD2    C1  931   1.618   1.158  13.023 -0.8998 -0.3277 -0.0867
   60MPD2    C2  932   1.725   1.108  13.101 -0.7455  0.8113 -0.3911
   60MPD2    C3  933   1.848   1.168  13.097 -0.4344  0.3794  0.0234
   60MPD2    C4  934   1.869   1.266  13.006  0.6049  0.5712 -0.0080
   60MPD2    C5  935   1.772   1.313  12.924  0.3961  0.1191 -0.1644
   60MPD2     H  936   1.704   1.026  13.169  0.0150  1.3554  0.5061
   60MPD2    H1  937   1.965   1.317  13.003  1.4194 -1.0327 -1.1416
   60MPD2    H2  938   1.575   1.308  12.872 -1.1863 -0.2680  1.3345
   60MPD2    H3  939   1.786   1.398  12.859 -2.2668  0.0957 -0.7624
   60MPD2     N  940   1.960   1.121  13.171  0.3372 -0.1461  0.1083
   60MPD2    H5  941   2.053   1.158  13.155  0.4218 -0.4779 -0.1757
   60MPD2    N1  942   1.495   1.082  13.014  0.6993  0.0004 -0.1291
   60MPD2    H7  943   1.486   1.000  13.073 -0.5922  0.7076  0.6582
   61TMC2    C1  944   1.290   2.042  15.672 -0.0025 -0.2085 -0.0492
   61TMC2    C2  945   1.301   1.986  15.796  0.1374  0.1167 -0.8038
   61TMC2    C3  946   1.211   2.033  15.891  0.1383  0.7766  0.3641
   61TMC2    C4  947   1.199   2.141  15.635 -0.1040 -0.2766 -0.8310
   61TMC2    C5  948   1.118   2.177  15.742 -0.5678 -0.6408 -0.1687
   61TMC2    C6  949   1.118   2.129  15.869 -0.1565 -0.3806  0.1912
   61TMC2     C  950   1.385   2.002  15.574 -1.2027  0.1673  0.6798
   61TMC2     O  951   1.485   1.966  15.633 -0.1449 -0.3775  0.3465
   61TMC2     H  952   1.379   1.912  15.809  1.3765  1.7022  0.8064
   61TMC2    H1  953   1.197   2.206  15.549 -3.6047  0.9137  0.1227
   61TMC2    H2  954   1.046   2.157  15.945  0.4581 -1.2653  1.0956
   61TMC2    C7  955   1.053   2.302  15.719 -0.0012 -0.8475  0.0401
   61TMC2    C8  956   1.219   1.995  16.032 -0.4456  0.2214 -0.2555
   61TMC2    O1  957   1.117   2.375  15.645 -0.4200 -0.4943 -0.2475
   61TMC2    O2  958   1.164   2.074  16.113  0.1268  0.1962 -0.0662
   61TMC2    O5  959   1.223   1.861  16.036  0.0309 -0.1877 -0.2685
   61TMC2    H5  960   1.251   1.805  15.961  0.6465 -0.3640  0.0922
   62MPD2     C  961   1.572   1.926  15.366 -0.4809  0.2933  0.4939
   62MPD2    C1  962   1.465   1.998  15.344 -0.7766 -0.1984 -0.4825
   62MPD2    C2  963   1.448   2.057  15.221  0.0162 -0.7633 -0.4454
   62MPD2    C3  964   1.543   2.044  15.122  0.1465 -0.0192 -0.2615
   62MPD2    C4  965   1.664   1.975  15.147 -0.6704 -0.1113  0.1040
   62MPD2    C5  966   1.671   1.912  15.271  0.4900 -0.0644  0.8959
   62MPD2     H  967   1.359   2.113  15.197  0.1950 -0.3353 -0.0924
   62MPD2    H1  968   1.742   1.949  15.076  0.1058 -1.2348  1.3536
   62MPD2    H2  969   1.589   1.869  15.457 -0.4418  0.5693  0.6612
   62MPD2    H3  970   1.758   1.852  15.294  1.0322  0.6887  0.8142
   62MPD2     N  971   1.517   2.102  14.997  0.1200 -0.1298 -0.3231
   62MPD2    H5  972   1.424   2.131  14.966  0.1650  0.9842  0.5526
   62MPD2    N1  973   1.361   2.020  15.438  0.6314  1.2857 -0.1110
   62MPD2    H7  974   1.272   2.053  15.404 -0.3273  0.3262  1.4539
   63TMC2    C1  975   0.015   2.907  10.556  0.0849  0.3761 -0.5781
   63TMC2    C2  976   0.088   2.856  10.659  0.2391 -0.6015 -0.0740
   63TMC2    C3  977   0.213   2.903  10.696 -0.4558 -0.1438  0.2944
   63TMC2    C4  978   0.090   2.994  10.476 -0.0952 -0.3991 -0.1134
   63TMC2    C5  979   0.216   3.036  10.513  0.5702  0.4034  0.8820
   63TMC2    C6  980   0.283   2.990  10.619 -0.6643 -0.6261  0.5714
   63TMC2     C  981   4.672   2.816  10.474 -0.4726  0.4353 -0.2761
   63TMC2     O  982   4.621   2.859  10.367 -0.0297  0.7504 -0.6827
   63TMC2     H  983   0.055   2.767  10.711 -1.7008  0.3720  0.3430
   63TMC2    H1  984   0.050   3.036  10.384  0.5367 -0.4022 -0.3950
   63TMC2    H2  985   0.363   3.047  10.665 -3.9996  3.1343  1.7159
   63TMC2    C7  986   0.284   3.105  10.408 -0.2503 -0.0150  0.2769
   63TMC2    C8  987   0.298   2.798  10.752 -0.5138  0.1821  0.3218
   63TMC2    O1  988   0.220   3.173  10.329  0.2461  0.2208 -0.5142
   63TMC2    O2  989   0.274   2.683  10.720  0.2384  0.3293 -0.0135
   63TMC2    O5  990   0.419   2.846  10.742 -0.0724  0.0263  0.5268
   63TMC2    H5  991   0.422   2.931  10.791 -3.0234  1.1488 -1.2510
   64MPD2     C  992   4.608   2.344  10.300 -0.5903  0.0178 -0.0607
   64MPD2    C1  993   4.710   2.336  10.393 -0.1035  0.1016 -0.1178
   64MPD2    C2  994   0.011   2.452  10.457  0.1180 -0.2373 -0.4393
   64MPD2    C3  995   4.682   2.575  10.433 -0.5122 -0.2443  0.0343
   64MPD2    C4  996   4.572   2.574  10.350 -0.6042  0.2255  0.0014
   64MPD2    C5  997   4.537   2.464  10.281  0.5313 -0.1731  0.1883
   64MPD2     H  998   0.088   2.450  10.534 -1.8235  0.1111  1.5075
   64MPD2    H1  999   4.508   2.660  10.331 -0.2607  0.4343 -0.2069
   64MPD2    H2 1000   4.574   2.266  10.233 -0.4525 -0.5245  0.4956
   64MPD2    H3 1001   4.448   2.463  10.220  0.4359 -0.3484  0.3293
   64MPD2     N 1002   4.720   2.690  10.501  0.6706  0.5119  0.2062
   64MPD2    H5 1003   0.057   2.686  10.575  0.6893 -0.3536  0.1473
   64MPD2    N1 1004   0.047   2.211  10.418 -0.3409 -0.4022 -0.3002
   64MPD2    H7 1005   0.120   2.207  10.488  0.6025 -2.3837 -1.4002
   65TMC2    C1 1006   1.692   1.994  15.937  1.1927 -0.1190 -0.2334
   65TMC2    C2 1007   1.778   1.980  15.833 -0.1578  0.1828 -0.1301
   65TMC2    C3 1008   1.784   2.083  15.743 -0.1627  0.2143  0.5499
   65TMC2    C4 1009   1.614   2.109  15.958 -0.5658  0.2231 -0.0239
   65TMC2    C5 1010   1.632   2.210  15.866 -0.0698  0.2405  0.3518
   65TMC2    C6 1011   1.713   2.194  15.754  0.2217 -0.4658 -0.6160
   65TMC2     C 1012   1.651   1.881  16.017  0.1995 -0.3352  0.2548
   65TMC2     O 1013   1.569   1.908  16.100  0.0411  0.3173 -0.1279
   65TMC2     H 1014   1.846   1.896  15.821  1.1888  1.1747  0.6095
   65TMC2    H1 1015   1.525   2.105  16.020 -0.4338  2.0402  0.2753
   65TMC2    H2 1016   1.720   2.259  15.668  1.0642  0.8054  0.4228
   65TMC2    C7 1017   1.517   2.303  15.858  0.7982  0.3845 -0.0620
   65TMC2    C8 1018   1.831   2.030  15.615  0.3787  0.8061 -0.0342
   65TMC2    O1 1019   1.508   2.368  15.751 -0.8277 -0.1368 -0.3229
   65TMC2    O2 1020   1.847   1.912  15.590  0.1781 -0.2594  0.6306
   65TMC2    O5 1021   1.898   2.136  15.567  0.3250  0.1708  0.5535
   65TMC2    H5 1022   1.908   2.210  15.630 -2.3392 -0.6344  1.9250
   66MPD2     C 1023   1.580   1.619  16.148  0.5842  0.0270  0.3501
   66MPD2    C1 1024   1.647   1.639  16.023  0.3344  0.2178  0.2386
   66MPD2    C2 1025   1.687   1.525  15.954  0.5628 -1.1053 -0.3324
   66MPD2    C3 1026   1.652   1.400  15.999  0.4153 -0.3181 -0.5170
   66MPD2    C4 1027   1.587   1.382  16.115  0.3101 -0.7145  0.0901
   66MPD2    C5 1028   1.555   1.490  16.192  0.2717 -0.0967 -0.2324
   66MPD2     H 1029   1.747   1.541  15.865 -0.2852 -4.1977 -1.4583
   66MPD2    H1 1030   1.561   1.288  16.162 -0.4266  0.3765  1.8640
   66MPD2    H2 1031   1.558   1.704  16.211  2.0112  1.2570 -0.8385
   66MPD2    H3 1032   1.514   1.471  16.290 -2.9362  1.2282 -1.3093
   66MPD2     N 1033   1.649   1.285  15.915 -0.0225  0.5408  0.1603
   66MPD2    H5 1034   1.626   1.196  15.958 -0.2668  1.2343  1.4738
   66MPD2    N1 1035   1.690   1.759  15.972 -0.8773  0.0457  0.4516
   66MPD2    H7 1036   1.753   1.760  15.892 -2.3776 -1.6051 -0.7444
   67TMC2    C1 1037   1.868   1.367  14.548  0.3597  0.2467 -0.1961
   67TMC2    C2 1038   1.806   1.483  14.567  0.1773  0.5403  0.1856
   67TMC2    C3 1039   1.847   1.554  14.677  0.9988 -0.3412  0.1854
   67TMC2    C4 1040   1.972   1.312  14.627 -0.2783  0.5693 -0.2370
   67TMC2    C5 1041   2.027   1.401  14.714 -0.5228 -0.2807  0.4468
   67TMC2    C6 1042   1.963   1.520  14.745  0.2200 -0.0238  1.2343
   67TMC2     C 1043   1.809   1.279  14.448 -0.2940  0.3073 -0.2990
   67TMC2     O 1044   1.812   1.159  14.474  0.2768  0.3956  0.1765
   67TMC2     H 1045   1.728   1.522  14.503 -0.3065  0.3779  0.6805
   67TMC2    H1 1046   2.015   1.213  14.621  1.2450  1.2671 -0.7923
   67TMC2    H2 1047   2.012   1.600  14.799 -0.1875 -0.7351  2.6737
   67TMC2    C7 1048   2.113   1.334  14.815  0.6503 -0.1499 -0.4503
   67TMC2    C8 1049   1.804   1.691  14.712 -0.2651  0.6895  0.0586
   67TMC2    O1 1050   2.188   1.251  14.767  0.7986 -0.1483 -0.0606
   67TMC2    O2 1051   1.854   1.772  14.789  0.3520  0.5035 -0.3685
   67TMC2    O5 1052   1.710   1.721  14.621 -0.4253 -0.0992 -0.4490
   67TMC2    H5 1053   1.656   1.643  14.598  1.3113 -1.6934  0.9000
   68MPD2     C 1054   1.656   1.143  14.235 -0.1108 -0.4713  0.5163
   68MPD2    C1 1055   1.681   1.281  14.229  0.6350  0.2532 -0.1851
   68MPD2    C2 1056   1.644   1.353  14.113  0.1571  0.6381  0.2072
   68MPD2    C3 1057   1.569   1.290  14.013  0.2010 -0.1979  0.4220
   68MPD2    C4 1058   1.552   1.154  14.018  0.4088 -0.6159 -0.4947
   68MPD2    C5 1059   1.604   1.088  14.123  0.3749  0.0702  0.6936
   68MPD2     H 1060   1.670   1.457  14.102 -0.4687  0.8706  0.9552
   68MPD2    H1 1061   1.501   1.097  13.941 -0.5962 -1.0376  0.4855
   68MPD2    H2 1062   1.679   1.079  14.320 -1.0981 -1.4635  0.0268
   68MPD2    H3 1063   1.590   0.981  14.127  0.1029  0.1055  0.6896
   68MPD2     N 1064   1.510   1.354  13.903  0.7253  0.2895 -0.0811
   68MPD2    H5 1065   1.454   1.296  13.843 -1.5954  0.3725  2.0153
   68MPD2    N1 1066   1.744   1.340  14.344 -0.2907  0.5032 -0.0069
   68MPD2    H7 1067   1.767   1.438  14.328  2.9092 -0.5542 -1.9148
   69TMC2    C1 1068   4.119   2.517  12.744 -0.4837 -0.6305 -0.9086
   69TMC2    C2 1069   4.225   2.560  12.813 -0.3774 -0.6043  0.1510
   69TMC2    C3 1070   4.331   2.622  12.748 -0.0462  0.7300 -0.4862
   69TMC2    C4 1071   4.109   2.530  12.612 -1.1912  0.3518  0.0810
   69TMC2    C5 1072   4.213   2.597  12.544 -0.5089  0.0473  0.3753
   69TMC2    C6 1073   4.323   2.644  12.611 -0.2552 -0.5777  0.4903
   69TMC2     C 1074   4.001   2.486  12.821 -0.3445 -0.6334  0.4861
   69TMC2     O 1075   3.909   2.417  12.770 -0.5303  0.8096 -0.4857
   69TMC2     H 1076   4.246   2.533  12.916  0.8789 -2.6375 -0.6465
   69TMC2    H1 1077   4.016   2.506  12.561  0.1008 -0.6882 -1.7768
   69TMC2    H2 1078   4.406   2.706  12.577 -2.1667  0.7751 -1.7471
   69TMC2    C7 1079   4.197   2.623  12.401 -0.3070 -0.1611  0.8927
   69TMC2    C8 1080   4.436   2.679  12.822 -0.4080  0.5090  0.2856
   69TMC2    O1 1081   4.078   2.629  12.364 -0.2716 -0.1961 -0.3546
   69TMC2    O2 1082   4.552   2.675  12.783  0.1067 -0.0275  0.5806
   69TMC2    O5 1083   4.373   2.745  12.920 -0.1648  0.1742  0.4310
   69TMC2    H5 1084   4.278   2.762  12.904  0.2387  1.4430 -0.5898
   70MPD2     C 1085   3.966   2.567  13.178  0.3563  0.2851  0.4154
   70MPD2    C1 1086   3.943   2.508  13.063  0.2049  0.1074  0.3057
   70MPD2    C2 1087   3.850   2.406  13.067 -0.5722  0.2043 -0.0636
   70MPD2    C3 1088   3.785   2.366  13.186 -0.2878  0.2763 -0.2568
   70MPD2    C4 1089   3.810   2.434  13.302  0.1067 -0.2977 -0.8298
   70MPD2    C5 1090   3.911   2.525  13.297 -0.4330  0.3146  0.5691
   70MPD2     H 1091   3.835   2.344  12.979  0.7606  0.9350 -0.7907
   70MPD2    H1 1092   3.772   2.379  13.387  2.3363 -0.2527  0.1978
   70MPD2    H2 1093   4.039   2.647  13.174  1.9475 -1.0609  2.3940
   70MPD2    H3 1094   3.947   2.571  13.389  0.9905 -1.1276  0.7323
   70MPD2     N 1095   3.708   2.249  13.171 -0.7458 -0.1501 -0.6203
   70MPD2    H5 1096   3.698   2.213  13.076 -0.3511 -0.8579 -0.3906
   70MPD2    N1 1097   4.007   2.546  12.943  0.0519 -0.1163  0.3982
   70MPD2    H7 1098   4.075   2.620  12.956  0.0513  0.1561 -1.1683
   71TMC2    C1 1099   0.831   2.922   1.528 -0.6651 -0.1633  0.3844
   71TMC2    C2 1100   0.918   2.971   1.621 -1.0478  0.1831  0.5683
   71TMC2    C3 1101   0.863   3.014   1.733  0.0692 -0.4223  0.2835
   71TMC2    C4 1102   0.694   2.913   1.536 -0.0934 -0.1913  0.6031
   71TMC2    C5 1103   0.646   2.956   1.654  0.3825 -0.4456  0.3821
   71TMC2    C6 1104   0.730   3.006   1.751  0.1263 -1.1498 -0.0719
   71TMC2     C 1105   0.888   2.860   1.412  0.2651  0.1429  0.8580
   71TMC2     O 1106   0.998   2.901   1.381  0.3256  0.3540  0.8468
   71TMC2     H 1107   1.025   2.978   1.603 -1.0693 -1.7355 -0.3431
   71TMC2    H1 1108   0.628   2.897   1.451 -1.1942  0.0239  1.4303
   71TMC2    H2 1109   0.699   3.033   1.851  1.6914  0.5903 -0.0653
   71TMC2    C7 1110   0.506   2.995   1.669  0.0147  0.8012 -1.0209
   71TMC2    C8 1111   0.940   3.078   1.832  0.3097 -0.0213  0.2361
   71TMC2    O1 1112   0.467   3.045   1.770  0.2359  0.2048  0.8075
   71TMC2    O2 1113   0.950   3.062   1.948  0.2832  0.1896 -0.0458
   71TMC2    O5 1114   0.992   3.185   1.760 -0.1351  0.2349 -0.2034
   71TMC2    H5 1115   0.956   3.199   1.670  0.1651 -1.1171 -0.5392
   72MPD2     C 1116   0.862   2.534   1.027  0.7592 -0.2844  0.3874
   72MPD2    C1 1117   0.933   2.661   1.032 -1.1537  0.5386 -0.3791
   72MPD2    C2 1118   0.935   2.728   1.153  0.2922 -0.3580 -0.0346
   72MPD2    C3 1119   0.857   2.680   1.258 -0.6333  0.1738 -1.1168
   72MPD2    C4 1120   0.786   2.562   1.249  0.0788 -0.2170 -0.9881
   72MPD2    C5 1121   0.787   2.491   1.131 -0.4559 -0.3664  0.8707
   72MPD2     H 1122   0.992   2.819   1.165 -2.6878  1.6167 -0.7914
   72MPD2    H1 1123   0.718   2.521   1.323 -1.0438  2.9714 -0.2290
   72MPD2    H2 1124   0.858   2.479   0.934 -0.7637  0.9407 -0.2625
   72MPD2    H3 1125   0.728   2.401   1.121 -1.3070  0.4382 -1.3844
   72MPD2     N 1126   0.828   2.746   1.375 -0.4797  0.0476  0.2085
   72MPD2    H5 1127   0.745   2.725   1.428 -0.8176 -0.2054 -0.4244
   72MPD2    N1 1128   1.026   2.705   0.930 -0.6615 -0.0331  0.0919
   72MPD2    H7 1129   1.101   2.764   0.964  0.1180 -1.5096  0.9578
   73TMC2    C1 1130   1.059   0.091  14.021  0.1445 -1.1305 -0.7755
   73TMC2    C2 1131   1.067   0.224  14.016 -0.1815 -0.5331  0.0178
   73TMC2    C3 1132   1.175   0.284  14.077 -0.3886 -0.2038  0.3853
   73TMC2    C4 1133   1.128   0.019  14.119  0.7460  0.0191  0.7848
   73TMC2    C5 1134   1.237   0.080  14.177 -0.3095 -0.1263  0.3061
   73TMC2    C6 1135   1.262   0.215  14.152 -0.0294  0.0874 -0.8336
   73TMC2     C 1136   1.090   0.026  13.892  0.5216 -0.0333 -0.5595
   73TMC2     O 1137   1.164   4.660  13.888 -0.4688  0.1654  0.1898
   73TMC2     H 1138   1.022   0.280  13.934  1.4488 -0.5288 -0.8753
   73TMC2    H1 1139   1.129   4.643  14.118  0.5493  0.0154  1.3362
   73TMC2    H2 1140   1.355   0.263  14.180 -0.2355  0.9894 -1.7206
   73TMC2    C7 1141   1.364   0.011  14.183 -0.7916  0.4910  0.1463
   73TMC2    C8 1142   1.200   0.430  14.059  0.6884  0.1190  0.5166
   73TMC2    O1 1143   1.459   0.050  14.249 -0.4583 -0.3954  0.2735
   73TMC2    O2 1144   1.238   0.501  14.154 -0.2726 -0.0678  0.5607
   73TMC2    O5 1145   1.123   0.472  13.958 -0.6913  0.0506 -0.7551
   73TMC2    H5 1146   1.136   0.409  13.884 -0.7719  0.5506 -1.1960
   74MPD2     C 1147   1.066   0.017  13.367 -0.1659 -0.5551 -0.0112
   74MPD2    C1 1148   1.144   4.681  13.459 -0.5956  0.9310  0.4115
   74MPD2    C2 1149   1.137   4.713  13.599  0.2917  0.8381 -0.3879
   74MPD2    C3 1150   1.033   0.055  13.648  0.2179 -0.0628 -0.0146
   74MPD2    C4 1151   0.946   0.107  13.556  0.3530 -0.0997  0.4034
   74MPD2    C5 1152   0.963   0.098  13.418 -0.7729 -0.6508 -0.5042
   74MPD2     H 1153   1.210   4.672  13.667  2.1905  1.9322 -1.7607
   74MPD2    H1 1154   0.855   0.160  13.584 -0.8066 -2.0082  0.2398
   74MPD2    H2 1155   1.075   0.013  13.259  0.7805  2.0499 -0.0265
   74MPD2    H3 1156   0.888   0.127  13.345 -0.0572 -2.3008 -1.8895
   74MPD2     N 1157   1.022   0.089  13.789 -0.0337  0.2149 -0.4949
   74MPD2    H5 1158   0.944   0.145  13.822 -0.5205 -0.4573 -0.4987
   74MPD2    N1 1159   1.232   4.589  13.399 -0.0015  0.6941 -0.2577
   74MPD2    H7 1160   1.246   4.603  13.299 -1.5837 -1.5519 -0.7903
   75TMC2    C1 1161   1.481   1.514  13.726  0.3415  0.2962 -0.6305
   75TMC2    C2 1162   1.540   1.595  13.638 -0.1462 -0.6070 -0.0716
   75TMC2    C3 1163   1.482   1.622  13.513 -0.4627 -0.0322  0.3351
   75TMC2    C4 1164   1.368   1.447  13.691  0.1410 -0.2057  0.6281
   75TMC2    C5 1165   1.311   1.478  13.567  0.0112  0.2848  0.2999
   75TMC2    C6 1166   1.358   1.573  13.482 -0.3836  0.1123  0.2745
   75TMC2     C 1167   1.547   1.475  13.854  0.7344 -0.1425 -0.0543
   75TMC2     O 1168   1.634   1.546  13.900 -0.2845  0.3706 -0.7758
   75TMC2     H 1169   1.635   1.634  13.675 -0.9019  0.5602  0.6550
   75TMC2    H1 1170   1.316   1.392  13.769  0.1640 -1.2038 -0.0622
   75TMC2    H2 1171   1.314   1.581  13.384 -0.6911 -0.4176  0.3727
   75TMC2    C7 1172   1.209   1.397  13.512  0.5641  0.1615 -0.0799
   75TMC2    C8 1173   1.535   1.721  13.428 -0.1348  0.6522  0.0862
   75TMC2    O1 1174   1.139   1.453  13.431  0.6515 -0.0990  0.2512
   75TMC2    O2 1175   1.465   1.774  13.344  0.1165 -0.3242  0.4075
   75TMC2    O5 1176   1.668   1.739  13.450  0.3448  0.3083  0.3096
   75TMC2    H5 1177   1.708   1.665  13.501 -1.6790 -0.5434  0.6763
   76TMC2    C1 1178   4.692   1.694  11.831 -0.4115  1.0675  0.1256
   76TMC2    C2 1179   4.564   1.704  11.788 -0.1551  0.4403 -0.0914
   76TMC2    C3 1180   4.466   1.623  11.845 -0.6397 -0.5376  0.4915
   76TMC2    C4 1181   4.728   1.605  11.932  0.3369 -0.3450 -0.5927
   76TMC2    C5 1182   4.624   1.528  11.986  0.9610 -0.4523 -0.3215
   76TMC2    C6 1183   4.495   1.535  11.941  0.0583 -0.2501  0.3669
   76TMC2     C 1184   0.033   1.818  11.811  0.0009  0.1194  0.0512
   76TMC2     O 1185   4.705   1.917  11.770  0.3422 -0.2916 -1.2431
   76TMC2     H 1186   4.545   1.770  11.703 -2.7176  0.9771  0.8967
   76TMC2    H1 1187   0.095   1.608  11.975  0.4101  2.3538 -0.9608
   76TMC2    H2 1188   4.424   1.480  12.002  0.1498  0.8245  1.4432
   76TMC2    C7 1189   4.649   1.430  12.088 -0.0703  0.0374  0.4398
   76TMC2    C8 1190   4.331   1.637  11.796 -0.2092  0.7407 -0.2942
   76TMC2    O1 1191   4.554   1.359  12.123  0.4979 -0.2124 -0.0876
   76TMC2    O2 1192   4.290   1.741  11.753  0.0151  0.3033 -0.3346
   76TMC2    O5 1193   4.259   1.526  11.825 -0.1568 -0.6498 -0.3277
   76TMC2    H5 1194   4.315   1.446  11.821  0.3955 -0.3792  2.2371
   77MPD2     C 1195   0.473   2.083  11.867 -0.4093 -0.4921 -0.5329
   77MPD2    C1 1196   0.344   2.123  11.843 -0.5979  0.8767 -0.9959
   77MPD2    C2 1197   0.242   2.029  11.837  0.2295 -0.2797 -0.0477
   77MPD2    C3 1198   0.271   1.894  11.836  0.8495  0.3343 -0.1979
   77MPD2    C4 1199   0.397   1.849  11.847  0.0925 -0.1168  0.6934
   77MPD2    C5 1200   0.501   1.941  11.862 -0.1470  0.4751 -0.8132
   77MPD2     H 1201   0.142   2.072  11.838  0.4289  0.2366 -2.0589
   77MPD2    H1 1202   0.418   1.743  11.842  1.1797  0.1515 -0.6169
   77MPD2    H2 1203   0.553   2.156  11.873  1.1450 -2.0024 -2.9206
   77MPD2    H3 1204   0.603   1.907  11.875 -1.1286 -2.9379 -1.9296
   77MPD2     N 1205   0.171   1.797  11.825 -0.3177 -0.3598  0.2491
   77MPD2    H5 1206   0.200   1.700  11.830 -1.0964 -0.7193 -2.0352
   77MPD2    N1 1207   0.296   2.257  11.857  0.1996 -0.3354 -0.4428
   77MPD2    H7 1208   0.198   2.279  11.846 -0.3709 -1.0029  3.2750
   78TMC2    C1 1209   1.377   3.134   1.398 -0.5718  0.2827  0.2186
   78TMC2    C2 1210   1.292   3.080   1.305 -0.1700 -0.4230  0.1619
   78TMC2    C3 1211   1.335   2.969   1.238 -0.2966 -0.5555 -0.8040
   78TMC2    C4 1212   1.504   3.087   1.412 -0.1474  0.6650  1.0843
   78TMC2    C5 1213   1.539   2.977   1.335  0.4995 -0.2530  0.3768
   78TMC2    C6 1214   1.456   2.907   1.250 -0.0528 -0.3363 -0.3305
   78TMC2     C 1215   1.335   3.258   1.463  0.0271  0.8576 -0.1000
   78TMC2     O 1216   1.226   3.309   1.434 -0.2020 -0.6361 -0.3509
   78TMC2     H 1217   1.197   3.129   1.287  0.7384  1.6684  1.0748
   78TMC2    H1 1218   1.580   3.148   1.459  0.0052 -0.3535  2.1774
   78TMC2    H2 1219   1.482   2.821   1.189  1.0331  0.7297 -1.3675
   78TMC2    C7 1220   1.673   2.921   1.334 -0.1364  0.2277  0.5409
   78TMC2    C8 1221   1.248   2.943   1.125  0.3591  0.3813  0.1708
   78TMC2    O1 1222   1.694   2.830   1.251  0.8910 -0.0849  0.5048
   78TMC2    O2 1223   1.185   3.024   1.062  0.2995  0.2444  0.1850
   78TMC2    O5 1224   1.250   2.810   1.104  0.1145  0.4990 -0.1378
   78TMC2    H5 1225   1.285   2.763   1.182 -0.1119 -2.8491 -2.0413
   79MPD1     C 1226   1.367   3.614   1.821 -0.5173  0.0190  0.0822
   79MPD1    C1 1227   1.276   3.604   1.717  0.4378  0.1117  0.2614
   79MPD1    C2 1228   1.302   3.497   1.639  1.1039  0.3871 -0.1349
   79MPD1    C3 1229   1.409   3.420   1.644 -0.5312 -0.5385 -0.2520
   79MPD1    C4 1230   1.507   3.440   1.742  0.2469  0.3446 -0.7462
   79MPD1    C5 1231   1.484   3.541   1.834 -0.2558 -0.4914  0.4213
   79MPD1     H 1232   1.224   3.479   1.565  0.8568  1.8654 -0.2246
   79MPD1    H1 1233   1.597   3.381   1.757 -1.9509 -2.9092 -0.4275
   79MPD1    H2 1234   1.368   3.704   1.883  1.0944  0.6998 -0.9255
   79MPD1    H3 1235   1.562   3.551   1.908 -0.4615  0.1233  0.5524
   79MPD1     N 1236   1.424   3.309   1.558 -0.3379 -0.0897 -0.3217
   79MPD1    H5 1237   1.511   3.259   1.569 -0.4943 -0.0434  1.0597
   79MPD1    N1 1238   1.153   3.674   1.711 -0.5050  0.2354  0.1652
   79MPD1    H6 1239   1.127   3.692   1.614  1.2294  2.6041  0.1502
   79MPD1    H7 1240   1.161   3.757   1.769  0.1617  1.5586 -1.8319
   80TMC2    C1 1241   3.680   1.037  11.905  0.7657 -0.2163  0.6331
   80TMC2    C2 1242   3.734   1.004  11.787 -0.0623  0.2448  0.2043
   80TMC2    C3 1243   3.647   0.974  11.684  0.1487 -0.2678 -0.2933
   80TMC2    C4 1244   3.547   1.041  11.928  0.7011  1.0605 -0.1318
   80TMC2    C5 1245   3.456   1.014  11.823 -0.4981  1.0218  1.0035
   80TMC2    C6 1246   3.509   0.978  11.698 -0.5889  0.5046 -0.4867
   80TMC2     C 1247   3.771   1.065  12.015 -0.3335  0.8042 -0.4312
   80TMC2     O 1248   3.876   0.995  12.020 -0.1104 -0.0132 -0.8955
   80TMC2     H 1249   3.842   0.995  11.776 -0.0191 -0.6618  1.2408
   80TMC2    H1 1250   3.513   1.090  12.018 -0.2993  1.6129 -0.8172
   80TMC2    H2 1251   3.451   0.948  11.612  1.5357 -2.2982 -0.9465
   80TMC2    C7 1252   3.340   0.949  11.854  1.2413 -0.2720 -0.0870
   80TMC2    C8 1253   3.685   0.876  11.581  0.1233  0.3401 -0.6742
   80TMC2    O1 1254   3.267   0.902  11.765  0.2514  0.0512  0.1961
   80TMC2    O2 1255   3.605   0.795  11.543  0.1745 -0.5695 -0.4669
   80TMC2    O5 1256   3.783   0.930  11.504 -0.1664  0.0543  0.0766
   80TMC2    H5 1257   3.833   1.005  11.541 -3.2695  1.9013  0.5379
   81MPD2     C 1258   3.908   1.156  12.263 -0.5254  0.3984  0.6643
   81MPD2    C1 1259   3.801   1.222  12.206 -0.0836  0.3590 -0.2845
   81MPD2    C2 1260   3.751   1.337  12.268  0.4312 -0.7889 -0.6385
   81MPD2    C3 1261   3.804   1.385  12.388 -0.4915  0.2325 -0.0651
   81MPD2    C4 1262   3.906   1.325  12.446 -0.3874 -0.4203 -0.5568
   81MPD2    C5 1263   3.956   1.211  12.386  0.0967  0.9565  0.1389
   81MPD2     H 1264   3.672   1.389  12.217  1.7890  1.0554 -0.8626
   81MPD2    H1 1265   3.962   1.351  12.535  0.1792  1.9473 -1.5771
   81MPD2    H2 1266   3.943   1.058  12.232  2.5533  1.7028 -0.0132
   81MPD2    H3 1267   4.029   1.155  12.443 -1.1648  1.0231  1.8198
   81MPD2     N 1268   3.757   1.495  12.464  0.5392 -0.0895  0.0635
   81MPD2    H5 1269   3.782   1.501  12.562 -1.5960  0.2794  0.5837
   81MPD2    N1 1270   3.732   1.175  12.090  0.0092  0.0414 -0.0873
   81MPD2    H7 1271   3.649   1.229  12.069 -0.2558 -1.1887 -2.2493
   82TMC2    C1 1272   1.601   1.092  11.825 -0.6290  0.1985  0.2650
   82TMC2    C2 1273   1.717   1.163  11.836 -0.7081  0.1816 -0.7863
   82TMC2    C3 1274   1.821   1.121  11.916 -0.3547  0.2924 -0.8118
   82TMC2    C4 1275   1.593   0.981  11.899 -0.5343 -0.1898 -0.3851
   82TMC2    C5 1276   1.696   0.938  11.971 -0.2050 -0.1334  0.4175
   82TMC2    C6 1277   1.817   1.000  11.977 -0.0401  0.0226  0.1013
   82TMC2     C 1278   1.487   1.148  11.744 -0.0505 -0.2696  0.0182
   82TMC2     O 1279   1.509   1.243  11.666  0.1777  0.1759  0.2392
   82TMC2     H 1280   1.732   1.252  11.776 -1.6182  0.0908 -1.1357
   82TMC2    H1 1281   1.503   0.925  11.922  0.4955 -2.6335 -2.2303
   82TMC2    H2 1282   1.903   0.951  12.021  1.5580  2.8285  0.0603
   82TMC2    C7 1283   1.702   0.797  12.012  0.1672  0.8618  0.1799
   82TMC2    C8 1284   1.938   1.204  11.913  0.4900 -0.0447 -0.4313
   82TMC2    O1 1285   1.753   0.773  12.124 -0.0973  0.6362  0.2125
   82TMC2    O2 1286   1.991   1.250  11.813  0.0016 -0.3943  0.1639
   82TMC2    O5 1287   1.998   1.186  12.036 -0.1541  0.1235 -0.5674
   82TMC2    H5 1288   1.937   1.139  12.097 -2.0054  1.3587 -1.4604
   83MPD2     C 1289   0.999   1.106  11.573 -0.1780 -0.2767 -0.1430
   83MPD2    C1 1290   1.114   1.154  11.511 -0.3135 -0.4505  0.1181
   83MPD2    C2 1291   1.235   1.163  11.577 -0.0985 -0.5062  0.7328
   83MPD2    C3 1292   1.247   1.103  11.707 -0.1751  0.6260 -0.3204
   83MPD2    C4 1293   1.136   1.054  11.768  0.2421  0.5620 -0.2632
   83MPD2    C5 1294   1.014   1.052  11.699  0.2756 -0.4159 -0.6399
   83MPD2     H 1295   1.320   1.210  11.529 -1.7723  1.8527  0.1167
   83MPD2    H1 1296   1.143   1.005  11.864  3.4930  4.5034  1.5067
   83MPD2    H2 1297   0.901   1.111  11.526  0.6362  3.8840 -1.4503
   83MPD2    H3 1298   0.925   1.019  11.753  0.2627 -0.4522 -0.6834
   83MPD2     N 1299   1.366   1.098  11.785 -0.1514  0.0880  0.1135
   83MPD2    H5 1300   1.362   1.051  11.875 -0.8864 -1.4293 -0.6925
   83MPD2    N1 1301   1.093   1.191  11.375 -0.2138 -0.2869 -0.3019
   83MPD2    H7 1302   0.998   1.177  11.344  0.0776  0.1048 -1.3598
   84TMC2    C1 1303   2.492   4.193  10.667  0.3076  0.3567 -0.4995
   84TMC2    C2 1304   2.377   4.122  10.634  0.5459 -0.1863 -0.2463
   84TMC2    C3 1305   2.348   4.118  10.499  0.1804  0.3078  0.2385
   84TMC2    C4 1306   2.583   4.244  10.575  0.9097 -0.6260 -0.0011
   84TMC2    C5 1307   2.553   4.218  10.444  0.8509  0.3010 -0.9090
   84TMC2    C6 1308   2.438   4.153  10.399 -0.7587 -0.1828  0.2221
   84TMC2     C 1309   2.515   4.243  10.805 -0.7432 -0.4020 -0.2291
   84TMC2     O 1310   2.569   4.353  10.813  0.0201  0.2375  0.0464
   84TMC2     H 1311   2.315   4.086  10.715  0.0777 -0.9663 -0.9599
   84TMC2    H1 1312   2.678   4.278  10.614 -0.5141  2.1416  1.0168
   84TMC2    H2 1313   2.406   4.154  10.296  0.6001  0.0782 -0.1964
   84TMC2    C7 1314   2.660   4.253  10.350  0.0835 -0.7803  0.4698
   84TMC2    C8 1315   2.264   4.009  10.457 -0.5368  0.1845 -0.2101
   84TMC2    O1 1316   2.667   4.181  10.250 -0.3960 -0.2092 -0.2846
   84TMC2    O2 1317   2.287   3.952  10.350 -0.1742  0.3030  0.9281
   84TMC2    O5 1318   2.184   3.970  10.563 -0.3822  0.4219 -0.0721
   84TMC2    H5 1319   2.148   4.047  10.611 -0.3537  0.7154 -0.5286
   85TMC2    C1 1320   3.787   3.120  15.756 -0.5638 -0.3891  0.3527
   85TMC2    C2 1321   3.810   3.253  15.732  0.0742 -0.2993 -0.0664
   85TMC2    C3 1322   3.876   3.295  15.613 -0.4372 -0.1113 -0.1794
   85TMC2    C4 1323   3.834   3.033  15.663 -0.5865  0.2427 -0.1396
   85TMC2    C5 1324   3.887   3.084  15.540 -0.0513 -0.0678 -0.4904
   85TMC2    C6 1325   3.911   3.219  15.510 -0.2727 -0.0312  0.4998
   85TMC2     C 1326   3.686   3.087  15.855  0.7007 -0.1976 -0.5472
   85TMC2     O 1327   3.615   3.178  15.895 -0.2292 -0.4875 -0.0391
   85TMC2     H 1328   3.769   3.324  15.804  0.5104  1.1724 -1.2701
   85TMC2    H1 1329   3.804   2.929  15.670  0.6173 -0.0484  0.7538
   85TMC2    H2 1330   3.962   3.258  15.423  1.8663 -2.6139  0.6085
   85TMC2    C7 1331   3.938   2.992  15.442 -0.1370 -0.6357  0.7941
   85TMC2    C8 1332   3.892   3.435  15.603 -0.4308 -0.3480  0.7335
   85TMC2    O1 1333   3.958   2.879  15.484  0.3987  0.4471  0.2362
   85TMC2    O2 1334   3.893   3.501  15.500  0.1091  0.2886 -0.0478
   85TMC2    O5 1335   3.959   3.466  15.716  0.4062  0.0242 -0.4962
   85TMC2    H5 1336   3.960   3.398  15.787  1.7774  0.4228 -0.1360
   86MPD2     C 1337   3.340   2.770  16.072 -0.3408  0.1847  0.2429
   86MPD2    C1 1338   3.456   2.692  16.039  0.5198 -0.1523 -0.2015
   86MPD2    C2 1339   3.559   2.754  15.972  0.9241 -0.7527 -0.5091
   86MPD2    C3 1340   3.560   2.895  15.946 -0.1722  0.6455  0.3361
   86MPD2    C4 1341   3.448   2.966  15.986 -0.0844  0.0177  0.3075
   86MPD2    C5 1342   3.344   2.905  16.054  0.4274 -0.1089  0.0104
   86MPD2     H 1343   3.652   2.702  15.953  0.8393 -1.6835  1.5324
   86MPD2    H1 1344   3.430   3.070  15.962 -0.1765  0.5451  2.6095
   86MPD2    H2 1345   3.248   2.733  16.115 -1.1663 -2.3013 -3.6437
   86MPD2    H3 1346   3.257   2.964  16.080  1.1635  1.0584 -0.2214
   86MPD2     N 1347   3.674   2.953  15.880  0.3652 -0.4430  0.2223
   86MPD2    H5 1348   3.751   2.891  15.853  0.4164 -0.6291  0.8035
   86MPD2    N1 1349   3.449   2.547  16.054  0.4474  0.5845  0.4107
   86MPD2    H7 1350   3.520   2.492  16.008 -0.4069  1.2259 -1.6720
   87TMC2    C1 1351   1.447   1.125   0.777  0.2750 -0.6247 -1.0260
   87TMC2    C2 1352   1.557   1.197   0.823  0.0949  0.3089  0.0521
   87TMC2    C3 1353   1.536   1.319   0.869 -0.4123 -0.3950 -0.0706
   87TMC2    C4 1354   1.325   1.183   0.756  0.7421 -0.0238 -0.4042
   87TMC2    C5 1355   1.311   1.313   0.804 -0.3332 -0.4913  0.8749
   87TMC2    C6 1356   1.409   1.385   0.858 -0.6928 -0.6452 -0.3125
   87TMC2     C 1357   1.489   0.997   0.717  0.2496  0.3307  0.1728
   87TMC2     O 1358   1.609   0.968   0.713  0.4550  0.2236  0.4027
   87TMC2     H 1359   1.655   1.151   0.825  0.4873  1.1828  0.9395
   87TMC2    H1 1360   1.240   1.118   0.736 -0.4827  1.5151 -0.2250
   87TMC2    H2 1361   1.397   1.485   0.897  0.6178 -1.1578  1.4050
   87TMC2    C7 1362   1.176   1.375   0.784  0.7490  0.0566 -0.4003
   87TMC2    C8 1363   1.652   1.403   0.900 -0.0968  0.5929 -0.1531
   87TMC2    O1 1364   1.158   1.482   0.849  0.8124  0.0151  0.5942
   87TMC2    O2 1365   1.767   1.362   0.874 -0.2063 -0.1148  0.7310
   87TMC2    O5 1366   1.628   1.490   0.996  0.1080 -0.0791 -0.3784
   87TMC2    H5 1367   1.533   1.502   1.016  0.4369  2.5395 -0.3388
   88MPD2     C 1368   0.904   1.258   0.573  0.1821 -0.3946  0.1555
   88MPD2    C1 1369   0.961   1.335   0.671  0.2276  0.4713 -0.1418
   88MPD2    C2 1370   0.884   1.424   0.746  0.2285  0.6272  0.1724
   88MPD2    C3 1371   0.748   1.433   0.719 -0.1797  0.1418  0.2489
   88MPD2    C4 1372   0.696   1.364   0.606  0.3540  0.3388 -0.0429
   88MPD2    C5 1373   0.779   1.278   0.541  0.4789 -0.7680  0.9628
   88MPD2     H 1374   0.924   1.488   0.823  0.1364 -0.3970  1.0820
   88MPD2    H1 1375   0.591   1.356   0.582  0.1368 -0.6449  1.2044
   88MPD2    H2 1376   0.964   1.185   0.521 -2.1497 -1.9051 -0.4322
   88MPD2    H3 1377   0.740   1.231   0.451  0.4755 -0.1039  0.6188
   88MPD2     N 1378   0.657   1.523   0.787  0.7268 -0.4524  0.3193
   88MPD2    H5 1379   0.567   1.550   0.748 -0.2605 -1.1597  2.1245
   88MPD2    N1 1380   1.094   1.305   0.702  0.4770 -0.8009  0.6006
   88MPD2    H7 1381   1.141   1.240   0.641 -0.8048 -1.0810 -0.0922
   89TMC2    C1 1382   2.709   3.950   1.202  0.3432 -0.3127 -0.1661
   89TMC2    C2 1383   2.780   3.941   1.081 -0.3504 -1.5691 -0.4477
   89TMC2    C3 1384   2.839   4.061   1.032 -0.6637  0.0786 -0.1075
   89TMC2    C4 1385   2.726   4.062   1.284  0.5450  0.2918 -0.0990
   89TMC2    C5 1386   2.785   4.172   1.233 -0.5012  0.3690 -0.2339
   89TMC2    C6 1387   2.841   4.175   1.107 -0.9510  0.0267 -0.6939
   89TMC2     C 1388   2.664   3.823   1.258  0.4089 -0.0456  0.6957
   89TMC2     O 1389   2.735   3.727   1.225  0.4278  0.2634 -0.0172
   89TMC2     H 1390   2.790   3.850   1.024 -0.9751 -1.5882 -0.5241
   89TMC2    H1 1391   2.664   4.071   1.372  2.9234 -1.2699  1.7339
   89TMC2    H2 1392   2.883   4.266   1.066  0.1370 -0.6762 -1.1292
   89TMC2    C7 1393   2.816   4.278   1.325 -0.1430 -0.1289 -0.0399
   89TMC2    C8 1394   2.897   4.068   0.900  0.5867  0.2161 -0.2306
   89TMC2    O1 1395   2.778   4.261   1.438 -0.2333 -0.2962 -0.1264
   89TMC2    O2 1396   2.945   4.173   0.858  0.2509  0.4337 -0.3083
   89TMC2    O5 1397   2.922   3.944   0.855 -0.1368  0.1185  0.3673
   89TMC2    H5 1398   2.865   3.871   0.888 -1.2132  0.3547 -0.9642
   90MPD2     C 1399   2.290   3.515   1.431  0.6061 -0.1509 -0.5893
   90MPD2    C1 1400   2.249   3.647   1.449  0.2738 -0.0879  0.8292
   90MPD2    C2 1401   2.341   3.752   1.424  0.4489 -0.2133 -0.3659
   90MPD2    C3 1402   2.467   3.725   1.373  0.7634  0.3602  0.7947
   90MPD2    C4 1403   2.501   3.590   1.349  0.3992 -0.2199  0.1017
   90MPD2    C5 1404   2.411   3.489   1.380  0.3256  0.0174 -0.2201
   90MPD2     H 1405   2.319   3.857   1.443  1.6127 -0.4128  2.0443
   90MPD2    H1 1406   2.594   3.557   1.304  0.8178  0.3889  0.5208
   90MPD2    H2 1407   2.226   3.429   1.449 -0.1078  0.2190 -1.3806
   90MPD2    H3 1408   2.443   3.385   1.377 -0.0962 -0.0470 -2.1603
   90MPD2     N 1409   2.545   3.832   1.331 -0.7333  0.3511 -0.7491
   90MPD2    H5 1410   2.504   3.922   1.351 -2.0980 -0.2635 -0.7502
   90MPD2    N1 1411   2.116   3.666   1.482 -0.0193 -0.4442  0.1217
   90MPD2    H7 1412   2.062   3.582   1.468  1.3344 -1.2341 -0.3414
   91TMC2    C1 1413   3.750   3.966  16.611  0.2864 -0.4773 -0.5092
   91TMC2    C2 1414   3.749   4.091  16.553  0.3563  0.4495  0.2882
   91TMC2    C3 1415   3.630   4.148  16.512  0.7294  0.1424  0.1599
   91TMC2    C4 1416   3.636   3.888  16.600 -0.5400 -0.1302 -0.1510
   91TMC2    C5 1417   3.520   3.948  16.553 -0.0702  0.3328  0.4630
   91TMC2    C6 1418   3.515   4.082  16.506  0.0557 -0.0078  0.1089
   91TMC2     C 1419   3.874   3.889  16.623 -0.2840  1.1416  1.0726
   91TMC2     O 1420   3.870   3.781  16.686 -0.0619  0.2907  0.5428
   91TMC2     H 1421   3.840   4.150  16.545  0.3995  0.3439  0.0029
   91TMC2    H1 1422   3.630   3.786  16.636  0.6098 -0.3506 -0.5866
   91TMC2    H2 1423   3.418   4.125  16.487 -0.1535  0.2368  1.7252
   91TMC2    C7 1424   3.410   3.864  16.526 -0.4749 -0.4594  0.1500
   91TMC2    C8 1425   3.633   4.275  16.445  0.1249  0.2820  0.5630
   91TMC2    O1 1426   3.400   3.768  16.600  0.2629  0.4135  0.2579
   91TMC2    O2 1427   3.593   4.293  16.327  0.0522 -0.1312 -0.3826
   91TMC2    O5 1428   3.696   4.367  16.522 -0.3906 -0.0171  0.1773
   91TMC2    H5 1429   3.724   4.344  16.613 -1.8238 -1.1050  0.3320
   92MPD2     C 1430   4.156   3.783  16.579 -0.9331  0.7374  0.1749
   92MPD2    C1 1431   4.109   3.911  16.548  0.4240  0.2130 -0.2903
   92MPD2    C2 1432   4.195   3.999  16.484  0.6379  0.3064 -0.2248
   92MPD2    C3 1433   4.331   3.962  16.459  0.3750 -0.5654  0.1607
   92MPD2    C4 1434   4.373   3.835  16.496 -0.8398 -0.0997 -0.7661
   92MPD2    C5 1435   4.285   3.754  16.562  0.1811  0.9809 -0.4379
   92MPD2     H 1436   4.162   4.097  16.454 -2.1180 -0.8992 -1.0876
   92MPD2    H1 1437   4.473   3.795  16.483 -1.0279 -1.0625  0.6705
   92MPD2    H2 1438   4.095   3.706  16.625  0.4640 -0.8976 -0.7371
   92MPD2    H3 1439   4.317   3.656  16.596  0.4333  0.2614 -2.7196
   92MPD2     N 1440   4.411   4.063  16.400  0.0218 -0.2030  0.0926
   92MPD2    H5 1441   4.373   4.156  16.390  1.3478  0.4814  1.4597
   92MPD2    N1 1442   3.975   3.957  16.565 -0.3443 -0.4700 -0.4936
   92MPD2    H7 1443   3.958   4.054  16.539 -0.3515  0.0302  1.3303
   93TMC2    C1 1444   1.341   4.014  14.174  0.0757 -0.1002 -0.4165
   93TMC2    C2 1445   1.290   4.143  14.207  0.1427 -0.2303 -0.5276
   93TMC2    C3 1446   1.386   4.242  14.232  0.2492 -0.3011  0.1216
   93TMC2    C4 1447   1.471   3.996  14.172 -0.7255 -0.3959  0.1377
   93TMC2    C5 1448   1.558   4.091  14.213 -0.6038 -0.4255  1.0300
   93TMC2    C6 1449   1.522   4.221  14.240 -0.5331  0.5542 -0.7664
   93TMC2     C 1450   1.257   3.910  14.123 -0.0424 -0.5946  0.7384
   93TMC2     O 1451   1.315   3.811  14.083 -0.2118 -0.7877  0.3076
   93TMC2     H 1452   1.185   4.168  14.203  0.4329  0.9987 -0.6151
   93TMC2    H1 1453   1.514   3.909  14.124  1.7703 -1.0882  3.5677
   93TMC2    H2 1454   1.595   4.301  14.253  0.6541 -0.8146  0.9672
   93TMC2    C7 1455   1.694   4.044  14.234 -0.2155  0.1853  0.7477
   93TMC2    C8 1456   1.348   4.375  14.282  0.2126 -0.2463  0.1851
   93TMC2    O1 1457   1.711   3.927  14.219  0.3106  0.1832 -0.4283
   93TMC2    O2 1458   1.398   4.436  14.381 -0.1828  0.5215  0.2267
   93TMC2    O5 1459   1.234   4.417  14.217 -0.8937  0.3624 -0.2874
   93TMC2    H5 1460   1.220   4.367  14.135 -1.1857  0.3639 -0.2364
   94MPD2     C 1461   1.045   3.780  13.966  0.2559  0.7375  0.8602
   94MPD2    C1 1462   1.031   3.900  14.034  0.7307 -1.1218 -0.3793
   94MPD2    C2 1463   0.907   3.947  14.041  0.0161 -0.3868 -0.7220
   94MPD2    C3 1464   0.802   3.895  13.961 -1.0379 -0.3201 -0.1188
   94MPD2    C4 1465   0.817   3.780  13.892 -0.0203  0.1281  0.0307
   94MPD2    C5 1466   0.936   3.719  13.901  0.0580 -0.4079 -0.8375
   94MPD2     H 1467   0.887   4.041  14.091  0.3020 -0.7021 -0.0126
   94MPD2    H1 1468   0.744   3.736  13.826 -0.3348  3.4731 -1.8316
   94MPD2    H2 1469   1.140   3.726  13.964  0.2082  0.6742  0.2118
   94MPD2    H3 1470   0.946   3.623  13.850 -3.4193 -0.7205 -0.9132
   94MPD2     N 1471   0.683   3.959  13.971  0.4560  0.3390  0.0294
   94MPD2    H5 1472   0.675   4.048  14.019  1.1017  1.6236 -2.2579
   94MPD2    N1 1473   1.130   3.953  14.110  0.4622  0.3149  0.5088
   94MPD2    H7 1474   1.113   4.045  14.149  0.7069  0.4231  0.3578
   95TMC2    C1 1475   1.009   0.512  16.202 -1.2888 -0.4051 -0.1420
   95TMC2    C2 1476   1.058   0.390  16.161 -0.0220  0.2047 -0.2035
   95TMC2    C3 1477   1.055   0.284  16.245 -0.2990  0.1338  0.0858
   95TMC2    C4 1478   0.963   0.534  16.327  0.1655  0.2685 -0.2651
   95TMC2    C5 1479   0.964   0.428  16.410 -0.2480 -0.1559 -0.1342
   95TMC2    C6 1480   1.003   0.299  16.372 -0.2863 -0.7323 -0.0283
   95TMC2     C 1481   1.041   0.623  16.120  0.4793 -1.1072 -0.2669
   95TMC2     O 1482   1.134   0.610  16.035 -0.3550 -0.1373  0.2709
   95TMC2     H 1483   1.103   0.381  16.063  0.7942  0.8851  0.1064
   95TMC2    H1 1484   0.941   0.634  16.363 -0.2262 -0.5041  1.5905
   95TMC2    H2 1485   1.011   0.217  16.442  0.7650  1.4384  2.3884
   95TMC2    C7 1486   0.936   0.444  16.550  0.5010 -0.1745  0.0989
   95TMC2    C8 1487   1.144   0.175  16.208 -0.5773 -0.3151  0.0901
   95TMC2    O1 1488   0.914   0.337  16.605  0.2195 -0.4298 -0.3727
   95TMC2    O2 1489   1.217   0.182  16.112 -0.6049  0.9502  0.1310
   95TMC2    O5 1490   1.168   0.084  16.304 -0.4026  0.1602  0.1599
   95TMC2    H5 1491   1.117   0.084  16.388 -0.2892  0.9502  0.2314
   96MPD2     C 1492   0.985   1.106  15.951 -0.2919 -0.3797 -0.6718
   96MPD2    C1 1493   1.087   1.018  15.931  0.5178  0.6994 -0.5355
   96MPD2    C2 1494   1.079   0.900  15.995 -0.0059  0.1960  0.3495
   96MPD2    C3 1495   0.975   0.861  16.079  0.6504 -0.5586  0.1129
   96MPD2    C4 1496   0.868   0.951  16.086  0.4720 -0.1830  0.0336
   96MPD2    C5 1497   0.876   1.071  16.027  1.1841  0.4245 -0.6312
   96MPD2     H 1498   1.156   0.827  15.977 -1.1113 -0.7965 -0.3783
   96MPD2    H1 1499   0.785   0.932  16.154  0.2081  0.4645 -0.0984
   96MPD2    H2 1500   0.986   1.199  15.895  0.4485 -0.0213 -0.0752
   96MPD2    H3 1501   0.804   1.148  16.054  0.0685  0.2631 -3.0460
   96MPD2     N 1502   0.961   0.732  16.144  0.2849  0.1825 -0.3500
   96MPD2    H5 1503   0.888   0.727  16.214 -0.9042 -2.6353 -1.8056
   96MPD2    N1 1504   1.190   1.073  15.849 -0.1874  0.4809  0.2742
   96MPD2    H7 1505   1.173   1.162  15.803 -0.0836  0.8199  0.8947
   97TMC2    C1 1506   3.034   3.541  17.642  0.2612 -0.2289  0.2849
   97TMC2    C2 1507   2.895   3.542  17.657 -0.3333  0.1389  0.7592
   97TMC2    C3 1508   2.822   3.653  17.633 -0.3967  0.1328  0.3380
   97TMC2    C4 1509   3.092   3.660  17.610  0.1367 -0.0378  0.1244
   97TMC2    C5 1510   3.012   3.770  17.590  0.5059  0.8108  0.0541
   97TMC2    C6 1511   2.882   3.772  17.600  0.2468  0.3019 -0.1708
   97TMC2     C 1512   3.099   3.428  17.708  0.3074 -0.2239  0.1303
   97TMC2     O 1513   3.019   3.340   0.006  0.3245  0.6033 -0.3814
   97TMC2     H 1514   2.832   3.457  17.683 -0.5523 -0.2904 -1.1222
   97TMC2    H1 1515   3.199   3.667  17.626  0.4632 -1.7391 -1.3844
   97TMC2    H2 1516   2.824   3.862  17.587 -0.5893 -0.0568  1.1000
   97TMC2    C7 1517   3.085   3.903  17.593  0.1961 -0.2417 -0.1076
   97TMC2    C8 1518   2.684   3.648  17.665 -0.1575 -0.0160  0.0450
   97TMC2    O1 1519   3.187   3.908  17.659 -0.2457 -0.1182  0.3330
   97TMC2    O2 1520   2.624   3.539  17.661 -0.2598 -0.0179  0.5911
   97TMC2    O5 1521   2.676   3.734   0.046 -0.6549 -0.0148  0.0742
   97TMC2    H5 1522   2.727   3.817   0.030  2.9987 -1.9792  1.5483
   98MPD2     C 1523   3.449   3.278   0.331  0.5352  0.2315 -0.2255
   98MPD2    C1 1524   3.308   3.272   0.335  0.9025 -0.6655 -0.2836
   98MPD2    C2 1525   3.246   3.326   0.224  0.3595  0.0462  0.5501
   98MPD2    C3 1526   3.310   3.380   0.111  0.0299 -0.4596 -0.7472
   98MPD2    C4 1527   3.451   3.386   0.112  0.5836  0.0937  0.5290
   98MPD2    C5 1528   3.515   3.328   0.220  0.0696  0.1003 -0.3754
   98MPD2     H 1529   3.138   3.328   0.217  0.2470  0.9954  2.3760
   98MPD2    H1 1530   3.502   3.432   0.028  1.3020 -2.5212 -0.4615
   98MPD2    H2 1531   3.504   3.253   0.421 -1.6511  1.7956  1.5535
   98MPD2    H3 1532   3.623   3.332   0.214  0.0369  1.6937 -0.0369
   98MPD2     N 1533   3.230   3.450   0.011  0.5666 -0.1261 -0.5379
   98MPD2    H5 1534   3.284   3.503  17.671  1.3905  1.0940  1.0715
   98MPD2    N1 1535   3.243   3.216   0.452 -1.0470 -0.4264 -0.0921
   98MPD2    H7 1536   3.311   3.169   0.510  0.0023  1.0868 -0.0725
   99TMC2    C1 1537   2.549   0.608   1.448  0.5818 -0.6356  0.5385
   99TMC2    C2 1538   2.656   0.659   1.509  0.1308 -0.8416 -0.5844
   99TMC2    C3 1539   2.651   0.787   1.549 -0.0876  0.2328 -0.1958
   99TMC2    C4 1540   2.435   0.681   1.419 -0.1208  0.4449 -0.1979
   99TMC2    C5 1541   2.439   0.816   1.453 -0.0896  0.1405 -0.0920
   99TMC2    C6 1542   2.543   0.861   1.522  1.3285  0.8459 -0.8242
   99TMC2     C 1543   2.546   0.467   1.422  0.4284 -0.0846  0.1353
   99TMC2     O 1544   2.651   0.406   1.432 -0.5249  0.4007 -0.8965
   99TMC2     H 1545   2.748   0.603   1.503 -0.4013 -1.6636 -1.0483
   99TMC2    H1 1546   2.353   0.640   1.361 -1.1192  2.2568 -0.0783
   99TMC2    H2 1547   2.535   0.966   1.547  2.2397  0.4324  1.1985
   99TMC2    C7 1548   2.335   0.910   1.424  0.0825 -0.4861 -0.4107
   99TMC2    C8 1549   2.773   0.859   1.572 -1.1346  0.2364  0.2153
   99TMC2    O1 1550   2.362   1.029   1.415  0.2233 -0.1106 -0.4154
   99TMC2    O2 1551   2.774   0.979   1.561 -0.2700  0.2905  0.2915
   99TMC2    O5 1552   2.833   0.787   1.676  0.0996 -0.0111  0.1313
   99TMC2    H5 1553   2.800   0.695   1.686  1.6659 -0.4490  1.2530
  100MPD2     C 1554   2.491   0.187   1.317 -0.3542 -0.0538  0.3743
  100MPD2    C1 1555   2.404   0.296   1.325  0.2296  0.1374 -0.0025
  100MPD2    C2 1556   2.274   0.256   1.284  0.1941  0.4741  0.2038
  100MPD2    C3 1557   2.228   0.137   1.238 -0.4536 -0.0599 -0.5458
  100MPD2    C4 1558   2.320   0.034   1.243  0.0387 -0.4115 -0.0791
  100MPD2    C5 1559   2.444   0.060   1.288 -0.1155  0.5269  0.3877
  100MPD2     H 1560   2.208   0.342   1.284  0.4882  0.6984 -0.4875
  100MPD2    H1 1561   2.300   4.665   1.209 -1.0634  0.6411 -2.5474
  100MPD2    H2 1562   2.595   0.197   1.344 -0.4092  2.4182 -0.3515
  100MPD2    H3 1563   2.517   4.713   1.278 -0.8366 -0.2780  1.4488
  100MPD2     N 1564   2.096   0.124   1.189 -0.0007 -0.1075 -0.7257
  100MPD2    H5 1565   2.044   0.211   1.191  1.7100  0.9149 -0.6110
  100MPD2    N1 1566   2.427   0.430   1.369  0.7541 -0.0829  0.2011
  100MPD2    H7 1567   2.356   0.503   1.369  1.2411  0.3930  1.3801
  101TMC2    C1 1568   2.590   1.912  13.195  0.6368  0.0338  0.0590
  101TMC2    C2 1569   2.554   2.005  13.289 -0.9172 -0.2221 -0.6931
  101TMC2    C3 1570   2.517   2.124  13.237 -0.4039 -0.2701 -0.0851
  101TMC2    C4 1571   2.594   1.929  13.062  0.5620  0.2025 -0.2101
  101TMC2    C5 1572   2.555   2.049  13.019  0.9133 -0.0348  0.2881
  101TMC2    C6 1573   2.508   2.144  13.106  0.7597  0.5711  0.5382
  101TMC2     C 1574   2.592   1.781  13.241 -0.6227  0.6875  0.0751
  101TMC2     O 1575   2.516   1.755  13.333  0.0925 -0.1718  0.1563
  101TMC2     H 1576   2.550   1.980  13.394 -1.1019  0.9661 -0.4194
  101TMC2    H1 1577   2.619   1.853  12.989 -0.1889  0.0564 -0.3202
  101TMC2    H2 1578   2.458   2.234  13.072  1.5881  1.3929  1.4877
  101TMC2    C7 1579   2.631   2.094  12.899  0.3181 -0.6721 -0.0491
  101TMC2    C8 1580   2.414   2.198  13.319  0.4815 -0.9866 -0.3102
  101TMC2    O1 1581   2.733   2.032  12.872  0.6231  0.1414  0.2949
  101TMC2    O2 1582   2.323   2.142  13.379 -0.4585 -0.0613  0.3637
  101TMC2    O5 1583   2.459   2.321  13.352  0.2691  1.2964 -0.1310
  101TMC2    H5 1584   2.548   2.341  13.318 -0.0355 -0.7767 -2.1466
  102MPD2     C 1585   2.759   1.498  13.085 -0.4329 -0.2461  0.4942
  102MPD2    C1 1586   2.668   1.564  13.160  0.6780 -0.0111  0.0536
  102MPD2    C2 1587   2.577   1.484  13.232  0.6881 -0.1978  0.4262
  102MPD2    C3 1588   2.565   1.345  13.230 -0.2327 -0.0604 -0.1107
  102MPD2    C4 1589   2.652   1.285  13.143 -0.0978 -0.0065  0.2356
  102MPD2    C5 1590   2.751   1.359  13.077 -0.3579  0.0982 -0.2687
  102MPD2     H 1591   2.491   1.529  13.280  0.1572  0.4316 -1.1009
  102MPD2    H1 1592   2.650   1.177  13.151  2.0339 -0.1258 -0.7370
  102MPD2    H2 1593   2.829   1.548  13.020  0.5750  1.5646  2.9805
  102MPD2    H3 1594   2.828   1.300  13.031  1.1748  0.9420  1.2142
  102MPD2     N 1595   2.458   1.277  13.300 -0.2019  0.1624 -0.0585
  102MPD2    H5 1596   2.413   1.323  13.379 -0.2189  0.1892 -0.0835
  102MPD2    N1 1597   2.682   1.702  13.167  0.1532  0.1100  0.1357
  102MPD2    H7 1598   2.755   1.751  13.116 -0.8216 -0.4992 -1.8741
  103TMC2    C1 1599   0.534   1.459  12.615 -0.0439  0.1955  0.4233
  103TMC2    C2 1600   0.624   1.560  12.601 -0.1541  0.1906 -0.7908
  103TMC2    C3 1601   0.689   1.594  12.717 -0.2984 -0.0177 -0.1625
  103TMC2    C4 1602   0.491   1.419  12.737 -0.0540 -0.5537  0.1885
  103TMC2    C5 1603   0.553   1.466  12.849 -0.1146 -0.6157 -0.1301
  103TMC2    C6 1604   0.659   1.557  12.844  0.0110  0.5933  0.1125
  103TMC2     C 1605   0.452   1.427  12.494  0.0077 -0.2356 -0.3738
  103TMC2     O 1606   0.495   1.473  12.390  0.5550  0.5197 -0.6131
  103TMC2     H 1607   0.647   1.595  12.501 -1.9602  0.2365 -1.2062
  103TMC2    H1 1608   0.408   1.355  12.763 -0.0119 -0.4873  0.4900
  103TMC2    H2 1609   0.713   1.605  12.925  0.9141 -0.6016  0.2210
  103TMC2    C7 1610   0.511   1.409  12.973 -0.0032  0.1523  0.0532
  103TMC2    C8 1611   0.809   1.672  12.701 -0.3503  0.0496 -0.5717
  103TMC2    O1 1612   0.403   1.342  12.984  0.6027 -0.0104 -0.4221
  103TMC2    O2 1613   0.829   1.731  12.596  0.1069 -0.1645 -0.0309
  103TMC2    O5 1614   0.906   1.615  12.768 -0.1349  0.0222  0.1485
  103TMC2    H5 1615   0.884   1.553  12.840  2.3494 -0.1243  0.7790
  104MPD2     C 1616   0.177   1.183  12.468 -0.2955 -0.0755 -0.5938
  104MPD2    C1 1617   0.250   1.300  12.434 -0.0753 -0.2644  0.3540
  104MPD2    C2 1618   0.211   1.378  12.325 -0.6746 -0.7160 -0.2246
  104MPD2    C3 1619   0.095   1.350  12.247  0.5955 -0.2793 -0.0813
  104MPD2    C4 1620   0.028   1.236  12.284 -0.5082 -0.2217 -0.1303
  104MPD2    C5 1621   0.065   1.162  12.392  0.5189 -0.4514 -0.7128
  104MPD2     H 1622   0.267   1.470  12.310  3.1041 -2.6071  2.0208
  104MPD2    H1 1623   4.665   1.202  12.245 -1.1570 -0.7920  1.9509
  104MPD2    H2 1624   0.193   1.122  12.556 -1.1911  0.9252  0.2609
  104MPD2    H3 1625   0.004   1.082  12.433  1.0328 -0.8079 -0.6422
  104MPD2     N 1626   0.041   1.435  12.148  0.5166 -0.0482  0.3268
  104MPD2    H5 1627   0.107   1.508  12.122 -0.3787  0.6384 -0.0412
  104MPD2    N1 1628   0.350   1.339  12.525  0.0870  0.6038 -0.0021
  104MPD2    H7 1629   0.370   1.281  12.605 -0.0457  1.0972  0.3917
  105TMC2    C1 1630   1.998   0.518   0.220 -0.6126 -0.4485  0.6407
  105TMC2    C2 1631   2.026   0.396   0.182 -0.3241 -0.1343 -0.6232
  105TMC2    C3 1632   1.942   0.293   0.212 -0.6657 -0.1915 -0.0741
  105TMC2    C4 1633   1.896   0.542   0.301 -0.1520  0.0669  0.2098
  105TMC2    C5 1634   1.803   0.442   0.319  0.1082  0.2778 -0.8475
  105TMC2    C6 1635   1.821   0.311   0.281 -0.4677 -0.3146 -0.5778
  105TMC2     C 1636   2.100   0.617   0.216 -0.6466  0.2419  0.3732
  105TMC2     O 1637   2.162   0.643   0.319  0.2035  0.2279  0.3556
  105TMC2     H 1638   2.109   0.371   0.116 -0.1346  2.8289 -1.4915
  105TMC2    H1 1639   1.891   0.645   0.336 -1.5618  0.0823 -0.0158
  105TMC2    H2 1640   1.741   0.238   0.275  0.5167 -1.4716  0.4281
  105TMC2    C7 1641   1.670   0.468   0.370  0.6374  0.2205  0.1067
  105TMC2    C8 1642   1.946   0.186   0.115  0.5041 -0.8560  0.3402
  105TMC2    O1 1643   1.595   0.371   0.372  0.3758 -0.2157 -0.0773
  105TMC2    O2 1644   1.934   0.232   0.002 -0.2579  1.0401  0.0109
  105TMC2    O5 1645   2.043   0.107   0.171 -0.2602 -0.6230 -0.2215
  105TMC2    H5 1646   2.046   0.119   0.268  0.0288 -0.3213 -0.2673
  106MPD2     C 1647   2.371   0.921  17.641  0.6275  0.0645  0.3759
  106MPD2    C1 1648   2.255   0.895  17.575 -0.5162 -0.4858 -0.3754
  106MPD2    C2 1649   2.165   0.811  17.645  0.4920 -0.1778  0.1860
  106MPD2    C3 1650   2.197   0.765   0.038 -0.6017  0.2574 -0.2620
  106MPD2    C4 1651   2.300   0.810   0.109 -1.0475 -0.7416  0.3970
  106MPD2    C5 1652   2.394   0.882   0.040 -0.4425 -0.0521  0.0837
  106MPD2     H 1653   2.067   0.780  17.610  0.1426  1.9182 -0.7073
  106MPD2    H1 1654   2.321   0.779   0.211  3.0188  0.9408  0.0667
  106MPD2    H2 1655   2.434   1.006  17.620 -2.0504  2.0602  0.4302
  106MPD2    H3 1656   2.476   0.914   0.104 -0.5200 -0.9774  0.6504
  106MPD2     N 1657   2.103   0.674   0.090 -0.3897  0.2343  0.5590
  106MPD2    H5 1658   2.024   0.652   0.030  0.8085 -0.7368 -0.6693
  106MPD2    N1 1659   2.212   0.951  17.448  0.4547 -0.0287 -0.0006
  106MPD2    H7 1660   2.114   0.942  17.423  0.5405 -0.2926 -0.2463
  107TMC2    C1 1661   2.466   0.105  11.505 -0.0553 -0.4758  0.2428
  107TMC2    C2 1662   2.471   0.183  11.393  0.4635 -0.1497 -0.3667
  107TMC2    C3 1663   2.435   0.125  11.280 -0.2254 -0.3425 -0.6139
  107TMC2    C4 1664   2.441   4.704  11.513  0.0083 -0.2701 -0.3324
  107TMC2    C5 1665   2.413   4.650  11.390  0.0256 -0.2116 -0.1218
  107TMC2    C6 1666   2.401   4.720  11.276 -0.5116 -0.3266 -0.2601
  107TMC2     C 1667   2.499   0.171  11.635 -0.0641 -0.2641 -0.2105
  107TMC2     O 1668   2.536   0.100  11.729 -0.3748 -0.0244  0.4865
  107TMC2     H 1669   2.515   0.283  11.395  2.2448 -0.9648  1.8938
  107TMC2    H1 1670   2.454   4.650  11.606  1.6884  0.8035  0.0607
  107TMC2    H2 1671   2.371   4.686  11.177  3.1075  1.4513 -1.9839
  107TMC2    C7 1672   2.402   4.508  11.394  0.1661  0.1291  0.3190
  107TMC2    C8 1673   2.417   0.197  11.151  0.1305 -0.4935  0.2739
  107TMC2    O1 1674   2.359   4.446  11.487  0.0425 -0.2148 -0.2726
  107TMC2    O2 1675   2.397   0.135  11.046 -0.2285  0.0714  0.4008
  107TMC2    O5 1676   2.447   0.327  11.165  0.0398  0.1459  0.2083
  107TMC2    H5 1677   2.445   0.354  11.259 -1.3011 -0.1566  0.2571
  108MPD2     C 1678   2.403   0.515  11.717  0.6548 -0.0589 -0.2015
  108MPD2    C1 1679   2.466   0.393  11.744 -0.2657  0.5863  0.7387
  108MPD2    C2 1680   2.512   0.372  11.873  0.3362 -0.5138 -0.1484
  108MPD2    C3 1681   2.504   0.473  11.971 -0.2171  0.6140 -0.1648
  108MPD2    C4 1682   2.442   0.593  11.940 -0.3404 -0.5435  1.2571
  108MPD2    C5 1683   2.395   0.613  11.814 -0.8771  0.1952 -0.1357
  108MPD2     H 1684   2.559   0.276  11.889 -0.7194 -0.7084  1.7179
  108MPD2    H1 1685   2.421   0.666  12.018 -0.4158 -1.1487  1.7956
  108MPD2    H2 1686   2.365   0.542  11.619  1.5153 -0.1290 -0.5503
  108MPD2    H3 1687   2.354   0.712  11.799 -0.3008  0.5811  0.8031
  108MPD2     N 1688   2.557   0.456  12.105  0.2068  1.0264 -0.2265
  108MPD2    H5 1689   2.526   0.526  12.172 -1.0693  1.0819 -0.8693
  108MPD2    N1 1690   2.471   0.308  11.633 -0.1590  0.0118  0.3895
  108MPD2    H7 1691   2.433   0.350  11.549 -0.5000 -1.2391 -0.0657
  109TMC2    C1 1692   3.129   2.195   1.303 -0.6245 -0.2148 -0.4980
  109TMC2    C2 1693   3.229   2.103   1.327 -0.8466  0.1968  0.2169
  109TMC2    C3 1694   3.342   2.119   1.245 -0.1787 -0.1255  0.1335
  109TMC2    C4 1695   3.130   2.284   1.199 -0.2534 -0.4456 -0.3191
  109TMC2    C5 1696   3.246   2.296   1.127  0.0343  0.5638  0.1150
  109TMC2    C6 1697   3.351   2.216   1.148  0.0049  0.2035  0.5175
  109TMC2     C 1698   3.013   2.181   1.393 -0.6414 -0.3169 -0.1680
  109TMC2     O 1699   3.014   2.092   1.477 -0.2164  0.3423  0.3893
  109TMC2     H 1700   3.230   2.045   1.419 -0.7004  1.2929  0.9112
  109TMC2    H1 1701   3.046   2.349   1.179 -0.0541  0.5938  2.1878
  109TMC2    H2 1702   3.439   2.211   1.085 -0.4634 -0.5806 -0.0657
  109TMC2    C7 1703   3.250   2.415   1.045 -0.4272  0.1058 -0.0456
  109TMC2    C8 1704   3.457   2.068   1.298  0.2723 -0.3244  0.5991
  109TMC2    O1 1705   3.143   2.475   1.035  0.4247 -0.2209 -0.2206
  109TMC2    O2 1706   3.561   2.128   1.285  1.0002 -0.6008 -0.6126
  109TMC2    O5 1707   3.435   1.932   1.314 -0.1620  0.0667 -0.3852
  109TMC2    H5 1708   3.342   1.903   1.306 -0.7763  2.3259 -1.3145
  110MPD2     C 1709   2.514   2.263   1.447  0.7174 -0.2500  0.6465
  110MPD2    C1 1710   2.550   2.300   1.318  0.2592 -0.4397  0.1730
  110MPD2    C2 1711   2.672   2.259   1.276 -0.8019  0.3769  0.2617
  110MPD2    C3 1712   2.765   2.225   1.368  1.0947  0.0068 -0.1463
  110MPD2    C4 1713   2.728   2.184   1.492  0.2552 -0.4412 -0.3755
  110MPD2    C5 1714   2.598   2.197   1.530  0.1900 -0.8086 -0.4369
  110MPD2     H 1715   2.704   2.284   1.175 -0.4745  2.5843  0.9122
  110MPD2    H1 1716   2.802   2.146   1.562  2.0854  1.0758 -1.4525
  110MPD2    H2 1717   2.419   2.294   1.491 -0.0116 -2.3260  0.5354
  110MPD2    H3 1718   2.566   2.174   1.631 -0.2072  0.2195 -0.3241
  110MPD2     N 1719   2.901   2.222   1.321  0.0286 -0.7419 -0.7196
  110MPD2    H5 1720   2.924   2.250   1.227  2.3700 -2.1888 -0.6021
  110MPD2    N1 1721   2.465   2.385   1.252 -0.1131 -0.1188 -0.9809
  110MPD2    H7 1722   2.392   2.421   1.313  0.5944  0.2491 -0.3390
  111TMC2    C1 1723   3.307   2.906  11.597  0.2909 -0.4727  0.3476
  111TMC2    C2 1724   3.400   2.989  11.548 -0.5359  0.2772 -0.3850
  111TMC2    C3 1725   3.499   3.035  11.630  0.3445  0.6747 -0.2739
  111TMC2    C4 1726   3.312   2.853  11.717 -0.4824 -0.4199  0.8389
  111TMC2    C5 1727   3.423   2.879  11.786 -0.3004 -0.0862  0.0642
  111TMC2    C6 1728   3.522   2.965  11.747  0.5990 -0.3628  0.0181
  111TMC2     C 1729   3.187   2.895  11.516  0.4039  0.3410  0.5041
  111TMC2     O 1730   3.183   2.936  11.400 -0.6142 -0.0733  0.4813
  111TMC2     H 1731   3.390   3.041  11.453  0.4489  2.5748  0.7700
  111TMC2    H1 1732   3.254   2.767  11.747 -2.2368  1.0829  1.7727
  111TMC2    H2 1733   3.582   3.004  11.829 -0.5377 -0.4099  0.8738
  111TMC2    C7 1734   3.431   2.820  11.917 -0.6637  0.4533  0.7160
  111TMC2    C8 1735   3.560   3.165  11.587  1.1152 -0.2981 -0.2543
  111TMC2    O1 1736   3.331   2.785  11.976 -0.0422  0.3684  0.1599
  111TMC2    O2 1737   3.560   3.210  11.475  0.4509  0.4517 -0.9327
  111TMC2    O5 1738   3.651   3.212  11.678  0.3241  0.2190 -0.6305
  111TMC2    H5 1739   3.640   3.173  11.767  0.5938  0.8470 -0.3227
  112MPD2     C 1740   2.679   2.751  11.499 -0.7782  0.1185  0.4771
  112MPD2    C1 1741   2.766   2.787  11.397  0.3251 -0.2208  0.0709
  112MPD2    C2 1742   2.901   2.823  11.424  0.0168  0.1683 -0.3232
  112MPD2    C3 1743   2.952   2.810  11.551 -0.2949 -0.2659  0.4619
  112MPD2    C4 1744   2.867   2.772  11.657 -0.2305 -0.3235  0.6524
  112MPD2    C5 1745   2.734   2.753  11.624  0.2590 -0.1079 -0.0394
  112MPD2     H 1746   2.959   2.861  11.340  1.9879  0.3300  1.1007
  112MPD2    H1 1747   2.889   2.746  11.760 -0.5397 -0.7413  0.6149
  112MPD2    H2 1748   2.574   2.732  11.483 -1.1021  0.9853  1.6021
  112MPD2    H3 1749   2.670   2.713  11.701  2.2498 -3.2684 -0.0196
  112MPD2     N 1750   3.089   2.829  11.588 -0.0844  0.4720  1.0016
  112MPD2    H5 1751   3.096   2.817  11.689 -1.3200  0.9151  1.1372
  112MPD2    N1 1752   2.720   2.786  11.262 -0.6855  0.1155 -0.4168
  112MPD2    H7 1753   2.787   2.812  11.191 -0.4057  0.1277 -0.1473
  113TMC2    C1 1754   0.450   0.346   0.551  0.3893  0.2494 -0.7169
  113TMC2    C2 1755   0.320   0.347   0.599  0.0296 -0.1954  0.2519
  113TMC2    C3 1756   0.256   0.231   0.612  0.4849 -0.1186 -0.2290
  113TMC2    C4 1757   0.522   0.230   0.538  0.4831  0.1866 -0.1668
  113TMC2    C5 1758   0.453   0.107   0.577 -0.5800 -0.0673 -0.3355
  113TMC2    C6 1759   0.319   0.107   0.614  0.1240  0.1349 -0.0898
  113TMC2     C 1760   0.514   0.481   0.533 -0.1911  0.4554  0.4365
  113TMC2     O 1761   0.457   0.569   0.587  0.2967 -0.2924 -0.6916
  113TMC2     H 1762   0.263   0.439   0.601  0.4677  0.0675  0.5655
  113TMC2    H1 1763   0.621   0.218   0.496  0.2833  1.3566 -0.9677
  113TMC2    H2 1764   0.263   0.015   0.624  1.2543 -0.1561  3.3526
  113TMC2    C7 1765   0.524   4.712   0.564  0.1291 -0.1736 -0.6684
  113TMC2    C8 1766   0.112   0.242   0.636  0.7205 -0.6191  0.6113
  113TMC2    O1 1767   0.618   4.706   0.485 -0.0982  0.1717 -0.7738
  113TMC2    O2 1768   0.055   0.338   0.695  0.2273  0.2104 -0.1513
  113TMC2    O5 1769   0.064   0.121   0.615  0.5706  0.6418 -0.1835
  113TMC2    H5 1770   0.104   0.068   0.543  1.1061 -1.0100  1.3237
  114MPD2     C 1771   0.930   0.766   0.467  0.3307 -0.1945  0.4064
  114MPD2    C1 1772   0.839   0.762   0.574 -0.2518  0.5810  0.3062
  114MPD2    C2 1773   0.737   0.667   0.564 -0.1756 -0.2864 -0.1758
  114MPD2    C3 1774   0.735   0.577   0.460  0.5581 -0.2186 -0.2270
  114MPD2    C4 1775   0.831   0.575   0.366  0.7845 -0.3137  0.4866
  114MPD2    C5 1776   0.924   0.678   0.367 -0.0997 -0.6418 -0.1051
  114MPD2     H 1777   0.652   0.677   0.630 -1.6736  0.7578 -2.2763
  114MPD2    H1 1778   0.831   0.504   0.283 -3.0106 -2.2530  2.1478
  114MPD2    H2 1779   1.009   0.841   0.463  0.6767 -0.5791  0.0604
  114MPD2    H3 1780   0.996   0.680   0.286  0.6844  0.0847  0.5995
  114MPD2     N 1781   0.626   0.481   0.453  0.2950  0.1241 -0.0584
  114MPD2    H5 1782   0.640   0.404   0.388  2.1945  2.5647 -2.4960
  114MPD2    N1 1783   0.838   0.851   0.683 -0.0690  0.2864 -0.3696
  114MPD2    H7 1784   0.759   0.843   0.745 -0.3532 -1.7498 -0.9850
  115TMC2    C1 1785   1.848   3.297   0.086  1.3588  0.7397 -0.0745
  115TMC2    C2 1786   1.926   3.301   0.193 -0.6279  0.3657 -0.6774
  115TMC2    C3 1787   2.020   3.396   0.211 -0.0130  0.1896  0.3285
  115TMC2    C4 1788   1.870   3.387  17.707 -0.0302  1.0430 -0.2991
  115TMC2    C5 1789   1.970   3.480   0.004  0.0233 -0.3672 -0.1928
  115TMC2    C6 1790   2.047   3.491   0.116 -0.4279  0.0837 -0.4627
  115TMC2     C 1791   1.746   3.199   0.080  0.6940  0.4903  0.2903
  115TMC2     O 1792   1.763   3.095   0.140  0.8694 -0.1517  0.0079
  115TMC2     H 1793   1.921   3.216   0.260  1.2863  0.7855  0.0055
  115TMC2    H1 1794   1.826   3.374  17.608  0.1400 -0.8199 -0.1406
  115TMC2    H2 1795   2.119   3.571   0.121 -0.3059 -0.1029  0.6560
  115TMC2    C7 1796   1.992   3.591  17.635  0.5176  0.8205 -0.0344
  115TMC2    C8 1797   2.089   3.409   0.343 -0.1994  0.2458  0.2997
  115TMC2    O1 1798   2.094   3.655  17.642 -0.1091  0.4521  0.4968
  115TMC2    O2 1799   2.035   3.380   0.448  0.2568 -0.7805 -0.1091
  115TMC2    O5 1800   2.217   3.445   0.319 -0.7129 -0.1455  0.3639
  115TMC2    H5 1801   2.254   3.448   0.228  0.4426 -0.9529  0.8053
  116MPD2     C 1802   1.280   3.041  17.636 -0.5495  0.2637  0.7459
  116MPD2    C1 1803   1.380   2.968  17.688 -0.5027 -0.5042  0.2932
  116MPD2    C2 1804   1.504   3.029  17.718 -0.1287 -0.3944  0.2805
  116MPD2    C3 1805   1.521   3.167  17.700 -0.5358  0.2476  0.5032
  116MPD2    C4 1806   1.411   3.243  17.646 -0.1479 -0.3722  0.1667
  116MPD2    C5 1807   1.292   3.182  17.607 -0.8293 -0.4858 -0.1687
  116MPD2     H 1808   1.590   2.974   0.027  0.9705  1.2495  0.2038
  116MPD2    H1 1809   1.419   3.350  17.629  2.2565 -0.2667  2.0676
  116MPD2    H2 1810   1.187   3.002  17.598 -1.3273  2.1558  0.6916
  116MPD2    H3 1811   1.207   3.233  17.562 -0.5722  0.1605  0.0680
  116MPD2     N 1812   1.639   3.244   0.003  0.4208  0.2312  0.0196
  116MPD2    H5 1813   1.638   3.342  17.706 -0.3020 -0.2857 -2.0188
  116MPD2    N1 1814   1.354   2.835  17.710  0.7374  0.1026 -0.0439
  116MPD2    H7 1815   1.255   2.814  17.711  1.2108 -2.0502  1.4823
  117TMC2    C1 1816   0.195   4.338  14.219  0.2329 -0.2072  0.3051
  117TMC2    C2 1817   0.285   4.239  14.259 -0.3701 -0.2774  0.1565
  117TMC2    C3 1818   0.415   4.279  14.280 -0.3214  0.2842  0.2020
  117TMC2    C4 1819   0.241   4.465  14.195  0.8779 -0.3166  0.5261
  117TMC2    C5 1820   0.366   4.500  14.235  0.0684  1.1871 -0.3785
  117TMC2    C6 1821   0.459   4.408  14.258  0.0011 -0.9978  0.1089
  117TMC2     C 1822   0.072   4.278  14.161  0.5451  0.1045 -0.4976
  117TMC2     O 1823   0.047   4.165  14.202 -0.2441 -0.3055  0.1352
  117TMC2     H 1824   0.264   4.137  14.290  0.1533 -0.0115  1.4022
  117TMC2    H1 1825   0.161   4.534  14.171  0.6548 -1.3336 -1.6853
  117TMC2    H2 1826   0.562   4.433  14.280  0.1735  0.7314 -2.6114
  117TMC2    C7 1827   0.418   4.635  14.211  0.4960 -0.2223 -0.3773
  117TMC2    C8 1828   0.517   4.181  14.284 -0.4129 -0.3278 -0.6528
  117TMC2    O1 1829   0.535   4.658  14.238  0.2845  0.0631 -0.6823
  117TMC2    O2 1830   0.609   4.181  14.207 -0.1819  0.2501 -0.1610
  117TMC2    O5 1831   0.534   4.187  14.423  0.3341 -0.0992  0.3213
  117TMC2    H5 1832   0.452   4.195  14.475  0.4487  3.7525 -0.0716
  118MPD2     C 1833   0.268   0.159  13.971 -0.0559  0.3302  0.5055
  118MPD2    C1 1834   0.364   0.103  14.062  0.8455 -0.0354  0.0265
  118MPD2    C2 1835   0.466   0.187  14.107  0.3973 -0.3994  0.3656
  118MPD2    C3 1836   0.474   0.318  14.059  0.3204  0.9607 -0.0993
  118MPD2    C4 1837   0.374   0.372  13.979  0.0986  0.2201  0.5232
  118MPD2    C5 1838   0.279   0.289  13.937 -0.1901  0.5615  0.1339
  118MPD2     H 1839   0.544   0.142  14.168  0.0446 -0.5711  0.6886
  118MPD2    H1 1840   0.373   0.474  13.943  0.6796 -0.6385 -1.9424
  118MPD2    H2 1841   0.178   0.107  13.940 -0.2840  0.8229  0.3360
  118MPD2    H3 1842   0.195   0.337  13.887 -1.1222 -1.5934 -0.3559
  118MPD2     N 1843   0.583   0.401  14.078  0.0233 -0.2682 -0.3782
  118MPD2    H5 1844   0.575   0.488  14.026 -0.5692 -1.3080 -2.0163
  118MPD2    N1 1845   0.341   4.703  14.116 -0.8441 -0.2652  0.3591
  118MPD2    H7 1846   0.265   4.651  14.074  0.2092 -0.7267 -0.9895
  119TMC2    C1 1847   2.970   0.599  13.351 -0.2710 -0.4509 -0.1592
  119TMC2    C2 1848   3.014   0.523  13.244 -0.2113  0.5013  1.2374
  119TMC2    C3 1849   2.940   0.421  13.202  1.1325 -0.1979 -0.4664
  119TMC2    C4 1850   2.842   0.579  13.401  0.4876  0.1542 -0.2980
  119TMC2    C5 1851   2.771   0.471  13.343 -0.0498 -0.9692 -0.5667
  119TMC2    C6 1852   2.812   0.388  13.245  0.7620 -0.3282  0.1540
  119TMC2     C 1853   3.030   0.722  13.391 -0.1709 -0.0644  0.7378
  119TMC2     O 1854   2.980   0.799  13.475  0.4345  0.1475 -0.8768
  119TMC2     H 1855   3.115   0.532  13.207  0.2543 -1.2149  2.0737
  119TMC2    H1 1856   2.799   0.660  13.459 -0.8520 -1.3234  0.8043
  119TMC2    H2 1857   2.756   0.306  13.203 -2.6140  2.2378 -0.3544
  119TMC2    C7 1858   2.645   0.436  13.413  0.7255 -0.0480 -0.1787
  119TMC2    C8 1859   3.003   0.321  13.119 -0.0335 -0.1577 -0.0387
  119TMC2    O1 1860   2.574   0.349  13.365  0.0891 -0.0721  0.3517
  119TMC2    O2 1861   3.123   0.324  13.102  0.6323  0.1835  0.2435
  119TMC2    O5 1862   2.922   0.333  13.018 -0.3299 -0.3482 -0.4932
  119TMC2    H5 1863   2.827   0.328  13.042 -0.3944 -0.1424 -0.7017
  120MPD2     C 1864   3.302   1.138  13.250 -0.0622 -0.0982 -0.0852
  120MPD2    C1 1865   3.188   1.122  13.322  0.3830 -0.2683  0.4515
  120MPD2    C2 1866   3.138   1.001  13.353  0.2297  0.0556  0.0376
  120MPD2    C3 1867   3.200   0.883  13.296 -0.2142  0.0098  0.1667
  120MPD2    C4 1868   3.305   0.901  13.212  0.0936  0.8845 -0.2893
  120MPD2    C5 1869   3.357   1.024  13.193 -0.2333 -0.4778  0.0849
  120MPD2     H 1870   3.045   0.995  13.409  0.5083  0.1032  0.5025
  120MPD2    H1 1871   3.364   0.820  13.170 -0.5040 -0.6409  1.7888
  120MPD2    H2 1872   3.355   1.231  13.231 -2.1899  1.2396  0.5886
  120MPD2    H3 1873   3.445   1.042  13.132  0.1665 -1.8141  0.2709
  120MPD2     N 1874   3.131   0.757  13.298 -0.2919 -0.3598 -0.2511
  120MPD2    H5 1875   3.140   0.698  13.217  2.1407  1.9506 -1.6545
  120MPD2    N1 1876   3.119   1.232  13.371  0.0577  0.1831 -0.4009
  120MPD2    H7 1877   3.166   1.321  13.381  1.3184 -0.5591  0.3529
  121TMC2    C1 1878   0.515   1.681  13.633  0.3039 -0.5248 -0.4026
  121TMC2    C2 1879   0.593   1.609  13.716 -0.1085  0.7525  0.5048
  121TMC2    C3 1880   0.535   1.516  13.795  0.0967 -0.2981  0.0655
  121TMC2    C4 1881   0.385   1.697  13.660 -0.7366  0.3146  0.3010
  121TMC2    C5 1882   0.320   1.612  13.748 -0.6481 -0.3132  0.0350
  121TMC2    C6 1883   0.398   1.521  13.818  0.4495  0.1485 -0.1711
  121TMC2     C 1884   0.569   1.808  13.581 -0.3236 -0.4431  0.7055
  121TMC2     O 1885   0.506   1.870  13.494 -0.2597 -0.4699 -0.1107
  121TMC2     H 1886   0.700   1.613  13.696 -0.1853  2.6507  0.4122
  121TMC2    H1 1887   0.330   1.773  13.605  0.7461  0.1215 -1.4239
  121TMC2    H2 1888   0.357   1.453  13.891 -2.5344  0.1187 -1.8491
  121TMC2    C7 1889   0.200   1.662  13.819 -0.0214  0.1163  0.6456
  121TMC2    C8 1890   0.618   1.440  13.888  1.1608 -0.6962 -0.6504
  121TMC2    O1 1891   0.173   1.618  13.930  0.2428  0.3563 -0.0869
  121TMC2    O2 1892   0.712   1.489  13.948 -0.3736 -0.6054 -0.5782
  121TMC2    O5 1893   0.589   1.308  13.884 -0.0569  0.1775  0.3565
  121TMC2    H5 1894   0.532   1.288  13.807 -0.3991 -1.3350  0.9913
  122MPD2     C 1895   0.841   2.020  13.719 -0.6348  0.5511 -0.3063
  122MPD2    C1 1896   0.741   1.987  13.637  0.3146  0.0445  0.1444
  122MPD2    C2 1897   0.714   2.072  13.527  0.4358 -0.1882  0.0142
  122MPD2    C3 1898   0.778   2.193  13.520 -0.5921 -0.3238 -0.3340
  122MPD2    C4 1899   0.857   2.246  13.629 -0.3856 -0.0775  0.7852
  122MPD2    C5 1900   0.896   2.149  13.714 -0.3775 -0.6545  0.5115
  122MPD2     H 1901   0.650   2.029  13.451 -0.7557  1.1819  0.2363
  122MPD2    H1 1902   0.906   2.342  13.618  2.4065 -1.7095 -0.8990
  122MPD2    H2 1903   0.876   1.949  13.793  0.1227  0.7123 -0.5015
  122MPD2    H3 1904   0.965   2.170  13.795  2.1603 -1.3707 -1.4692
  122MPD2     N 1905   0.749   2.288  13.419 -0.3507 -0.0577  0.4877
  122MPD2    H5 1906   0.779   2.382  13.442 -1.3235  0.0834  1.1606
  122MPD2    N1 1907   0.670   1.866  13.655  0.4042  0.2640  0.6482
  122MPD2    H7 1908   0.706   1.811  13.732  3.0585 -0.6008 -1.1940
  123TMC2    C1 1909   3.082   0.352  10.519 -0.6853 -0.2948 -0.1245
  123TMC2    C2 1910   3.123   0.482  10.551 -0.4308 -0.4597 -0.2043
  123TMC2    C3 1911   3.225   0.536  10.481 -0.2048  0.2157 -0.3797
  123TMC2    C4 1912   3.142   0.276  10.424 -0.2047 -0.4649 -0.4579
  123TMC2    C5 1913   3.242   0.340  10.352  0.4103  0.0905  0.7240
  123TMC2    C6 1914   3.276   0.468  10.380  0.3729 -0.2901  0.5798
  123TMC2     C 1915   2.941   0.312  10.550 -0.0219  0.1238  0.7509
  123TMC2     O 1916   2.931   0.186  10.556 -0.2801  0.1752 -0.2372
  123TMC2     H 1917   3.079   0.532  10.637 -1.3177 -1.4015 -0.1287
  123TMC2    H1 1918   3.100   0.184  10.387 -0.9561  0.4845 -1.9317
  123TMC2    H2 1919   3.351   0.525  10.325 -0.1763  1.3377  1.5205
  123TMC2    C7 1920   3.269   0.292  10.220  0.2984 -0.2885 -0.5440
  123TMC2    C8 1921   3.230   0.681  10.477 -0.3349 -0.3325  0.0766
  123TMC2    O1 1922   3.206   0.200  10.167  0.2713  0.3522  0.4367
  123TMC2    O2 1923   3.271   0.743  10.386 -0.2679  0.3538  0.6290
  123TMC2    O5 1924   3.250   0.719  10.605  0.0655  0.5993 -0.4612
  123TMC2    H5 1925   3.181   0.699  10.671  1.3290 -0.7707  0.4398
  124MPD2     C 1926   2.445   0.367  10.667  0.1479  0.6585 -0.1892
  124MPD2    C1 1927   2.492   0.493  10.624  0.4764 -1.0238  0.2411
  124MPD2    C2 1928   2.627   0.504  10.590 -0.0251 -0.3304 -0.1093
  124MPD2    C3 1929   2.717   0.394  10.599 -0.0877  0.4642 -0.4983
  124MPD2    C4 1930   2.667   0.274  10.646 -0.2760 -0.0205  0.0989
  124MPD2    C5 1931   2.530   0.262  10.683  0.1734  0.4287  0.6907
  124MPD2     H 1932   2.667   0.600  10.557  0.2591 -1.0267 -1.8066
  124MPD2    H1 1933   2.741   0.200  10.675 -0.4805  0.0491  0.8027
  124MPD2    H2 1934   2.341   0.363  10.698  0.9741 -2.3454  2.1513
  124MPD2    H3 1935   2.499   0.166  10.721 -0.5853  1.3479  2.4092
  124MPD2     N 1936   2.856   0.411  10.569  0.3778  0.0811  0.2670
  124MPD2    H5 1937   2.887   0.506  10.555 -0.9704  0.2787 -1.3471
  124MPD2    N1 1938   2.395   0.590  10.587  0.1549  0.5159  0.1785
  124MPD2    H7 1939   2.299   0.576  10.617 -0.3686  0.0747 -1.6963
  125TMC2    C1 1940   3.147   3.222   9.472  0.3070 -0.4914 -0.2748
  125TMC2    C2 1941   3.091   3.213   9.348  0.1109 -1.0672  0.1777
  125TMC2    C3 1942   3.085   3.327   9.280 -0.0969  0.1586  0.4724
  125TMC2    C4 1943   3.210   3.340   9.518 -0.3242 -0.0052 -0.6244
  125TMC2    C5 1944   3.198   3.449   9.439 -0.0036 -0.5051  0.0444
  125TMC2    C6 1945   3.132   3.446   9.317 -0.2888  0.8185  0.2537
  125TMC2     C 1946   3.202   3.099   9.514  0.2726 -0.4643 -0.5248
  125TMC2     O 1947   3.240   3.090   9.629 -0.0987 -0.1688 -0.9100
  125TMC2     H 1948   3.011   3.141   9.331 -0.7145  0.5104 -2.6942
  125TMC2    H1 1949   3.256   3.334   9.616 -2.2979  0.0588  0.3095
  125TMC2    H2 1950   3.126   3.526   9.244  1.8840 -0.2938 -1.1551
  125TMC2    C7 1951   3.291   3.563   9.453 -0.2441  0.2534 -0.6054
  125TMC2    C8 1952   2.964   3.329   9.193 -1.0676 -0.1795 -0.4633
  125TMC2    O1 1953   3.281   3.648   9.367  0.3020  0.3502 -0.1983
  125TMC2    O2 1954   2.922   3.233   9.133 -0.2127 -0.0703  0.5646
  125TMC2    O5 1955   2.902   3.453   9.204 -0.0937 -0.1331 -0.2867
  125TMC2    H5 1956   2.925   3.503   9.286  0.4397 -1.4381  0.3553
  126MPD1     C 1957   3.507   2.723   9.359 -0.8174  0.5515  0.5411
  126MPD1    C1 1958   3.390   2.714   9.289  1.0646  0.0172  0.0555
  126MPD1    C2 1959   3.290   2.809   9.307  0.4154  0.3616  0.2589
  126MPD1    C3 1960   3.307   2.904   9.402  0.0114 -0.8626  0.2929
  126MPD1    C4 1961   3.417   2.902   9.481 -0.0347  0.3502 -0.0868
  126MPD1    C5 1962   3.524   2.816   9.458  1.1708  0.4855 -0.1580
  126MPD1     H 1963   3.196   2.822   9.254  0.3452 -1.1739  0.0211
  126MPD1    H1 1964   3.432   2.986   9.549  0.3892 -0.4447  0.8041
  126MPD1    H2 1965   3.591   2.659   9.331 -1.5295 -0.2092  0.1507
  126MPD1    H3 1966   3.617   2.829   9.513  1.9424 -1.4805 -1.0116
  126MPD1     N 1967   3.214   3.010   9.405 -0.0461 -0.6105  0.3345
  126MPD1    H5 1968   3.158   3.020   9.321 -0.3665  1.5353  0.8018
  126MPD1    N1 1969   3.378   2.614   9.188  0.4254  1.0157 -0.0881
  126MPD1    H6 1970   3.278   2.610   9.170  0.2834 -0.9020  1.0976
  126MPD1    H7 1971   3.409   2.521   9.217  0.7664 -0.2512 -4.5080
  127TMC2    C1 1972   0.325   1.960   9.802 -0.7340 -0.5848 -0.3461
  127TMC2    C2 1973   0.406   1.918   9.909  0.5083 -0.6350 -0.3503
  127TMC2    C3 1974   0.398   1.790   9.941  0.2278 -0.2290 -0.2881
  127TMC2    C4 1975   0.239   1.872   9.745 -0.2980  0.4371 -0.6979
  127TMC2    C5 1976   0.223   1.748   9.796  0.0992 -0.9704  0.2407
  127TMC2    C6 1977   0.306   1.707   9.895 -0.9347 -0.4697  0.0963
  127TMC2     C 1978   0.313   2.101   9.786 -0.7635  0.1498  0.4522
  127TMC2     O 1979   0.366   2.173   9.869 -0.0245 -0.1087  0.4376
  127TMC2     H 1980   0.470   1.988   9.961  1.1927 -0.3038 -1.6375
  127TMC2    H1 1981   0.170   1.912   9.671 -0.0945  2.8302  0.4073
  127TMC2    H2 1982   0.288   1.615   9.948  1.9578 -1.1059  0.0042
  127TMC2    C7 1983   0.170   1.649   9.705  0.1938  0.6516 -0.2189
  127TMC2    C8 1984   0.461   1.749  10.067  0.3063  0.1964 -0.1193
  127TMC2    O1 1985   0.166   1.682   9.590 -0.1507 -0.4122  0.4094
  127TMC2    O2 1986   0.414   1.661  10.138  0.3326  0.1594  0.0853
  127TMC2    O5 1987   0.579   1.800  10.082  0.1750 -0.6964  0.2381
  127TMC2    H5 1988   0.615   1.848  10.005 -0.1920 -1.2326 -0.2603
  128MPD2     C 1989   0.133   2.278   9.514 -0.3034  1.0773  0.3288
  128MPD2    C1 1990   0.219   2.263   9.626 -0.7419  0.4207  0.3819
  128MPD2    C2 1991   0.249   2.381   9.693 -0.4373 -0.0845 -0.1345
  128MPD2    C3 1992   0.207   2.508   9.652  1.0732  0.1057 -0.2551
  128MPD2    C4 1993   0.122   2.510   9.539  0.0181 -0.4676 -0.5787
  128MPD2    C5 1994   0.086   2.395   9.475 -0.7265  0.0776  0.6396
  128MPD2     H 1995   0.303   2.382   9.787  0.8470 -0.9890 -0.8631
  128MPD2    H1 1996   0.069   2.601   9.514  1.1485  0.2594 -0.3770
  128MPD2    H2 1997   0.101   2.195   9.452 -0.1072  0.5961  0.8694
  128MPD2    H3 1998   0.016   2.409   9.394  0.9980 -2.9167 -1.3617
  128MPD2     N 1999   0.247   2.632   9.710 -0.0846 -0.2590 -0.2289
  128MPD2    H5 2000   0.214   2.715   9.662 -1.3238 -0.4875  0.2345
  128MPD2    N1 2001   0.244   2.130   9.670  0.2076  0.4297 -0.6808
  128MPD2    H7 2002   0.215   2.060   9.602  0.3145 -0.1706 -0.1003
  129TMC2    C1 2003   3.634   1.972   1.621  0.0828 -0.0177  0.1967
  129TMC2    C2 2004   3.724   2.017   1.525  0.0838  0.4281  0.6760
  129TMC2    C3 2005   3.759   1.934   1.426 -0.1228 -0.5039  0.1077
  129TMC2    C4 2006   3.571   1.849   1.617  0.1263  0.5209  0.3141
  129TMC2    C5 2007   3.607   1.765   1.516 -0.9559  0.1299  0.1994
  129TMC2    C6 2008   3.694   1.803   1.417 -0.5980 -0.2133 -0.6478
  129TMC2     C 2009   3.545   2.067   1.673  0.4549 -0.4895  0.8524
  129TMC2     O 2010   3.484   2.028   1.771  0.1847  0.2942 -0.1526
  129TMC2     H 2011   3.775   2.112   1.525 -3.3976  2.2864 -0.7778
  129TMC2    H1 2012   3.500   1.808   1.688 -0.2445 -1.0046 -0.9349
  129TMC2    H2 2013   3.711   1.747   1.325  0.5327  0.5394 -0.8976
  129TMC2    C7 2014   3.520   1.654   1.486 -0.0382 -0.1693  0.3651
  129TMC2    C8 2015   3.804   1.986   1.304 -0.4146 -0.4364 -0.1623
  129TMC2    O1 2016   3.400   1.670   1.477  0.1644 -0.4671 -0.2344
  129TMC2    O2 2017   3.778   1.925   1.200  0.0725  0.1090 -0.1356
  129TMC2    O5 2018   3.922   2.048   1.328  0.8926 -0.5482 -0.0602
  129TMC2    H5 2019   3.946   2.055   1.423 -1.3087  2.5128  0.2664
  130MPD2     C 2020   3.315   2.243   1.681  0.5424 -0.2758 -0.3550
  130MPD2    C1 2021   3.410   2.259   1.583  0.0070  0.4630 -0.1425
  130MPD2    C2 2022   3.391   2.361   1.483 -0.7462 -0.7069  0.4394
  130MPD2    C3 2023   3.279   2.441   1.479  0.1396 -0.2274  0.2382
  130MPD2    C4 2024   3.181   2.419   1.573 -0.0590 -0.5799 -0.1411
  130MPD2    C5 2025   3.206   2.325   1.672  0.0502  0.1765  0.1882
  130MPD2     H 2026   3.454   2.366   1.395 -1.9122 -1.1785 -0.4141
  130MPD2    H1 2027   3.086   2.472   1.574  0.2269 -0.1119  2.3647
  130MPD2    H2 2028   3.319   2.174   1.765  3.5417  3.2705  2.3938
  130MPD2    H3 2029   3.141   2.316   1.759  0.1141 -0.0251  0.2146
  130MPD2     N 2030   3.272   2.540   1.382  0.3336 -0.4525  0.5970
  130MPD2    H5 2031   3.357   2.557   1.329  1.0035 -2.6043  0.9490
  130MPD2    N1 2032   3.523   2.173   1.579 -0.4327 -0.2250  0.3906
  130MPD2    H7 2033   3.596   2.195   1.513 -0.8675 -2.1041 -0.7391
  131TMC2    C1 2034   2.728   1.525  10.067  0.0896 -0.3827 -0.0874
  131TMC2    C2 2035   2.830   1.539  10.158  0.2100  0.0665 -0.1395
  131TMC2    C3 2036   2.875   1.665  10.175 -0.1584 -0.4259 -0.9519
  131TMC2    C4 2037   2.657   1.629  10.008 -0.5096  0.7261 -0.2871
  131TMC2    C5 2038   2.705   1.749  10.038 -0.0973  0.3437 -0.1726
  131TMC2    C6 2039   2.813   1.774  10.121 -0.0550  0.2932  0.7991
  131TMC2     C 2040   2.653   1.400  10.079 -0.3026 -0.0437 -0.2992
  131TMC2     O 2041   2.675   1.335  10.182 -0.1170  0.3587 -0.4452
  131TMC2     H 2042   2.894   1.462  10.199 -0.2143 -0.0274  0.3499
  131TMC2    H1 2043   2.575   1.609   9.940  1.7005 -1.8760 -2.1751
  131TMC2    H2 2044   2.847   1.875  10.139  0.6995  0.1180  0.3489
  131TMC2    C7 2045   2.642   1.862   9.970 -0.3600  0.2451 -0.1498
  131TMC2    C8 2046   2.995   1.676  10.258 -1.4284  0.5434 -0.1260
  131TMC2    O1 2047   2.551   1.832   9.889 -0.1724  0.3044 -0.1190
  131TMC2    O2 2048   3.004   1.608  10.361  0.3733 -0.8394 -0.2592
  131TMC2    O5 2049   3.088   1.747  10.195 -0.5339  0.2915  0.4454
  131TMC2    H5 2050   3.063   1.800  10.115  2.6570  0.5499 -0.3522
  132MPD2     C 2051   2.410   1.245   9.850 -0.0720  0.1737 -0.3219
  132MPD2    C1 2052   2.472   1.259   9.972  0.3736  0.3970 -0.9219
  132MPD2    C2 2053   2.433   1.182  10.079 -0.1687 -0.1122  0.3601
  132MPD2    C3 2054   2.316   1.109  10.078  0.0328  0.2658  0.3943
  132MPD2    C4 2055   2.246   1.111   9.961 -0.5492  0.6582  0.4052
  132MPD2    C5 2056   2.295   1.168   9.847 -0.0740 -0.6463  0.2466
  132MPD2     H 2057   2.480   1.190  10.176  2.3543  0.9165 -0.9528
  132MPD2    H1 2058   2.161   1.048   9.935 -0.5253  0.0040  1.8976
  132MPD2    H2 2059   2.433   1.298   9.758  0.6870 -1.0770 -0.8580
  132MPD2    H3 2060   2.246   1.150   9.752 -0.2433  3.3093 -0.4414
  132MPD2     N 2061   2.279   1.032  10.188  0.2173  0.3355 -0.3922
  132MPD2    H5 2062   2.348   1.035  10.263  0.9313 -0.8958 -0.9979
  132MPD2    N1 2063   2.575   1.361   9.968 -0.3009 -0.2705  0.2709
  132MPD2    H7 2064   2.574   1.424   9.888  2.3806 -0.6963 -0.1173
  133TMC2    C1 2065   1.223   1.343   9.428 -0.6379  0.9538 -0.1495
  133TMC2    C2 2066   1.284   1.240   9.490  0.1805  0.1352  0.0571
  133TMC2    C3 2067   1.239   1.116   9.452  0.2326 -0.4452  0.1445
  133TMC2    C4 2068   1.127   1.323   9.332 -0.5255 -0.3140  1.0153
  133TMC2    C5 2069   1.077   1.192   9.314  0.7789  0.2350  0.5146
  133TMC2    C6 2070   1.134   1.084   9.372 -0.2164  0.5998  0.3094
  133TMC2     C 2071   1.263   1.477   9.469  0.1730 -0.0855  0.6048
  133TMC2     O 2072   1.377   1.491   9.517 -0.5302  0.6364 -0.3370
  133TMC2     H 2073   1.362   1.259   9.562 -0.1963  0.1065  0.4760
  133TMC2    H1 2074   1.083   1.410   9.285  0.5404  1.2452  2.8826
  133TMC2    H2 2075   1.118   0.983   9.337  0.1648 -0.1274  2.2596
  133TMC2    C7 2076   0.942   1.177   9.258  0.5239  0.9512  0.4646
  133TMC2    C8 2077   1.308   1.000   9.507 -0.5001 -0.3339  0.1051
  133TMC2    O1 2078   0.893   1.269   9.189 -0.0851  0.0552  0.0439
  133TMC2    O2 2079   1.266   0.883   9.508 -0.2100  0.7557 -0.2501
  133TMC2    O5 2080   1.429   1.035   9.551  0.0476  0.6927  0.1719
  133TMC2    H5 2081   1.436   1.131   9.532  1.3207 -0.1286 -3.5687
  134MPD2     C 2082   1.066   1.792   9.444 -0.0235  0.5691  0.0815
  134MPD2    C1 2083   1.184   1.713   9.457  1.3446  0.4595  0.0013
  134MPD2    C2 2084   1.312   1.779   9.478 -0.1631  0.1167 -0.4141
  134MPD2    C3 2085   1.320   1.918   9.483  0.4684 -0.2836 -0.2404
  134MPD2    C4 2086   1.203   1.990   9.465  1.3665 -0.1295 -0.0330
  134MPD2    C5 2087   1.083   1.928   9.452 -0.0333  0.6198 -0.0649
  134MPD2     H 2088   1.399   1.715   9.480  0.2341  0.6641 -0.3248
  134MPD2    H1 2089   1.207   2.098   9.457  0.8853 -0.0391  0.9232
  134MPD2    H2 2090   0.968   1.747   9.448 -0.0188  0.4605 -0.9137
  134MPD2    H3 2091   0.996   1.989   9.433  0.4415  1.3276  0.0510
  134MPD2     N 2092   1.451   1.986   9.503  0.0211 -0.7289  0.1591
  134MPD2    H5 2093   1.455   2.087   9.506  1.7039 -0.8529  2.0948
  134MPD2    N1 2094   1.166   1.574   9.443  0.7139  0.1449  0.1372
  134MPD2    H7 2095   1.071   1.549   9.418  0.7261  1.3436 -1.1519
  135TMC2    C1 2096   4.539   3.874   9.378 -0.1278  0.0813  0.1643
  135TMC2    C2 2097   4.518   3.818   9.254 -0.1961 -0.0818  0.2349
  135TMC2    C3 2098   4.394   3.816   9.204  0.0149  0.1944  0.1243
  135TMC2    C4 2099   4.434   3.923   9.452 -0.3493 -0.6594 -0.2309
  135TMC2    C5 2100   4.310   3.909   9.405  0.1439  0.2105  0.1436
  135TMC2    C6 2101   4.289   3.861   9.281 -0.3498 -0.1989  0.2655
  135TMC2     C 2102   4.675   3.891   9.433  0.2426  0.3244  0.4277
  135TMC2     O 2103   4.694   3.994   9.493  0.0449  0.1120 -0.2869
  135TMC2     H 2104   4.595   3.764   9.200 -0.8888 -0.9207  0.0833
  135TMC2    H1 2105   4.458   3.960   9.551  3.3340  1.8989 -2.0684
  135TMC2    H2 2106   4.193   3.825   9.247  0.5728 -0.4314 -2.1280
  135TMC2    C7 2107   4.196   3.914   9.493  0.4490  0.0539 -0.2753
  135TMC2    C8 2108   4.373   3.730   9.087 -1.4004  0.1475  0.1312
  135TMC2    O1 2109   4.217   3.890   9.612  0.4893 -0.0321  0.0732
  135TMC2    O2 2110   4.268   3.679   9.054 -0.3885 -0.4648 -0.1660
  135TMC2    O5 2111   4.461   3.776   8.994  0.3202 -0.3611 -0.2416
  135TMC2    H5 2112   4.533   3.835   9.027 -1.0905 -0.1635  2.4890
  136MPD2     C 2113   0.248   3.886   9.466  0.1255  0.1542  0.8897
  136MPD2    C1 2114   0.173   3.781   9.412  0.1990  0.4830 -0.0146
  136MPD2    C2 2115   0.242   3.663   9.377 -0.4635 -0.2105  0.0117
  136MPD2    C3 2116   0.380   3.645   9.413  0.2487  0.0049  0.1440
  136MPD2    C4 2117   0.445   3.748   9.478 -0.6585  0.7018  0.6159
  136MPD2    C5 2118   0.380   3.869   9.503 -0.2708 -0.0325  0.1319
  136MPD2     H 2119   0.193   3.595   9.309 -1.7045 -0.2541  0.9440
  136MPD2    H1 2120   0.550   3.744   9.502 -0.6983  0.5794  0.7668
  136MPD2    H2 2121   0.207   3.986   9.479  0.7281  0.4161  0.8031
  136MPD2    H3 2122   0.430   3.952   9.551 -0.3816 -0.4364  0.9459
  136MPD2     N 2123   0.459   3.525   9.398  0.2325 -0.2261 -0.9123
  136MPD2    H5 2124   0.554   3.531   9.431  0.0108  0.8669 -0.4634
  136MPD2    N1 2125   0.033   3.798   9.381 -0.4764 -0.3835  0.3955
  136MPD2    H7 2126   4.731   3.724   9.321  0.5994 -1.5895  1.2843
  137TMC2    C1 2127   4.262   2.597   9.713 -0.4593 -0.4809  0.0707
  137TMC2    C2 2128   4.345   2.653   9.620 -0.6062  0.2398  0.0547
  137TMC2    C3 2129   4.312   2.645   9.488  0.0333 -0.9044  0.2843
  137TMC2    C4 2130   4.134   2.561   9.675  0.5432 -0.1505  0.0853
  137TMC2    C5 2131   4.107   2.552   9.540  0.1519 -0.3428  0.0161
  137TMC2    C6 2132   4.192   2.596   9.448  0.2744 -0.1722 -0.3430
  137TMC2     C 2133   4.269   2.652   9.849  0.1414 -0.0935  0.2579
  137TMC2     O 2134   4.306   2.771   9.852  0.0960 -0.1157 -0.1069
  137TMC2     H 2135   4.437   2.698   9.656 -1.6849  2.0898  0.5144
  137TMC2    H1 2136   4.059   2.526   9.744 -1.1997  1.1809 -1.1255
  137TMC2    H2 2137   4.178   2.578   9.342 -2.6750 -1.6711  0.3053
  137TMC2    C7 2138   3.982   2.501   9.493 -1.2941  0.3296  0.0152
  137TMC2    C8 2139   4.414   2.672   9.391 -0.1290  0.3925  0.3661
  137TMC2    O1 2140   3.981   2.475   9.373 -0.4724 -0.1145 -0.4813
  137TMC2    O2 2141   4.387   2.720   9.278  1.3385  0.3991  0.1473
  137TMC2    O5 2142   4.533   2.610   9.427  0.0964  0.0642 -0.2937
  137TMC2    H5 2143   4.515   2.559   9.509  1.0463 -3.2378 -2.1281
  138MPD2     C 2144   4.135   2.529  10.167 -0.5084 -0.0671  0.8660
  138MPD2    C1 2145   4.217   2.601  10.091 -0.1575 -1.0501  0.1517
  138MPD2    C2 2146   4.275   2.720  10.137  0.7171  0.1943  0.2240
  138MPD2    C3 2147   4.243   2.758  10.261  0.5628  0.1719  0.1666
  138MPD2    C4 2148   4.165   2.678  10.336  0.5027 -0.3508  0.3046
  138MPD2    C5 2149   4.103   2.564  10.290  0.5603 -0.2609 -0.7624
  138MPD2     H 2150   4.338   2.790  10.083 -0.6271  0.4622 -1.0141
  138MPD2    H1 2151   4.137   2.702  10.438  1.6673  1.5672  0.1655
  138MPD2    H2 2152   4.087   2.437  10.136  1.1847 -0.7945  0.3763
  138MPD2    H3 2153   4.027   2.508  10.342 -2.0769  3.2289 -0.8660
  138MPD2     N 2154   4.296   2.878  10.320  0.4892 -0.8688 -0.6301
  138MPD2    H5 2155   4.355   2.938  10.262  0.5067 -1.4735 -1.2370
  138MPD2    N1 2156   4.228   2.568   9.951  0.7559  0.0326 -0.1481
  138MPD2    H7 2157   4.189   2.481   9.916 -0.8171 -0.3391  2.5507
  139TMC2    C1 2158   4.538   0.434  13.397  0.5897 -0.0592  0.8267
  139TMC2    C2 2159   4.629   0.536  13.370  0.1192  0.0891  0.7201
  139TMC2    C3 2160   4.585   0.664  13.355  0.0733  0.1484 -0.1728
  139TMC2    C4 2161   4.406   0.464  13.393 -0.7553 -0.0861 -0.2279
  139TMC2    C5 2162   4.370   0.591  13.396 -0.0616 -0.4247  0.3281
  139TMC2    C6 2163   4.453   0.699  13.378 -0.5934  0.5474  0.2690
  139TMC2     C 2164   4.586   0.303  13.377 -0.6509  0.1749  0.2264
  139TMC2     O 2165   4.705   0.293  13.355  0.0206  0.5973  0.7628
  139TMC2     H 2166   0.005   0.526  13.364  0.1313  0.8832 -0.3636
  139TMC2    H1 2167   4.333   0.385  13.382 -1.3333  0.6989 -2.1536
  139TMC2    H2 2168   4.420   0.801  13.395 -1.8280  0.2969 -0.6388
  139TMC2    C7 2169   4.246   0.633  13.461 -0.0885  0.1093  0.0971
  139TMC2    C8 2170   4.673   0.759  13.296  0.1354  0.6784  0.2256
  139TMC2    O1 2171   4.230   0.750  13.485 -0.5264 -0.3673  0.3489
  139TMC2    O2 2172   4.689   0.781  13.178  1.0286 -0.4966  0.3508
  139TMC2    O5 2173   0.032   0.792  13.388 -0.5434 -0.0202  0.4366
  139TMC2    H5 2174   0.009   0.755  13.477  1.0608  1.8224  1.6081
  140MPD2     C 2175   4.421   4.698  13.332  0.9019 -0.7767  0.4839
  140MPD2    C1 2176   4.523   0.065  13.337 -0.6074  0.6454  0.3053
  140MPD2    C2 2177   4.640   0.028  13.275 -0.5113 -0.6671 -0.4945
  140MPD2    C3 2178   4.661   4.639  13.216  0.1097  0.3109 -0.5933
  140MPD2    C4 2179   4.560   4.545  13.226  0.3046 -0.1559  0.4358
  140MPD2    C5 2180   4.441   4.567  13.290 -0.7719  0.8909  0.7815
  140MPD2     H 2181   4.724   0.098  13.277 -2.9125  2.1915  0.4977
  140MPD2    H1 2182   4.571   4.444  13.188  0.3247 -0.2702  0.7454
  140MPD2    H2 2183   4.326   4.726  13.377  2.1035  0.4646  2.2471
  140MPD2    H3 2184   4.360   4.495  13.292  1.6348 -1.8719 -0.5835
  140MPD2     N 2185   0.057   4.610  13.147  0.4543  0.5486  0.0041
  140MPD2    H5 2186   0.131   4.679  13.157  0.2167  0.7378  0.4657
  140MPD2    N1 2187   4.494   0.199  13.392  0.2362 -0.0926 -0.1702
  140MPD2    H7 2188   4.395   0.205  13.412  0.4983 -3.6005  2.2975
  141TMC2    C1 2189   0.826   1.335  14.358  0.3504  0.2823 -0.0836
  141TMC2    C2 2190   0.864   1.298  14.483  0.1350 -0.4912  0.0292
  141TMC2    C3 2191   0.967   1.371  14.534 -0.0734 -0.3284 -0.0526
  141TMC2    C4 2192   0.877   1.444  14.302 -0.6175 -0.2917 -0.7187
  141TMC2    C5 2193   0.973   1.521  14.360 -0.1721 -0.5885 -0.5417
  141TMC2    C6 2194   1.022   1.483  14.486 -0.1460  0.8867 -0.4396
  141TMC2     C 2195   0.710   1.275  14.295  0.2348  0.5221 -0.2988
  141TMC2     O 2196   0.687   1.315  14.182  0.0170  0.1275 -0.3627
  141TMC2     H 2197   0.835   1.205  14.530 -1.9988 -0.1576 -0.6384
  141TMC2    H1 2198   0.846   1.467  14.201 -0.1704  0.0463 -0.7762
  141TMC2    H2 2199   1.098   1.540  14.540 -0.6563 -0.2645  1.4901
  141TMC2    C7 2200   0.964   1.663  14.331  0.5328  0.3794 -0.0756
  141TMC2    C8 2201   1.038   1.320  14.652 -0.3009 -0.6496  0.2894
  141TMC2    O1 2202   0.864   1.701  14.272  0.3057  0.2348 -0.0293
  141TMC2    O2 2203   1.115   1.395  14.708 -0.4553 -0.3817 -0.2220
  141TMC2    O5 2204   1.049   1.187  14.653 -0.9001  0.5750 -0.0695
  141TMC2    H5 2205   1.007   1.150  14.572 -2.5346 -0.7811  1.3904
  142TMC2    C1 2206   3.093   4.521   9.570  0.6234 -0.0873 -0.3193
  142TMC2    C2 2207   3.153   4.520   9.444 -0.7153  0.4167 -0.1839
  142TMC2    C3 2208   3.221   4.631   9.406  0.3252 -0.0401 -0.1975
  142TMC2    C4 2209   3.102   4.630   9.656  0.1923  0.0929  0.0020
  142TMC2    C5 2210   3.193   4.726   9.617 -0.1594 -0.7495  0.1243
  142TMC2    C6 2211   3.249   0.002   9.495 -0.2804 -0.6185 -0.6605
  142TMC2     C 2212   2.997   4.420   9.607 -0.2273 -0.2677 -0.7014
  142TMC2     O 2213   2.956   4.422   9.723  0.1243 -0.5583 -0.4991
  142TMC2     H 2214   3.162   4.426   9.390  2.0930  0.4156  0.2733
  142TMC2    H1 2215   3.062   4.627   9.757 -1.5962 -0.7635 -0.7216
  142TMC2    H2 2216   3.309   0.084   9.456 -0.6220  0.7382  1.7166
  142TMC2    C7 2217   3.230   0.088   9.723 -0.2077 -0.4259  0.3705
  142TMC2    C8 2218   3.256   4.645   9.262  0.5363  0.3048  0.0314
  142TMC2    O1 2219   3.142   0.100   9.809  0.3437 -0.4109 -0.1069
  142TMC2    O2 2220   3.305   0.020   9.235  0.3104  0.5525  0.3161
  142TMC2    O5 2221   3.150   4.595   9.197 -0.7975  0.3224 -0.1932
  142TMC2    H5 2222   3.093   4.525   9.237  1.2174 -0.8614  0.5757
  143MPD2     C 2223   2.769   3.958   9.565  0.1828 -0.8332 -0.3343
  143MPD2    C1 2224   2.826   4.022   9.672 -0.7525 -0.1975  0.2692
  143MPD2    C2 2225   2.886   4.147   9.663 -0.1187 -0.1104  0.1881
  143MPD2    C3 2226   2.903   4.203   9.533 -0.2959 -0.0048  0.3898
  143MPD2    C4 2227   2.866   4.131   9.427 -0.1270 -0.0517 -0.2900
  143MPD2    C5 2228   2.788   4.016   9.442  0.0856 -0.6867  0.3041
  143MPD2     H 2229   2.917   4.207   9.748  1.6270 -3.1819  1.6938
  143MPD2    H1 2230   2.894   4.159   9.327  1.9447 -0.5827  0.1453
  143MPD2    H2 2231   2.715   3.865   9.575  0.6707 -1.1930 -1.0337
  143MPD2    H3 2232   2.743   3.960   9.361  1.7541  0.5841 -1.5032
  143MPD2     N 2233   2.966   4.330   9.509 -0.9211  0.2278 -0.1440
  143MPD2    H5 2234   2.988   4.355   9.413 -2.6302  0.3458 -0.5082
  143MPD2    N1 2235   2.807   3.948   9.793  0.3496 -0.2621 -0.3735
  143MPD2    H7 2236   2.771   3.854   9.783  0.2791 -0.3738  0.9016
  144TMC2    C1 2237   1.526   4.215   0.909 -0.5852 -0.3363  0.3875
  144TMC2    C2 2238   1.616   4.123   0.870 -0.1110 -0.3044 -0.0010
  144TMC2    C3 2239   1.744   4.159   0.866  0.3850 -0.2957 -0.4730
  144TMC2    C4 2240   1.550   4.341   0.962  0.3011  0.1588  0.3025
  144TMC2    C5 2241   1.688   4.363   0.974  0.5814  0.1507  0.3060
  144TMC2    C6 2242   1.785   4.272   0.931 -0.0173 -0.6255  0.2508
  144TMC2     C 2243   1.386   4.185   0.873 -1.0130 -0.1196  0.4043
  144TMC2     O 2244   1.362   4.065   0.853 -0.6151 -0.1997  0.5294
  144TMC2     H 2245   1.584   4.032   0.821 -0.0662 -1.4488  2.1017
  144TMC2    H1 2246   1.472   4.405   1.001 -1.4972 -0.6140 -2.0179
  144TMC2    H2 2247   1.891   4.297   0.934  0.3856 -2.3322  0.3343
  144TMC2    C7 2248   1.735   4.441   1.087  0.4245  0.2882  0.4854
  144TMC2    C8 2249   1.842   4.074   0.815 -0.4858 -0.1151  1.4397
  144TMC2    O1 2250   1.848   4.413   1.115  0.1548  0.6346  0.2731
  144TMC2    O2 2251   1.831   3.953   0.811 -0.4884  0.0054 -0.0982
  144TMC2    O5 2252   1.912   4.150   0.725  0.2401 -0.1255 -0.6880
  144TMC2    H5 2253   1.890   4.245   0.728  1.2607  0.0617  0.8015
  145MPD2     C 2254   0.979   4.282   0.571 -0.1294 -0.2952 -0.0077
  145MPD2    C1 2255   1.052   4.166   0.591 -0.2260 -0.5253 -0.1400
  145MPD2    C2 2256   1.157   4.171   0.683  0.2528  0.6487 -0.1976
  145MPD2    C3 2257   1.199   4.291   0.749  0.4283  0.9874 -0.3009
  145MPD2    C4 2258   1.129   4.404   0.722  0.3939  0.2236  0.3761
  145MPD2    C5 2259   1.025   4.396   0.635 -0.0518 -0.5265 -0.3928
  145MPD2     H 2260   1.211   4.078   0.692 -0.1930  0.4642  0.4920
  145MPD2    H1 2261   1.158   4.498   0.768  2.9126 -0.4905  0.2766
  145MPD2    H2 2262   0.886   4.291   0.517  1.3454 -1.1112 -2.6931
  145MPD2    H3 2263   0.963   4.485   0.634 -1.9096 -1.8031  1.1902
  145MPD2     N 2264   1.311   4.295   0.837  0.1749 -1.0659  0.2473
  145MPD2    H5 2265   1.346   4.384   0.870  1.6671 -2.0812  1.4062
  145MPD2    N1 2266   1.019   4.041   0.534  0.0379  0.1319  0.7124
  145MPD2    H7 2267   1.058   3.965   0.588  0.4594 -0.2062 -0.0705
  146TMC2    C1 2268   2.516   2.781  12.683 -0.5759 -0.1655  0.1324
  146TMC2    C2 2269   2.444   2.810  12.574 -0.2151  0.7113 -0.3834
  146TMC2    C3 2270   2.504   2.838  12.458 -0.2062 -0.3525 -0.0402
  146TMC2    C4 2271   2.651   2.778  12.681 -0.1596  0.4871 -0.4306
  146TMC2    C5 2272   2.712   2.787  12.555  0.0997 -1.1054  0.1153
  146TMC2    C6 2273   2.644   2.822  12.447 -0.1085  0.2759  0.7947
  146TMC2     C 2274   2.446   2.724  12.797 -0.2573  0.3736  0.2851
  146TMC2     O 2275   2.333   2.679  12.784  1.0635  0.2653 -0.3912
  146TMC2     H 2276   2.337   2.825  12.581 -0.3430 -0.5962  0.6213
  146TMC2    H1 2277   2.720   2.783  12.764  0.8183  1.2541 -1.2827
  146TMC2    H2 2278   2.704   2.841  12.358  0.3421  1.2375  1.3114
  146TMC2    C7 2279   2.854   2.769  12.544  0.4112  0.9999 -0.1887
  146TMC2    C8 2280   2.433   2.847  12.330  0.6162  1.0746  0.5724
  146TMC2    O1 2281   2.903   2.818  12.446  0.6632  0.2446  0.2045
  146TMC2    O2 2282   2.481   2.890  12.222  1.1605  0.3277  0.1584
  146TMC2    O5 2283   2.314   2.780  12.342  0.0791 -0.4483  0.0283
  146TMC2    H5 2284   2.281   2.735  12.423 -0.6919  0.2181  0.0881
  147MPD2     C 2285   3.322   2.725  12.739 -0.2811  0.2257  0.2232
  147MPD2    C1 2286   3.238   2.673  12.831 -0.2269 -0.0337  0.4409
  147MPD2    C2 2287   3.099   2.674  12.799 -0.5096 -0.0156  0.0161
  147MPD2    C3 2288   3.056   2.729  12.676  0.4232 -0.5815 -0.2146
  147MPD2    C4 2289   3.151   2.756  12.581 -0.1516 -0.3720 -0.2250
  147MPD2    C5 2290   3.278   2.758  12.615  0.3489  0.9465  0.6185
  147MPD2     H 2291   3.026   2.632  12.867 -0.4268 -0.6951 -0.3204
  147MPD2    H1 2292   3.124   2.782  12.479 -1.1386 -0.5717 -0.0193
  147MPD2    H2 2293   3.429   2.726  12.757 -0.3121 -1.1158  0.4822
  147MPD2    H3 2294   3.354   2.789  12.543  0.1278  1.3222  0.5464
  147MPD2     N 2295   2.918   2.728  12.659  0.7609  0.3163  0.1492
  147MPD2    H5 2296   2.864   2.700  12.740  2.8833  0.9006  1.7501
  147MPD2    N1 2297   3.294   2.631  12.960  0.3502 -0.3146 -0.2823
  147MPD2    H7 2298   3.394   2.641  12.968  0.1715 -0.9249  2.7371
  148TMC2    C1 2299   2.237   2.006  10.533 -0.8168 -0.7150 -0.1845
  148TMC2    C2 2300   2.161   1.904  10.481 -1.2255 -0.2326  0.0282
  148TMC2    C3 2301   2.192   1.775  10.520  0.8446  0.3414 -0.0353
  148TMC2    C4 2302   2.347   1.981  10.609  0.0882  0.3303 -0.8027
  148TMC2    C5 2303   2.362   1.852  10.656  0.3694  0.5883  0.7673
  148TMC2    C6 2304   2.288   1.748  10.608 -0.0538 -0.5174 -0.4387
  148TMC2     C 2305   2.204   2.148  10.489  0.1787 -0.5041  0.5898
  148TMC2     O 2306   2.274   2.244  10.516 -0.4793  0.3496 -0.2451
  148TMC2     H 2307   2.074   1.916  10.417 -1.4796 -1.7067  0.0927
  148TMC2    H1 2308   2.407   2.064  10.644 -0.6968  1.0368 -1.1084
  148TMC2    H2 2309   2.310   1.646  10.640  2.1263 -0.4806 -1.8095
  148TMC2    C7 2310   2.447   1.838  10.774  0.4294  0.4232 -0.1034
  148TMC2    C8 2311   2.111   1.663  10.453  0.1826  0.0772  0.1891
  148TMC2    O1 2312   2.543   1.918  10.785  0.7013 -0.6108  0.2045
  148TMC2    O2 2313   2.060   1.675  10.344  0.1641 -0.5678  0.3780
  148TMC2    O5 2314   2.070   1.578  10.550 -0.3809 -0.4474  0.3815
  148TMC2    H5 2315   2.117   1.578  10.636 -2.9241 -0.6018  1.7527
  149MPD2     C 2316   2.091   2.388  10.335 -0.3420 -0.2652 -0.2773
  149MPD2    C1 2317   2.028   2.268  10.362 -0.4078  0.3068  0.0293
  149MPD2    C2 2318   1.897   2.256  10.319  0.2619 -0.4441 -0.6479
  149MPD2    C3 2319   1.840   2.352  10.235  0.0386  0.0048 -0.2483
  149MPD2    C4 2320   1.910   2.470  10.208 -0.1411 -0.2245 -0.8772
  149MPD2    C5 2321   2.031   2.479  10.260 -0.2861  0.4545 -0.6917
  149MPD2     H 2322   1.836   2.174  10.356 -0.5455  0.1654 -0.6248
  149MPD2    H1 2323   1.874   2.549  10.143  1.3953  1.1066 -0.1143
  149MPD2    H2 2324   2.190   2.412  10.372 -1.3754  1.1391  1.5780
  149MPD2    H3 2325   2.084   2.571  10.238 -0.6249  0.6273 -0.7875
  149MPD2     N 2326   1.714   2.328  10.177 -0.0335 -0.0139 -0.2625
  149MPD2    H5 2327   1.675   2.399  10.115  0.5557  0.8875  0.4069
  149MPD2    N1 2328   2.079   2.153  10.431 -0.6599 -0.0482  0.5740
  149MPD2    H7 2329   2.020   2.070  10.438 -0.4917 -0.3190 -1.4133
  150TMC2    C1 2330   4.118   0.767  12.226  0.2467 -0.5406  0.6489
  150TMC2    C2 2331   4.101   0.824  12.101 -0.5887 -0.0356 -0.5479
  150TMC2    C3 2332   4.197   0.894  12.048 -0.3297  0.2635  0.3247
  150TMC2    C4 2333   4.226   0.801  12.304  0.3145  0.2343 -0.9173
  150TMC2    C5 2334   4.320   0.888  12.252 -0.3956  0.8329 -0.1424
  150TMC2    C6 2335   4.303   0.941  12.127 -0.8229  0.2286 -0.3279
  150TMC2     C 2336   4.008   0.718  12.302  0.6244  0.2738  0.1408
  150TMC2     O 2337   4.005   0.729  12.426  0.5457  0.0060 -0.0374
  150TMC2     H 2338   4.008   0.814  12.045  0.2919  2.2513 -2.4173
  150TMC2    H1 2339   4.247   0.757  12.401 -3.0270 -1.7669 -1.1018
  150TMC2    H2 2340   4.383   1.003  12.090  0.8108 -1.9379 -0.4341
  150TMC2    C7 2341   4.454   0.869  12.297  0.1380 -0.7037  0.4342
  150TMC2    C8 2342   4.190   0.939  11.912 -0.4384  0.1805  0.5115
  150TMC2    O1 2343   4.538   0.953  12.267 -0.4307 -0.2573 -0.3542
  150TMC2    O2 2344   4.248   1.034  11.872 -0.1097  0.1796  0.2542
  150TMC2    O5 2345   4.173   0.821  11.841 -0.1054  0.2692  0.3026
  150TMC2    H5 2346   4.141   0.743  11.891 -2.2012  0.1015 -1.2646
  151MPD2     C 2347   3.502   0.624  12.298 -0.1742 -0.0402  0.7393
  151MPD2    C1 2348   3.542   0.637  12.164  0.3340 -0.4178 -0.8174
  151MPD2    C2 2349   3.675   0.654  12.135 -0.3867 -0.3204 -0.1144
  151MPD2    C3 2350   3.766   0.656  12.242  0.2687 -0.3048 -0.2460
  151MPD2    C4 2351   3.726   0.644  12.378  0.2397  0.7413  0.3809
  151MPD2    C5 2352   3.593   0.629  12.399 -0.5020 -0.7006 -1.0270
  151MPD2     H 2353   3.706   0.668  12.033  1.8831 -0.6414  0.5412
  151MPD2    H1 2354   3.785   0.639  12.469 -0.4211  2.0123  0.8841
  151MPD2    H2 2355   3.398   0.614  12.324 -0.6970  0.1822 -1.3135
  151MPD2    H3 2356   3.555   0.623  12.500  0.7923  0.1855 -0.4895
  151MPD2     N 2357   3.901   0.681  12.221  0.4055  1.1382 -0.1794
  151MPD2    H5 2358   3.915   0.675  12.121  1.7885 -1.3809  0.1554
  151MPD2    N1 2359   3.439   0.630  12.062  0.6423 -0.1008 -0.7602
  151MPD2    H7 2360   3.348   0.600  12.097  0.4157  0.9848 -0.4129
  152TMC2    C1 2361   4.173   0.679  12.724 -0.3650 -0.2281  0.5285
  152TMC2    C2 2362   4.241   0.556  12.703 -0.6180 -0.2598  0.0212
  152TMC2    C3 2363   4.378   0.570  12.699 -0.8890 -0.8389  0.1429
  152TMC2    C4 2364   4.240   0.796  12.735  0.2993  0.3416 -0.4294
  152TMC2    C5 2365   4.377   0.789  12.746 -0.4259 -0.0886 -0.3541
  152TMC2    C6 2366   4.449   0.680  12.719 -0.2466 -0.1770 -0.6680
  152TMC2     C 2367   4.030   0.687  12.754 -0.9493  0.0295  0.0783
  152TMC2     O 2368   3.982   0.797  12.775 -0.4294  0.0137 -0.6614
  152TMC2     H 2369   4.195   0.458  12.700 -1.3946  0.1324 -0.8181
  152TMC2    H1 2370   4.193   0.885  12.774 -0.9408  0.3855 -2.0448
  152TMC2    H2 2371   4.555   0.676  12.695  0.3302 -0.0517  1.8391
  152TMC2    C7 2372   4.447   0.915  12.732 -0.1410  1.0066 -0.2238
  152TMC2    C8 2373   4.457   0.449  12.698 -0.6498 -0.1155  0.1575
  152TMC2    O1 2374   4.386   1.000  12.668 -0.3218 -0.6259  0.3611
  152TMC2    O2 2375   4.408   0.345  12.669 -0.1182  0.2407  0.9393
  152TMC2    O5 2376   4.540   0.465  12.800 -0.3144 -0.2564 -0.1968
  152TMC2    H5 2377   4.560   0.555  12.833 -1.1523  0.0409 -0.5073
  153MPD2     C 2378   3.798   0.394  12.776 -0.5840 -0.2248  0.7061
  153MPD2    C1 2379   3.832   0.531  12.776  0.5582  0.5079 -0.1577
  153MPD2    C2 2380   3.733   0.627  12.775 -0.7394  0.2516  0.3961
  153MPD2    C3 2381   3.600   0.588  12.773  0.3870  0.3638 -0.1416
  153MPD2    C4 2382   3.566   0.454  12.778  0.4571  0.1900 -0.0147
  153MPD2    C5 2383   3.664   0.359  12.789  0.4958 -0.0474  0.0010
  153MPD2     H 2384   3.758   0.732  12.766 -2.3169  0.4209 -2.0332
  153MPD2    H1 2385   3.462   0.422  12.772  0.6894 -0.7605  1.0546
  153MPD2    H2 2386   3.878   0.326  12.752 -0.5122  0.8221 -2.0332
  153MPD2    H3 2387   3.627   0.257  12.782  0.1492  0.0968 -0.3037
  153MPD2     N 2388   3.491   0.677  12.762 -0.5601  0.7875  0.4750
  153MPD2    H5 2389   3.409   0.630  12.725  0.4603  0.0654 -0.8729
  153MPD2    N1 2390   3.967   0.562  12.746  0.8778 -0.1324 -0.3735
  153MPD2    H7 2391   4.025   0.480  12.758  0.3698 -0.3424  0.7139
  154TMC2    C1 2392   1.058   0.996   0.187  0.7354 -0.4171 -0.1368
  154TMC2    C2 2393   1.118   1.085   0.271  0.5387  0.3016  0.5668
  154TMC2    C3 2394   1.251   1.075   0.288 -0.6210 -0.1712 -0.1056
  154TMC2    C4 2395   1.118   0.886   0.139 -0.5637  0.1529  0.3558
  154TMC2    C5 2396   1.253   0.876   0.168 -0.5156  0.3730  0.4299
  154TMC2    C6 2397   1.322   0.972   0.240  0.1597 -0.1203 -0.1027
  154TMC2     C 2398   0.912   1.006   0.193 -0.2391 -0.2812  0.1331
  154TMC2     O 2399   0.851   1.072   0.280  0.9923 -0.6701  0.0828
  154TMC2     H 2400   1.058   1.163   0.317  2.9387  1.1319  2.3069
  154TMC2    H1 2401   1.061   0.809   0.089  0.0335  0.3231 -0.5883
  154TMC2    H2 2402   1.428   0.961   0.261  0.7236  2.0823 -1.8587
  154TMC2    C7 2403   1.300   0.742   0.145  0.2663 -0.0299 -0.9352
  154TMC2    C8 2404   1.314   1.162   0.381 -0.2037  0.3200 -0.0964
  154TMC2    O1 2405   1.221   0.646   0.149 -1.0355  0.7824 -0.2787
  154TMC2    O2 2406   1.253   1.221   0.466 -0.1769 -0.3541  0.0151
  154TMC2    O5 2407   1.425   1.204   0.317  0.0906  0.6063  0.2080
  154TMC2    H5 2408   1.424   1.181   0.221 -1.6927  1.0545  0.1201
  155MPD2     C 2409   0.692   0.903  17.645  0.1825  0.1962 -0.4299
  155MPD2    C1 2410   0.720   0.977   0.030  0.1597 -0.1295  0.6348
  155MPD2    C2 2411   0.612   1.049   0.096 -0.0752  0.1432  0.3610
  155MPD2    C3 2412   0.481   1.039   0.047 -0.0909 -0.8682  0.0863
  155MPD2    C4 2413   0.463   0.968  17.658 -0.3759  0.0712 -0.2812
  155MPD2    C5 2414   0.561   0.902  17.606  0.8436  0.1337 -0.0212
  155MPD2     H 2415   0.637   1.109   0.182  0.1835 -1.8484  1.6919
  155MPD2    H1 2416   0.368   0.956  17.608 -1.3334  3.5076  0.7283
  155MPD2    H2 2417   0.768   0.839  17.600  1.5244  0.9304  0.7635
  155MPD2    H3 2418   0.526   0.837  17.527  0.3106  0.3358  0.0442
  155MPD2     N 2419   0.369   1.084   0.124 -0.1603 -0.1187 -0.2736
  155MPD2    H5 2420   0.392   1.123   0.214  2.7598  0.1965 -1.1739
  155MPD2    N1 2421   0.855   0.958   0.074  0.1756 -0.1919  0.1509
  155MPD2    H7 2422   0.924   0.911   0.017  1.5833  1.6141  0.3744
  156TMC2    C1 2423   4.672   3.251  11.741  0.0790 -0.7469 -0.2456
  156TMC2    C2 2424   4.705   3.135  11.675 -0.2455 -0.3281  0.4126
  156TMC2    C3 2425   4.694   3.126  11.536 -0.1016  0.1113 -0.1423
  156TMC2    C4 2426   4.630   3.361  11.674 -0.7332 -0.1207 -0.3383
  156TMC2    C5 2427   4.617   3.357  11.543 -0.0181  0.0238  0.2615
  156TMC2    C6 2428   4.631   3.237  11.478 -0.3181 -0.2300  0.6774
  156TMC2     C 2429   4.659   3.260  11.883  0.2200  0.3116  0.4534
  156TMC2     O 2430   4.647   3.367  11.944 -0.5999 -0.3650 -0.5735
  156TMC2     H 2431   0.014   3.049  11.726 -1.8632 -0.8031  0.8939
  156TMC2    H1 2432   4.592   3.446  11.729 -2.1713 -0.9171 -0.0912
  156TMC2    H2 2433   4.608   3.231  11.373 -0.8520  1.3233  0.7024
  156TMC2    C7 2434   4.571   3.483  11.476 -0.0890 -0.6089  0.2503
  156TMC2    C8 2435   4.654   3.004  11.477 -0.2420 -0.8210  0.3336
  156TMC2    O1 2436   4.579   3.590  11.533 -0.3102  0.2928 -0.1784
  156TMC2    O2 2437   4.556   2.941  11.506  0.2113 -0.3394  0.1652
  156TMC2    O5 2438   4.696   3.020  11.351 -0.2040 -0.4833  0.0800
  156TMC2    H5 2439   0.045   3.074  11.340 -0.5789  0.0219 -0.1812
  157MPD2     C 2440   4.620   2.983  12.134 -0.0611  0.6676  0.9833
  157MPD2    C1 2441   4.659   3.109  12.082 -0.4273 -0.1576  0.7736
  157MPD2    C2 2442   4.708   3.203  12.170  0.4193  0.3527 -0.0561
  157MPD2    C3 2443   0.005   3.172  12.303  0.8018 -0.2761  0.2694
  157MPD2    C4 2444   4.712   3.043  12.351  0.2008 -0.2578  0.0294
  157MPD2    C5 2445   4.646   2.952  12.270  0.0181  0.3082  0.4921
  157MPD2     H 2446   0.013   3.294  12.124 -0.1695 -0.0985 -1.3961
  157MPD2    H1 2447   4.731   3.001  12.449  0.1159 -0.6743 -0.1318
  157MPD2    H2 2448   4.587   2.907  12.065 -1.8859  0.9930  1.4943
  157MPD2    H3 2449   4.622   2.853  12.306  0.1933 -0.1230 -0.5684
  157MPD2     N 2450   0.050   3.268  12.391 -0.5906  0.1604  0.4960
  157MPD2    H5 2451   0.077   3.351  12.340  0.0115 -1.5456 -1.9968
  157MPD2    N1 2452   4.649   3.139  11.942 -0.3622 -0.4072 -0.5757
  157MPD2    H7 2453   4.645   3.063  11.875  0.1192 -1.1916  0.2829
  158TMC2    C1 2454   4.292   1.688  13.242 -0.0114 -0.0084  0.6884
  158TMC2    C2 2455   4.275   1.726  13.111  0.8045  0.1427 -0.3530
  158TMC2    C3 2456   4.160   1.789  13.074  0.0754 -0.0832  0.0112
  158TMC2    C4 2457   4.199   1.724  13.336  0.6396  0.4359 -0.0166
  158TMC2    C5 2458   4.092   1.803  13.293  0.5896  0.1846 -0.1337
  158TMC2    C6 2459   4.065   1.822  13.160 -0.1010 -0.5414 -0.4157
  158TMC2     C 2460   4.405   1.603  13.276  0.5838  0.0656 -0.7016
  158TMC2     O 2461   4.493   1.603  13.190 -0.5880 -0.2744  0.6247
  158TMC2     H 2462   4.357   1.712  13.041  1.0729  0.1549 -0.0378
  158TMC2    H1 2463   4.199   1.694  13.441 -0.3757  0.3533 -0.0378
  158TMC2    H2 2464   3.967   1.858  13.130 -0.0215 -0.4509 -0.5700
  158TMC2    C7 2465   3.974   1.838  13.383 -0.1162  0.4984 -0.5320
  158TMC2    C8 2466   4.150   1.814  12.933  0.5138  0.1426  0.2534
  158TMC2    O1 2467   3.901   1.926  13.337  0.0421  0.6525 -0.0598
  158TMC2    O2 2468   4.248   1.814  12.863 -0.1022  0.1794  0.5163
  158TMC2    O5 2469   4.030   1.828  12.888 -0.5952  0.3902 -0.6613
  158TMC2    H5 2470   3.954   1.819  12.949  1.1512  2.8115  1.9204
  159MPD2     C 2471   4.697   1.396  13.645  0.2944 -0.3219 -0.3081
  159MPD2    C1 2472   4.577   1.413  13.701  0.1433 -0.3173  0.3503
  159MPD2    C2 2473   4.479   1.465  13.620 -0.8736 -0.2107  0.3746
  159MPD2    C3 2474   4.503   1.491  13.482  0.1548 -0.5237  0.1149
  159MPD2    C4 2475   4.623   1.455  13.428 -0.8559 -0.0151 -0.1174
  159MPD2    C5 2476   4.721   1.416  13.515  0.7920 -0.0794 -0.1610
  159MPD2     H 2477   4.377   1.472  13.657 -0.8364 -0.4596  0.5248
  159MPD2    H1 2478   4.647   1.469  13.323 -0.3026 -1.3994 -0.1782
  159MPD2    H2 2479   0.044   1.360  13.709 -1.1784 -0.4622  1.4134
  159MPD2    H3 2480   0.088   1.392  13.477  0.0834 -0.4039 -1.8376
  159MPD2     N 2481   4.401   1.549  13.404  0.0282  0.0512 -0.7883
  159MPD2    H5 2482   4.310   1.571  13.443  0.7882  0.7667  0.5825
  159MPD2    N1 2483   4.548   1.379  13.837  0.1427  0.5946  0.1352
  159MPD2    H7 2484   4.624   1.338  13.891 -1.4096  0.3781  2.1186
  160TMC2    C1 2485   4.727   0.082   1.168  0.3229  0.2355  0.1731
  160TMC2    C2 2486   4.646   4.724   1.103  0.3198 -0.4378  0.0011
  160TMC2    C3 2487   4.710   4.644   1.014 -0.3555  0.6300  0.1832
  160TMC2    C4 2488   0.128   0.098   1.139 -0.0158  0.4451 -0.3592
  160TMC2    C5 2489   0.179   0.018   1.043 -0.1599  0.0853  0.5513
  160TMC2    C6 2490   0.113   4.651   0.986 -0.2782  0.3107  0.2599
  160TMC2     C 2491   4.668   0.186   1.249 -0.1007  0.7674 -0.3231
  160TMC2     O 2492   4.718   0.213   1.355  0.2708  0.6303  0.3359
  160TMC2     H 2493   4.539   4.727   1.116  0.5260 -3.4532  2.2565
  160TMC2    H1 2494   0.186   0.169   1.198 -0.8243  1.7622 -1.1422
  160TMC2    H2 2495   0.166   4.587   0.916 -2.0839  0.6097 -1.3545
  160TMC2    C7 2496   0.302   0.061   0.970 -0.1593  0.5815  0.0209
  160TMC2    C8 2497   4.636   4.560   0.928 -0.6441 -0.2210 -0.2360
  160TMC2    O1 2498   0.362   4.713   0.902 -0.2354 -0.0826  0.6481
  160TMC2    O2 2499   4.682   4.534   0.817 -0.0674 -0.2749  0.3155
  160TMC2    O5 2500   4.567   4.468   0.997 -0.2965  0.6019  0.1657
  160TMC2    H5 2501   4.556   4.498   1.090 -0.2084  0.2146  0.3020
  161MPD2     C 2502   4.467   0.360   1.382 -0.0198 -0.0501  0.0400
  161MPD2    C1 2503   4.473   0.340   1.244 -0.1191 -0.3314 -1.1747
  161MPD2    C2 2504   4.371   0.394   1.165  0.6641 -0.2207 -0.8804
  161MPD2    C3 2505   4.269   0.461   1.226  0.3243  0.3002 -0.2458
  161MPD2    C4 2506   4.270   0.487   1.368 -0.3596  0.4249  0.1640
  161MPD2    C5 2507   4.370   0.436   1.447  0.6936 -0.4111  0.1067
  161MPD2     H 2508   4.374   0.379   1.058 -0.6548  0.4767 -1.0103
  161MPD2    H1 2509   4.191   0.548   1.412 -2.3137 -1.8910 -0.1416
  161MPD2    H2 2510   4.537   0.313   1.450  0.2310  0.3695  0.0649
  161MPD2    H3 2511   4.375   0.431   1.555  3.5874  0.7961  0.0265
  161MPD2     N 2512   4.157   0.509   1.156  0.3686 -0.0239  0.0853
  161MPD2    H5 2513   4.083   0.549   1.212 -1.6843 -1.1905 -1.7650
  161MPD2    N1 2514   4.556   0.238   1.184 -0.5058  0.1584 -0.5258
  161MPD2    H7 2515   4.544   0.206   1.089  0.5477 -0.4188 -0.4547
  162TMC2    C1 2516   2.348   1.975   1.371 -0.0437 -0.3405  0.1441
  162TMC2    C2 2517   2.254   2.047   1.435  0.2540  0.2506 -0.7193
  162TMC2    C3 2518   2.260   2.053   1.573 -0.2722 -0.4192  0.7075
  162TMC2    C4 2519   2.436   1.897   1.432 -0.6689  0.2112  0.0415
  162TMC2    C5 2520   2.441   1.902   1.572  0.1171 -0.1676  0.2643
  162TMC2    C6 2521   2.355   1.973   1.639 -0.5501  0.2062  0.5221
  162TMC2     C 2522   2.339   1.958   1.231 -0.2283  0.3533  0.1868
  162TMC2     O 2523   2.370   1.847   1.188 -0.4693 -0.2084  0.0036
  162TMC2     H 2524   2.168   2.079   1.377  0.8207  0.0905 -1.6467
  162TMC2    H1 2525   2.508   1.844   1.370 -2.1969 -1.6373 -0.1366
  162TMC2    H2 2526   2.359   1.969   1.747 -2.1698 -0.1289  0.5698
  162TMC2    C7 2527   2.536   1.828   1.656  0.2686  0.1131  0.2634
  162TMC2    C8 2528   2.126   2.065   1.627 -0.3999  0.6865 -0.0369
  162TMC2    O1 2529   2.576   1.882   1.761  0.1129  0.1888 -0.3695
  162TMC2    O2 2530   2.028   2.029   1.561 -0.5395 -0.1316 -1.1010
  162TMC2    O5 2531   2.133   2.120   1.747  0.1537 -0.3085  0.3327
  162TMC2    H5 2532   2.219   2.160   1.773  0.7063  0.1678 -2.2471
  163MPD2     C 2533   2.276   2.113   0.749 -0.1663  0.2951  0.0535
  163MPD2    C1 2534   2.318   1.992   0.794  0.6345  0.1030 -0.7338
  163MPD2    C2 2535   2.316   1.976   0.931 -0.3025  0.1357  0.9022
  163MPD2    C3 2536   2.291   2.078   1.023  0.7224  0.3720 -0.3196
  163MPD2    C4 2537   2.232   2.187   0.972  0.1739  0.2521 -0.4373
  163MPD2    C5 2538   2.226   2.203   0.838  0.1176 -0.2266  0.1093
  163MPD2     H 2539   2.355   1.881   0.968 -2.0757 -0.6949  0.6183
  163MPD2    H1 2540   2.202   2.271   1.032 -0.0957  0.7837 -1.3186
  163MPD2    H2 2541   2.279   2.126   0.641 -1.2794 -2.4452 -0.3240
  163MPD2    H3 2542   2.196   2.301   0.802  1.7396  0.3643  0.3362
  163MPD2     N 2543   2.297   2.069   1.166 -0.0523  0.6886 -0.2648
  163MPD2    H5 2544   2.275   2.151   1.220 -2.2997 -0.9343  1.2802
  163MPD2    N1 2545   2.353   1.898   0.696 -0.3190  0.1223 -0.2489
  163MPD2    H7 2546   2.352   1.924   0.598  1.0907 -2.3329 -0.9079
  164TMC2    C1 2547   3.125   1.681  11.188 -1.0248  0.0168 -0.1718
  164TMC2    C2 2548   3.209   1.739  11.276 -0.1103  0.0457  0.7378
  164TMC2    C3 2549   3.254   1.865  11.242 -0.0289  0.0856  0.0371
  164TMC2    C4 2550   3.081   1.737  11.074  0.6513  0.0946  0.4234
  164TMC2    C5 2551   3.112   1.869  11.055  0.3534  0.1228  0.5641
  164TMC2    C6 2552   3.210   1.930  11.127 -0.8680  0.8613 -0.4712
  164TMC2     C 2553   3.056   1.570  11.245  0.8816 -0.1066  0.2317
  164TMC2     O 2554   3.113   1.509  11.332  0.7631  0.0478  0.2031
  164TMC2     H 2555   3.245   1.690  11.366 -0.0068  0.9877  1.2081
  164TMC2    H1 2556   3.001   1.688  11.020  0.5619  1.2416 -0.4808
  164TMC2    H2 2557   3.252   2.027  11.103  0.2016  0.4333 -0.3064
  164TMC2    C7 2558   3.025   1.942  10.968 -0.0016  0.5705 -0.1651
  164TMC2    C8 2559   3.384   1.895  11.296 -0.1083  0.1548 -0.2277
  164TMC2    O1 2560   2.917   1.895  10.940 -0.2514 -0.2569  0.5264
  164TMC2    O2 2561   3.399   1.971  11.392  0.1586  0.7956 -0.0700
  164TMC2    O5 2562   3.474   1.868  11.199  0.9189  0.0838 -0.4633
  164TMC2    H5 2563   3.441   1.807  11.130  2.0372  1.5199 -2.2586
  165TMC2    C1 2564   3.920   3.441   1.144 -0.3740  0.0324 -0.5117
  165TMC2    C2 2565   3.957   3.321   1.202  0.5183  1.0323  0.2270
  165TMC2    C3 2566   4.059   3.327   1.293 -0.0574 -0.0683  0.8239
  165TMC2    C4 2567   3.983   3.559   1.172 -0.2131 -0.1789  0.2621
  165TMC2    C5 2568   4.079   3.560   1.271  0.0924 -0.4024  0.2563
  165TMC2    C6 2569   4.124   3.444   1.336 -0.3334 -0.4759 -0.7006
  165TMC2     C 2570   3.851   3.430   1.016  0.2976  0.7643  0.1142
  165TMC2     O 2571   3.762   3.351   0.994 -0.0341 -0.0458  0.3785
  165TMC2     H 2572   3.929   3.224   1.161 -0.4780  1.9100 -1.1540
  165TMC2    H1 2573   3.961   3.642   1.107 -0.1035 -0.3164  0.0515
  165TMC2    H2 2574   4.182   3.447   1.427 -2.1996 -1.6226  0.5244
  165TMC2    C7 2575   4.169   3.671   1.277 -0.3526 -0.5908  0.2888
  165TMC2    C8 2576   4.128   3.204   1.290 -0.4518  0.7344  0.4079
  165TMC2    O1 2577   4.280   3.641   1.317  0.3296 -0.1811 -0.2894
  165TMC2    O2 2578   4.070   3.099   1.316  0.3386 -0.4482 -0.1525
  165TMC2    O5 2579   4.255   3.232   1.327 -0.0039 -0.0094 -0.7829
  165TMC2    H5 2580   4.290   3.305   1.271  1.0155  0.1601  0.0882
  166MPD2     C 2581   3.761   3.570   0.542  0.1825 -0.0398 -0.7683
  166MPD2    C1 2582   3.669   3.550   0.644 -0.2516 -0.2248  0.1694
  166MPD2    C2 2583   3.716   3.526   0.771  0.2549  1.1370  0.0976
  166MPD2    C3 2584   3.851   3.520   0.787 -0.8522  0.4418  0.2459
  166MPD2    C4 2585   3.937   3.532   0.681  0.2092  0.5219  0.2762
  166MPD2    C5 2586   3.894   3.552   0.552  0.0065  0.2737 -0.3087
  166MPD2     H 2587   3.651   3.522   0.858  2.8451 -0.5028  1.9734
  166MPD2    H1 2588   4.044   3.518   0.696  0.0544 -0.8298  0.1149
  166MPD2    H2 2589   3.727   3.602   0.444 -1.4866  0.2539 -0.0865
  166MPD2    H3 2590   3.964   3.565   0.470 -0.2700  0.5517 -0.4998
  166MPD2     N 2591   3.911   3.495   0.909  0.0885  0.1585 -0.0734
  166MPD2    H5 2592   4.005   3.526   0.930  0.8584 -2.2573 -0.0367
  166MPD2    N1 2593   3.530   3.582   0.633  0.0078  0.6118  0.2844
  166MPD2    H7 2594   3.485   3.608   0.720  0.9083 -1.4129  1.3515
  167TMC2    C1 2595   2.207   1.833  13.095  0.3151 -0.0871  0.4068
  167TMC2    C2 2596   2.204   1.851  13.228  0.1908  0.1366 -0.0733
  167TMC2    C3 2597   2.205   1.743  13.308  0.2376 -0.0648  0.0540
  167TMC2    C4 2598   2.229   1.712  13.040 -0.1866 -0.2532  0.0643
  167TMC2    C5 2599   2.232   1.605  13.127 -0.2358 -0.6871 -0.0278
  167TMC2    C6 2600   2.222   1.621  13.259 -0.4345 -0.0199 -0.3560
  167TMC2     C 2601   2.227   1.952  13.013  0.2273 -0.4280  0.4563
  167TMC2     O 2602   2.207   2.056  13.072 -0.3838  0.2165  0.1558
  167TMC2     H 2603   2.189   1.946  13.277  0.8339  0.0898  0.2058
  167TMC2    H1 2604   2.221   1.690  12.934 -1.8378 -2.3778  0.6230
  167TMC2    H2 2605   2.217   1.547  13.338  1.2889  0.0879 -0.1411
  167TMC2    C7 2606   2.220   1.473  13.076  0.3324  0.3322  0.0356
  167TMC2    C8 2607   2.173   1.768  13.444 -0.0146  0.3838 -0.0892
  167TMC2    O1 2608   2.167   1.381  13.143 -0.0498  0.3875 -0.0214
  167TMC2    O2 2609   2.089   1.704  13.502 -0.0229  0.3830  0.3353
  167TMC2    O5 2610   2.299   1.798  13.480 -0.2683 -0.2351  0.1425
  167TMC2    H5 2611   2.366   1.797  13.407 -1.1690 -0.7932 -0.6717
  168MPD2     C 2612   2.219   2.152  12.783 -0.3432  0.3413  0.1397
  168MPD2    C1 2613   2.274   2.023  12.781 -0.4588 -0.4806 -0.1287
  168MPD2    C2 2614   2.324   1.975  12.663  0.1360 -0.0497 -0.1719
  168MPD2    C3 2615   2.329   2.059  12.551 -0.0561  0.0060 -1.0505
  168MPD2    C4 2616   2.295   2.190  12.560  0.9805 -0.1998 -0.5509
  168MPD2    C5 2617   2.244   2.239  12.680  0.1215 -0.6845  0.1365
  168MPD2     H 2618   2.354   1.871  12.659  2.1528  0.5167  0.1688
  168MPD2    H1 2619   2.288   2.254  12.473  1.5369 -0.0831 -0.5093
  168MPD2    H2 2620   2.187   2.199  12.875 -0.4347  1.1932 -0.3254
  168MPD2    H3 2621   2.219   2.345  12.679 -0.4910 -0.8273 -0.4886
  168MPD2     N 2622   2.357   2.005  12.421 -0.2264 -0.2145  0.2484
  168MPD2    H5 2623   2.347   2.077  12.351 -0.2096 -1.0416 -0.6047
  168MPD2    N1 2624   2.274   1.926  12.887 -0.4763 -0.1302 -0.0934
  168MPD2    H7 2625   2.321   1.836  12.877 -0.4899 -0.5075  3.2603
  169MPD1     C 2626   1.402   2.471   9.855  0.1557 -0.5237 -0.0186
  169MPD1    C1 2627   1.270   2.447   9.833 -0.0459 -0.5582  0.3871
  169MPD1    C2 2628   1.237   2.318   9.796 -0.2350  0.0481 -0.0101
  169MPD1    C3 2629   1.336   2.215   9.798  0.7773 -0.0125 -0.1944
  169MPD1    C4 2630   1.467   2.251   9.814  0.4840 -0.0961 -0.1090
  169MPD1    C5 2631   1.498   2.379   9.837  0.3000 -0.0356 -0.1633
  169MPD1     H 2632   1.133   2.294   9.779 -0.3411 -0.1241  0.8721
  169MPD1    H1 2633   1.554   2.187   9.808  1.9350  1.6378  2.2006
  169MPD1    H2 2634   1.445   2.571   9.859  0.4269 -0.6192 -0.4883
  169MPD1    H3 2635   1.602   2.406   9.852  0.0588  0.8071 -0.0158
  169MPD1     N 2636   1.293   2.077   9.789  0.3404  0.2063 -0.1586
  169MPD1    H5 2637   1.196   2.067   9.762  0.0900 -0.5811  1.0542
  169MPD1    N1 2638   1.186   2.557   9.822 -0.8199  0.1195  0.4111
  169MPD1    H6 2639   1.089   2.534   9.842 -0.8922  0.1136  0.0544
  169MPD1    H7 2640   1.200   2.625   9.896 -0.2911 -1.3307  1.6332
  170MPD1     C 2641   3.388   3.335  12.591 -0.1612  0.3505 -0.5002
  170MPD1    C1 2642   3.263   3.379  12.632 -0.4072 -0.3135 -1.1155
  170MPD1    C2 2643   3.250   3.419  12.759  0.6280  0.3738 -0.2374
  170MPD1    C3 2644   3.346   3.390  12.852 -0.1425  0.1283  0.0436
  170MPD1    C4 2645   3.470   3.350  12.812 -0.4806  0.1643  0.4221
  170MPD1    C5 2646   3.488   3.319  12.679  0.0185  0.2637 -0.8832
  170MPD1     H 2647   3.158   3.467  12.791  0.8651 -0.1306  1.2078
  170MPD1    H1 2648   3.547   3.332  12.886  1.7813  3.1132 -1.2204
  170MPD1    H2 2649   3.415   3.314  12.489  0.3363 -0.3182 -0.2317
  170MPD1    H3 2650   3.586   3.284  12.649  0.4133 -0.9487  1.7500
  170MPD1     N 2651   3.327   3.412  12.990  0.3970  0.4227 -0.0222
  170MPD1    H5 2652   3.256   3.480  13.013  2.3790  3.1729 -2.1604
  170MPD1    N1 2653   3.164   3.418  12.540  1.1258  0.7228 -0.2327
  170MPD1    H6 2654   3.178   3.387  12.443  0.3919 -0.6397  0.0870
  170MPD1    H7 2655   3.068   3.398  12.568  0.3580  2.4460 -1.6595
  171MPD1     C 2656   2.152   0.368  15.481 -0.4201  0.6709  0.1769
  171MPD1    C1 2657   2.098   0.245  15.444  0.7880 -0.2719  0.1722
  171MPD1    C2 2658   2.142   0.133  15.507  0.5400 -0.8068  0.4152
  171MPD1    C3 2659   2.249   0.137  15.598  0.5201  0.3813  0.3039
  171MPD1    C4 2660   2.299   0.263  15.636  0.2540  0.0013  0.1243
  171MPD1    C5 2661   2.251   0.377  15.574 -0.6511  0.5475  0.3509
  171MPD1     H 2662   2.106   0.041  15.462  1.6293 -1.4141  0.8005
  171MPD1    H1 2663   2.380   0.269  15.708  1.9730 -3.9872 -1.4603
  171MPD1    H2 2664   2.118   0.459  15.431 -2.2787 -0.0168  0.1732
  171MPD1    H3 2665   2.284   0.478  15.594 -0.7322  0.7259 -0.4291
  171MPD1     N 2666   2.299   0.021  15.659 -1.0693  0.2229 -0.4681
  171MPD1    H5 2667   2.379   0.038  15.720 -3.8893  2.1082  2.7140
  171MPD1    N1 2668   2.016   0.241  15.329 -0.2687  0.0965 -0.1766
  171MPD1    H6 2669   1.982   0.328  15.287  0.8223  1.3110  1.4517
  171MPD1    H7 2670   1.937   0.177  15.328 -0.3108  0.1694 -2.7162
  172MPD1     C 2671   1.404   3.397   0.299 -0.2534 -0.0067  0.4350
  172MPD1    C1 2672   1.320   3.502   0.338 -0.0964  0.1319 -0.3511
  172MPD1    C2 2673   1.377   3.617   0.389  1.1553 -0.6520 -0.2600
  172MPD1    C3 2674   1.514   3.627   0.408 -0.0467 -0.9174  0.3592
  172MPD1    C4 2675   1.591   3.516   0.385  0.1485  0.6594 -0.5311
  172MPD1    C5 2676   1.541   3.404   0.323 -0.0886  0.0628  0.7769
  172MPD1     H 2677   1.315   3.705   0.399  2.6173  0.8060 -4.3290
  172MPD1    H1 2678   1.697   3.516   0.408  0.1685 -1.2477 -0.6126
  172MPD1    H2 2679   1.360   3.315   0.244 -3.5256  2.5785 -0.8049
  172MPD1    H3 2680   1.612   3.328   0.294 -0.7905 -0.7421  1.1701
  172MPD1     N 2681   1.574   3.751   0.442  0.1602 -0.0748  0.4564
  172MPD1    H5 2682   1.675   3.752   0.451  0.0595 -2.6190  1.8374
  172MPD1    N1 2683   1.185   3.492   0.296  0.3334  0.1042 -0.5802
  172MPD1    H6 2684   1.148   3.397   0.295 -1.7246  0.9374 -2.6352
  172MPD1    H7 2685   1.119   3.536   0.359 -0.6089 -1.7337 -0.2582
  173MPD1     C 2686   3.274   3.849  13.957  0.4749 -0.7283 -0.7295
  173MPD1    C1 2687   3.320   3.751  14.045  0.7784  0.7201  0.2613
  173MPD1    C2 2688   3.253   3.738  14.161  0.0840 -0.8118 -0.0593
  173MPD1    C3 2689   3.130   3.793  14.182 -0.0136 -0.2934 -0.1347
  173MPD1    C4 2690   3.075   3.878  14.088 -0.6422 -0.0035 -0.1500
  173MPD1    C5 2691   3.152   3.901  13.975 -0.9868  0.3561  0.2102
  173MPD1     H 2692   3.289   3.672  14.239  1.0738  0.3875  0.4854
  173MPD1    H1 2693   2.980   3.928  14.104 -0.2155  0.5207  0.7209
  173MPD1    H2 2694   3.326   3.865  13.863  2.1685  2.5313  0.7591
  173MPD1    H3 2695   3.113   3.972  13.902 -0.3085 -0.5105 -1.0068
  173MPD1     N 2696   3.058   3.760  14.301  0.0389 -1.3191  0.1571
  173MPD1    H5 2697   3.109   3.690  14.354 -0.3905 -0.5475  1.6054
  173MPD1    N1 2698   3.444   3.693  14.029  0.4718  0.7766 -0.1835
  173MPD1    H6 2699   3.459   3.610  14.086 -2.1870  0.2835 -0.2205
  173MPD1    H7 2700   3.471   3.680  13.931 -1.0892  0.2708 -0.5538
  174MPD1     C 2701   2.836   2.937  14.797  0.1454 -0.2618 -0.2151
  174MPD1    C1 2702   2.903   2.980  14.684  0.5197  0.1904  1.1150
  174MPD1    C2 2703   2.882   3.112  14.648  0.1652  0.4405  0.3195
  174MPD1    C3 2704   2.811   3.202  14.723  0.2968  0.2987 -0.5993
  174MPD1    C4 2705   2.744   3.156  14.836 -0.6068 -0.0263 -0.0888
  174MPD1    C5 2706   2.760   3.023  14.872 -0.1611 -0.3753 -0.4528
  174MPD1     H 2707   2.903   3.139  14.545  0.8562 -2.3995 -0.2696
  174MPD1    H1 2708   2.694   3.226  14.901 -2.4564 -1.2391 -0.2210
  174MPD1    H2 2709   2.842   2.834  14.830  4.1839  0.1827  0.4762
  174MPD1    H3 2710   2.725   2.986  14.968  2.4495  1.9748  1.4220
  174MPD1     N 2711   2.793   3.335  14.685 -0.0594  0.1551  0.5846
  174MPD1    H5 2712   2.725   3.389  14.738  0.4018  2.4035 -1.0975
  174MPD1    N1 2713   2.947   2.875  14.602  0.8213  0.2352 -0.2868
  174MPD1    H6 2714   2.994   2.799  14.651  0.1221 -0.1808 -0.2678
  174MPD1    H7 2715   3.025   2.914  14.551  2.4385 -2.4717  0.1113
  175MPD1     C 2716   1.468   4.327  15.591 -0.2841  0.9265  0.5657
  175MPD1    C1 2717   1.371   4.424  15.603  1.1582  0.1551 -0.2534
  175MPD1    C2 2718   1.308   4.443  15.720  0.2174 -0.2421  0.3613
  175MPD1    C3 2719   1.346   4.365  15.829  0.2760  0.1964 -0.3022
  175MPD1    C4 2720   1.439   4.267  15.818  1.1907  0.3157 -0.3194
  175MPD1    C5 2721   1.488   4.234  15.692 -0.3074  1.4490 -0.2596
  175MPD1     H 2722   1.242   4.529  15.729 -0.2487 -0.2596 -2.8500
  175MPD1    H1 2723   1.475   4.213  15.905  0.0072 -0.9097 -0.5781
  175MPD1    H2 2724   1.535   4.304  15.509  1.5532  1.8650  1.8066
  175MPD1    H3 2725   1.553   4.148  15.685 -0.3478  1.4245 -0.3299
  175MPD1     N 2726   1.293   4.375  15.964  0.5128  0.2462 -0.1999
  175MPD1    H5 2727   1.351   4.325  16.031  0.9757  2.0912  0.7834
  175MPD1    N1 2728   1.359   4.513  15.495 -1.1292 -0.3743 -0.3450
  175MPD1    H6 2729   1.385   4.474  15.404  0.9453 -2.0205  0.9604
  175MPD1    H7 2730   1.268   4.558  15.488 -0.4659  0.9929 -0.1307
  176MPD1     C 2731   1.843   1.711  16.381  0.1400 -0.2624 -0.8769
  176MPD1    C1 2732   1.795   1.829  16.428 -0.4362  0.1285  0.3441
  176MPD1    C2 2733   1.825   1.871  16.556 -0.1159 -0.3339  0.5901
  176MPD1    C3 2734   1.901   1.791  16.640 -0.4906 -0.5263 -0.3392
  176MPD1    C4 2735   1.939   1.667  16.592  0.5138  0.0565  0.4140
  176MPD1    C5 2736   1.910   1.631  16.465  0.1106 -0.7924  0.3728
  176MPD1     H 2737   1.788   1.967  16.590 -2.0576 -1.4284  1.5918
  176MPD1    H1 2738   1.995   1.598  16.653  1.3274 -0.2615 -0.6946
  176MPD1    H2 2739   1.827   1.679  16.279  0.7976 -0.5353 -0.8928
  176MPD1    H3 2740   1.958   1.540  16.429  1.0285 -0.2079  0.1274
  176MPD1     N 2741   1.945   1.845  16.761 -0.4681 -0.3090  0.4865
  176MPD1    H5 2742   1.909   1.936  16.786  0.0442  0.1008 -0.2916
  176MPD1    N1 2743   1.719   1.906  16.344 -0.2566 -0.2755  0.3205
  176MPD1    H6 2744   1.651   1.956  16.401 -2.5749 -0.9352 -1.8732
  176MPD1    H7 2745   1.671   1.854  16.271 -1.6063  0.5658  0.6174
  177MPD1     C 2746   1.187   2.864   9.807  0.2399 -0.2222  0.0212
  177MPD1    C1 2747   1.137   2.836   9.931  0.0563  0.5144 -0.4881
  177MPD1    C2 2748   0.997   2.836   9.932  0.2108 -0.0177 -0.1687
  177MPD1    C3 2749   0.919   2.876   9.829 -0.7091 -0.1438  0.2400
  177MPD1    C4 2750   0.974   2.901   9.710 -0.1690  0.1306 -0.3637
  177MPD1    C5 2751   1.109   2.888   9.703  0.6493  0.7081  0.4944
  177MPD1     H 2752   0.948   2.805  10.024 -2.8680  0.4918 -1.6374
  177MPD1    H1 2753   0.921   2.937   9.623 -1.9465  0.3716  0.8295
  177MPD1    H2 2754   1.294   2.875   9.796  0.4909  0.2962  2.9745
  177MPD1    H3 2755   1.160   2.920   9.612  0.9540 -1.1404  0.0128
  177MPD1     N 2756   0.780   2.893   9.850  0.2240  0.7878  0.6669
  177MPD1    H5 2757   0.737   2.891   9.942 -0.6109 -1.1580  0.2342
  177MPD1    N1 2758   1.221   2.780  10.026  0.0935  0.0503  0.3897
  177MPD1    H6 2759   1.180   2.750  10.115 -1.5823 -0.9329 -0.7174
  177MPD1    H7 2760   1.321   2.800  10.031  0.1303 -0.1927  0.6512
  178MPD1     C 2761   3.054   2.294   0.356 -1.3185  0.8982 -0.2566
  178MPD1    C1 2762   3.040   2.429   0.345  0.3317 -0.5428 -0.4706
  178MPD1    C2 2763   3.120   2.494   0.251  0.3212 -0.3203 -0.6327
  178MPD1    C3 2764   3.210   2.426   0.180 -0.0709 -0.2219 -0.3635
  178MPD1    C4 2765   3.227   2.289   0.194  0.2300  0.3935  0.6731
  178MPD1    C5 2766   3.152   2.223   0.284 -0.3479  0.1567  0.1139
  178MPD1     H 2767   3.101   2.600   0.251  1.6994 -0.0779  0.3041
  178MPD1    H1 2768   3.297   2.242   0.126 -0.0022 -0.5548  1.0902
  178MPD1    H2 2769   2.989   2.242   0.426  2.0359 -1.3690  1.1323
  178MPD1    H3 2770   3.165   2.116   0.294 -0.4851  0.1671  0.4172
  178MPD1     N 2771   3.280   2.492   0.075  0.3264 -0.0287 -0.1153
  178MPD1    H5 2772   3.331   2.441   0.003  0.3682 -4.1160  2.8542
  178MPD1    N1 2773   2.936   2.498   0.415 -0.0241 -0.1753 -0.1253
  178MPD1    H6 2774   2.963   2.583   0.463  1.2652 -0.1601 -0.8698
  178MPD1    H7 2775   2.887   2.451   0.491  3.5544  0.0905  2.3407
  179MPD1     C 2776   3.266   1.739  16.012 -0.2618 -0.3124 -0.2528
  179MPD1    C1 2777   3.131   1.736  15.984  0.4386  0.0370 -0.3825
  179MPD1    C2 2778   3.072   1.609  15.973 -0.1182  0.1647 -0.6230
  179MPD1    C3 2779   3.151   1.496  15.995 -0.4947 -0.3081 -0.1016
  179MPD1    C4 2780   3.283   1.505  16.028 -0.6772  0.1865 -1.2668
  179MPD1    C5 2781   3.339   1.626  16.046 -0.1742 -0.5687  0.1699
  179MPD1     H 2782   2.966   1.602  15.952 -0.1987  0.4029 -0.2896
  179MPD1    H1 2783   3.350   1.419  16.029 -0.9048  0.0147  2.4307
  179MPD1    H2 2784   3.320   1.833  16.010 -0.4736 -0.2027 -0.8104
  179MPD1    H3 2785   3.441   1.631  16.081 -0.1709 -0.8506  0.1981
  179MPD1     N 2786   3.098   1.363  15.996 -0.2049 -0.0460 -0.1499
  179MPD1    H5 2787   3.168   1.290  16.006  1.5775  1.9551  1.7904
  179MPD1    N1 2788   3.056   1.850  15.961 -0.5176  0.2208 -0.6044
  179MPD1    H6 2789   3.099   1.932  16.002  3.5993 -1.5864 -1.2588
  179MPD1    H7 2790   2.965   1.843  16.006  0.3100  1.8808  1.3332
  180MPD1     C 2791   2.275   2.834  15.477  0.5872 -0.2875  0.1237
  180MPD1    C1 2792   2.360   2.899  15.397 -0.0502 -0.2266  0.2639
  180MPD1    C2 2793   2.368   2.864  15.261 -0.0766  0.4352 -0.2077
  180MPD1    C3 2794   2.292   2.761  15.210  0.4399  0.2505  0.0596
  180MPD1    C4 2795   2.215   2.691  15.295 -0.1123 -0.1454  0.2026
  180MPD1    C5 2796   2.206   2.726  15.428 -0.5950 -0.0531 -0.0667
  180MPD1     H 2797   2.428   2.918  15.189 -0.2916  0.5173 -0.3278
  180MPD1    H1 2798   2.146   2.612  15.266  0.8921 -1.4192  1.2682
  180MPD1    H2 2799   2.250   2.872  15.575  1.8742 -1.3805  0.8633
  180MPD1    H3 2800   2.137   2.678  15.496  1.5988 -1.9467  0.8448
  180MPD1     N 2801   2.315   2.729  15.070  0.4534  0.5640 -0.1599
  180MPD1    H5 2802   2.389   2.774  15.017  2.9617 -0.5767  2.3619
  180MPD1    N1 2803   2.429   3.007  15.462  0.6896 -0.0633 -0.0838
  180MPD1    H6 2804   2.530   3.004  15.448  0.6445  3.1511 -1.2129
  180MPD1    H7 2805   2.420   3.008  15.563 -0.4935 -1.8883 -0.1660
  181MPD1     C 2806   4.539   0.305   9.708 -0.3182 -0.1364  0.3479
  181MPD1    C1 2807   4.635   0.404   9.698  0.8505 -0.4299 -0.1672
  181MPD1    C2 2808   0.020   0.388   9.768  0.6485 -0.5724  0.2232
  181MPD1    C3 2809   0.037   0.280   9.850 -0.4798  0.3296  0.4520
  181MPD1    C4 2810   4.666   0.191   9.869  0.0078  0.2345  0.3549
  181MPD1    C5 2811   4.548   0.200   9.795  0.0821  0.1103 -0.2268
  181MPD1     H 2812   0.102   0.457   9.751  0.5960 -0.7746 -0.8653
  181MPD1    H1 2813   4.674   0.108   9.937 -0.2964 -0.9024 -0.9910
  181MPD1    H2 2814   4.443   0.306   9.659  0.5586  1.6691 -1.3149
  181MPD1    H3 2815   4.470   0.125   9.804  0.9400 -0.9292 -1.5147
  181MPD1     N 2816   0.151   0.259   9.932  0.8702 -0.1859 -0.1151
  181MPD1    H5 2817   0.161   0.175   9.988 -1.7644  1.7491  3.2464
  181MPD1    N1 2818   4.625   0.506   9.605 -0.1680  0.2612  0.1051
  181MPD1    H6 2819   4.661   0.596   9.637 -0.9692  0.2239  1.1138
  181MPD1    H7 2820   4.528   0.522   9.579 -0.1473 -0.1630 -0.2220
  182MPD1     C 2821   0.346   3.445   1.961 -0.1936  0.1635  0.4939
  182MPD1    C1 2822   0.248   3.492   1.877 -0.0914  0.0488 -0.1133
  182MPD1    C2 2823   0.271   3.476   1.737  0.7046  0.3522  0.0851
  182MPD1    C3 2824   0.391   3.442   1.678 -0.2319  0.2991  0.3347
  182MPD1    C4 2825   0.495   3.415   1.769 -0.2336 -0.8957  0.6072
  182MPD1    C5 2826   0.466   3.416   1.907  0.0088  0.4995 -0.4302
  182MPD1     H 2827   0.195   3.502   1.664  1.5759  0.3075 -0.8550
  182MPD1    H1 2828   0.597   3.395   1.739 -1.2393 -2.2235 -1.8677
  182MPD1    H2 2829   0.334   3.446   2.069 -1.1402 -0.9497  0.4125
  182MPD1    H3 2830   0.546   3.390   1.976 -0.6548 -0.5778 -0.0678
  182MPD1     N 2831   0.400   3.406   1.537  0.4406 -0.5620 -0.6379
  182MPD1    H5 2832   0.489   3.364   1.513  1.1143  0.2622  0.4104
  182MPD1    N1 2833   0.114   3.520   1.921  0.1233  0.2134  0.3568
  182MPD1    H6 2834   0.113   3.558   2.015  0.9491 -0.4243  0.6208
  182MPD1    H7 2835   0.065   3.585   1.860  1.3774  0.6218 -0.2269
  183MPD1     C 2836   0.203   4.388   9.720  0.6974 -0.1448 -0.2214
  183MPD1    C1 2837   0.331   4.338   9.682  0.3126  0.3971 -0.2709
  183MPD1    C2 2838   0.435   4.433   9.687 -0.6655  0.1838 -0.1293
  183MPD1    C3 2839   0.403   4.563   9.724  0.6599  0.4038 -0.0284
  183MPD1    C4 2840   0.272   4.602   9.754  0.1605 -0.3215  0.0913
  183MPD1    C5 2841   0.178   4.516   9.759 -0.5686  0.6807  0.4788
  183MPD1     H 2842   0.537   4.405   9.664 -1.1172  0.2960 -2.3015
  183MPD1    H1 2843   0.246   4.705   9.777  1.6605  0.1369 -0.2863
  183MPD1    H2 2844   0.110   4.334   9.704  2.1574 -2.1935 -1.7137
  183MPD1    H3 2845   0.077   4.553   9.775 -1.3021 -0.4130 -1.7166
  183MPD1     N 2846   0.508   4.657   9.730 -0.2595 -0.1864 -0.0742
  183MPD1    H5 2847   0.598   4.610   9.730 -0.4385 -0.5038 -2.3549
  183MPD1    N1 2848   0.347   4.209   9.623 -0.9928  0.1123 -0.2001
  183MPD1    H6 2849   0.444   4.181   9.635 -0.3146  2.4098 -0.4958
  183MPD1    H7 2850   0.289   4.135   9.662  2.1349 -2.9796 -1.3841
  184MPD1     C 2851   4.657   1.522  10.051  0.1858  0.8006 -0.3431
  184MPD1    C1 2852   0.023   1.612  10.095 -0.3845 -0.3973 -0.0082
  184MPD1    C2 2853   0.014   1.745  10.066  0.1962 -0.3851  0.3513
  184MPD1    C3 2854   4.645   1.801   9.987  0.4004 -0.2862 -0.0147
  184MPD1    C4 2855   4.543   1.712   9.954 -0.4779 -1.2149  0.3280
  184MPD1    C5 2856   4.555   1.577   9.976  0.5794 -0.0812 -0.0460
  184MPD1     H 2857   0.085   1.811  10.114 -0.4507  1.2345 -0.9052
  184MPD1    H1 2858   4.454   1.750   9.903  0.8409 -0.0442 -1.0908
  184MPD1    H2 2859   4.634   1.422  10.085 -2.2677  1.9863  1.4703
  184MPD1    H3 2860   4.485   1.507   9.931 -2.0898  1.9663  0.9542
  184MPD1     N 2861   4.635   1.930   9.941  0.3315  0.0129 -0.0699
  184MPD1    H5 2862   4.555   1.957   9.886  1.2000  0.1497 -1.2536
  184MPD1    N1 2863   0.111   1.566  10.201  0.3896 -0.9885  0.4328
  184MPD1    H6 2864   0.201   1.614  10.197 -0.0266 -0.3689 -1.6255
  184MPD1    H7 2865   0.118   1.465  10.210 -0.7966 -1.0185  1.0375
  185MPD1     C 2866   4.209   2.231   9.289 -0.1040 -0.8384  0.1243
  185MPD1    C1 2867   4.317   2.316   9.281  0.1307  0.5727 -0.4293
  185MPD1    C2 2868   4.404   2.309   9.388  1.0169 -0.0948 -0.3320
  185MPD1    C3 2869   4.382   2.225   9.495 -0.1144 -0.3996  0.1418
  185MPD1    C4 2870   4.274   2.139   9.496  0.1658 -0.2579  0.8620
  185MPD1    C5 2871   4.191   2.140   9.390 -0.2054 -0.3701 -0.3129
  185MPD1     H 2872   4.500   2.359   9.388  1.3669 -0.7520 -1.3293
  185MPD1    H1 2873   4.260   2.073   9.581 -1.7363  1.9486  2.2828
  185MPD1    H2 2874   4.136   2.230   9.209 -1.1419 -1.0299  1.0718
  185MPD1    H3 2875   4.110   2.069   9.378  0.7317 -1.6040  0.6774
  185MPD1     N 2876   4.465   2.218   9.610 -0.2355  0.1088 -0.2973
  185MPD1    H5 2877   4.460   2.138   9.672  1.1951 -0.8576 -1.4134
  185MPD1    N1 2878   4.354   2.394   9.167  0.4469 -0.1412 -0.5092
  185MPD1    H6 2879   4.272   2.412   9.110  1.3005 -0.6196 -1.8728
  185MPD1    H7 2880   4.397   2.484   9.187 -1.0911 -0.0218  2.3624
  186MPD1     C 2881   3.744   1.167  15.833 -0.0353 -0.7050 -0.7046
  186MPD1    C1 2882   3.653   1.124  15.923  0.5250  0.9973  0.1382
  186MPD1    C2 2883   3.635   1.204  16.035 -0.2948  0.3577  0.0447
  186MPD1    C3 2884   3.721   1.314  16.057 -0.2237  0.4710  0.2005
  186MPD1    C4 2885   3.817   1.342  15.970  0.0645  0.4781  0.0062
  186MPD1    C5 2886   3.834   1.263  15.857 -0.3527 -0.0398  0.6390
  186MPD1     H 2887   3.557   1.166  16.100  1.4220 -0.1972  1.8007
  186MPD1    H1 2888   3.895   1.413  15.995  1.3361 -1.4221  1.5027
  186MPD1    H2 2889   3.761   1.113  15.741  1.2843 -1.3939 -0.0545
  186MPD1    H3 2890   3.916   1.280  15.788 -0.9492  1.7212  0.3677
  186MPD1     N 2891   3.723   1.390  16.174 -0.5874 -0.6974 -0.2681
  186MPD1    H5 2892   3.791   1.466  16.178  2.2329 -3.2638  0.0889
  186MPD1    N1 2893   3.548   1.044  15.880 -0.3777  0.2526  0.1664
  186MPD1    H6 2894   3.569   0.986  15.799 -1.4488 -1.8193  1.3575
  186MPD1    H7 2895   3.505   0.984  15.952  0.1774 -0.6547 -0.2586
  187MPD1     C 2896   2.624   3.259   0.393 -0.3071  0.0494  0.5357
  187MPD1    C1 2897   2.535   3.177   0.326 -0.4191  0.0607 -0.4521
  187MPD1    C2 2898   2.549   3.166   0.194  0.0455 -0.0517  0.4918
  187MPD1    C3 2899   2.639   3.241   0.121  0.7304 -0.7047  0.5393
  187MPD1    C4 2900   2.708   3.341   0.188 -0.2421  0.0124  0.6102
  187MPD1    C5 2901   2.700   3.349   0.325 -0.0193  0.3999  0.1710
  187MPD1     H 2902   2.496   3.084   0.146  0.6191  0.7511 -1.4990
  187MPD1    H1 2903   2.778   3.406   0.137 -0.0719 -0.7634 -0.1426
  187MPD1    H2 2904   2.617   3.278   0.500  0.1429  2.9139  0.0405
  187MPD1    H3 2905   2.750   3.429   0.378 -1.6153  1.5627 -0.0525
  187MPD1     N 2906   2.655   3.231  17.712 -0.9182  0.1339  0.3409
  187MPD1    H5 2907   2.691   3.311  17.662  1.7372  0.1531  2.2875
  187MPD1    N1 2908   2.467   3.079   0.401  0.0671  0.6349  0.1522
  187MPD1    H6 2909   2.449   3.109   0.497  1.3340  0.0674  0.5556
  187MPD1    H7 2910   2.377   3.077   0.353  0.4359  2.2764 -0.6125
  188MPD1     C 2911   2.032   2.967   9.675 -0.0286  0.4951  0.3564
  188MPD1    C1 2912   2.122   2.963   9.781  0.3243 -1.0072 -0.6818
  188MPD1    C2 2913   2.156   2.841   9.842  0.0644  0.1033  0.4315
  188MPD1    C3 2914   2.102   2.724   9.785 -0.0559 -0.4727 -0.1636
  188MPD1    C4 2915   2.040   2.732   9.670  0.2283 -0.2315  0.1654
  188MPD1    C5 2916   2.004   2.853   9.614 -0.0758  0.5246  0.2598
  188MPD1     H 2917   2.225   2.836   9.926  2.8643  0.3906 -1.8674
  188MPD1    H1 2918   2.001   2.643   9.622  1.0051 -0.7683  0.5488
  188MPD1    H2 2919   2.005   3.056   9.618  2.0043  0.0868 -1.2408
  188MPD1    H3 2920   1.931   2.854   9.534 -0.0343  1.5237  0.2371
  188MPD1     N 2921   2.123   2.602   9.837 -0.3915 -0.0990 -0.7612
  188MPD1    H5 2922   2.082   2.519   9.794 -0.4075 -0.0299 -0.8786
  188MPD1    N1 2923   2.154   3.081   9.851  0.1855  0.0090  0.1431
  188MPD1    H6 2924   2.182   3.150   9.782 -0.2221  0.3084  0.2736
  188MPD1    H7 2925   2.239   3.077   9.907 -1.2365 -0.8378  2.2464
  189MPD1     C 2926   4.012   3.840   0.347 -0.7069  0.2639  0.0795
  189MPD1    C1 2927   3.932   3.825   0.235  0.1622  0.4610  1.0642
  189MPD1    C2 2928   3.853   3.940   0.209 -0.4993 -0.6892 -0.2066
  189MPD1    C3 2929   3.866   4.052   0.277  0.1388  0.2452  0.7237
  189MPD1    C4 2930   3.952   4.064   0.384  0.1144  0.2877 -0.2465
  189MPD1    C5 2931   4.025   3.957   0.413  0.2882 -0.1064 -0.4657
  189MPD1     H 2932   3.775   3.937   0.134  0.8403 -0.6175 -1.6120
  189MPD1    H1 2933   3.950   4.156   0.442  1.7758  0.6633 -0.7688
  189MPD1    H2 2934   4.071   3.759   0.389 -0.0493  0.4054 -0.5490
  189MPD1    H3 2935   4.096   3.952   0.494 -1.3801 -0.9311  0.9331
  189MPD1     N 2936   3.790   4.165   0.241  0.5744 -0.0608  0.3762
  189MPD1    H5 2937   3.709   4.144   0.183  1.2384  1.0685 -0.9622
  189MPD1    N1 2938   3.911   3.700   0.171 -0.0734  0.2876 -0.1311
  189MPD1    H6 2939   3.900   3.708   0.070  1.1797  0.6439 -0.2369
  189MPD1    H7 2940   3.980   3.635   0.206 -1.7800 -0.8621  1.1035
  190MPD1     C 2941   3.177   3.431  15.351 -0.4989  0.4502 -0.5146
  190MPD1    C1 2942   3.201   3.339  15.253 -0.3660 -0.0764  0.7829
  190MPD1    C2 2943   3.193   3.202  15.282 -0.2275  0.4970  0.1237
  190MPD1    C3 2944   3.136   3.164  15.403 -0.0020  0.3509  0.1501
  190MPD1    C4 2945   3.115   3.259  15.500  0.4272  0.0348  0.1819
  190MPD1    C5 2946   3.132   3.397  15.472  0.1328 -0.4704 -0.2401
  190MPD1     H 2947   3.234   3.126  15.217  0.6714  2.3364 -1.4634
  190MPD1    H1 2948   3.068   3.234  15.595  1.6558 -0.9304  0.5271
  190MPD1    H2 2949   3.188   3.535  15.323 -1.1059  0.3004 -1.3164
  190MPD1    H3 2950   3.106   3.480  15.536 -0.8974 -0.3233 -0.8325
  190MPD1     N 2951   3.125   3.027  15.428 -0.0135  0.3214  0.6750
  190MPD1    H5 2952   3.171   2.966  15.362 -0.7768  0.2933  0.1691
  190MPD1    N1 2953   3.247   3.381  15.125  0.1685  0.6504 -0.4400
  190MPD1    H6 2954   3.218   3.320  15.048  1.6592 -0.0966 -0.4096
  190MPD1    H7 2955   3.214   3.476  15.109  0.0260  0.3909 -1.7523
  191MPD1     C 2956   2.322   3.434  13.027 -0.2594 -0.9898 -0.2436
  191MPD1    C1 2957   2.367   3.555  12.979 -0.3720  0.0502 -0.0233
  191MPD1    C2 2958   2.274   3.661  12.976 -0.4247  0.4739  0.0135
  191MPD1    C3 2959   2.139   3.643  13.003 -0.9245  0.8284 -0.2760
  191MPD1    C4 2960   2.105   3.520  13.057 -0.2075 -0.4687  0.1134
  191MPD1    C5 2961   2.196   3.416  13.066  0.4653 -0.9194 -0.0972
  191MPD1     H 2962   2.307   3.759  12.942  2.7596  0.0976  2.0166
  191MPD1    H1 2963   2.003   3.498  13.087  0.2056 -3.4958 -0.7411
  191MPD1    H2 2964   2.392   3.352  13.039  2.0779  1.2658  1.7942
  191MPD1    H3 2965   2.167   3.318  13.103 -0.8891  0.6574  2.9966
  191MPD1     N 2966   2.056   3.755  13.002  0.1624 -0.8078  0.3694
  191MPD1    H5 2967   2.102   3.843  12.983 -0.8695 -0.5882 -1.1161
  191MPD1    N1 2968   2.510   3.578  12.963 -0.3956  0.2957  0.0382
  191MPD1    H6 2969   2.519   3.642  12.885 -0.0312  0.3151  0.0952
  191MPD1    H7 2970   2.555   3.491  12.932  1.1915  0.3023  2.3411
  192MPD1     C 2971   1.123   4.276  13.250  0.2967 -0.3765  0.5504
  192MPD1    C1 2972   1.162   4.152  13.272 -0.4616 -0.0778 -0.7268
  192MPD1    C2 2973   1.283   4.117  13.221 -0.1615 -0.2887  0.7231
  192MPD1    C3 2974   1.356   4.198  13.136 -0.3060  0.4053  0.0723
  192MPD1    C4 2975   1.312   4.326  13.109 -0.6084  0.2978 -0.5298
  192MPD1    C5 2976   1.193   4.359  13.162  0.7523 -0.1038  0.6448
  192MPD1     H 2977   1.310   4.014  13.240  1.2524  0.2715  1.7571
  192MPD1    H1 2978   1.368   4.392  13.044  1.8079 -1.0860  0.1375
  192MPD1    H2 2979   1.041   4.325  13.301 -0.1149  0.3849 -0.8346
  192MPD1    H3 2980   1.163   4.463  13.153 -2.1641 -1.0314 -0.3369
  192MPD1     N 2981   1.481   4.164  13.082  0.0068 -0.2359 -0.5606
  192MPD1    H5 2982   1.528   4.244  13.039 -0.2064  0.8491  1.2189
  192MPD1    N1 2983   1.103   4.075  13.370  0.1132 -0.3820  0.0182
  192MPD1    H6 2984   1.122   3.977  13.352  2.2781  0.6041 -3.0242
  192MPD1    H7 2985   1.002   4.089  13.363  0.6468  2.3862 -2.3255
  193MPD1     C 2986   1.967   4.530  16.222  0.0594  0.1732 -0.0552
  193MPD1    C1 2987   1.939   4.663  16.242 -1.2000 -1.1383  0.3685
  193MPD1    C2 2988   2.012   4.730  16.348  0.0441 -0.2796  0.0839
  193MPD1    C3 2989   2.095   4.661  16.433  0.1336 -0.3196  0.0474
  193MPD1    C4 2990   2.113   4.530  16.416 -0.3605  0.5667 -0.4698
  193MPD1    C5 2991   2.058   4.465  16.310 -0.0545  0.3525 -0.2639
  193MPD1     H 2992   1.998   0.104  16.369  0.0624 -0.4014  0.7076
  193MPD1    H1 2993   2.168   4.480  16.494  2.3136  3.1679 -0.6806
  193MPD1    H2 2994   1.933   4.478  16.133  0.2634 -2.9752  1.7193
  193MPD1    H3 2995   2.086   4.362  16.292 -1.0635  0.4091 -2.2283
  193MPD1     N 2996   2.169   4.722  16.537  0.2296 -0.1213 -0.6039
  193MPD1    H5 2997   2.221   4.655  16.592  2.1155  1.7647 -0.0620
  193MPD1    N1 2998   1.863   4.731  16.148 -0.3679 -0.0827 -0.1754
  193MPD1    H6 2999   1.819   0.079  16.192  1.2500  1.1891 -0.8636
  193MPD1    H7 3000   1.780   4.675  16.130 -2.3298  1.1901  5.1232
  194MPD1     C 3001   0.729   1.546   0.175 -0.5629 -0.2522  0.5703
  194MPD1    C1 3002   0.759   1.426   0.113 -0.1862  0.3783 -0.5510
  194MPD1    C2 3003   0.665   1.372   0.024 -0.3131  0.5848 -0.0534
  194MPD1    C3 3004   0.539   1.432   0.006 -0.2438  0.1147  0.5816
  194MPD1    C4 3005   0.516   1.554   0.066  0.3599 -0.8950  0.4876
  194MPD1    C5 3006   0.605   1.603   0.158  0.9286  0.3411 -0.0800
  194MPD1     H 3007   0.693   1.291  17.685  2.8506  1.2344  0.5088
  194MPD1    H1 3008   0.424   1.608   0.045  0.9944  0.5505  1.4275
  194MPD1    H2 3009   0.786   1.602   0.248 -0.3414 -0.8639  0.8617
  194MPD1    H3 3010   0.583   1.699   0.202 -1.3631 -0.0192 -0.4563
  194MPD1     N 3011   0.442   1.384  17.638  0.3078  0.0884  0.2072
  194MPD1    H5 3012   0.357   1.439  17.634  1.2700  1.5016 -0.6974
  194MPD1    N1 3013   0.892   1.375   0.113  0.4722  0.9398 -0.2399
  194MPD1    H6 3014   0.890   1.274   0.105  0.0612  0.9768 -0.6603
  194MPD1    H7 3015   0.940   1.392   0.201  0.7477 -0.3747 -0.1354
  195MPD1     C 3016   2.299   3.441  17.605 -0.6647  0.1416 -0.3291
  195MPD1    C1 3017   2.335   3.397   0.002  0.7645  0.5690  0.6099
  195MPD1    C2 3018   2.282   3.278   0.052  0.4953  0.0518 -0.3629
  195MPD1    C3 3019   2.193   3.195  17.713 -0.1964  0.1138 -0.1018
  195MPD1    C4 3020   2.166   3.248  17.586 -0.3914  0.1992  0.0122
  195MPD1    C5 3021   2.213   3.365  17.528  0.1023  1.1767  0.3727
  195MPD1     H 3022   2.313   3.247   0.151  0.1977 -1.4194 -0.7342
  195MPD1    H1 3023   2.098   3.191  17.523  0.5074 -1.7398  0.8045
  195MPD1    H2 3024   2.319   3.545  17.581  0.6400  0.4755  2.2339
  195MPD1    H3 3025   2.167   3.402  17.437  1.2097 -0.5067 -0.8547
  195MPD1     N 3026   2.139   3.067   0.016 -0.4874 -0.4187  0.3553
  195MPD1    H5 3027   2.062   3.033  17.687 -0.9910  1.9950 -0.4134
  195MPD1    N1 3028   2.405   3.480   0.088 -0.5816  0.0705  0.3733
  195MPD1    H6 3029   2.463   3.432   0.155  0.0287 -0.9807 -0.9074
  195MPD1    H7 3030   2.459   3.552   0.039 -2.6257 -0.4106 -2.6030
  196MPD1     C 3031   1.592   2.251   0.178 -0.5406  0.2420 -0.5645
  196MPD1    C1 3032   1.462   2.228   0.205  0.9917  0.2071  0.7506
  196MPD1    C2 3033   1.391   2.332   0.266 -0.3229 -0.5647  0.5947
  196MPD1    C3 3034   1.451   2.456   0.301  0.7464 -0.3825 -0.1648
  196MPD1    C4 3035   1.587   2.471   0.265  0.0324 -0.0957  0.1942
  196MPD1    C5 3036   1.652   2.370   0.201  0.2369 -0.8352 -0.2682
  196MPD1     H 3037   1.291   2.318   0.307 -0.9540  0.7695 -0.4629
  196MPD1    H1 3038   1.636   2.567   0.280  1.6881 -1.2727  2.2025
  196MPD1    H2 3039   1.650   2.165   0.145  0.1522  0.3763  0.3222
  196MPD1    H3 3040   1.759   2.387   0.191 -0.0169 -0.2674 -1.9028
  196MPD1     N 3041   1.394   2.562   0.375  0.4873 -0.4333  0.0141
  196MPD1    H5 3042   1.462   2.636   0.390  0.7585 -0.1096 -2.9194
  196MPD1    N1 3043   1.405   2.099   0.194 -0.7546 -0.6695  0.1786
  196MPD1    H6 3044   1.435   2.050   0.110  1.0089 -0.6955  0.8326
  196MPD1    H7 3045   1.304   2.109   0.201 -0.8351 -2.1470  0.9487
  197MPD1     C 3046   1.257   0.153   0.127  0.4991 -0.1522 -0.0872
  197MPD1    C1 3047   1.179   0.265   0.119 -0.1720  0.7025  0.4838
  197MPD1    C2 3048   1.127   0.296  17.720  0.5214  0.3288 -0.0254
  197MPD1    C3 3049   1.149   0.220  17.599  0.7509 -0.0165 -0.2440
  197MPD1    C4 3050   1.232   0.111  17.619  0.0109  0.5826 -0.3950
  197MPD1    C5 3051   1.286   0.077   0.015  0.1961 -0.0486 -0.1896
  197MPD1     H 3052   1.063   0.383  17.720  0.8036  0.5369  0.2241
  197MPD1    H1 3053   1.263   0.057  17.531  1.5935  0.3001  0.3345
  197MPD1    H2 3054   1.284   0.109   0.223  3.2194  0.4049 -0.5975
  197MPD1    H3 3055   1.350   4.722   0.019 -0.9947 -0.9742 -1.5699
  197MPD1     N 3056   1.091   0.246  17.470  0.3318  0.4031  0.7389
  197MPD1    H5 3057   1.147   0.221  17.389 -0.2204  0.4392  0.3488
  197MPD1    N1 3058   1.147   0.334   0.241  0.3988 -0.3016  1.0274
  197MPD1    H6 3059   1.140   0.436   0.232 -1.1279 -0.7240 -2.5875
  197MPD1    H7 3060   1.217   0.318   0.313  0.5125  0.8025  1.1768
  198MPD1     C 3061   2.809   3.365  15.178 -0.5069  0.3850 -0.5974
  198MPD1    C1 3062   2.725   3.347  15.289  0.3831  0.1726  0.0518
  198MPD1    C2 3063   2.730   3.446  15.390  0.6412  0.5451 -0.0120
  198MPD1    C3 3064   2.810   3.557  15.373 -0.0403 -0.4757  0.0926
  198MPD1    C4 3065   2.883   3.578  15.260 -0.1127 -0.1959  0.3196
  198MPD1    C5 3066   2.885   3.481  15.166  0.1189 -0.0565 -0.7454
  198MPD1     H 3067   2.654   3.434  15.466  2.0493  0.6756  1.4186
  198MPD1    H1 3068   2.931   3.673  15.237  1.6684 -1.9164 -2.9363
  198MPD1    H2 3069   2.818   3.292  15.098 -1.2366 -0.2625 -0.0823
  198MPD1    H3 3070   2.951   3.495  15.082 -1.6350 -2.3458 -2.5140
  198MPD1     N 3071   2.813   3.648  15.482  0.5900 -0.0291 -0.3771
  198MPD1    H5 3072   2.767   3.626  15.570 -1.4814  0.5953 -1.3230
  198MPD1    N1 3073   2.632   3.246  15.287  0.0988  0.2464  0.0948
  198MPD1    H6 3074   2.547   3.269  15.339  0.3162  0.2115  0.4720
  198MPD1    H7 3075   2.615   3.217  15.191  2.4431  0.3599 -0.3532
  199MPD1     C 3076   0.935   0.222  10.542  0.1498  0.6751 -0.2817
  199MPD1    C1 3077   0.947   0.207  10.405  0.3444 -0.6974 -0.9435
  199MPD1    C2 3078   0.927   0.328  10.330  0.2643 -0.2000  1.1447
  199MPD1    C3 3079   0.898   0.452  10.387  0.4580 -0.1575 -0.1998
  199MPD1    C4 3080   0.911   0.459  10.525 -0.2962  0.1831  1.0275
  199MPD1    C5 3081   0.916   0.347  10.598  0.8778  0.9482  0.1239
  199MPD1     H 3082   0.937   0.329  10.222 -0.6926  2.1092  1.0910
  199MPD1    H1 3083   0.907   0.556  10.573 -0.1683  0.7764 -0.1604
  199MPD1    H2 3084   0.945   0.137  10.609  2.7484  1.2132  0.0372
  199MPD1    H3 3085   0.919   0.367  10.704 -2.1449  3.1873 -0.2132
  199MPD1     N 3086   0.891   0.569  10.310 -0.5071  0.1535  0.2859
  199MPD1    H5 3087   0.889   0.656  10.362 -3.1780  1.0315 -1.3025
  199MPD1    N1 3088   0.995   0.089  10.346  0.5781  0.0917 -0.1691
  199MPD1    H6 3089   0.985   0.071  10.246  0.2199 -0.3550 -0.0554
  199MPD1    H7 3090   0.964   0.006  10.396  0.1535  1.4437  1.7927
  200MPD1     C 3091   3.532   4.541  14.955 -0.6638 -0.3611 -0.0374
  200MPD1    C1 3092   3.581   4.444  14.862  0.4298 -0.3146 -0.2121
  200MPD1    C2 3093   3.708   4.462  14.825 -0.8553 -0.3020  0.2214
  200MPD1    C3 3094   3.790   4.560  14.884 -0.0598 -0.2739 -0.0575
  200MPD1    C4 3095   3.737   4.651  14.975 -0.4433 -0.3368 -0.1557
  200MPD1    C5 3096   3.610   4.634  15.013  0.1985 -0.5352 -0.6441
  200MPD1     H 3097   3.742   4.395  14.748 -1.1349  0.6419 -0.7185
  200MPD1    H1 3098   3.791   0.006  15.009 -1.1451 -0.1221  0.4177
  200MPD1    H2 3099   3.428   4.550  14.984 -0.6180 -1.4950  0.4678
  200MPD1    H3 3100   3.569   4.701  15.088 -1.0019  0.9640 -2.6362
  200MPD1     N 3101   3.924   4.552  14.836 -0.1060  0.9226 -0.0244
  200MPD1    H5 3102   3.947   4.484  14.765  1.0668 -0.9186  2.1115
  200MPD1    N1 3103   3.494   4.352  14.795  0.4815  0.1684 -0.3050
  200MPD1    H6 3104   3.552   4.278  14.757 -1.0567 -0.5245 -1.3028
  200MPD1    H7 3105   3.421   4.317  14.857  1.5674  0.3401  1.0801
  201MPD1     C 3106   1.149   3.455  13.450  0.1982 -0.0110 -0.2293
  201MPD1    C1 3107   1.176   3.335  13.406  0.0174  0.0347  0.6340
  201MPD1    C2 3108   1.265   3.255  13.473  0.5106  0.3265  0.1850
  201MPD1    C3 3109   1.341   3.302  13.579  0.2444  0.8806  0.3889
  201MPD1    C4 3110   1.301   3.423  13.628  0.6288 -0.2295 -0.3938
  201MPD1    C5 3111   1.214   3.496  13.556  0.0131  0.8745  1.2993
  201MPD1     H 3112   1.282   3.161  13.422  0.1981  0.5968 -0.4135
  201MPD1    H1 3113   1.334   3.460  13.725 -0.7179  1.3806 -0.5633
  201MPD1    H2 3114   1.082   3.525  13.400  0.0123 -1.0383 -1.4162
  201MPD1    H3 3115   1.188   3.595  13.591  1.4957  1.9426 -0.6381
  201MPD1     N 3116   1.423   3.211  13.643  0.5637  0.3099  0.2098
  201MPD1    H5 3117   1.424   3.119  13.602 -0.6909 -0.1769  1.2913
  201MPD1    N1 3118   1.124   3.299  13.284  0.7383 -0.1216 -0.1301
  201MPD1    H6 3119   1.122   3.198  13.271  4.2530  0.0442 -1.7406
  201MPD1    H7 3120   1.027   3.330  13.273  1.1086  1.0658 -0.0511
  202MPD1     C 3121   0.933   3.516   9.248 -0.2984  0.0545 -0.2612
  202MPD1    C1 3122   0.884   3.633   9.298  0.1895  0.0892  0.7301
  202MPD1    C2 3123   0.975   3.695   9.380 -0.0006 -0.0227  0.8544
  202MPD1    C3 3124   1.117   3.667   9.381  0.0147 -0.5100  0.2353
  202MPD1    C4 3125   1.162   3.563   9.307 -0.8133 -0.2819  0.7470
  202MPD1    C5 3126   1.070   3.486   9.244 -0.7012 -0.0390  0.7020
  202MPD1     H 3127   0.937   3.756   9.461 -1.1677  0.1539  0.1633
  202MPD1    H1 3128   1.266   3.534   9.296 -0.8580  0.6738 -2.2479
  202MPD1    H2 3129   0.865   3.440   9.212 -2.7793  2.8461 -1.4236
  202MPD1    H3 3130   1.094   3.400   9.183 -0.9731 -0.4598  1.1868
  202MPD1     N 3131   1.211   3.739   9.460  0.7384 -0.3220 -0.9132
  202MPD1    H5 3132   1.308   3.709   9.469  1.5883  2.1022 -1.9766
  202MPD1    N1 3133   0.740   3.649   9.313 -0.2201  0.4330  0.1213
  202MPD1    H6 3134   0.698   3.625   9.224  1.0326 -1.8399  0.1396
  202MPD1    H7 3135   0.725   3.749   9.329  2.8655  0.9731 -0.2638
  203MPD1     C 3136   0.215   4.067  12.988  0.5006  0.1313  0.5983
  203MPD1    C1 3137   0.298   4.054  12.875  0.1751  0.9178 -0.4883
  203MPD1    C2 3138   0.394   3.950  12.889  0.1823 -0.4953  0.2733
  203MPD1    C3 3139   0.389   3.859  12.995  0.1592  0.0135 -0.1054
  203MPD1    C4 3140   0.297   3.869  13.094  0.3234  0.2024 -0.8698
  203MPD1    C5 3141   0.208   3.973  13.089  0.1517  0.0893  0.1805
  203MPD1     H 3142   0.473   3.944  12.816 -0.0885  0.3402 -0.0812
  203MPD1    H1 3143   0.298   3.807  13.182 -0.0592 -0.2946 -1.2190
  203MPD1    H2 3144   0.151   4.155  12.986  0.0479 -0.1940  0.7757
  203MPD1    H3 3145   0.151   3.992  13.179  0.7044 -0.1766  0.5926
  203MPD1     N 3146   0.484   3.749  12.994  0.0480 -0.4166  0.3915
  203MPD1    H5 3147   0.553   3.746  12.919  0.7152 -0.0686  0.9875
  203MPD1    N1 3148   0.302   4.144  12.768 -0.1813 -0.1935 -0.0331
  203MPD1    H6 3149   0.357   4.112  12.688 -2.2785  0.4044 -1.7473
  203MPD1    H7 3150   0.208   4.176  12.745 -0.5135 -2.5041 -1.9047
  204MPD1     C 3151   4.316   0.751   0.044  0.1119 -0.1907 -0.2534
  204MPD1    C1 3152   4.388   0.758  17.648  0.0899 -0.4202  0.4339
  204MPD1    C2 3153   4.472   0.649  17.617 -0.5746 -1.4408 -0.7891
  204MPD1    C3 3154   4.490   0.543  17.706  0.4800 -0.6659 -0.0141
  204MPD1    C4 3155   4.428   0.538   0.094 -0.3694  0.5193 -0.1530
  204MPD1    C5 3156   4.340   0.638   0.126  0.4521  0.3560 -0.8880
  204MPD1     H 3157   4.528   0.645  17.524  0.8321  1.5290 -0.0486
  204MPD1    H1 3158   4.437   0.455   0.164 -0.2010 -1.3696 -2.4334
  204MPD1    H2 3159   4.245   0.828   0.072 -2.1430 -1.7352 -1.7266
  204MPD1    H3 3160   4.292   0.640   0.223  0.9604 -2.4761 -0.5914
  204MPD1     N 3161   4.573   0.433  17.668 -0.2980 -0.6927 -0.0114
  204MPD1    H5 3162   4.624   0.444  17.581  3.0030 -1.1797  1.8628
  204MPD1    N1 3163   4.367   0.864  17.559 -0.4456  0.3938  0.0822
  204MPD1    H6 3164   4.441   0.885  17.494 -0.3078 -0.0200  0.1023
  204MPD1    H7 3165   4.320   0.949  17.590  0.6581  0.2621  2.1319
  205MPD1     C 3166   4.722   3.742  16.719 -0.1161  0.0450  0.0717
  205MPD1    C1 3167   0.102   3.818  16.752 -0.4174 -0.3491 -0.4202
  205MPD1    C2 3168   0.126   3.847  16.882 -0.6299  0.0971  1.1698
  205MPD1    C3 3169   0.056   3.776  16.983  0.0877 -0.1769  0.3341
  205MPD1    C4 3170   4.683   3.693  16.949  0.4152 -0.2279 -0.4028
  205MPD1    C5 3171   4.648   3.684  16.819 -0.3444  0.0763 -0.5068
  205MPD1     H 3172   0.212   3.910  16.901  0.0139 -0.3076 -0.4379
  205MPD1    H1 3173   4.609   3.652  17.017  0.0217 -1.9565 -1.8922
  205MPD1    H2 3174   4.698   3.712  16.618 -0.7229 -0.1603  0.2740
  205MPD1    H3 3175   4.563   3.622  16.793 -1.0743  1.3907 -1.2412
  205MPD1     N 3176   0.083   3.795  17.120 -0.1115 -0.0637  0.6664
  205MPD1    H5 3177   0.024   3.740  17.181  1.5393 -2.1339  0.3797
  205MPD1    N1 3178   0.157   3.901  16.650  0.6775  0.0399  0.3964
  205MPD1    H6 3179   0.139   3.857  16.560  1.1042 -0.6439  0.6462
  205MPD1    H7 3180   0.258   3.901  16.661  0.5266 -2.1929  1.7745
  206MPD1     C 3181   0.178   1.667  15.379 -0.1036  0.5807 -0.1523
  206MPD1    C1 3182   0.304   1.650  15.336  0.6633  0.3402 -0.4779
  206MPD1    C2 3183   0.367   1.743  15.249 -0.1565  0.4367  0.0138
  206MPD1    C3 3184   0.306   1.858  15.210  0.4783 -0.8404  0.3973
  206MPD1    C4 3185   0.178   1.874  15.259  1.0974 -0.2421 -0.1860
  206MPD1    C5 3186   0.114   1.777  15.338  0.0926 -0.1326 -0.0124
  206MPD1     H 3187   0.464   1.713  15.211 -0.7807  0.0867 -1.3056
  206MPD1    H1 3188   0.123   1.966  15.241  2.2599  0.5953  0.5653
  206MPD1    H2 3189   0.122   1.592  15.433  0.3952 -0.4028 -1.0063
  206MPD1    H3 3190   0.009   1.774  15.366  0.4361 -1.7502  1.1137
  206MPD1     N 3191   0.371   1.955  15.128 -0.4833  0.1297  0.2812
  206MPD1    H5 3192   0.335   2.050  15.130 -1.2116 -0.1435 -0.0649
  206MPD1    N1 3193   0.360   1.525  15.345 -0.1358 -0.0985  0.0539
  206MPD1    H6 3194   0.326   1.471  15.424  2.5554 -2.4276 -0.3961
  206MPD1    H7 3195   0.461   1.536  15.346 -0.1900  0.3756  0.6833
  207MPD1     C 3196   2.453   3.249   9.734  0.2369  0.2366  0.6401
  207MPD1    C1 3197   2.463   3.237   9.870  0.0407 -0.0466 -0.3730
  207MPD1    C2 3198   2.488   3.350   9.945 -0.1460 -0.4073  0.1565
  207MPD1    C3 3199   2.506   3.470   9.878  0.3120 -0.8975 -0.1566
  207MPD1    C4 3200   2.496   3.472   9.739  0.2109  0.1434 -0.5534
  207MPD1    C5 3201   2.461   3.366   9.665  0.2046  0.2104  0.7269
  207MPD1     H 3202   2.480   3.341  10.053 -1.9574  1.4871  0.1577
  207MPD1    H1 3203   2.489   3.565   9.683 -0.9985  0.4681  0.1471
  207MPD1    H2 3204   2.432   3.159   9.678 -0.6071 -0.4266  2.0289
  207MPD1    H3 3205   2.461   3.365   9.557 -1.1262  0.6025  0.7166
  207MPD1     N 3206   2.553   3.591   9.940 -0.0276 -0.2402  0.0964
  207MPD1    H5 3207   2.549   3.678   9.888 -0.2364  0.3810  1.1362
  207MPD1    N1 3208   2.434   3.115   9.938  0.1422  0.2396 -0.0103
  207MPD1    H6 3209   2.456   3.027   9.892  2.4438  0.1655  1.2897
  207MPD1    H7 3210   2.474   3.107  10.031 -1.6523 -0.9273  0.6525
  208MPD1     C 3211   0.945   3.155  17.601  0.1306 -0.2443  0.0172
  208MPD1    C1 3212   0.859   3.255  17.643  0.1539  0.0970  0.5786
  208MPD1    C2 3213   0.764   3.221   0.004 -0.0209 -0.1891  0.3572
  208MPD1    C3 3214   0.727   3.096   0.043  0.1649 -0.2804 -0.5123
  208MPD1    C4 3215   0.808   2.995  17.716  0.1969  0.1386  0.1989
  208MPD1    C5 3216   0.910   3.024  17.635  0.2166  0.0653  1.3026
  208MPD1     H 3217   0.705   3.306   0.038  0.9656 -0.0950  1.8160
  208MPD1    H1 3218   0.780   2.890   0.001  0.9430 -0.4404 -3.2251
  208MPD1    H2 3219   1.021   3.178  17.528  0.6417 -1.4329  0.1786
  208MPD1    H3 3220   0.965   2.940  17.592 -2.0811 -0.1053 -1.3072
  208MPD1     N 3221   0.618   3.075   0.134  0.4282  0.0905 -0.6632
  208MPD1    H5 3222   0.565   3.157   0.162  2.4795  1.1790  0.0627
  208MPD1    N1 3223   0.897   3.384  17.626  0.5307  0.7385 -0.3988
  208MPD1    H6 3224   0.931   3.394  17.530  1.2761  0.0258 -0.2052
  208MPD1    H7 3225   0.829   3.459  17.640  0.3675  0.2170  1.5909
  209MPD1     C 3226   2.206   3.471  11.611 -0.4211 -0.4327  0.5644
  209MPD1    C1 3227   2.203   3.601  11.654 -0.4229 -0.4093 -0.2187
  209MPD1    C2 3228   2.279   3.691  11.581  0.1227  0.4542  0.3030
  209MPD1    C3 3229   2.347   3.667  11.468 -0.1191  0.3403 -0.4805
  209MPD1    C4 3230   2.330   3.540  11.415 -0.0358  0.4407  0.4524
  209MPD1    C5 3231   2.264   3.451  11.493 -0.1726  0.2209  0.0883
  209MPD1     H 3232   2.309   3.782  11.631  0.3756  0.5123  0.0451
  209MPD1    H1 3233   2.380   3.510  11.323  1.1832  1.8827  0.6332
  209MPD1    H2 3234   2.160   3.390  11.666  1.8352 -1.2659  1.2265
  209MPD1    H3 3235   2.263   3.347  11.460 -2.2709  0.1556  0.3694
  209MPD1     N 3236   2.422   3.773  11.413 -0.3463  0.3606  0.4527
  209MPD1    H5 3237   2.417   3.865  11.456  0.6236  0.1499  1.0115
  209MPD1    N1 3238   2.152   3.626  11.779  1.1582 -0.0674  0.6692
  209MPD1    H6 3239   2.093   3.547  11.803  0.9728 -0.0787  0.1704
  209MPD1    H7 3240   2.092   3.708  11.772  0.8533 -0.5658 -2.2612
  210MPD1     C 3241   2.802   4.673  11.478  0.2778  0.5337 -0.0949
  210MPD1    C1 3242   2.738   4.581  11.559  0.0288 -0.2667 -0.4124
  210MPD1    C2 3243   2.739   4.451  11.518 -0.3610 -0.4064  1.2086
  210MPD1    C3 3244   2.785   4.417  11.394 -0.2453 -0.5853 -0.4323
  210MPD1    C4 3245   2.838   4.510  11.310 -0.1119  0.7236 -0.5287
  210MPD1    C5 3246   2.840   4.640  11.352  0.0492  0.1899 -0.3670
  210MPD1     H 3247   2.681   4.377  11.573  0.0649 -1.9312 -0.4039
  210MPD1    H1 3248   2.874   4.493  11.209  0.0720  0.8313 -0.4809
  210MPD1    H2 3249   2.813   0.045  11.508 -1.8970  0.6055  0.4186
  210MPD1    H3 3250   2.889   4.713  11.288  1.8216  0.2134  1.0187
  210MPD1     N 3251   2.777   4.287  11.335  0.6654  0.1091  0.1865
  210MPD1    H5 3252   2.799   4.273  11.236 -0.9884 -3.5607  0.3231
  210MPD1    N1 3253   2.698   4.612  11.688  0.3843 -0.3070  0.8178
  210MPD1    H6 3254   2.639   4.535  11.720 -0.8198 -0.7305 -2.4950
  210MPD1    H7 3255   2.665   4.709  11.688  0.5695 -0.2510 -0.9319
  211MPD1     C 3256   4.521   0.239  15.949 -0.1647  0.3866  0.3215
  211MPD1    C1 3257   4.637   0.178  15.927  0.0491  0.5722 -0.2073
  211MPD1    C2 3258   4.657   0.049  15.981  0.0009  0.1383 -0.3522
  211MPD1    C3 3259   4.553   4.707  16.040 -0.2253  0.0472  0.0630
  211MPD1    C4 3260   4.433   0.040  16.054 -0.6115  0.4969 -1.1463
  211MPD1    C5 3261   4.416   0.164  16.003  0.5898 -0.6778  0.0846
  211MPD1     H 3262   0.029   0.017  15.979  0.4655  1.4190  4.0509
  211MPD1    H1 3263   4.338   4.727  16.081 -1.1582  2.8774  0.8976
  211MPD1    H2 3264   4.509   0.339  15.909 -1.4168  0.1595  0.1149
  211MPD1    H3 3265   4.327   0.225  16.014 -0.8581 -3.0555  1.7245
  211MPD1     N 3266   4.588   4.575  16.085  0.4749  0.1382 -0.0211
  211MPD1    H5 3267   4.681   4.542  16.063  0.7340 -0.4091  1.8466
  211MPD1    N1 3268   0.023   0.248  15.891  0.3705  1.0488  0.0561
  211MPD1    H6 3269   0.003   0.306  15.810 -0.0643  0.4090 -0.2978
  211MPD1    H7 3270   0.099   0.185  15.866 -1.3939 -1.3173  0.7312
  212MPD1     C 3271   4.282   3.082  16.452  0.6877  0.6612  0.2686
  212MPD1    C1 3272   4.167   3.025  16.409 -0.2664  0.3967 -0.1426
  212MPD1    C2 3273   4.127   2.906  16.469  0.1911  0.3386  0.1527
  212MPD1    C3 3274   4.196   2.850  16.573  0.8999  0.5424 -0.5651
  212MPD1    C4 3275   4.309   2.918  16.620  0.3216  0.5352  0.3316
  212MPD1    C5 3276   4.336   3.037  16.569  0.6752  0.2396  0.3893
  212MPD1     H 3277   4.027   2.872  16.447  0.6332 -0.0010 -1.3632
  212MPD1    H1 3278   4.362   2.886  16.709 -0.5022  0.4373  0.7849
  212MPD1    H2 3279   4.328   3.173  16.414  0.7609  0.5560  0.1028
  212MPD1    H3 3280   4.421   3.095  16.605  0.5227  1.5066 -1.3253
  212MPD1     N 3281   4.168   2.718  16.617  0.0639 -0.0159 -0.2060
  212MPD1    H5 3282   4.233   2.664  16.674 -1.2285 -1.6050 -0.2354
  212MPD1    N1 3283   4.099   3.070  16.293 -0.0492 -0.1858  0.9115
  212MPD1    H6 3284   3.998   3.068  16.304  0.0470  0.0986  1.8430
  212MPD1    H7 3285   4.111   3.168  16.269 -0.5334 -0.3252  0.1084
  213MPD1     C 3286   2.181   3.093  16.178  0.2650 -0.3578 -0.6949
  213MPD1    C1 3287   2.069   3.008  16.154 -0.6760 -0.4716 -0.4887
  213MPD1    C2 3288   2.017   2.982  16.026 -0.4167  0.0589 -0.4614
  213MPD1    C3 3289   2.050   3.071  15.923  0.1516  0.7518 -0.4389
  213MPD1    C4 3290   2.130   3.178  15.956  0.6207  0.0798 -0.1947
  213MPD1    C5 3291   2.198   3.189  16.080  0.4892  0.0621 -0.0518
  213MPD1     H 3292   1.962   2.890  16.014 -1.5869  0.9318 -1.8798
  213MPD1    H1 3293   2.142   3.270  15.901  2.9978  0.1888  0.5074
  213MPD1    H2 3294   2.220   3.100  16.279  1.5434  1.0989 -1.2879
  213MPD1    H3 3295   2.264   3.273  16.098 -2.1544  2.0704  0.3109
  213MPD1     N 3296   1.998   3.047  15.801  1.1242 -0.2568  0.0984
  213MPD1    H5 3297   1.947   2.959  15.797 -1.0827  1.0521 -0.3443
  213MPD1    N1 3298   2.060   2.906  16.251  0.1656 -0.2682  0.6968
  213MPD1    H6 3299   2.085   2.944  16.342  0.2928  0.0558  0.5245
  213MPD1    H7 3300   1.965   2.868  16.253  0.4165 -0.8485  1.4246
  214MPD1     C 3301   1.720   2.269  15.330 -1.6969  0.3050 -0.6705
  214MPD1    C1 3302   1.638   2.340  15.411  0.1020 -0.6159 -0.0741
  214MPD1    C2 3303   1.673   2.476  15.418 -0.4617  0.4561 -0.0134
  214MPD1    C3 3304   1.790   2.526  15.356 -0.4593  0.7833 -0.2541
  214MPD1    C4 3305   1.871   2.446  15.276 -0.1451 -0.5409 -0.9578
  214MPD1    C5 3306   1.835   2.316  15.277 -0.1479 -0.4592  0.2611
  214MPD1     H 3307   1.614   2.540  15.483  0.3888  2.2488 -1.0189
  214MPD1    H1 3308   1.966   2.475  15.233 -0.6164  0.3878 -1.3601
  214MPD1    H2 3309   1.692   2.165  15.315 -1.8149 -0.1792  2.9146
  214MPD1    H3 3310   1.906   2.251  15.228  0.1435 -1.3473  1.8773
  214MPD1     N 3311   1.839   2.657  15.369 -0.5459 -0.7475 -0.0531
  214MPD1    H5 3312   1.921   2.687  15.317 -3.4909 -0.1145 -4.3328
  214MPD1    N1 3313   1.527   2.294  15.474  0.0817  0.2269 -0.0725
  214MPD1    H6 3314   1.526   2.194  15.490  0.3080  0.1040 -0.8008
  214MPD1    H7 3315   1.520   2.333  15.568 -2.2820  0.6603 -0.4259
  215MPD1     C 3316   1.459   3.934  11.509  0.1056  0.0751 -0.0950
  215MPD1    C1 3317   1.580   3.881  11.515  0.2803 -0.5580 -0.1967
  215MPD1    C2 3318   1.684   3.965  11.505  0.1255 -0.0768  0.2634
  215MPD1    C3 3319   1.667   4.102  11.497 -0.5711 -0.5892  0.3000
  215MPD1    C4 3320   1.542   4.154  11.492  0.1652 -0.2945 -0.4500
  215MPD1    C5 3321   1.435   4.068  11.496  0.1656 -0.3934 -0.2520
  215MPD1     H 3322   1.786   3.930  11.509  0.0751 -0.0285  1.9766
  215MPD1    H1 3323   1.520   4.260  11.485  2.8803  0.1112 -2.5615
  215MPD1    H2 3324   1.375   3.866  11.504  0.1841  0.1310 -2.0525
  215MPD1    H3 3325   1.333   4.105  11.496 -0.9168 -3.4026 -1.6556
  215MPD1     N 3326   1.787   4.183  11.510  0.3312 -0.2538 -0.4376
  215MPD1    H5 3327   1.873   4.130  11.504  2.2425  2.7769 -0.0934
  215MPD1    N1 3328   1.611   3.745  11.509 -0.2068  0.3306 -0.2274
  215MPD1    H6 3329   1.698   3.742  11.563  0.1989 -3.2613 -1.0548
  215MPD1    H7 3330   1.551   3.677  11.555 -0.0340  0.6780  0.5192
  216MPD1     C 3331   3.926   1.905   0.814  0.0690  0.0907  0.0630
  216MPD1    C1 3332   3.849   1.956   0.712  1.0639 -0.0842  0.0001
  216MPD1    C2 3333   3.781   1.864   0.637  0.6784 -0.3501  0.1501
  216MPD1    C3 3334   3.776   1.727   0.669  0.1807  0.1215 -0.3885
  216MPD1    C4 3335   3.847   1.684   0.778  0.0855 -0.3294 -0.3076
  216MPD1    C5 3336   3.927   1.772   0.847 -0.6491 -0.2066 -0.8681
  216MPD1     H 3337   3.717   1.897   0.556 -0.0296 -2.5800 -0.1938
  216MPD1    H1 3338   3.849   1.579   0.805 -1.9341 -0.7570 -1.8440
  216MPD1    H2 3339   3.994   1.967   0.871 -1.3656 -0.7573  2.6759
  216MPD1    H3 3340   3.990   1.736   0.928  0.3454  0.8994 -1.1502
  216MPD1     N 3341   3.696   1.640   0.589 -0.2649  0.4302  0.0114
  216MPD1    H5 3342   3.659   1.681   0.503  0.4779  0.0584 -0.4892
  216MPD1    N1 3343   3.854   2.084   0.663  0.7991 -0.1212  0.0023
  216MPD1    H6 3344   3.868   2.147   0.741 -0.0600  0.2298 -0.1207
  216MPD1    H7 3345   3.780   2.112   0.599  0.9830  0.0979 -0.1120
  217MPD1     C 3346   0.487   2.429   9.409  0.0650  0.1610  0.9450
  217MPD1    C1 3347   0.408   2.507   9.330  0.9220 -0.4264  0.0765
  217MPD1    C2 3348   0.425   2.645   9.331 -0.1488  0.4768 -0.0620
  217MPD1    C3 3349   0.524   2.703   9.413 -0.1140 -0.1708  0.2474
  217MPD1    C4 3350   0.598   2.626   9.506  0.1132  0.1209 -0.0414
  217MPD1    C5 3351   0.573   2.491   9.497  0.5931 -0.2498  0.2649
  217MPD1     H 3352   0.367   2.708   9.264  1.2074 -0.9207 -2.5260
  217MPD1    H1 3353   0.674   2.664   9.573  0.4205  0.2582 -0.4672
  217MPD1    H2 3354   0.488   2.321   9.405  0.4455  0.1917  0.1371
  217MPD1    H3 3355   0.630   2.425   9.560  0.6497 -0.3941  0.0612
  217MPD1     N 3356   0.544   2.843   9.420 -0.1876  0.4094 -0.4402
  217MPD1    H5 3357   0.613   2.879   9.485 -1.6893  1.4656  0.5426
  217MPD1    N1 3358   0.334   2.447   9.229  0.0646 -0.0627 -0.4459
  217MPD1    H6 3359   0.259   2.504   9.192  0.1418  0.8642  0.8146
  217MPD1    H7 3360   0.292   2.365   9.273 -0.7970  0.5946 -0.0493
  218MPD1     C 3361   1.513   3.340  13.197 -0.1318  0.5405  0.5890
  218MPD1    C1 3362   1.474   3.448  13.130 -0.8763 -0.0230  0.0045
  218MPD1    C2 3363   1.550   3.486  13.019 -0.1575  1.0286  0.1161
  218MPD1    C3 3364   1.658   3.409  12.975  0.2625  0.2861 -0.6811
  218MPD1    C4 3365   1.692   3.300  13.048  0.2035  0.1366  0.5253
  218MPD1    C5 3366   1.616   3.263  13.156 -0.3181 -0.5393 -0.2302
  218MPD1     H 3367   1.526   3.575  12.963 -2.2064  0.0307 -0.6076
  218MPD1    H1 3368   1.786   3.255  13.019 -0.5831 -1.5605  0.5648
  218MPD1    H2 3369   1.452   3.293  13.274 -0.9774 -2.0898 -1.6903
  218MPD1    H3 3370   1.637   3.169  13.206 -2.6338 -0.3649  1.0910
  218MPD1     N 3371   1.726   3.453  12.859  0.0734  0.3386 -0.2472
  218MPD1    H5 3372   1.690   3.534  12.810  2.0286  1.6736  0.5041
  218MPD1    N1 3373   1.383   3.534  13.188  0.1109  0.0831  0.5257
  218MPD1    H6 3374   1.357   3.609  13.124 -0.1022  0.3124  0.8817
  218MPD1    H7 3375   1.302   3.488  13.229 -0.6308 -0.1175 -1.1584
  219MPD1     C 3376   2.222   4.261  12.485  0.7181 -0.0054 -0.1260
  219MPD1    C1 3377   2.112   4.227  12.561 -0.4249  0.4061  0.0078
  219MPD1    C2 3378   2.074   4.095  12.585 -0.0373  0.2462 -0.8317
  219MPD1    C3 3379   2.139   3.992  12.523  0.0958 -0.0607  0.0103
  219MPD1    C4 3380   2.247   4.027  12.443 -0.2879 -0.8736  0.0575
  219MPD1    C5 3381   2.284   4.159  12.419  0.6719  0.4032 -0.6815
  219MPD1     H 3382   1.978   4.080  12.634  1.4899 -1.2569  1.6704
  219MPD1    H1 3383   2.294   3.945  12.389 -0.0750  0.9067 -2.4687
  219MPD1    H2 3384   2.255   4.362  12.463  0.6283  0.6666  2.7603
  219MPD1    H3 3385   2.359   4.189  12.347 -0.3562 -0.9045 -2.3090
  219MPD1     N 3386   2.111   3.854  12.543  0.6927 -0.7762  1.0351
  219MPD1    H5 3387   2.165   3.790  12.486 -0.5213  1.4276 -2.6157
  219MPD1    N1 3388   2.032   4.335  12.599 -0.0857  0.2571  0.0553
  219MPD1    H6 3389   1.965   4.312  12.672 -2.1990 -1.5787 -2.4600
  219MPD1    H7 3390   2.092   4.409  12.634  0.2240 -0.2082  0.5240
  220MPD1     C 3391   2.022   0.547  10.120 -0.0462  0.3085  0.0543
  220MPD1    C1 3392   1.900   0.509  10.154 -0.3599 -0.5963  0.0492
  220MPD1    C2 3393   1.877   0.460  10.285 -0.6750  0.0171  0.4778
  220MPD1    C3 3394   1.980   0.448  10.370 -0.5166  0.1467 -0.0356
  220MPD1    C4 3395   2.110   0.490  10.332 -0.3789 -0.5678 -0.2389
  220MPD1    C5 3396   2.126   0.537  10.205 -0.0253  0.8205 -0.4122
  220MPD1     H 3397   1.776   0.433  10.311 -1.1698  2.1721  0.7786
  220MPD1    H1 3398   2.196   0.481  10.398  0.1880 -0.0297 -0.9153
  220MPD1    H2 3399   2.047   0.581  10.020  1.7429 -0.0789  0.3725
  220MPD1    H3 3400   2.225   0.573  10.177  0.3180  0.8050  0.7848
  220MPD1     N 3401   1.952   0.398  10.497 -0.6528 -0.1140 -0.5486
  220MPD1    H5 3402   1.853   0.377  10.509 -0.7269 -0.1228 -1.1697
  220MPD1    N1 3403   1.800   0.490  10.061 -0.0280 -0.0011  0.0134
  220MPD1    H6 3404   1.710   0.503  10.107 -0.4167 -1.0493 -0.4453
  220MPD1    H7 3405   1.805   0.561   9.988  0.5282  1.3174  1.3351
  221MPD1     C 3406   4.413   3.375  15.773 -0.5219  0.1675  0.9854
  221MPD1    C1 3407   4.496   3.393  15.880 -0.2569 -0.6190 -0.3913
  221MPD1    C2 3408   4.499   3.286  15.970  0.7515 -0.3773  0.9858
  221MPD1    C3 3409   4.410   3.175  15.965  0.2357 -0.6828 -0.6569
  221MPD1    C4 3410   4.330   3.168  15.857  0.3391  0.0746 -0.5754
  221MPD1    C5 3411   4.326   3.271  15.766  0.0952 -0.2063 -0.3889
  221MPD1     H 3412   4.578   3.285  16.045  1.3651  2.5729  0.3556
  221MPD1    H1 3413   4.267   3.084  15.828  0.1275  1.0653 -2.9884
  221MPD1    H2 3414   4.415   3.444  15.690  4.5645  0.7332  1.5933
  221MPD1    H3 3415   4.267   3.266  15.675  0.3485  0.3504 -0.5875
  221MPD1     N 3416   4.412   3.064  16.049 -0.3856  0.3055 -0.1945
  221MPD1    H5 3417   4.350   2.986  16.032 -1.1862  0.9934 -0.4351
  221MPD1    N1 3418   4.585   3.500  15.874 -0.4601  0.2246  0.1248
  221MPD1    H6 3419   4.545   3.584  15.831 -1.2550 -0.0704  0.2831
  221MPD1    H7 3420   4.625   3.536  15.960 -1.7022  1.7555  0.0735
  222MPD1     C 3421   3.711   1.819  17.320  0.5167  0.2491 -0.7524
  222MPD1    C1 3422   3.775   1.942  17.311  0.1741 -0.1221  0.0793
  222MPD1    C2 3423   3.831   1.990  17.428 -0.1057 -0.0861 -0.5132
  222MPD1    C3 3424   3.830   1.921  17.545  0.6352  0.8657  0.0764
  222MPD1    C4 3425   3.785   1.792  17.546  0.0679 -0.2319  0.5877
  222MPD1    C5 3426   3.727   1.743  17.432 -0.0554  0.1578 -0.2601
  222MPD1     H 3427   3.871   2.091  17.426  1.3299 -0.6329  0.7976
  222MPD1    H1 3428   3.778   1.731  17.636  0.2452 -0.5332  0.3980
  222MPD1    H2 3429   3.664   1.773  17.234  1.1163 -1.2649 -0.2647
  222MPD1    H3 3430   3.696   1.640  17.421 -1.1772  0.3555  1.1534
  222MPD1     N 3431   3.866   1.981  17.669 -0.5281  0.2878 -0.4567
  222MPD1    H5 3432   3.833   1.925   0.019 -0.2245  1.3739  0.4656
  222MPD1    N1 3433   3.758   2.029  17.202 -0.1440 -0.2256 -0.3115
  222MPD1    H6 3434   3.835   2.093  17.214  0.0923 -0.5314 -0.1871
  222MPD1    H7 3435   3.767   1.983  17.112  2.4588 -2.3451  1.0306
  223MPD1     C 3436   3.212   1.910   0.446  0.8020  0.6167 -0.0913
  223MPD1    C1 3437   3.263   1.863   0.330 -0.0420 -0.6006 -0.7289
  223MPD1    C2 3438   3.386   1.916   0.292 -0.3914  0.1636  0.5016
  223MPD1    C3 3439   3.452   2.012   0.361  0.1140 -0.7404 -0.4884
  223MPD1    C4 3440   3.405   2.052   0.483 -0.8252 -0.0349  0.1299
  223MPD1    C5 3441   3.282   2.006   0.519  0.7339  0.2626 -0.1085
  223MPD1     H 3442   3.437   1.879   0.204 -0.4624 -2.2149  1.4536
  223MPD1    H1 3443   3.457   2.112   0.557 -0.2271  0.2983 -0.5560
  223MPD1    H2 3444   3.119   1.868   0.482  0.0325  1.2751 -1.2978
  223MPD1    H3 3445   3.227   2.041   0.606  0.3830  1.2080 -0.7034
  223MPD1     N 3446   3.574   2.059   0.308  0.0750  0.6722  0.3172
  223MPD1    H5 3447   3.599   2.031   0.214 -1.7442  1.0295 -0.2615
  223MPD1    N1 3448   3.195   1.763   0.257 -0.4142  0.2550 -0.3927
  223MPD1    H6 3449   3.199   1.784   0.157  0.8963 -1.1649 -0.6426
  223MPD1    H7 3450   3.108   1.724   0.290  0.2475  0.4188  1.5160
  224MPD1     C 3451   0.687   3.991   9.117 -0.0684  0.2517 -0.0340
  224MPD1    C1 3452   0.589   4.049   9.195 -0.1503 -0.3999 -0.3536
  224MPD1    C2 3453   0.612   4.043   9.333  0.2213 -0.3548  0.2938
  224MPD1    C3 3454   0.737   4.018   9.385 -0.2128  0.0570 -0.2839
  224MPD1    C4 3455   0.833   3.981   9.299  0.1028 -0.2796 -0.0440
  224MPD1    C5 3456   0.806   3.953   9.165 -0.6014 -0.1480 -0.8907
  224MPD1     H 3457   0.534   4.078   9.400 -1.1909  0.6564 -1.8872
  224MPD1    H1 3458   0.936   3.965   9.330  0.6504 -1.9264 -2.6927
  224MPD1    H2 3459   0.666   3.982   9.011 -4.2695 -1.3492  0.9279
  224MPD1    H3 3460   0.877   3.917   9.092 -0.2517  0.8481 -1.0465
  224MPD1     N 3461   0.782   4.037   9.522 -0.1430 -0.5687  0.3698
  224MPD1    H5 3462   0.874   4.009   9.554  0.0042  1.8017  2.0116
  224MPD1    N1 3463   0.458   4.073   9.146  0.3697 -0.6057 -0.2873
  224MPD1    H6 3464   0.458   4.096   9.047 -1.0364 -0.6690 -0.2977
  224MPD1    H7 3465   0.424   4.151   9.202 -1.0051 -0.3874 -1.4465
  225MPD1     C 3466   1.290   0.380  13.385  0.5216 -0.1955  1.0112
  225MPD1    C1 3467   1.368   0.271  13.351 -0.5275  0.1016  0.5141
  225MPD1    C2 3468   1.348   0.201  13.233  0.1295  0.0574 -0.3815
  225MPD1    C3 3469   1.236   0.231  13.155  0.0357 -0.2007 -0.2293
  225MPD1    C4 3470   1.157   0.338  13.188  0.0118  0.5751  0.4660
  225MPD1    C5 3471   1.178   0.415  13.305 -0.0298 -0.2019 -0.2524
  225MPD1     H 3472   1.413   0.119  13.205 -0.5688 -0.0369 -1.7227
  225MPD1    H1 3473   1.090   0.378  13.113  0.4291 -0.4742 -0.4741
  225MPD1    H2 3474   1.316   0.447  13.466  1.1509 -0.6572  1.1997
  225MPD1    H3 3475   1.123   0.507  13.320 -0.5406 -0.2875 -1.5730
  225MPD1     N 3476   1.207   0.165  13.031  0.7148  0.8760 -0.7582
  225MPD1    H5 3477   1.136   0.214  12.977 -0.1563  1.7182  1.1462
  225MPD1    N1 3478   1.492   0.264  13.416 -0.2939  0.4659 -0.4337
  225MPD1    H6 3479   1.525   0.168  13.418 -0.4546  0.4506  1.2915
  225MPD1    H7 3480   1.472   0.290  13.512  0.8129  2.2647 -0.6749
  226MPD1     C 3481   0.051   0.800   9.451  0.4181  0.4978 -0.5483
  226MPD1    C1 3482   0.166   0.745   9.500 -0.0858  0.3063 -0.0464
  226MPD1    C2 3483   0.275   0.833   9.512  0.1743 -0.3607  0.1961
  226MPD1    C3 3484   0.273   0.966   9.487 -0.2058 -0.2027 -0.4808
  226MPD1    C4 3485   0.151   1.014   9.429 -0.6002 -0.1885  0.2454
  226MPD1    C5 3486   0.044   0.928   9.416 -0.4442  0.2035 -0.2374
  226MPD1     H 3487   0.364   0.796   9.561  0.4699 -0.5358 -0.4723
  226MPD1    H1 3488   0.151   1.115   9.389  0.3706  0.0083  0.7436
  226MPD1    H2 3489   4.706   0.732   9.414 -0.0519  1.1148 -0.7081
  226MPD1    H3 3490   4.683   0.965   9.374  1.1098 -0.3842 -4.1238
  226MPD1     N 3491   0.390   1.035   9.513  0.0157  0.4536  0.4528
  226MPD1    H5 3492   0.466   0.988   9.561  1.1108  0.8037 -0.9712
  226MPD1    N1 3493   0.190   0.609   9.509  0.0229 -0.0333 -0.1995
  226MPD1    H6 3494   0.103   0.557   9.512 -0.0792  0.1197 -0.5613
  226MPD1    H7 3495   0.256   0.580   9.581  0.5081  0.5473 -0.4067
  227MPD1     C 3496   0.774   1.848   9.063  0.1058 -0.6329 -0.2970
  227MPD1    C1 3497   0.646   1.814   9.088 -0.0024 -1.0469  0.1523
  227MPD1    C2 3498   0.620   1.695   9.155 -0.5572  0.2331  0.7793
  227MPD1    C3 3499   0.724   1.638   9.219  0.0838  0.3549  0.5202
  227MPD1    C4 3500   0.854   1.677   9.189 -0.7678  0.2557 -0.0852
  227MPD1    C5 3501   0.875   1.779   9.110  0.7240 -0.6922  0.5315
  227MPD1     H 3502   0.518   1.665   9.173  0.6860 -4.0079  0.9066
  227MPD1    H1 3503   0.933   1.617   9.233 -0.1313  0.7241 -0.5873
  227MPD1    H2 3504   0.795   1.934   9.001 -0.2941 -0.1953  0.1836
  227MPD1    H3 3505   0.973   1.822   9.098  1.0984 -1.7234 -0.0359
  227MPD1     N 3506   0.684   1.539   9.319 -0.2342 -0.1284 -1.0218
  227MPD1    H5 3507   0.583   1.525   9.316 -0.3414  0.8243 -1.9814
  227MPD1    N1 3508   0.546   1.874   9.010  0.4425  0.4678 -0.3649
  227MPD1    H6 3509   0.450   1.867   9.044  0.4152  1.9234 -0.1526
  227MPD1    H7 3510   0.568   1.973   8.998  0.5355  0.6154  1.0193
  228MPD1     C 3511   3.953   2.995  13.555  0.2405 -0.1668 -0.2681
  228MPD1    C1 3512   3.963   2.864  13.591 -0.1153  0.6352  0.3093
  228MPD1    C2 3513   3.877   2.774  13.539  0.9883  0.1273 -0.5176
  228MPD1    C3 3514   3.760   2.812  13.477  0.5487  0.1082 -0.5761
  228MPD1    C4 3515   3.749   2.943  13.448 -0.3517 -0.3512 -0.3195
  228MPD1    C5 3516   3.841   3.034  13.489 -0.0520 -0.4828 -0.8739
  228MPD1     H 3517   3.896   2.669  13.556  1.1386  0.3715  0.7752
  228MPD1    H1 3518   3.660   2.997  13.417 -0.5138  0.0017  0.7444
  228MPD1    H2 3519   4.024   3.071  13.585 -1.6146  1.0812  0.9196
  228MPD1    H3 3520   3.823   3.141  13.489  0.8866 -0.3268 -1.3825
  228MPD1     N 3521   3.669   2.714  13.429  0.1177  0.4017 -0.3897
  228MPD1    H5 3522   3.685   2.616  13.448 -0.0555  0.3991 -0.2589
  228MPD1    N1 3523   4.076   2.816  13.648  0.2980  0.4707 -0.6688
  228MPD1    H6 3524   4.070   2.725  13.694  0.7737  0.7330 -0.0773
  228MPD1    H7 3525   4.107   2.876  13.725  0.6611  0.1203 -0.5371
  229MPD1     C 3526   2.855   1.163  15.111  0.2700 -0.3374 -0.0283
  229MPD1    C1 3527   2.969   1.208  15.170  0.4526 -0.0688 -0.0297
  229MPD1    C2 3528   3.053   1.113  15.218  0.0904  0.2064  0.0629
  229MPD1    C3 3529   3.019   0.976  15.221 -0.1566 -0.3614 -0.2936
  229MPD1    C4 3530   2.901   0.936  15.168  0.6248 -0.6032 -0.1771
  229MPD1    C5 3531   2.822   1.032  15.106  0.4184  0.0148 -0.9438
  229MPD1     H 3532   3.148   1.142  15.263 -1.0310 -0.6098  2.9479
  229MPD1    H1 3533   2.875   0.831  15.163  0.1665 -0.5358  0.7820
  229MPD1    H2 3534   2.785   1.229  15.062 -0.1509  0.2448  1.3612
  229MPD1    H3 3535   2.725   1.003  15.067 -0.1119 -0.3124  0.6229
  229MPD1     N 3536   3.103   0.883  15.286  0.3490 -0.5355 -0.3412
  229MPD1    H5 3537   3.080   0.786  15.265  0.2788 -0.5620 -0.1410
  229MPD1    N1 3538   3.012   1.342  15.149 -0.4288  0.4900  0.5406
  229MPD1    H6 3539   3.071   1.381  15.222  0.7385  0.5921 -0.4562
  229MPD1    H7 3540   2.947   1.420  15.138 -0.9659  0.1786  1.4702
  230MPD1     C 3541   3.974   0.658  15.897 -0.3203  0.3641 -0.2831
  230MPD1    C1 3542   3.941   0.549  15.821 -0.8706 -0.2479 -0.2264
  230MPD1    C2 3543   3.825   0.548  15.748  0.2435 -0.6419  0.6398
  230MPD1    C3 3544   3.746   0.657  15.742  0.1914 -0.7147  0.3295
  230MPD1    C4 3545   3.781   0.775  15.809 -0.3095 -0.4526  0.1287
  230MPD1    C5 3546   3.894   0.768  15.884 -0.0337 -0.0645  0.2500
  230MPD1     H 3547   3.804   0.462  15.684  1.7978 -0.7438  0.2683
  230MPD1    H1 3548   3.728   0.870  15.804 -0.9564 -0.7546  1.2674
  230MPD1    H2 3549   4.065   0.664  15.956 -0.3245  0.5156 -0.2909
  230MPD1    H3 3550   3.924   0.855  15.941  0.6632 -0.2016  0.0966
  230MPD1     N 3551   3.635   0.643  15.656 -0.3719 -1.5143  0.0197
  230MPD1    H5 3552   3.639   0.556  15.602  0.4027 -0.9938 -0.7674
  230MPD1    N1 3553   4.029   0.439  15.839 -0.6430 -0.7099 -0.1315
  230MPD1    H6 3554   4.125   0.473  15.832 -0.8183 -0.0943  0.5232
  230MPD1    H7 3555   4.020   0.375  15.760  0.2817  1.4500 -1.9892
  231MPD1     C 3556   1.414   2.905  15.454  0.1111  0.4040  0.0877
  231MPD1    C1 3557   1.449   2.849  15.329  0.2484 -0.3425  0.0106
  231MPD1    C2 3558   1.535   2.926  15.251  0.4367 -0.2576  1.1987
  231MPD1    C3 3559   1.582   3.045  15.296  0.5187 -1.2224  0.2762
  231MPD1    C4 3560   1.557   3.089  15.425 -1.0624 -0.1971  0.0517
  231MPD1    C5 3561   1.478   3.018  15.505  0.3462 -0.0852  0.5125
  231MPD1     H 3562   1.562   2.889  15.153 -1.1285 -0.6814  0.9172
  231MPD1    H1 3563   1.592   3.187  15.456 -1.5079 -0.1326  0.3559
  231MPD1    H2 3564   1.342   2.849  15.512  1.0016  0.3112  1.0869
  231MPD1    H3 3565   1.456   3.043  15.608 -1.1145 -0.8496  0.3972
  231MPD1     N 3566   1.662   3.113  15.203  0.1019 -0.0299  0.2676
  231MPD1    H5 3567   1.669   3.076  15.109  0.1721  1.5952 -0.3704
  231MPD1    N1 3568   1.391   2.728  15.280 -0.1432  0.6714  0.0860
  231MPD1    H6 3569   1.445   2.690  15.203 -1.1602 -0.9593  0.1889
  231MPD1    H7 3570   1.378   2.665  15.359 -1.6567  1.9493  0.8449
  232MPD1     C 3571   3.647   0.665  17.667  0.2332  0.6890  0.6223
  232MPD1    C1 3572   3.583   0.737   0.035 -0.3678  0.2080 -0.1762
  232MPD1    C2 3573   3.459   0.695   0.066  0.1437 -0.2947 -0.7331
  232MPD1    C3 3574   3.403   0.581   0.009  1.2726 -0.3198  0.5253
  232MPD1    C4 3575   3.476   0.499  17.653  0.0577 -0.2585  0.6246
  232MPD1    C5 3576   3.603   0.545  17.623 -0.6084  0.4176  0.4416
  232MPD1     H 3577   3.397   0.742   0.140 -1.1712 -1.0938 -1.3122
  232MPD1    H1 3578   3.449   0.395  17.634  0.9961 -0.6817  1.6248
  232MPD1    H2 3579   3.750   0.695  17.647  0.7126 -1.1028  0.4487
  232MPD1    H3 3580   3.673   0.491  17.559 -0.4259 -1.0757  1.9204
  232MPD1     N 3581   3.271   0.555   0.050 -0.1685 -0.1975 -0.2514
  232MPD1    H5 3582   3.222   0.624   0.106 -1.0214  1.4133 -2.9773
  232MPD1    N1 3583   3.641   0.862   0.069  0.1697  0.3202  0.0640
  232MPD1    H6 3584   3.743   0.856   0.067  0.0224 -2.1631  0.0552
  232MPD1    H7 3585   3.611   0.892   0.162 -0.6425  2.9229 -1.0296
  233MPD1     C 3586   4.502   3.991  17.390 -0.8336  0.5959  0.1852
  233MPD1    C1 3587   4.549   4.048  17.510  0.0406  0.7943 -0.8617
  233MPD1    C2 3588   4.566   3.963  17.615 -0.3230  0.9233 -0.4192
  233MPD1    C3 3589   4.562   3.824  17.601 -0.4170 -0.2796 -0.6748
  233MPD1    C4 3590   4.525   3.764  17.481 -0.7107  0.0049 -0.4129
  233MPD1    C5 3591   4.493   3.847  17.376 -0.6325 -0.0227 -0.1492
  233MPD1     H 3592   4.576   4.010  17.712  1.1634 -4.7470  2.1438
  233MPD1    H1 3593   4.515   3.656  17.471  0.6320 -0.0346 -1.3808
  233MPD1    H2 3594   4.467   4.044  17.302 -1.3340 -1.2552 -0.7187
  233MPD1    H3 3595   4.456   3.807  17.283 -1.0284 -0.4902  0.2080
  233MPD1     N 3596   4.579   3.736  17.711  0.1703  0.2398  0.0014
  233MPD1    H5 3597   4.546   3.642  17.693  0.1721  0.3076 -0.3448
  233MPD1    N1 3598   4.537   4.184  17.527  0.6969  0.3631 -0.2785
  233MPD1    H6 3599   4.596   4.215  17.604  0.4410  0.0913  0.0328
  233MPD1    H7 3600   4.555   4.239  17.443 -0.6058 -0.9704 -1.4317
  234MPD1     C 3601   1.754   2.680  10.447 -0.7321  0.1132  0.6182
  234MPD1    C1 3602   1.775   2.812  10.490 -0.3608 -0.3259  0.4642
  234MPD1    C2 3603   1.731   2.919  10.415  0.9434  0.2408  0.3703
  234MPD1    C3 3604   1.646   2.894  10.306  0.4505 -0.1210  0.7789
  234MPD1    C4 3605   1.617   2.764  10.269  0.0783  0.0989  0.7660
  234MPD1    C5 3606   1.672   2.658  10.339  0.0569  0.1635  0.4535
  234MPD1     H 3607   1.747   3.018  10.456  1.0644  0.4457 -0.1692
  234MPD1    H1 3608   1.547   2.737  10.190  0.4667  2.4224 -0.3683
  234MPD1    H2 3609   1.800   2.591  10.489 -0.7872 -0.5758 -0.7587
  234MPD1    H3 3610   1.651   2.556  10.310  1.7389  0.2808 -1.1269
  234MPD1     N 3611   1.590   3.006  10.232 -0.5571 -0.1012  0.9263
  234MPD1    H5 3612   1.601   3.092  10.286 -1.9738  0.4793  0.3082
  234MPD1    N1 3613   1.871   2.844  10.592 -0.0556  0.5173  0.2483
  234MPD1    H6 3614   1.873   2.773  10.665 -0.8648 -0.0754 -0.3190
  234MPD1    H7 3615   1.855   2.936  10.633 -0.9650  0.0019  1.0363
  235MPD1     C 3616   1.653   0.641  10.989 -0.7689  0.1601  0.5570
  235MPD1    C1 3617   1.776   0.586  11.007  0.9452  0.3586 -0.2161
  235MPD1    C2 3618   1.880   0.622  10.918  0.0491  0.1074  0.6528
  235MPD1    C3 3619   1.845   0.696  10.806  0.2461 -0.8462 -0.0822
  235MPD1    C4 3620   1.708   0.713  10.769  0.8016  0.4068  0.5153
  235MPD1    C5 3621   1.616   0.690  10.868  0.5668  0.2408  0.1664
  235MPD1     H 3622   1.981   0.592  10.944 -0.3195 -0.5572  1.3112
  235MPD1    H1 3623   1.675   0.761  10.678  0.3228  2.3133  1.6905
  235MPD1    H2 3624   1.574   0.635  11.064 -0.1942  0.9465  1.2222
  235MPD1    H3 3625   1.514   0.726  10.860 -0.0162 -1.8774 -2.3994
  235MPD1     N 3626   1.954   0.733  10.714 -0.5249 -0.1410 -1.2037
  235MPD1    H5 3627   2.047   0.723  10.753 -0.7843  1.4967 -0.1736
  235MPD1    N1 3628   1.799   0.522  11.127 -0.2645 -0.2757 -0.4686
  235MPD1    H6 3629   1.889   0.475  11.123 -0.0285  0.1067  0.3986
  235MPD1    H7 3630   1.717   0.465  11.145 -1.1751  1.8616  2.1544
  236MPD1     C 3631   0.781   2.714  10.248  0.1770  0.1179  0.2745
  236MPD1    C1 3632   0.901   2.727  10.310  0.1216  0.0576 -0.1972
  236MPD1    C2 3633   1.003   2.655  10.260  0.0310  0.3170  0.2374
  236MPD1    C3 3634   0.994   2.559  10.162  0.2598  0.0256  0.5778
  236MPD1    C4 3635   0.874   2.545  10.107 -0.0665  0.5625 -0.0688
  236MPD1    C5 3636   0.765   2.611  10.158  0.1762 -0.1648 -0.1236
  236MPD1     H 3637   1.095   2.669  10.315  0.2787 -2.5800  0.5820
  236MPD1    H1 3638   0.845   2.468  10.036 -0.9387  1.5089 -0.7430
  236MPD1    H2 3639   0.694   2.770  10.280 -0.6817 -0.2113 -1.5043
  236MPD1    H3 3640   0.666   2.591  10.117 -0.7024  1.5253  1.1644
  236MPD1     N 3641   1.096   2.473  10.124 -0.0880 -0.1221 -0.0293
  236MPD1    H5 3642   1.067   2.390  10.073  0.6433 -1.4430  1.7105
  236MPD1    N1 3643   0.921   2.835  10.396  0.4865  0.1944 -0.1980
  236MPD1    H6 3644   0.996   2.818  10.464  0.7167 -0.8607 -0.7038
  236MPD1    H7 3645   0.835   2.854  10.446  0.6273 -0.5983  0.3574
  237MPD1     C 3646   2.038   3.930  15.642 -0.3480 -0.1900  0.7399
  237MPD1    C1 3647   2.022   3.963  15.509  0.1248  0.0187  0.2272
  237MPD1    C2 3648   1.892   3.978  15.454 -1.0971  1.5770 -0.3510
  237MPD1    C3 3649   1.780   3.959  15.542 -0.6648  0.5285  0.1432
  237MPD1    C4 3650   1.802   3.928  15.674 -0.2868  0.3533 -0.2187
  237MPD1    C5 3651   1.930   3.907  15.716 -1.3263 -0.7014  0.9857
  237MPD1     H 3652   1.892   3.987  15.346 -0.4702 -0.1723 -0.5048
  237MPD1    H1 3653   1.717   3.918  15.740 -1.1943  1.5152 -1.2137
  237MPD1    H2 3654   2.129   3.913  15.699 -0.2000 -0.0619  0.5452
  237MPD1    H3 3655   1.942   3.885  15.821 -2.4435 -1.5758  0.9348
  237MPD1     N 3656   1.653   3.971  15.488 -0.0734 -0.4179 -0.7395
  237MPD1    H5 3657   1.654   4.004  15.392 -3.5191  3.9878  0.7318
  237MPD1    N1 3658   2.133   3.955  15.425 -0.5607 -0.7069  0.0410
  237MPD1    H6 3659   2.227   3.975  15.460  0.0421  0.8459 -2.4461
  237MPD1    H7 3660   2.126   4.016  15.344  0.4721  0.3635  0.7434
  238MPD1     C 3661   3.760   2.191  14.798  0.3263 -0.2117 -0.4836
  238MPD1    C1 3662   3.739   2.265  14.918  0.1813 -0.1506 -0.3331
  238MPD1    C2 3663   3.682   2.393  14.914  0.4383 -0.0991 -0.7331
  238MPD1    C3 3664   3.649   2.450  14.794  0.3142 -0.0590  0.8981
  238MPD1    C4 3665   3.682   2.382  14.682  0.3804 -0.5438  0.2778
  238MPD1    C5 3666   3.731   2.256  14.681 -0.0845 -0.2013  0.6638
  238MPD1     H 3667   3.677   2.442  15.010 -1.6415 -1.3536 -0.2079
  238MPD1    H1 3668   3.674   2.423  14.582 -2.2339  3.4899  2.1436
  238MPD1    H2 3669   3.806   2.093  14.796 -0.5802 -0.6253 -1.3513
  238MPD1    H3 3670   3.746   2.197  14.592 -1.0092 -3.2979  2.5418
  238MPD1     N 3671   3.583   2.573  14.795 -0.0393  0.2984 -0.0901
  238MPD1    H5 3672   3.540   2.609  14.710  0.1568  0.4356 -0.1318
  238MPD1    N1 3673   3.773   2.204  15.045 -0.1991  0.4771  0.1648
  238MPD1    H6 3674   3.818   2.265  15.113  1.1494  1.1979 -1.3852
  238MPD1    H7 3675   3.838   2.126  15.042  0.8445  1.2549  1.9109
  239MPD1     C 3676   3.711   3.284  14.901 -0.3497 -0.4741 -0.6907
  239MPD1    C1 3677   3.819   3.330  14.829 -0.2935 -0.2569 -0.0425
  239MPD1    C2 3678   3.783   3.422  14.724  0.5808 -0.2730  0.0091
  239MPD1    C3 3679   3.666   3.493  14.726  0.7277 -0.5335  0.1631
  239MPD1    C4 3680   3.564   3.439  14.799 -0.1495  0.1456  0.3492
  239MPD1    C5 3681   3.585   3.337  14.884 -0.5195  0.5645  0.3490
  239MPD1     H 3682   3.856   3.449  14.649 -1.2183 -1.1436 -2.0487
  239MPD1    H1 3683   3.466   3.483  14.788 -0.1399  0.4311  1.4278
  239MPD1    H2 3684   3.725   3.219  14.987 -0.4025 -1.7809 -1.6732
  239MPD1    H3 3685   3.507   3.311  14.955  1.7577 -0.4304  2.4994
  239MPD1     N 3686   3.633   3.596  14.631  0.0023  0.3555  0.8072
  239MPD1    H5 3687   3.542   3.638  14.643 -0.7582 -0.9000 -0.6403
  239MPD1    N1 3688   3.948   3.283  14.839 -0.3824 -0.3365 -0.1197
  239MPD1    H6 3689   3.960   3.244  14.932 -0.8807  1.3448  0.6596
  239MPD1    H7 3690   4.015   3.360  14.835  0.0668 -0.7662 -0.7586
  240MPD1     C 3691   2.732   4.194  13.853  0.6950 -0.5801  0.0714
  240MPD1    C1 3692   2.778   4.098  13.772 -1.0063  0.9693 -0.0454
  240MPD1    C2 3693   2.767   3.964  13.800  0.1048  0.2226 -0.4730
  240MPD1    C3 3694   2.712   3.927  13.928  0.1467  0.8418 -0.3844
  240MPD1    C4 3695   2.670   4.023  14.018 -0.7054 -0.2085  0.8388
  240MPD1    C5 3696   2.679   4.153  13.972  0.2892 -0.6951 -0.2553
  240MPD1     H 3697   2.809   3.893  13.729 -0.1637  0.2506 -0.6583
  240MPD1    H1 3698   2.634   4.006  14.119 -0.5896  0.2404  0.9521
  240MPD1    H2 3699   2.749   4.298  13.830  0.4261 -0.7409 -0.8389
  240MPD1    H3 3700   2.664   4.240  14.035 -0.7013 -3.1099  2.8493
  240MPD1     N 3701   2.721   3.793  13.972  0.6004 -0.5880 -0.0953
  240MPD1    H5 3702   2.772   3.734  13.907 -1.1059 -1.5351 -0.5913
  240MPD1    N1 3703   2.860   4.143  13.663  0.0400  0.1740  0.2429
  240MPD1    H6 3704   2.830   4.233  13.625 -0.2588  0.5000  1.2693
  240MPD1    H7 3705   2.855   4.073  13.588 -1.7487  0.1628  0.3814
  241MPD1     C 3706   3.492   3.368  14.352  0.4134 -0.0028  1.1210
  241MPD1    C1 3707   3.458   3.397  14.224 -0.8168 -0.2410 -0.2933
  241MPD1    C2 3708   3.320   3.398  14.190  0.4699 -0.0142  1.0044
  241MPD1    C3 3709   3.217   3.372  14.279  0.1239 -0.4090  0.4810
  241MPD1    C4 3710   3.258   3.343  14.406 -0.2861  0.1275 -0.1656
  241MPD1    C5 3711   3.386   3.341  14.434  0.9441 -0.4291  0.3319
  241MPD1     H 3712   3.292   3.436  14.092 -0.6036  0.0059  1.3109
  241MPD1    H1 3713   3.191   3.317  14.488 -0.7740  1.1316 -0.2459
  241MPD1    H2 3714   3.589   3.367  14.400  1.5598  1.4314 -1.1708
  241MPD1    H3 3715   3.402   3.314  14.537 -0.7122  2.7242  1.4030
  241MPD1     N 3716   3.078   3.387  14.257  0.2049  0.6988 -0.4098
  241MPD1    H5 3717   3.016   3.375  14.337  1.4249 -1.2416  0.2368
  241MPD1    N1 3718   3.555   3.450  14.140  0.2684 -0.1753  0.4708
  241MPD1    H6 3719   3.537   3.434  14.041 -0.3837  2.6530  0.1355
  241MPD1    H7 3720   3.642   3.399  14.157 -0.9296 -1.9219  1.3081
  242MPD1     C 3721   2.336   1.308  16.066 -0.4817 -0.2469  0.1710
  242MPD1    C1 3722   2.323   1.440  16.031 -0.1232 -0.1803 -0.0585
  242MPD1    C2 3723   2.397   1.476  15.919 -0.4624 -0.0918 -0.4856
  242MPD1    C3 3724   2.477   1.388  15.850 -0.5336 -0.5937  0.0236
  242MPD1    C4 3725   2.482   1.249  15.883  0.1953 -0.7248  1.1941
  242MPD1    C5 3726   2.404   1.216  15.994  0.3013  0.1126  0.2062
  242MPD1     H 3727   2.380   1.578  15.885  1.9041  0.1418 -1.0061
  242MPD1    H1 3728   2.533   1.168  15.833 -1.9591  0.0165 -2.2097
  242MPD1    H2 3729   2.266   1.266  16.138 -1.7376  2.1049  0.3536
  242MPD1    H3 3730   2.400   1.112  16.026 -2.1473  0.3235  0.5566
  242MPD1     N 3731   2.559   1.434  15.749  0.0981 -0.4963  0.8305
  242MPD1    H5 3732   2.621   1.367  15.704  0.5346 -1.2901  2.6330
  242MPD1    N1 3733   2.247   1.542  16.101 -0.2796 -0.2191  0.0412
  242MPD1    H6 3734   2.216   1.620  16.045 -1.4985 -0.8025 -0.0962
  242MPD1    H7 3735   2.164   1.509  16.150  0.2818 -1.5469  0.1096
  243MPD1     C 3736   3.914   0.990   0.141  0.3846  0.3887  0.3473
  243MPD1    C1 3737   3.953   1.047   0.019  0.2815  0.6838 -0.0006
  243MPD1    C2 3738   3.989   0.966  17.642 -0.5632  0.1548  0.1343
  243MPD1    C3 3739   3.989   0.824  17.661 -0.1041 -0.3203 -0.1477
  243MPD1    C4 3740   3.964   0.770   0.056 -0.9252 -0.1265 -0.1907
  243MPD1    C5 3741   3.926   0.852   0.156  0.6418  0.1518 -0.4313
  243MPD1     H 3742   4.021   1.014  17.550 -1.5714  1.2294  0.3424
  243MPD1    H1 3743   3.965   0.665   0.081  0.7831 -0.9572 -3.6315
  243MPD1    H2 3744   3.888   1.048   0.229  0.1171 -0.3177  0.7322
  243MPD1    H3 3745   3.915   0.814   0.257 -1.0711 -1.6613 -1.3022
  243MPD1     N 3746   4.038   0.737  17.557  0.8094 -0.0904  0.4405
  243MPD1    H5 3747   4.078   0.777  17.472  0.8897 -1.7837 -0.3254
  243MPD1    N1 3748   3.929   1.185  17.718 -0.2624  0.0960  0.1090
  243MPD1    H6 3749   3.980   1.211  17.634 -0.0394  2.5901  1.0335
  243MPD1    H7 3750   3.831   1.196  17.692  0.3079 -0.1978 -2.2198
  244MPD1     C 3751   4.429   4.539  17.680 -0.1901 -0.2732  0.2797
  244MPD1    C1 3752   4.364   4.619   0.042  0.1213 -0.0734  0.0335
  244MPD1    C2 3753   4.326   0.010  17.722 -0.4405  0.2690  0.8514
  244MPD1    C3 3754   4.342   0.048  17.592  0.1043 -0.0862 -0.1142
  244MPD1    C4 3755   4.397   4.692  17.500  0.7696  0.0542  0.6150
  244MPD1    C5 3756   4.434   4.569  17.543 -0.0770  0.4060 -0.2139
  244MPD1     H 3757   4.287   0.084   0.063 -0.7148 -0.2441  1.2469
  244MPD1    H1 3758   4.428   4.706  17.397 -1.0296 -1.4187 -0.1271
  244MPD1    H2 3759   4.458   4.441  17.715 -0.4553 -0.3590  0.2599
  244MPD1    H3 3760   4.479   4.492  17.481 -0.6359 -0.1836  0.1085
  244MPD1     N 3761   4.306   0.179  17.557 -0.9279  0.7282  0.4377
  244MPD1    H5 3762   4.271   0.229  17.638  0.1550  1.3500  0.5173
  244MPD1    N1 3763   4.359   4.586   0.179 -0.3155 -0.2178 -0.0932
  244MPD1    H6 3764   4.278   4.631   0.221  0.5222  0.9678  0.2721
  244MPD1    H7 3765   4.334   4.488   0.175  0.9096 -0.5991  1.5748
  245MPD1     C 3766   1.406   0.248  13.759  0.1749 -0.6401 -0.2136
  245MPD1    C1 3767   1.330   0.354  13.729  0.4624  0.4040 -0.0984
  245MPD1    C2 3768   1.385   0.486  13.740 -0.3445 -0.1334 -0.1819
  245MPD1    C3 3769   1.519   0.509  13.775 -0.3519 -0.8762  0.1709
  245MPD1    C4 3770   1.594   0.396  13.797 -0.9584 -0.4730  0.7991
  245MPD1    C5 3771   1.533   0.272  13.806  1.0835 -0.3217  0.0837
  245MPD1     H 3772   1.321   0.571  13.719 -0.6881  0.0689  1.7150
  245MPD1    H1 3773   1.702   0.395  13.812 -1.0340 -0.3173  1.3425
  245MPD1    H2 3774   1.363   0.149  13.754 -0.0020 -0.6528  1.8786
  245MPD1    H3 3775   1.597   0.187  13.823  1.4997  0.1785  1.0279
  245MPD1     N 3776   1.572   0.639  13.778 -0.1490 -0.0620  0.1518
  245MPD1    H5 3777   1.508   0.711  13.744 -3.4059 -2.1240  1.8682
  245MPD1    N1 3778   1.192   0.335  13.718 -0.6515  0.7337 -0.2632
  245MPD1    H6 3779   1.165   0.237  13.707 -1.0844  0.9876 -1.4358
  245MPD1    H7 3780   1.140   0.395  13.654 -0.7908 -1.3909 -2.1615
  246MPD1     C 3781   0.509   0.915   9.219 -0.4723 -0.4090 -0.5524
  246MPD1    C1 3782   0.599   0.836   9.286 -0.6521  0.2938  0.1293
  246MPD1    C2 3783   0.729   0.881   9.302 -0.4303  0.3361  0.3120
  246MPD1    C3 3784   0.762   1.010   9.261  0.6208 -0.7758  1.1448
  246MPD1    C4 3785   0.672   1.086   9.192 -0.8566 -0.0469  0.2904
  246MPD1    C5 3786   0.543   1.043   9.177  0.3555  0.1252 -0.3583
  246MPD1     H 3787   0.800   0.821   9.358  1.9034  1.3283 -1.5523
  246MPD1    H1 3788   0.689   1.187   9.156  0.4397  0.2829  1.8198
  246MPD1    H2 3789   0.405   0.883   9.221  0.3856 -3.2756 -1.6104
  246MPD1    H3 3790   0.471   1.105   9.125 -0.1185 -0.2208 -0.1120
  246MPD1     N 3791   0.888   1.057   9.294  0.1813  0.5655  0.7339
  246MPD1    H5 3792   0.956   0.992   9.333  0.4199 -0.7929 -1.9356
  246MPD1    N1 3793   0.550   0.719   9.359 -0.3003 -0.2951 -0.0398
  246MPD1    H6 3794   0.469   0.676   9.315  0.3274 -1.2139 -0.2970
  246MPD1    H7 3795   0.626   0.661   9.393  1.3074  0.5716 -2.1778
  247MPD1     C 3796   0.771   0.732  16.945  0.5071  0.3845 -0.2580
  247MPD1    C1 3797   0.785   0.597  16.939 -0.7470  0.4226  0.1498
  247MPD1    C2 3798   0.844   0.541  16.824  0.0506 -0.0891 -0.1564
  247MPD1    C3 3799   0.878   0.622  16.717 -1.3309 -0.0184 -0.0278
  247MPD1    C4 3800   0.872   0.757  16.728  0.1470  0.6231 -0.1531
  247MPD1    C5 3801   0.823   0.816  16.841 -0.1591  0.9618  0.2453
  247MPD1     H 3802   0.857   0.433  16.826  0.5746 -0.0580 -1.5433
  247MPD1    H1 3803   0.887   0.826  16.646  0.2202  0.8750  0.0686
  247MPD1    H2 3804   0.724   0.780  17.030  2.1855 -0.7942  1.3440
  247MPD1    H3 3805   0.823   0.921  16.865 -3.4858  0.9284  0.4269
  247MPD1     N 3806   0.917   0.578  16.587  0.2337 -0.2971  0.4337
  247MPD1    H5 3807   0.937   0.649  16.517 -2.2587  2.7209  2.7709
  247MPD1    N1 3808   0.762   0.520  17.049  0.0993  0.1592  0.1074
  247MPD1    H6 3809   0.727   0.565  17.134  0.3502 -0.0302  0.3112
  247MPD1    H7 3810   0.733   0.423  17.038  0.2630 -0.0311  1.3577
  248MPD1     C 3811   1.656   0.422  17.692 -0.0882  0.3072 -0.0145
  248MPD1    C1 3812   1.706   0.549  17.693  0.1663  0.0936  0.4653
  248MPD1    C2 3813   1.637   0.654   0.023  0.5323 -0.4639 -0.4683
  248MPD1    C3 3814   1.503   0.636   0.062  0.8760  1.3717  0.2000
  248MPD1    C4 3815   1.450   0.508   0.053  0.2662  0.7011 -0.0058
  248MPD1    C5 3816   1.527   0.408   0.010 -0.5644  0.3520 -0.5917
  248MPD1     H 3817   1.677   0.755   0.023  0.5084 -0.4534 -1.5301
  248MPD1    H1 3818   1.348   0.478   0.077  0.2542 -0.8089 -1.9415
  248MPD1    H2 3819   1.705   0.331  17.661  0.2043 -0.1367  1.7719
  248MPD1    H3 3820   1.491   0.306   0.017 -0.2268  0.2929  0.3381
  248MPD1     N 3821   1.431   0.744   0.104 -0.1499  0.4455  0.1381
  248MPD1    H5 3822   1.484   0.830   0.091  0.8137  0.1425  2.1565
  248MPD1    N1 3823   1.832   0.566  17.651  0.3453  0.0455  0.0617
  248MPD1    H6 3824   1.833   0.656  17.603  0.5273  0.2193  0.3972
  248MPD1    H7 3825   1.863   0.488  17.593 -0.8437 -0.8231  0.5809
  249MPD1     C 3826   3.551   4.402   9.075 -0.3897  0.3667 -0.1182
  249MPD1    C1 3827   3.498   4.280   9.078  0.0028 -0.4251 -0.4921
  249MPD1    C2 3828   3.456   4.225   9.203 -0.0705 -0.7027  0.2067
  249MPD1    C3 3829   3.475   4.300   9.318  0.4388  0.8197  0.4170
  249MPD1    C4 3830   3.546   4.417   9.308  0.0414  0.6053 -0.1549
  249MPD1    C5 3831   3.580   4.466   9.187 -0.2748  0.3378 -0.0820
  249MPD1     H 3832   3.387   4.141   9.207 -0.8547 -0.2062 -2.6434
  249MPD1    H1 3833   3.577   4.472   9.396 -0.1430 -0.8419  0.8036
  249MPD1    H2 3834   3.576   4.447   8.979  1.7777 -1.6965 -0.5264
  249MPD1    H3 3835   3.637   4.558   9.176  0.0846  0.0481 -0.6290
  249MPD1     N 3836   3.410   4.269   9.444 -0.1819  0.1993 -0.2852
  249MPD1    H5 3837   3.354   4.185   9.448 -0.4138  0.2831 -1.6521
  249MPD1    N1 3838   3.455   4.219   8.956  0.1417 -0.5210  0.9726
  249MPD1    H6 3839   3.510   4.256   8.879  0.2779  0.2988  1.4659
  249MPD1    H7 3840   3.452   4.117   8.964 -0.6066 -0.8190 -2.8762
  250MPD2     C 3841   3.993   4.426  13.293  0.1715  0.3989  0.0210
  250MPD2    C1 3842   4.017   4.450  13.164 -1.2837 -0.1516 -0.3805
  250MPD2    C2 3843   3.979   4.354  13.071  0.7614 -0.4395 -0.4576
  250MPD2    C3 3844   3.904   4.248  13.115  0.7608  1.1647 -0.4451
  250MPD2    C4 3845   3.889   4.221  13.253  0.5531  0.2031 -0.1911
  250MPD2    C5 3846   3.924   4.317  13.336 -0.0343  0.3312 -1.3342
  250MPD2     H 3847   3.999   4.380  12.968 -0.1064 -0.9147 -0.7494
  250MPD2    H1 3848   3.853   4.126  13.291  2.1816 -0.7822 -1.0715
  250MPD2    H2 3849   4.032   4.492  13.370 -1.9352  0.3957  1.1170
  250MPD2    H3 3850   3.920   4.304  13.444 -0.6972  1.8267 -1.1729
  250MPD2     N 3851   3.855   4.156  13.025 -0.2189  0.0608 -1.1801
  250MPD2    H5 3852   3.827   4.068  13.068  0.5127  0.2859 -0.2454
  250MPD2    N1 3853   4.107   4.555  13.134  0.3812  0.4039  0.1497
  250MPD2    H7 3854   4.118   4.629  13.203  0.3934 -0.2796  0.8946
  251TMC3    C1 3855   4.292   4.660  13.022  0.6009  0.2733 -0.2371
  251TMC3    C2 3856   4.245   0.047  13.055 -0.1833 -0.0070  0.8515
  251TMC3    C3 3857   4.302   0.155  12.996 -0.1038 -0.1787  0.7072
  251TMC3    C4 3858   4.401   4.636  12.946 -0.1948  0.2692  0.1947
  251TMC3    C5 3859   4.468   0.022  12.892 -0.0070  0.1664  0.0346
  251TMC3    C6 3860   4.416   0.145  12.923 -0.7085  0.0706 -0.1669
  251TMC3     C 3861   4.196   4.549  13.025  0.0875 -0.7001  0.6811
  251TMC3     O 3862   4.213   4.465  12.938  0.2850  0.7482 -0.2096
  251TMC3     H 3863   4.154   0.058  13.114 -2.2796 -0.0776 -2.3598
  251TMC3    H1 3864   4.437   4.534  12.937 -1.5380 -0.0214 -1.8263
  251TMC3    H2 3865   4.445   0.232  12.866  1.4596 -0.1027  0.6751
  251TMC3    C7 3866   4.582   0.004  12.810  0.4327 -0.4049  0.2389
  251TMC3    C8 3867   4.238   0.281  13.028 -0.5035  0.4567 -0.3742
  251TMC3    O1 3868   4.615   4.619  12.783  0.1901  0.3076 -0.5683
  251TMC3    O2 3869   4.121   0.271  13.064  0.5682  0.5625  0.3300
  252TMC3    C1 3870   1.292   1.837   9.808  0.6149  1.0889 -0.1425
  252TMC3    C2 3871   1.154   1.845   9.804 -0.1688 -0.0773  0.4445
  252TMC3    C3 3872   1.095   1.725   9.805 -0.5969 -0.6028 -0.5040
  252TMC3    C4 3873   1.367   1.723   9.809 -0.3430  0.1999 -0.3356
  252TMC3    C5 3874   1.302   1.603   9.806 -0.0754 -0.6064  0.3003
  252TMC3    C6 3875   1.167   1.603   9.809 -0.0262  0.3468 -0.2448
  252TMC3     C 3876   1.365   1.965   9.816 -0.0195  0.1171 -0.2021
  252TMC3     O 3877   1.484   1.959   9.855  0.9473 -1.2167  0.2433
  252TMC3     H 3878   1.097   1.937   9.809 -0.0224 -0.0333  1.2487
  252TMC3    H1 3879   1.471   1.723   9.781 -0.5257 -2.8315 -1.0865
  252TMC3    H2 3880   1.129   1.512   9.764 -0.2162  0.1800  0.2474
  252TMC3    C7 3881   1.375   1.484   9.840 -0.2292 -0.0351 -0.0672
  252TMC3    C8 3882   0.949   1.723   9.772  0.3042  0.1503 -0.5839
  252TMC3    O1 3883   1.494   1.477   9.820 -0.1086  0.1325 -0.6659
  252TMC3    O2 3884   0.886   1.823   9.740  0.4728 -0.1150  0.0378
  253MPD2     C 3885   1.039   4.316  15.067 -0.1521 -0.4307  0.9552
  253MPD2    C1 3886   0.914   4.272  15.082  0.5004 -0.0125  0.0670
  253MPD2    C2 3887   0.840   4.285  15.199  0.3222 -0.0183 -0.1169
  253MPD2    C3 3888   0.899   4.343  15.307 -0.0928 -0.0151 -0.1395
  253MPD2    C4 3889   1.030   4.382  15.293 -0.1934 -0.6658  0.1728
  253MPD2    C5 3890   1.097   4.374  15.176 -0.5948  0.4487 -0.2246
  253MPD2     H 3891   0.740   4.247  15.215  0.2562  0.6139  0.9263
  253MPD2    H1 3892   1.082   4.421  15.379  0.1108 -1.2245  0.2413
  253MPD2    H2 3893   1.095   4.287  14.978  0.1461 -0.4068  1.1356
  253MPD2    H3 3894   1.197   4.414  15.171 -0.1652 -0.4429  1.5104
  253MPD2     N 3895   0.831   4.359  15.429  0.2765  0.2612  0.1332
  253MPD2    H5 3896   0.876   4.381  15.517  1.3561 -3.7315  0.5410
  253MPD2    N1 3897   0.844   4.208  14.983  0.5986 -0.1254 -0.1569
  253MPD2    H7 3898   0.753   4.176  15.016  0.1027  0.5508 -0.9076
  254TMC3    C1 3899   0.654   4.324  15.562 -0.6906  0.5712  0.0451
  254TMC3    C2 3900   0.539   4.382  15.607 -0.1759  0.2216 -0.2125
  254TMC3    C3 3901   0.499   4.335  15.726 -0.5719  0.3004  0.6923
  254TMC3    C4 3902   0.723   4.224  15.625  0.1648  0.0937 -0.1623
  254TMC3    C5 3903   0.677   4.177  15.743 -0.5323  0.7362 -0.1480
  254TMC3    C6 3904   0.566   4.234  15.789 -0.2807  0.2829  0.0456
  254TMC3     C 3905   0.696   4.366  15.430  0.0916 -0.7949 -0.0658
  254TMC3     O 3906   0.618   4.407  15.344  0.2388  0.1145  0.2637
  254TMC3     H 3907   0.484   4.460  15.557  0.1528 -0.4080 -1.5397
  254TMC3    H1 3908   0.814   4.184  15.581  0.7196  0.4741  0.6237
  254TMC3    H2 3909   0.533   4.210  15.890 -3.3696  1.7677 -0.6013
  254TMC3    C7 3910   0.753   4.113  15.850  0.3154 -1.0028  0.5918
  254TMC3    C8 3911   0.436   4.424  15.826 -0.1673 -0.7709  0.3607
  254TMC3    O1 3912   0.688   4.058  15.942  0.2284  0.0076  0.0992
  254TMC3    O2 3913   0.361   4.377  15.910 -0.2803  0.4436 -0.2518
  255MPD2     C 3914   3.694   3.536  10.522 -0.2399  0.0696  0.9078
  255MPD2    C1 3915   3.762   3.556  10.405  0.3586 -0.4417 -0.6302
  255MPD2    C2 3916   3.891   3.511  10.388  0.2011  0.5386  0.8276
  255MPD2    C3 3917   3.961   3.462  10.499 -0.4270 -0.2035 -0.1030
  255MPD2    C4 3918   3.890   3.460  10.618 -0.0355  0.0238 -0.0907
  255MPD2    C5 3919   3.762   3.504  10.629 -0.3929  0.5170  0.2699
  255MPD2     H 3920   3.938   3.510  10.290  0.6368  3.4027  1.0171
  255MPD2    H1 3921   3.919   3.414  10.712 -0.6781 -1.3252 -0.5584
  255MPD2    H2 3922   3.592   3.570  10.538 -0.6456 -1.2842  1.2154
  255MPD2    H3 3923   3.716   3.498  10.727  0.3502 -1.8182  0.4755
  255MPD2     N 3924   4.086   3.398  10.481  0.3419  0.1728  0.4278
  255MPD2    H5 3925   4.103   3.375  10.383  0.0952 -2.5580  1.0219
  255MPD2    N1 3926   3.679   3.598  10.292 -0.4827  0.5915 -0.1516
  255MPD2    H7 3927   3.579   3.606  10.303 -0.3194  3.1000 -0.5644
  256TMC3    C1 3928   3.630   3.662  10.072  0.8299  0.1753 -0.1948
  256TMC3    C2 3929   3.654   3.762   9.986  1.0434  0.7390 -0.0115
  256TMC3    C3 3930   3.571   3.767   9.878 -0.3071 -0.4214  0.0150
  256TMC3    C4 3931   3.540   3.561  10.058  0.1222 -0.2931 -0.0243
  256TMC3    C5 3932   3.455   3.569   9.949 -0.5235  0.2829 -0.5785
  256TMC3    C6 3933   3.470   3.672   9.858  0.0481 -0.0627  0.2946
  256TMC3     C 3934   3.727   3.647  10.176 -0.3202 -0.1349 -0.2710
  256TMC3     O 3935   3.839   3.678  10.138  1.1652 -0.5214 -0.2166
  256TMC3     H 3936   3.730   3.838  10.002  1.5704  0.1815  0.1263
  256TMC3    H1 3937   3.546   3.473  10.120 -1.0292 -0.8745 -0.7219
  256TMC3    H2 3938   3.406   3.675   9.771 -2.2293 -2.1111  1.8917
  256TMC3    C7 3939   3.373   3.458   9.917  0.6927 -0.1944 -0.2642
  256TMC3    C8 3940   3.596   3.854   9.760  0.8186 -0.0800  0.9251
  256TMC3    O1 3941   3.359   3.415   9.804  0.8070 -0.1986 -0.0973
  256TMC3    O2 3942   3.501   3.883   9.692 -0.3737 -0.1224 -0.1650
  257MPD2     C 3943   3.194   4.199  13.231 -0.6283 -0.1152 -0.1670
  257MPD2    C1 3944   3.150   4.113  13.130  0.7708 -0.5239 -0.3501
  257MPD2    C2 3945   3.180   3.979  13.153  0.6332  0.5295  0.7812
  257MPD2    C3 3946   3.229   3.928  13.269 -0.0515  0.2710  0.1568
  257MPD2    C4 3947   3.249   4.015  13.369 -0.2400 -0.1976  0.1702
  257MPD2    C5 3948   3.238   4.149  13.353 -0.0065  0.7840  1.3028
  257MPD2     H 3949   3.161   3.905  13.076  1.0941  1.4025 -0.1742
  257MPD2    H1 3950   3.270   3.988  13.471  0.6810  2.7830  0.7604
  257MPD2    H2 3951   3.181   4.306  13.229  2.0520  0.2379  0.7790
  257MPD2    H3 3952   3.258   4.206  13.444  0.6227  0.5886  1.2892
  257MPD2     N 3953   3.257   3.789  13.276 -0.5524  0.0539 -0.2183
  257MPD2    H5 3954   3.253   3.734  13.191  0.8895 -1.5304  0.7477
  257MPD2    N1 3955   3.085   4.164  13.014 -0.2954  0.3191 -0.0548
  257MPD2    H7 3956   3.081   4.265  13.000 -0.6490  0.4107  0.7057
  258TMC3    C1 3957   3.349   3.586  13.362 -0.5874 -0.1489 -0.0618
  258TMC3    C2 3958   3.325   3.533  13.240 -0.1909 -0.2939  0.0279
  258TMC3    C3 3959   3.358   3.393  13.228  0.1524  0.0691 -0.0869
  258TMC3    C4 3960   3.392   3.516  13.472  0.0853  0.4256  0.1264
  258TMC3    C5 3961   3.423   3.381  13.458 -0.0347  0.0231 -0.0632
  258TMC3    C6 3962   3.404   3.317  13.337 -0.4068 -0.8265  0.5372
  258TMC3     C 3963   3.312   3.727  13.384 -0.2776 -0.3926 -0.7086
  258TMC3     O 3964   3.329   3.780  13.493 -0.4734  0.1036 -0.3347
  258TMC3     H 3965   3.297   3.585  13.149 -0.0060  0.7899  0.5923
  258TMC3    H1 3966   3.397   3.562  13.570 -0.2967  0.0751  0.3112
  258TMC3    H2 3967   3.431   3.215  13.315  0.8160  0.1229 -2.3276
  258TMC3    C7 3968   3.501   3.303  13.548 -0.0950  0.2828  0.1531
  258TMC3    C8 3969   3.401   3.351  13.094 -0.4018 -0.6317 -0.4413
  258TMC3    O1 3970   3.503   3.183  13.527 -0.5008  0.0391  0.6460
  258TMC3    O2 3971   3.475   3.255  13.095 -0.7404 -0.0846 -0.3506
  259MPD2     C 3972   1.897   1.045   0.591  1.1106  0.1330 -0.1814
  259MPD2    C1 3973   1.946   0.917   0.592  0.4493  0.0429 -0.4312
  259MPD2    C2 3974   2.057   0.894   0.509 -0.1523 -0.5125  0.0956
  259MPD2    C3 3975   2.118   0.991   0.437  0.2507 -0.1893  0.1153
  259MPD2    C4 3976   2.068   1.119   0.435  0.7644  0.0861  0.4269
  259MPD2    C5 3977   1.955   1.141   0.510  0.2067 -0.5538 -0.3168
  259MPD2     H 3978   2.108   0.799   0.525  1.8923  0.4606 -0.6654
  259MPD2    H1 3979   2.112   1.204   0.385 -0.0413  0.3440  0.1625
  259MPD2    H2 3980   1.805   1.073   0.642  0.3453  0.1167 -1.5479
  259MPD2    H3 3981   1.920   1.243   0.511  0.5013 -0.4572  0.4852
  259MPD2     N 3982   2.243   0.962   0.376 -0.1542 -0.7213 -0.7200
  259MPD2    H5 3983   2.267   0.864   0.372 -0.5525 -0.8083 -0.9178
  259MPD2    N1 3984   1.883   0.826   0.675  0.0090  0.4413 -0.0179
  259MPD2    H7 3985   1.819   0.869   0.742 -1.4270 -2.0298  0.1875
  260TMC3    C1 3986   2.466   0.984   0.349 -0.3517 -0.3029  1.3368
  260TMC3    C2 3987   2.570   1.062   0.315 -0.0807  0.3957 -0.0783
  260TMC3    C3 3988   2.693   0.997   0.317 -0.8723 -0.1398  0.0391
  260TMC3    C4 3989   2.481   0.858   0.412 -0.3054 -0.2007  0.0572
  260TMC3    C5 3990   2.608   0.802   0.403  0.6765 -0.1876 -0.2515
  260TMC3    C6 3991   2.718   0.868   0.359  0.7066 -0.2446 -0.5821
  260TMC3     C 3992   2.346   1.052   0.358  0.0502  0.0436 -0.2989
  260TMC3     O 3993   2.343   1.166   0.316 -0.1761  0.1196 -0.3549
  260TMC3     H 3994   2.569   1.164   0.278 -0.9854  0.1959 -0.5898
  260TMC3    H1 3995   2.398   0.803   0.456  0.5824 -0.9188  0.8375
  260TMC3    H2 3996   2.818   0.826   0.351  1.0295  0.7457 -1.7207
  260TMC3    C7 3997   2.596   0.684   0.324  0.7276  0.3150 -0.1361
  260TMC3    C8 3998   2.766   1.041   0.200 -0.3352 -0.3834 -0.1588
  260TMC3    O1 3999   2.643   0.701   0.212  0.5552 -0.4264  0.4757
  260TMC3    O2 4000   2.767   1.158   0.171  0.2225 -0.1047  0.6565
  261MPD2     C 4001   4.186   4.017  12.271 -0.5082 -0.3955  0.6139
  261MPD2    C1 4002   4.053   4.057  12.279 -0.4831  0.2260 -0.6758
  261MPD2    C2 4003   3.997   4.124  12.170 -0.2887  0.3191 -0.6126
  261MPD2    C3 4004   4.064   4.138  12.049  0.4381 -0.0249 -0.8659
  261MPD2    C4 4005   4.194   4.092  12.045 -0.2425 -0.4331 -0.2151
  261MPD2    C5 4006   4.252   4.051  12.158 -0.3882  0.6163  0.5424
  261MPD2     H 4007   3.901   4.173  12.173 -0.5203 -0.0824 -1.4501
  261MPD2    H1 4008   4.267   4.101  11.966  0.3912 -0.2892  0.3828
  261MPD2    H2 4009   4.234   3.965  12.353 -0.2526  0.7135  1.1658
  261MPD2    H3 4010   4.359   4.038  12.148 -0.9654  0.0234 -4.5729
  261MPD2     N 4011   4.003   4.201  11.936  0.2983  0.3702  0.2863
  261MPD2    H5 4012   3.920   4.258  11.946  0.1380  0.0956  0.5095
  261MPD2    N1 4013   3.986   4.029  12.400 -0.0852  0.1080 -0.0539
  261MPD2    H7 4014   4.048   3.995  12.473  0.8872  0.4069 -0.7335
  262TMC3    C1 4015   3.975   4.287  11.725 -0.1051 -0.1475  0.0668
  262TMC3    C2 4016   3.836   4.296  11.729 -0.3635 -0.2733 -0.6881
  262TMC3    C3 4017   3.772   4.364  11.627 -0.1432 -0.0477 -0.2026
  262TMC3    C4 4018   4.039   4.336  11.617  0.3719 -0.3048  0.1571
  262TMC3    C5 4019   3.974   4.384  11.507  0.3760  0.4755 -0.3159
  262TMC3    C6 4020   3.841   4.401  11.512 -0.0962  0.4586 -0.5566
  262TMC3     C 4021   4.053   4.195  11.810 -0.4280  0.1626  0.6878
  262TMC3     O 4022   4.142   4.132  11.755  0.1840 -0.3045  0.5453
  262TMC3     H 4023   3.777   4.246  11.805 -0.3940  0.2011 -0.3979
  262TMC3    H1 4024   4.146   4.319  11.605 -0.1157 -2.4430 -1.0803
  262TMC3    H2 4025   3.788   4.444  11.428 -0.8002 -2.1258 -1.4644
  262TMC3    C7 4026   4.057   4.469  11.420  0.2634  0.4225 -0.4899
  262TMC3    C8 4027   3.654   4.442  11.646 -0.6773  1.0642  0.1514
  262TMC3    O1 4028   4.179   4.475  11.440 -0.5600  0.5260  0.6202
  262TMC3    O2 4029   3.624   4.533  11.569 -0.1312  0.3768  0.1491
  263MPD2     C 4030   0.302   3.744  11.913 -0.0102 -0.1676  0.6148
  263MPD2    C1 4031   0.412   3.710  11.828 -0.3102 -0.1992  0.2371
  263MPD2    C2 4032   0.435   3.788  11.723  0.3361 -0.8638  0.2583
  263MPD2    C3 4033   0.356   3.896  11.698  0.1820 -0.2007 -0.6629
  263MPD2    C4 4034   0.242   3.923  11.778  0.0090 -0.9893  0.0894
  263MPD2    C5 4035   0.213   3.849  11.883  0.1862 -0.0772  0.2530
  263MPD2     H 4036   0.524   3.777  11.662 -0.1368  2.8441 -1.1332
  263MPD2    H1 4037   0.164   3.995  11.755  2.2884  2.2470  2.5230
  263MPD2    H2 4038   0.277   3.675  11.994 -2.5985 -1.4990 -1.3129
  263MPD2    H3 4039   0.126   3.874  11.941 -0.8744  0.4430 -1.5732
  263MPD2     N 4040   0.395   3.990  11.596 -0.3870 -0.1475 -0.8573
  263MPD2    H5 4041   0.483   3.972  11.549 -0.7902  0.1722 -1.7295
  263MPD2    N1 4042   0.498   3.604  11.875  0.5612  0.1155 -0.3154
  263MPD2    H7 4043   0.473   3.573  11.969 -0.4987  0.6828 -0.4033
  264TMC3    C1 4044   0.416   4.186  11.481 -0.0312 -0.3987  0.7044
  264TMC3    C2 4045   0.391   4.320  11.483 -0.4552  0.4264 -0.6369
  264TMC3    C3 4046   0.449   4.407  11.389 -0.6207 -0.1810  0.5082
  264TMC3    C4 4047   0.478   4.128  11.370 -0.5497  0.0666 -0.0776
  264TMC3    C5 4048   0.542   4.220  11.294 -0.2832  0.9901 -0.5338
  264TMC3    C6 4049   0.536   4.356  11.303 -0.0879  0.2831  0.6703
  264TMC3     C 4050   0.332   4.106  11.566  0.8253  1.0020 -0.0284
  264TMC3     O 4051   0.217   4.133  11.589 -0.5480 -0.7279  0.0955
  264TMC3     H 4052   0.325   4.341  11.566 -0.0224 -0.5224 -0.0473
  264TMC3    H1 4053   0.501   4.023  11.355  0.9413  0.5638 -1.3312
  264TMC3    H2 4054   0.604   4.419  11.247 -0.4390  0.2326  0.1928
  264TMC3    C7 4055   0.634   4.165  11.196  0.2848 -0.0226  0.5865
  264TMC3    C8 4056   0.452   4.548  11.421  0.2745 -0.2157  0.0970
  264TMC3    O1 4057   0.707   4.076  11.231 -0.7710 -0.3170  0.9295
  264TMC3    O2 4058   0.552   4.613  11.382 -0.2045 -0.4116  0.0248
  265MPD2     C 4059   2.455   3.902  15.723 -0.1124 -0.5743 -0.4477
  265MPD2    C1 4060   2.443   4.008  15.638  0.1313 -0.0664  1.2436
  265MPD2    C2 4061   2.480   3.993  15.506 -0.6347 -0.5673 -0.9604
  265MPD2    C3 4062   2.515   3.868  15.461  0.1515  0.2153 -0.0321
  265MPD2    C4 4063   2.515   3.757  15.544 -0.2564 -0.1005  0.0712
  265MPD2    C5 4064   2.497   3.784  15.680 -0.7630 -0.4050  1.4069
  265MPD2     H 4065   2.464   4.076  15.438 -0.1106 -0.0691 -0.4726
  265MPD2    H1 4066   2.525   3.655  15.507 -1.3234  0.0526 -0.6256
  265MPD2    H2 4067   2.430   3.901  15.829 -3.9695  0.0064 -1.3396
  265MPD2    H3 4068   2.503   3.703  15.752  2.3323 -0.9889  0.5095
  265MPD2     N 4069   2.544   3.830  15.326  0.1859  0.0385  0.2355
  265MPD2    H5 4070   2.559   3.730  15.316 -0.4375  0.0953 -1.2698
  265MPD2    N1 4071   2.382   4.129  15.681 -0.1038 -0.4598  0.8806
  265MPD2    H7 4072   2.373   4.199  15.608  2.9980 -1.9866 -0.9695
  266TMC3    C1 4073   2.312   4.307  15.828 -0.3112 -0.3130  1.0230
  266TMC3    C2 4074   2.298   4.351  15.960 -0.7808  0.4800  0.0892
  266TMC3    C3 4075   2.299   4.488  15.982  0.0695  0.1118 -0.3484
  266TMC3    C4 4076   2.303   4.399  15.726  0.2706 -0.1358 -0.0432
  266TMC3    C5 4077   2.309   4.535  15.757 -0.4195  0.1907 -0.0239
  266TMC3    C6 4078   2.315   4.585  15.883 -0.0348 -0.0086  0.0251
  266TMC3     C 4079   2.347   4.165  15.809  0.4767  0.2046 -0.5585
  266TMC3     O 4080   2.342   4.096  15.911 -0.2170  0.1905  0.1104
  266TMC3     H 4081   2.319   4.283  16.041 -1.7492  2.3721  1.9193
  266TMC3    H1 4082   2.296   4.372  15.621  3.0397  2.4159 -0.8764
  266TMC3    H2 4083   2.316   4.691  15.907  0.9797  0.3932 -1.8213
  266TMC3    C7 4084   2.265   4.620  15.638 -0.6079  0.3492 -0.3259
  266TMC3    C8 4085   2.375   4.517  16.104 -0.6211  0.3164  0.0248
  266TMC3    O1 4086   2.209   4.569  15.539  0.2308 -0.3028 -0.0578
  266TMC3    O2 4087   2.453   4.431  16.142  0.5922 -0.9047 -0.0393
  267MPD2     C 4088   3.741   0.676   0.458  1.3033  0.0037  0.2676
  267MPD2    C1 4089   3.817   0.783   0.508  0.0914  0.4170 -0.3817
  267MPD2    C2 4090   3.754   0.902   0.524 -0.3390  0.7079 -0.0893
  267MPD2    C3 4091   3.620   0.928   0.488 -0.0709 -0.8943 -0.4439
  267MPD2    C4 4092   3.549   0.822   0.441  0.1628 -0.9173 -0.1091
  267MPD2    C5 4093   3.605   0.690   0.429 -0.0983 -0.8475 -0.0619
  267MPD2     H 4094   3.800   0.993   0.563 -1.4325  0.4136  1.9175
  267MPD2    H1 4095   3.444   0.828   0.417  0.0414  0.4098  0.7870
  267MPD2    H2 4096   3.785   0.582   0.425  3.4024  0.8332  0.6968
  267MPD2    H3 4097   3.559   0.609   0.374 -1.3861 -2.0076  2.6917
  267MPD2     N 4098   3.579   1.058   0.505 -0.4066 -0.4981  0.0012
  267MPD2    H5 4099   3.632   1.121   0.563 -1.4461 -1.5847  2.1384
  267MPD2    N1 4100   3.952   0.769   0.511  0.2016 -0.2932  0.0757
  267MPD2    H7 4101   3.992   0.683   0.476 -0.3297 -0.3928 -0.2901
  268TMC3    C1 4102   4.173   0.825   0.537 -1.3038  0.0189  0.0610
  268TMC3    C2 4103   4.194   0.854   0.411  0.4574  0.7302  0.3459
  268TMC3    C3 4104   4.323   0.884   0.363  0.5313 -0.5102  0.1901
  268TMC3    C4 4105   4.277   0.831   0.625 -0.2358 -0.3061  0.1674
  268TMC3    C5 4106   4.402   0.846   0.575 -0.2590 -0.2865  0.2023
  268TMC3    C6 4107   4.428   0.880   0.446 -0.1460  0.5735 -0.5417
  268TMC3     C 4108   4.040   0.852   0.578  0.6366  0.0577  0.0270
  268TMC3     O 4109   4.021   0.939   0.661 -0.4192 -0.0681 -0.2403
  268TMC3     H 4110   4.113   0.857   0.340 -0.3952 -1.5943  1.2296
  268TMC3    H1 4111   4.254   0.825   0.731 -0.5810 -1.5075  0.0247
  268TMC3    H2 4112   4.526   0.922   0.425 -0.8675  1.8564 -1.3376
  268TMC3    C7 4113   4.514   0.865   0.671  0.0740 -0.3189 -1.4478
  268TMC3    C8 4114   4.320   1.000   0.279 -0.0636  0.1735  1.0987
  268TMC3    O1 4115   4.635   0.843   0.650  0.0647  0.2809 -0.5499
  268TMC3    O2 4116   4.204   1.038   0.263  0.1532 -0.5711 -0.6940
  269MPD2     C 4117   0.018   4.583  15.638  1.0949  0.8031  0.1481
  269MPD2    C1 4118   4.627   4.624  15.662  0.3634 -0.0108  0.5319
  269MPD2    C2 4119   4.597   0.029  15.642  0.1330 -0.0097  0.6281
  269MPD2    C3 4120   4.685   0.115  15.597 -0.4269 -0.2166 -0.0792
  269MPD2    C4 4121   0.083   0.069  15.571  0.3012 -0.1408  0.5516
  269MPD2    C5 4122   0.111   4.665  15.591 -0.1682 -0.5689  0.0340
  269MPD2     H 4123   4.496   0.062  15.659  0.5645  0.9623  1.2995
  269MPD2    H1 4124   0.165   0.131  15.535  1.7912 -1.4429  1.7203
  269MPD2    H2 4125   0.055   4.491  15.684 -0.8271  0.3736  0.8272
  269MPD2    H3 4126   0.215   4.640  15.570  0.3446  0.7526  1.0508
  269MPD2     N 4127   4.645   0.246  15.569 -0.1725 -0.0824 -0.3349
  269MPD2    H5 4128   4.552   0.279  15.593  0.8210  1.0634  1.9330
  269MPD2    N1 4129   4.532   4.526  15.703  0.6168  0.4680  0.3326
  269MPD2    H7 4130   4.575   4.435  15.717 -0.5146  0.2051  2.1490
  270TMC3    C1 4131   4.328   4.428  15.774 -0.0866  0.1317 -0.3371
  270TMC3    C2 4132   4.208   4.390  15.720  0.1225  0.2374 -0.2714
  270TMC3    C3 4133   4.148   4.273  15.767 -0.0970 -0.0476 -0.5666
  270TMC3    C4 4134   4.393   4.354  15.872 -0.3271  0.9489  0.3120
  270TMC3    C5 4135   4.337   4.238  15.898  0.6685  0.7182  0.6748
  270TMC3    C6 4136   4.221   4.193  15.847  0.0936 -0.3975  0.7513
  270TMC3     C 4137   4.398   4.544  15.720 -0.2490 -0.2492  0.4922
  270TMC3     O 4138   4.326   4.636  15.693 -0.0372  0.2623 -0.2271
  270TMC3     H 4139   4.176   4.431  15.625  1.3550  0.9198 -0.4009
  270TMC3    H1 4140   4.493   4.373  15.909  0.6059  0.5893 -2.0034
  270TMC3    H2 4141   4.183   4.093  15.867  0.5267 -0.6846  0.1419
  270TMC3    C7 4142   4.428   4.134  15.929  0.3788 -0.2896  0.4336
  270TMC3    C8 4143   4.077   4.207  15.664  0.7112 -0.0248  0.3748
  270TMC3    O1 4144   4.542   4.149  15.889  0.5072 -0.4334  0.2246
  270TMC3    O2 4145   3.955   4.203  15.664 -0.1777  0.6473  0.5659
  271MPD2     C 4146   3.967   4.173  13.842 -0.5149 -1.0302 -0.9437
  271MPD2    C1 4147   3.917   4.222  13.961  1.0746 -0.2536 -0.0818
  271MPD2    C2 4148   3.828   4.325  13.962 -0.7514 -0.2417  0.2189
  271MPD2    C3 4149   3.771   4.363  13.839  0.5964  0.3645 -0.0367
  271MPD2    C4 4150   3.811   4.308  13.726  0.3484 -0.8642 -0.5375
  271MPD2    C5 4151   3.908   4.216  13.726  0.5028 -0.6787  0.5979
  271MPD2     H 4152   3.789   4.354  14.058  0.2160  1.4572  0.1131
  271MPD2    H1 4153   3.765   4.329  13.630 -0.8104 -0.1239  0.1957
  271MPD2    H2 4154   4.043   4.098  13.828  0.0720 -0.7448  0.7614
  271MPD2    H3 4155   3.933   4.171  13.631  2.4586  0.2254  0.6750
  271MPD2     N 4156   3.671   4.459  13.833  0.5178  0.0626 -0.0065
  271MPD2    H5 4157   3.628   4.464  13.741  1.4580  0.7695 -0.4047
  271MPD2    N1 4158   3.971   4.171  14.078  0.5782  0.1415  0.4798
  271MPD2    H7 4159   3.926   4.203  14.163 -0.0367  1.4510 -0.3414
  272TMC3    C1 4160   4.123   4.074  14.226  0.0435 -0.0590  0.5255
  272TMC3    C2 4161   4.241   4.014  14.248 -0.7671  0.0401  0.3308
  272TMC3    C3 4162   4.268   3.963  14.370  0.3081  0.1351 -0.3989
  272TMC3    C4 4163   4.026   4.079  14.328  0.6917 -0.0213 -0.5419
  272TMC3    C5 4164   4.066   4.044  14.453  0.7423 -0.4507 -0.6525
  272TMC3    C6 4165   4.182   3.977  14.476 -0.4819 -1.1531 -0.0792
  272TMC3     C 4166   4.085   4.095  14.088 -0.4650 -0.1096  0.2783
  272TMC3     O 4167   4.169   4.068  14.003  0.5352 -0.7571 -0.1302
  272TMC3     H 4168   4.314   4.004  14.168  0.6132  1.9742  1.3578
  272TMC3    H1 4169   3.924   4.112  14.315 -0.4659 -2.9191  1.2572
  272TMC3    H2 4170   4.210   3.949  14.577  1.1273 -1.5735 -0.6465
  272TMC3    C7 4171   3.990   4.082  14.571  0.3349 -0.2026  0.6014
  272TMC3    C8 4172   4.392   3.886  14.390 -0.2587 -0.5166 -0.4355
  272TMC3    O1 4173   3.868   4.100  14.568  0.2954  0.3342  0.4671
  272TMC3    O2 4174   4.448   3.865  14.282 -0.5572  0.3490  0.0552
  273MPD2     C 4175   0.860   2.312  11.565 -0.4304 -0.9013 -0.0520
  273MPD2    C1 4176   0.962   2.396  11.599 -0.5938 -0.1232  0.0346
  273MPD2    C2 4177   1.033   2.448  11.491  1.0412  0.4968 -1.1171
  273MPD2    C3 4178   0.995   2.424  11.358 -0.1692  0.0283 -0.0393
  273MPD2    C4 4179   0.895   2.336  11.335 -0.2231  0.1261 -0.0143
  273MPD2    C5 4180   0.825   2.277  11.436 -0.0386  1.0912 -0.2284
  273MPD2     H 4181   1.118   2.514  11.501 -2.2265  4.3715  0.9868
  273MPD2    H1 4182   0.860   2.323  11.233 -0.7085 -3.8103  0.6684
  273MPD2    H2 4183   0.793   2.269  11.639  0.1348  0.9930  1.5472
  273MPD2    H3 4184   0.734   2.222  11.414 -0.2031  0.9727  0.7694
  273MPD2     N 4185   1.046   2.509  11.262 -0.3311  0.3692  0.0842
  273MPD2    H5 4186   1.114   2.571  11.304 -0.4376 -1.0272  2.3164
  273MPD2    N1 4187   0.987   2.434  11.732 -0.6677  0.0673  0.1469
  273MPD2    H7 4188   0.919   2.389  11.794 -0.0067  0.7092  1.3311
  274TMC3    C1 4189   1.040   2.647  11.078  0.5551  0.1554  0.4203
  274TMC3    C2 4190   0.955   2.690  10.987  0.1597 -0.2347 -0.5820
  274TMC3    C3 4191   0.948   2.825  10.983  0.6043 -0.0324  0.0309
  274TMC3    C4 4192   1.109   2.724  11.165  0.4294 -0.3849  0.2963
  274TMC3    C5 4193   1.083   2.866  11.163 -0.0969 -0.6353  0.0426
  274TMC3    C6 4194   1.014   2.917  11.063 -0.0952 -0.6562  0.7836
  274TMC3     C 4195   1.018   2.512  11.127 -0.1912 -0.2093  0.5715
  274TMC3     O 4196   0.955   2.444  11.047 -0.1240  0.3466  0.3803
  274TMC3     H 4197   0.894   2.628  10.923  1.2647  0.5651 -2.4337
  274TMC3    H1 4198   1.196   2.696  11.223  1.8518  2.2476 -0.5667
  274TMC3    H2 4199   0.966   3.014  11.066 -1.2749 -1.2462  0.9635
  274TMC3    C7 4200   1.027   2.910  11.292 -0.0506 -0.6257  0.1218
  274TMC3    C8 4201   0.849   2.885  10.895  0.6091 -0.2301 -0.3750
  274TMC3    O1 4202   1.000   3.028  11.312 -0.2964  0.1717  0.1370
  274TMC3    O2 4203   0.743   2.832  10.883  0.7485 -0.2398 -0.0645
  275MPD2     C 4204   0.632   0.705  14.422 -0.5028 -0.0899 -0.2620
  275MPD2    C1 4205   0.648   0.593  14.504 -0.6042 -0.0683  0.4118
  275MPD2    C2 4206   0.558   0.491  14.486  0.2964  0.0456 -0.4034
  275MPD2    C3 4207   0.449   0.510  14.397 -0.2155  0.3921 -0.1068
  275MPD2    C4 4208   0.438   0.619  14.310 -0.7634  0.4963  0.2153
  275MPD2    C5 4209   0.538   0.716  14.320  0.4929 -0.3542  0.4757
  275MPD2     H 4210   0.553   0.408  14.556 -0.1863 -0.0636 -0.5614
  275MPD2    H1 4211   0.363   0.625  14.232  0.2167 -0.9145 -0.8247
  275MPD2    H2 4212   0.707   0.783  14.422  0.8246 -1.3334 -3.4817
  275MPD2    H3 4213   0.544   0.796  14.248 -0.8337 -0.1850  0.5508
  275MPD2     N 4214   0.342   0.421  14.387  0.3111 -1.0774 -0.0205
  275MPD2    H5 4215   0.277   0.442  14.312 -1.5667 -2.6590  1.1895
  275MPD2    N1 4216   0.739   0.585  14.609 -0.4436 -0.0844 -0.6262
  275MPD2    H7 4217   0.745   0.499  14.663 -0.6536 -0.9969 -2.0768
  276TMC3    C1 4218   0.892   0.665  14.769 -0.2154  0.7029  0.0222
  276TMC3    C2 4219   0.934   0.534  14.781  0.2558 -0.3059  0.6628
  276TMC3    C3 4220   0.983   0.496  14.899 -0.0887 -0.5454  0.0504
  276TMC3    C4 4221   0.915   0.764  14.861  0.2299 -0.3306  0.2921
  276TMC3    C5 4222   0.967   0.715  14.979 -0.3275 -0.2640  1.1183
  276TMC3    C6 4223   1.009   0.588  14.997  0.1778  0.9183  0.7322
  276TMC3     C 4224   0.810   0.698  14.655  0.9615  0.2973  0.2334
  276TMC3     O 4225   0.804   0.816  14.630 -0.1887  0.0181  0.4319
  276TMC3     H 4226   0.931   0.458  14.704 -2.3143  1.2607 -0.7552
  276TMC3    H1 4227   0.867   0.861  14.852  0.1796 -0.4572 -0.8384
  276TMC3    H2 4228   1.055   0.560  15.091  0.9377  0.2124  0.1457
  276TMC3    C7 4229   1.049   0.817  15.049 -0.3580  0.0918 -0.4658
  276TMC3    C8 4230   1.041   0.367  14.919 -0.3229  0.8749  0.2741
  276TMC3    O1 4231   1.124   0.777  15.134 -0.0656 -0.4038 -0.1836
  276TMC3    O2 4232   1.129   0.353  14.995  0.5949 -0.5405 -0.0655
  277MPD2     C 4233   2.830   4.025  13.254  0.6106  0.1597 -0.5403
  277MPD2    C1 4234   2.711   4.084  13.283 -0.4468  0.1338  0.8694
  277MPD2    C2 4235   2.628   4.039  13.383  0.1037 -0.1892 -0.1681
  277MPD2    C3 4236   2.663   3.926  13.452  0.1986 -0.3089  0.0881
  277MPD2    C4 4237   2.782   3.864  13.426 -0.2519 -0.2205  0.0056
  277MPD2    C5 4238   2.862   3.913  13.320 -0.1301 -0.0056 -0.6060
  277MPD2     H 4239   2.544   4.104  13.405  0.2270  0.2845 -1.1100
  277MPD2    H1 4240   2.815   3.783  13.490  3.0658  1.6067  0.6259
  277MPD2    H2 4241   2.897   4.072  13.182  1.5997 -0.1643  0.1693
  277MPD2    H3 4242   2.957   3.868  13.295 -0.2149 -0.7224  0.3455
  277MPD2     N 4243   2.587   3.877  13.560  0.0496  0.3618 -0.0887
  277MPD2    H5 4244   2.619   3.791  13.602 -1.1362  0.0626  0.1930
  277MPD2    N1 4245   2.662   4.199  13.219  0.0555 -0.6929 -0.2149
  277MPD2    H7 4246   2.579   4.246  13.254  0.8510 -0.8160  1.8068
  278TMC3    C1 4247   2.428   3.879  13.733  0.3297 -0.2022  0.1254
  278TMC3    C2 4248   2.443   3.743  13.749  0.3916 -0.0093  0.3691
  278TMC3    C3 4249   2.375   3.703  13.863 -0.1610  0.0939 -0.2057
  278TMC3    C4 4250   2.384   3.973  13.826 -0.1638 -0.1754 -0.0963
  278TMC3    C5 4251   2.329   3.928  13.938  0.2777  0.5310 -0.7079
  278TMC3    C6 4252   2.328   3.788  13.958 -0.2003 -0.1345  0.0081
  278TMC3     C 4253   2.472   3.941  13.611 -0.3065 -0.3403 -0.1618
  278TMC3     O 4254   2.412   4.040  13.582 -0.4417 -0.2809  0.1476
  278TMC3     H 4255   2.479   3.671  13.677  0.0169  2.7871 -2.5753
  278TMC3    H1 4256   2.394   4.080  13.815  0.0108 -0.4653 -2.8196
  278TMC3    H2 4257   2.303   3.753  14.058  0.8930 -2.2750 -0.4901
  278TMC3    C7 4258   2.300   4.012  14.050  0.7155  0.2430  0.4340
  278TMC3    C8 4259   2.371   3.559  13.896 -0.5773 -0.0325 -0.0860
  278TMC3    O1 4260   2.360   4.119  14.048  0.1891  0.2163  0.0893
  278TMC3    O2 4261   2.464   3.488  13.851  0.0366 -0.1012  0.3700
  279MPD2     C 4262   1.995   4.007  17.678 -0.4930  0.1326  0.1127
  279MPD2    C1 4263   1.884   4.068  17.720 -0.4296 -0.3698 -0.4743
  279MPD2    C2 4264   1.809   4.140  17.626  0.3297  0.3888 -0.2016
  279MPD2    C3 4265   1.848   4.139  17.494  0.4671 -0.1251  0.5332
  279MPD2    C4 4266   1.963   4.073  17.456 -0.1145  0.3086  0.3533
  279MPD2    C5 4267   2.032   3.997  17.548 -0.8909  0.4480 -0.1747
  279MPD2     H 4268   1.717   4.189  17.655  1.0953  0.9877  1.2181
  279MPD2    H1 4269   1.988   4.072  17.350  0.6995  0.6457  0.5411
  279MPD2    H2 4270   2.043   3.943   0.024 -1.5601 -1.3013 -0.4441
  279MPD2    H3 4271   2.119   3.935  17.534 -0.4503  0.6005  1.9606
  279MPD2     N 4272   1.776   4.202  17.390 -0.4329 -0.0110  0.4365
  279MPD2    H5 4273   1.812   4.191  17.295 -0.9505  0.8447  0.1355
  279MPD2    N1 4274   1.852   4.062   0.128  0.4886 -0.1628  0.0372
  279MPD2    H7 4275   1.892   3.984   0.180  1.9158 -0.2107 -1.1356
  280TMC3    C1 4276   1.736   4.121   0.326 -0.2291  0.3422 -0.2609
  280TMC3    C2 4277   1.684   4.001   0.355  0.6979  0.3422  0.4195
  280TMC3    C3 4278   1.595   3.983   0.462  0.0980  0.0709  0.1930
  280TMC3    C4 4279   1.693   4.233   0.392  0.2886 -0.3809  0.2855
  280TMC3    C5 4280   1.603   4.208   0.496  0.2669  0.1897 -0.1187
  280TMC3    C6 4281   1.565   4.089   0.544  0.3916 -1.0896 -0.4829
  280TMC3     C 4282   1.762   4.155   0.191 -0.8120 -0.3016 -0.6140
  280TMC3     O 4283   1.732   4.273   0.157  0.4896 -0.1456  0.2372
  280TMC3     H 4284   1.688   3.918   0.285  0.3366  0.4631  0.2593
  280TMC3    H1 4285   1.727   4.332   0.364 -1.0895  0.2685  0.9184
  280TMC3    H2 4286   1.477   4.082   0.607  1.4722  2.9187  1.4545
  280TMC3    C7 4287   1.515   4.326   0.521 -0.2555 -0.5954  0.4175
  280TMC3    C8 4288   1.503   3.869   0.459  0.6118 -0.2814 -0.8493
  280TMC3    O1 4289   1.544   4.389   0.621  0.5679 -0.2478 -0.4437
  280TMC3    O2 4290   1.384   3.888   0.477 -0.4487  0.4589  0.4741
  281TMC3    C1 4291   0.235   4.496  13.049 -0.2785  0.2817 -0.2333
  281TMC3    C2 4292   0.256   4.456  12.924 -0.0594  0.1182  0.5559
  281TMC3    C3 4293   0.373   4.508  12.866 -0.2898  0.1272 -0.5174
  281TMC3    C4 4294   0.322   4.571  13.122 -0.1938 -0.7220 -0.5444
  281TMC3    C5 4295   0.443   4.608  13.067  0.3378  0.2109 -0.2545
  281TMC3    C6 4296   0.465   4.581  12.939  0.1023 -0.6966 -0.0913
  281TMC3     C 4297   0.097   4.488  13.089 -0.0249 -0.0134  0.1608
  281TMC3     O 4298   0.033   4.386  13.063  0.5648 -0.0912 -0.5926
  281TMC3     H 4299   0.185   4.399  12.865  0.3093 -0.9501  1.1385
  281TMC3    H1 4300   0.296   4.594  13.225  3.0000 -0.7969  0.2795
  281TMC3    H2 4301   0.563   4.596  12.895  0.4403 -1.5006  0.3958
  281TMC3    C7 4302   0.559   4.615  13.158  0.0908  0.6145  0.3046
  281TMC3    C8 4303   0.339   4.570  12.743 -0.2794  0.6644  1.0405
  281TMC3    O1 4304   0.664   4.633  13.104  0.3627 -0.1804 -0.7529
  281TMC3    O2 4305   0.260   4.512  12.669  0.1392 -0.6476  0.4515
  282MPD2     C 4306   2.413   1.364  15.234  0.8559 -0.0401  0.3732
  282MPD2    C1 4307   2.294   1.422  15.264 -0.3436 -0.2193  0.8084
  282MPD2    C2 4308   2.202   1.431  15.163 -0.1397  0.4198 -0.0004
  282MPD2    C3 4309   2.221   1.384  15.035  0.9542 -0.0463  0.4120
  282MPD2    C4 4310   2.334   1.318  15.006  0.7843  0.0627 -0.4071
  282MPD2    C5 4311   2.424   1.309  15.108  0.3843 -0.2416  0.3618
  282MPD2     H 4312   2.103   1.466  15.191 -0.1431  0.8242 -0.5060
  282MPD2    H1 4313   2.365   1.280  14.909  0.4627 -0.4881 -0.2909
  282MPD2    H2 4314   2.491   1.344  15.306  0.6407  0.9697  0.8808
  282MPD2    H3 4315   2.520   1.265  15.081  0.2803 -0.5497  0.4949
  282MPD2     N 4316   2.121   1.400  14.934  0.5729  0.4202 -0.3119
  282MPD2    H5 4317   2.059   1.479  14.951 -1.8863 -1.9447  1.8054
  282MPD2    N1 4318   2.245   1.439  15.393  0.4997 -0.2350 -0.0489
  282MPD2    H7 4319   2.154   1.484  15.398  0.3678 -0.3877 -1.0778
  283TMC3    C1 4320   2.214   1.397  15.619 -0.5482  0.2576  0.4020
  283TMC3    C2 4321   2.181   1.528  15.648  0.7189  0.5066  0.3595
  283TMC3    C3 4322   2.100   1.537  15.759  0.6439 -0.8445 -1.1189
  283TMC3    C4 4323   2.176   1.284  15.696  0.2937 -0.0497  0.0394
  283TMC3    C5 4324   2.096   1.309  15.803  0.0371 -0.4450 -0.0464
  283TMC3    C6 4325   2.052   1.438  15.833 -0.3694  0.2917 -0.1876
  283TMC3     C 4326   2.296   1.376  15.503 -0.1384  0.1716  0.5727
  283TMC3     O 4327   2.374   1.284  15.502 -0.1220  0.2483 -0.2701
  283TMC3     H 4328   2.214   1.607  15.582  2.6898  0.6393  1.5199
  283TMC3    H1 4329   2.199   1.182  15.670 -1.8268 -0.2583 -0.9595
  283TMC3    H2 4330   1.990   1.457  15.919 -0.3032  1.8904 -0.5071
  283TMC3    C7 4331   2.027   1.201  15.874  0.1683 -0.0423 -0.0601
  283TMC3    C8 4332   2.077   1.668  15.816 -0.5820  0.3354 -0.4920
  283TMC3    O1 4333   1.951   1.235  15.962 -0.3230 -0.3752 -0.3987
  283TMC3    O2 4334   2.001   1.674  15.915 -0.2006  0.2664 -0.0101
  284MPD2     C 4335   4.724   0.327  12.071  0.4326  0.2613  0.1464
  284MPD2    C1 4336   0.091   0.425  12.065 -0.6877  0.1534 -0.3964
  284MPD2    C2 4337   0.221   0.376  12.066 -0.3393 -0.1325  0.8096
  284MPD2    C3 4338   0.248   0.239  12.048 -0.0176  0.0157  1.1925
  284MPD2    C4 4339   0.148   0.145  12.042  0.3753  0.7607 -0.5343
  284MPD2    C5 4340   0.020   0.192  12.052 -0.2061 -0.2412  0.1145
  284MPD2     H 4341   0.294   0.452  12.091 -2.6835  2.2538  0.4126
  284MPD2    H1 4342   0.162   0.039  12.025 -0.7980  0.6981 -1.1798
  284MPD2    H2 4343   4.620   0.350  12.089  0.3685 -0.5398  0.7900
  284MPD2    H3 4344   4.673   0.117  12.055 -0.8289  0.3048 -2.3357
  284MPD2     N 4345   0.378   0.191  12.036  0.0234 -0.1436 -0.2928
  284MPD2    H5 4346   0.383   0.090  12.034  2.6972  0.0090 -0.7524
  284MPD2    N1 4347   0.069   0.562  12.077  0.5635  0.0523 -0.1775
  284MPD2    H7 4348   0.152   0.616  12.100  0.5010 -0.9871  2.5523
  285TMC3    C1 4349   4.695   0.761  12.078 -0.5428 -0.2225 -0.7293
  285TMC3    C2 4350   0.072   0.815  12.144  0.4212 -0.8480  0.1186
  285TMC3    C3 4351   0.108   0.939  12.123  0.2743 -0.4514  0.3002
  285TMC3    C4 4352   4.627   0.833  11.983  0.9650  0.0002  0.1955
  285TMC3    C5 4353   4.664   0.960  11.966 -0.0020 -0.9727  0.0006
  285TMC3    C6 4354   0.044   1.010  12.032  0.1514 -0.4883  0.0347
  285TMC3     C 4355   4.681   0.621  12.072  0.1185  0.2557 -0.4429
  285TMC3     O 4356   4.577   0.574  12.039 -0.0718 -0.3328  0.1454
  285TMC3     H 4357   0.118   0.765  12.229  1.2638  1.6107  1.1055
  285TMC3    H1 4358   4.540   0.788  11.937  1.0225  0.4174 -0.3147
  285TMC3    H2 4359   0.064   1.116  12.031 -2.6971  0.0543  0.1801
  285TMC3    C7 4360   4.607   1.052  11.877  0.2548 -0.0829  0.3408
  285TMC3    C8 4361   0.250   0.956  12.108 -0.3732  0.1073  0.0567
  285TMC3    O1 4362   4.625   1.171  11.891 -0.0326  0.3864  0.4648
  285TMC3    O2 4363   0.298   0.846  12.109 -0.3471 -0.1488  0.4276
  286MPD2     C 4364   0.524   3.756   1.391 -0.1407 -0.3997 -0.1822
  286MPD2    C1 4365   0.520   3.750   1.252  0.3634 -0.0370  0.8218
  286MPD2    C2 4366   0.615   3.677   1.181  0.3411  0.1271 -0.3230
  286MPD2    C3 4367   0.708   3.591   1.244 -0.5015 -0.4087  0.0258
  286MPD2    C4 4368   0.702   3.586   1.384 -0.3537  0.3241 -0.7475
  286MPD2    C5 4369   0.616   3.672   1.450 -0.2040  0.4161 -0.7170
  286MPD2     H 4370   0.617   3.694   1.074 -0.8963 -1.5357 -0.6106
  286MPD2    H1 4371   0.778   3.531   1.438 -0.6267  0.0325 -0.6575
  286MPD2    H2 4372   0.465   3.819   1.456 -2.2002 -1.0899 -1.3846
  286MPD2    H3 4373   0.623   3.664   1.557 -0.5173 -0.4540 -0.7561
  286MPD2     N 4374   0.799   3.513   1.172  0.1713  0.4846  0.2593
  286MPD2    H5 4375   0.875   3.466   1.220  0.1918 -0.2544 -0.5008
  286MPD2    N1 4376   0.431   3.836   1.184  1.1913 -0.2474 -0.8132
  286MPD2    H7 4377   0.452   3.849   1.085  2.2937 -0.7867 -0.6500
  287TMC3    C1 4378   0.897   3.398   0.981  0.0006 -0.0962 -0.7841
  287TMC3    C2 4379   0.872   3.337   0.862  0.5550 -0.9558  0.0010
  287TMC3    C3 4380   0.985   3.274   0.812 -0.0204  0.1655 -0.1849
  287TMC3    C4 4381   1.018   3.401   1.050  0.2236 -0.4009 -0.4782
  287TMC3    C5 4382   1.118   3.323   1.002 -0.3605  0.0176  0.6354
  287TMC3    C6 4383   1.102   3.252   0.885  0.0658 -0.2895  0.3662
  287TMC3     C 4384   0.783   3.472   1.043 -0.1018  0.2660 -0.0812
  287TMC3     O 4385   0.684   3.487   0.969  0.4433  0.3653  0.5143
  287TMC3     H 4386   0.771   3.327   0.823 -0.2315 -1.8271  2.2229
  287TMC3    H1 4387   1.028   3.472   1.131 -1.5643  0.7226 -1.2440
  287TMC3    H2 4388   1.192   3.209   0.843  0.5286  0.7440  0.2829
  287TMC3    C7 4389   1.254   3.354   1.063  0.4021  0.4135 -0.3273
  287TMC3    C8 4390   0.975   3.214   0.686 -0.4628  0.6538 -0.4459
  287TMC3    O1 4391   1.255   3.421   1.163 -0.1098 -0.0717  0.2212
  287TMC3    O2 4392   0.869   3.180   0.638 -0.0952  0.1490  0.3207
  288TMC3    C1 4393   2.810   3.546  14.554 -0.8126  0.5540 -0.1799
  288TMC3    C2 4394   2.698   3.608  14.609 -0.9409  0.2234 -0.4129
  288TMC3    C3 4395   2.683   3.743  14.583 -0.6371  0.3514 -0.0363
  288TMC3    C4 4396   2.905   3.622  14.483 -0.3163 -0.2932  0.3031
  288TMC3    C5 4397   2.885   3.755  14.465 -1.1033  0.9431 -0.0246
  288TMC3    C6 4398   2.770   3.812  14.509  0.1724 -0.6337  0.0198
  288TMC3     C 4399   2.850   3.404  14.579 -0.2062 -0.3846  0.5226
  288TMC3     O 4400   2.946   3.370  14.510 -0.0009  0.2314 -0.5866
  288TMC3     H 4401   2.617   3.555  14.656 -0.3526 -0.5624 -0.2839
  288TMC3    H1 4402   3.002   3.574  14.473  0.1594  1.1444 -2.0085
  288TMC3    H2 4403   2.752   3.918  14.495  0.3986 -0.5732  0.1735
  288TMC3    C7 4404   2.932   3.813  14.338  1.0398 -0.6503  0.2340
  288TMC3    C8 4405   2.575   3.816  14.654 -0.6128  0.4307  0.0075
  288TMC3    O1 4406   2.855   3.887  14.280 -0.3398  0.4623  0.4657
  288TMC3    O2 4407   2.596   3.931  14.689 -0.3157  0.1843  0.0512
  289MPD2     C 4408   2.603   2.956  14.300  0.2100  0.0976  0.3120
  289MPD2    C1 4409   2.535   3.075  14.310  0.0688  0.5949 -0.0622
  289MPD2    C2 4410   2.397   3.072  14.340 -0.5244 -0.2030 -0.4611
  289MPD2    C3 4411   2.326   2.953  14.343 -0.8861 -0.2037 -0.5439
  289MPD2    C4 4412   2.399   2.838  14.350  0.6687 -0.5697  0.4596
  289MPD2    C5 4413   2.538   2.835  14.328 -0.9003 -0.0994  0.2833
  289MPD2     H 4414   2.341   3.164  14.356  1.1901  1.1785 -2.4116
  289MPD2    H1 4415   2.345   2.745  14.356  0.0235 -0.3742 -2.0128
  289MPD2    H2 4416   2.708   2.952  14.273  1.2917 -0.8928  4.6514
  289MPD2    H3 4417   2.582   2.737  14.312 -0.9784  0.4117 -3.0448
  289MPD2     N 4418   2.180   2.947  14.347  0.3358  0.3061  0.2813
  289MPD2    H5 4419   2.136   2.855  14.340 -0.0979  0.4810  0.6917
  289MPD2    N1 4420   2.614   3.187  14.289  0.2301 -0.6160 -0.2128
  289MPD2    H7 4421   2.713   3.172  14.307  0.6946  2.5076 -0.1548
  290TMC3    C1 4422   1.954   3.013  14.386 -0.5770  0.6279 -0.5945
  290TMC3    C2 4423   1.864   3.117  14.376 -0.6379 -0.4377 -0.2946
  290TMC3    C3 4424   1.732   3.092  14.352  0.0435 -0.0601  0.3855
  290TMC3    C4 4425   1.916   2.877  14.386  0.5036 -0.1702  0.5927
  290TMC3    C5 4426   1.784   2.862  14.352 -0.4069  0.4162 -1.0433
  290TMC3    C6 4427   1.690   2.964  14.341  0.6855 -0.1362  0.8618
  290TMC3     C 4428   2.090   3.054  14.363  0.1090 -0.1380 -0.2651
  290TMC3     O 4429   2.120   3.175  14.368 -0.4684 -0.4458 -0.2721
  290TMC3     H 4430   1.905   3.216  14.386 -0.4983 -0.5682  0.4756
  290TMC3    H1 4431   1.990   2.799  14.372  0.5374  0.2761 -1.8107
  290TMC3    H2 4432   1.584   2.944  14.333  0.6648  0.3124  0.0803
  290TMC3    C7 4433   1.731   2.732  14.310  0.2816 -0.5951  0.7244
  290TMC3    C8 4434   1.633   3.194  14.326 -1.0213  0.4426  0.0827
  290TMC3    O1 4435   1.624   2.735  14.252  0.1564 -0.1215  0.2031
  290TMC3    O2 4436   1.523   3.170  14.279  0.1105 -0.2848  0.1481
  291MPD2     C 4437   1.750   2.764   0.845 -0.2710 -0.7761 -0.1464
  291MPD2    C1 4438   1.720   2.667   0.758  0.3922  0.6808 -0.0775
  291MPD2    C2 4439   1.805   2.641   0.653  0.1937  0.0607  0.0673
  291MPD2    C3 4440   1.917   2.719   0.630 -0.4351  0.2224 -0.0765
  291MPD2    C4 4441   1.952   2.808   0.721 -0.0872  0.0169 -0.1200
  291MPD2    C5 4442   1.872   2.830   0.834 -0.0411 -0.2512 -0.2925
  291MPD2     H 4443   1.773   2.572   0.576  0.8709 -2.3737  1.9685
  291MPD2    H1 4444   2.043   2.864   0.701  0.2230 -0.8598 -1.1719
  291MPD2    H2 4445   1.698   2.793   0.935  0.7118  0.6323 -0.0196
  291MPD2    H3 4446   1.898   2.907   0.906  2.3785 -2.1158  0.8019
  291MPD2     N 4447   1.985   2.723   0.505 -0.0254  0.3761  0.8106
  291MPD2    H5 4448   2.056   2.793   0.488  1.1355 -0.5370  1.9452
  291MPD2    N1 4449   1.610   2.578   0.772  0.6550 -0.0276  0.1517
  291MPD2    H7 4450   1.595   2.508   0.700  3.1567 -0.8869  0.4599
  292TMC3    C1 4451   1.399   2.501   0.854  0.9908 -0.1338 -0.5128
  292TMC3    C2 4452   1.317   2.494   0.958  0.2667  0.1560 -0.0778
  292TMC3    C3 4453   1.210   2.405   0.953  0.2404 -0.0643 -0.8949
  292TMC3    C4 4454   1.374   2.424   0.740 -0.5151  0.3663  0.9985
  292TMC3    C5 4455   1.256   2.352   0.728  0.0824  0.4768 -0.4950
  292TMC3    C6 4456   1.178   2.336   0.841 -0.0867 -0.8835 -0.0618
  292TMC3     C 4457   1.519   2.587   0.869  0.9516 -0.7202 -0.4314
  292TMC3     O 4458   1.523   2.654   0.970 -0.0604 -0.5670 -0.0920
  292TMC3     H 4459   1.331   2.548   1.051 -0.3689 -2.7753  1.7209
  292TMC3    H1 4460   1.443   2.432   0.657  1.1775 -0.2627  2.3587
  292TMC3    H2 4461   1.098   2.262   0.846  0.2304 -1.2459 -0.3179
  292TMC3    C7 4462   1.250   2.247   0.630  0.2751 -0.2789 -0.4042
  292TMC3    C8 4463   1.177   2.339   1.077  0.6446  0.5134  0.2824
  292TMC3    O1 4464   1.350   2.222   0.562 -0.9826 -0.6094 -0.3855
  292TMC3    O2 4465   1.256   2.344   1.166 -0.3042 -0.7225  0.8363
  293MPD2     C 4466   3.345   4.144  12.579 -0.1805  0.1281  0.4697
  293MPD2    C1 4467   3.289   4.046  12.658 -0.1917  0.0254 -0.9596
  293MPD2    C2 4468   3.342   4.028  12.787 -0.6196  0.4810  0.3454
  293MPD2    C3 4469   3.433   4.121  12.833 -0.3039 -0.2518 -0.6885
  293MPD2    C4 4470   3.497   4.201  12.744  0.0960  0.2193 -0.1562
  293MPD2    C5 4471   3.449   4.220  12.617  0.1343 -0.5431  0.2965
  293MPD2     H 4472   3.308   3.948  12.853 -1.0963  1.6347  1.4834
  293MPD2    H1 4473   3.589   4.255  12.766 -1.6267  3.3500 -0.6677
  293MPD2    H2 4474   3.316   4.147  12.475 -0.0203 -0.4863  0.4099
  293MPD2    H3 4475   3.480   4.292  12.543 -1.9105  0.0800  0.0579
  293MPD2     N 4476   3.478   4.124  12.970 -0.4404  0.3535 -0.2819
  293MPD2    H5 4477   3.437   4.047  13.022 -1.1752  2.0934  1.6908
  293MPD2    N1 4478   3.171   3.982  12.618  0.0432 -0.4267 -0.0909
  293MPD2    H7 4479   3.123   4.023  12.539  2.1277  3.4590  0.6516
  294TMC3    C1 4480   2.991   3.838  12.601 -0.2556 -0.6713  0.5005
  294TMC3    C2 4481   2.949   3.709  12.608 -0.8518  0.4264 -0.1389
  294TMC3    C3 4482   2.830   3.683  12.551 -0.1665  0.3367 -0.2057
  294TMC3    C4 4483   2.909   3.943  12.558 -0.2447  0.0116 -0.3360
  294TMC3    C5 4484   2.785   3.902  12.514 -0.1741 -0.2175  0.2166
  294TMC3    C6 4485   2.753   3.775  12.494 -0.4100  0.3718  0.2950
  294TMC3     C 4486   3.119   3.866  12.662 -0.6525  0.0631 -0.0367
  294TMC3     O 4487   3.154   3.786  12.749  0.4070  0.1996  0.2833
  294TMC3     H 4488   3.011   3.635  12.658  0.4952  2.0875  0.6447
  294TMC3    H1 4489   2.935   4.046  12.583 -3.1807  0.6970 -0.1752
  294TMC3    H2 4490   2.652   3.755  12.460  0.1137 -0.3328 -0.8650
  294TMC3    C7 4491   2.703   4.004  12.462 -0.2836 -0.2718 -0.2681
  294TMC3    C8 4492   2.808   3.546  12.515  0.1536  0.6554  0.0528
  294TMC3    O1 4493   2.580   3.989  12.475  0.4895  0.8488  0.1075
  294TMC3    O2 4494   2.840   3.464  12.603 -0.0885  0.1000 -0.2195
  295MPD2     C 4495   3.963   2.907   1.150 -0.4011  0.4316 -0.2295
  295MPD2    C1 4496   3.872   2.965   1.069 -0.4901 -0.1310 -0.3093
  295MPD2    C2 4497   3.735   2.941   1.089  0.1991  0.1729 -0.1301
  295MPD2    C3 4498   3.691   2.855   1.188  0.0422  0.0425  0.3625
  295MPD2    C4 4499   3.787   2.784   1.263  0.1323  0.3501  0.6024
  295MPD2    C5 4500   3.918   2.821   1.246  0.0186 -0.5347 -0.1851
  295MPD2     H 4501   3.666   3.002   1.034 -0.7058 -0.3366  0.4394
  295MPD2    H1 4502   3.763   2.714   1.342 -1.4907  0.5971  0.3379
  295MPD2    H2 4503   4.068   2.926   1.136 -0.3252  0.5312  0.4619
  295MPD2    H3 4504   3.997   2.778   1.306  0.4159 -1.9125 -1.6889
  295MPD2     N 4505   3.553   2.840   1.210 -0.8086 -0.0730  0.5676
  295MPD2    H5 4506   3.528   2.758   1.263 -1.6678  0.0797  0.4102
  295MPD2    N1 4507   3.900   3.043   0.953  0.9427 -0.5264  0.5292
  295MPD2    H7 4508   3.829   3.070   0.885 -0.7749 -1.3116  2.0054
  296TMC3    C1 4509   3.321   2.873   1.206  0.3214 -0.2227  0.5359
  296TMC3    C2 4510   3.222   2.962   1.205 -0.2921  0.1809  0.1891
  296TMC3    C3 4511   3.097   2.918   1.236 -0.4282 -0.1219  0.7036
  296TMC3    C4 4512   3.296   2.742   1.224  0.0588 -0.5187  0.2091
  296TMC3    C5 4513   3.170   2.701   1.248  0.3821  0.7503  0.1543
  296TMC3    C6 4514   3.067   2.790   1.255  0.2368  0.1364 -0.6565
  296TMC3     C 4515   3.453   2.925   1.174  0.3266 -0.3646  0.0701
  296TMC3     O 4516   3.468   3.038   1.134  0.6643 -0.0479  0.1650
  296TMC3     H 4517   3.249   3.067   1.214 -0.5483  0.2274  0.3920
  296TMC3    H1 4518   3.371   2.666   1.205  1.2095  0.6299  0.1784
  296TMC3    H2 4519   2.962   2.764   1.261  0.6271 -1.8770 -2.4054
  296TMC3    C7 4520   3.150   2.601   1.346 -0.3057 -0.9952  0.2869
  296TMC3    C8 4521   2.983   3.009   1.208  0.0361 -0.7302 -0.6327
  296TMC3    O1 4522   3.039   2.601   1.397 -0.4832  0.2229 -0.8062
  296TMC3    O2 4523   2.874   2.989   1.268 -0.2212 -0.1810 -0.5508
  297MPD2     C 4524   1.511   4.668  16.604 -0.2098 -1.2521  0.1016
  297MPD2    C1 4525   1.483   4.682  16.471  0.3445 -0.3402  0.2346
  297MPD2    C2 4526   1.544   0.058  16.408 -0.1060 -0.2306 -0.0579
  297MPD2    C3 4527   1.619   0.155  16.474 -0.2220 -0.2816 -0.2672
  297MPD2    C4 4528   1.657   0.129  16.598 -1.5445  0.3678  0.5579
  297MPD2    C5 4529   1.605   0.018  16.663 -0.5253  0.1458 -0.2834
  297MPD2     H 4530   1.506   0.080  16.309  0.0354  0.1205 -0.0359
  297MPD2    H1 4531   1.717   0.201  16.652 -0.1714 -0.1786 -0.2349
  297MPD2    H2 4532   1.461   4.605  16.677 -0.5065  0.2006  1.1568
  297MPD2    H3 4533   1.640   0.005  16.765 -0.2446 -1.9671 -0.6329
  297MPD2     N 4534   1.648   0.277  16.415  0.1019 -1.0263 -0.1653
  297MPD2    H5 4535   1.628   0.293  16.316  0.5192 -1.3068 -0.2966
  297MPD2    N1 4536   1.389   4.608  16.400  0.2196  0.2730 -0.4392
  297MPD2    H7 4537   1.369   4.638  16.306  0.6445 -0.6892 -0.8401
  298TMC3    C1 4538   1.206   4.468  16.368 -0.4957 -0.2336  0.5150
  298TMC3    C2 4539   1.250   4.445  16.237  0.0998  0.7174  0.1871
  298TMC3    C3 4540   1.150   4.444  16.146 -0.4729 -0.0983  0.2175
  298TMC3    C4 4541   1.073   4.464  16.396 -1.0308  0.2201 -0.4122
  298TMC3    C5 4542   0.978   4.470  16.301 -0.2114  0.4354 -1.1445
  298TMC3    C6 4543   1.017   4.458  16.172 -1.1657  0.0679  0.3201
  298TMC3     C 4544   1.298   4.531  16.462  0.2615 -0.3890  0.4376
  298TMC3     O 4545   1.265   4.517  16.578 -0.1911  0.0208 -0.6375
  298TMC3     H 4546   1.355   4.445  16.210  0.2251  2.4304  0.7211
  298TMC3    H1 4547   1.042   4.473  16.500  0.1238 -2.2244  0.1552
  298TMC3    H2 4548   0.943   4.441  16.095 -1.0151 -1.7699  0.5768
  298TMC3    C7 4549   0.859   4.540  16.340  0.0647  0.4471  1.0924
  298TMC3    C8 4550   1.186   4.450  16.004  0.4744 -0.2283 -0.6754
  298TMC3    O1 4551   0.839   4.559  16.460 -0.2883  0.4846  0.0013
  298TMC3    O2 4552   1.109   4.509  15.928 -0.1087  0.0446  0.3011
  299MPD2     C 4553   1.697   4.698  11.448  0.0678 -0.0908  0.2112
  299MPD2    C1 4554   1.719   0.104  11.426  0.4218 -0.3378 -0.2184
  299MPD2    C2 4555   1.694   0.168  11.304 -0.2754  0.2148  0.2319
  299MPD2    C3 4556   1.658   0.086  11.196 -0.0364 -0.0217  0.0978
  299MPD2    C4 4557   1.656   4.683  11.216  0.4703  0.2167 -0.0429
  299MPD2    C5 4558   1.671   4.631  11.339  0.3505 -0.3998  0.5480
  299MPD2     H 4559   1.695   0.275  11.291 -0.0653 -0.1007 -2.3528
  299MPD2    H1 4560   1.626   4.607  11.145  1.0689  0.0172 -0.0784
  299MPD2    H2 4561   1.708   4.643  11.541 -1.4234 -0.5017  0.1438
  299MPD2    H3 4562   1.659   4.524  11.350 -0.7331 -0.3499 -0.1470
  299MPD2     N 4563   1.590   0.136  11.082  0.3772  0.0323 -0.2899
  299MPD2    H5 4564   1.570   0.070  11.008 -1.6494 -0.9145  1.1060
  299MPD2    N1 4565   1.759   0.170  11.550  0.2999  0.0290 -0.5258
  299MPD2    H7 4566   1.767   0.103  11.625  1.6475  1.3483  0.4993
  300TMC3    C1 4567   1.480   0.279  10.941  0.0375  0.1571 -0.6827
  300TMC3    C2 4568   1.553   0.299  10.826  0.1306 -0.1575 -0.3325
  300TMC3    C3 4569   1.500   0.368  10.720 -0.6585 -0.3627  0.3282
  300TMC3    C4 4570   1.355   0.336  10.952 -0.0493  0.5660 -0.1465
  300TMC3    C5 4571   1.303   0.406  10.846  0.7143 -0.1923 -0.5435
  300TMC3    C6 4572   1.376   0.418  10.730 -0.3370 -0.1312  0.9814
  300TMC3     C 4573   1.549   0.268  11.063  0.0661  0.1352  0.2213
  300TMC3     O 4574   1.549   0.372  11.132 -0.2617  0.0306  0.0675
  300TMC3     H 4575   1.658   0.273  10.822 -0.1611 -1.3194 -0.3233
  300TMC3    H1 4576   1.299   0.313  11.042  0.9453 -1.7770 -0.1314
  300TMC3    H2 4577   1.326   0.470  10.649 -0.2681  1.1341  1.7401
  300TMC3    C7 4578   1.192   0.506  10.864  0.5110  0.3755  0.0217
  300TMC3    C8 4579   1.569   0.392  10.595 -0.4308 -0.9033 -0.1370
  300TMC3    O1 4580   1.159   0.580  10.769 -0.5606  0.5284  0.3541
  300TMC3    O2 4581   1.691   0.409  10.600  0.8218  0.3908  0.3958
  301MPD2     C 4582   3.988   1.323   1.120  0.1634  0.0184 -0.1090
  301MPD2    C1 4583   3.858   1.278   1.076  0.3919  0.2764  0.7071
  301MPD2    C2 4584   3.843   1.146   1.040 -0.5015  0.2628 -0.3125
  301MPD2    C3 4585   3.952   1.059   1.054 -0.1442  0.1020  0.7458
  301MPD2    C4 4586   4.073   1.101   1.114  0.3405 -0.4859 -0.2140
  301MPD2    C5 4587   4.089   1.230   1.141 -0.1634  0.3118 -0.4267
  301MPD2     H 4588   3.752   1.120   0.988  0.0728 -0.0972 -1.1369
  301MPD2    H1 4589   4.145   1.024   1.137  0.8171  0.3856  1.1676
  301MPD2    H2 4590   4.007   1.430   1.126  1.2486 -0.1917  0.2950
  301MPD2    H3 4591   4.183   1.267   1.181  0.2173  0.3583 -1.3772
  301MPD2     N 4592   3.946   0.922   1.024 -0.2335 -0.4202 -0.5488
  301MPD2    H5 4593   4.036   0.875   1.019 -0.3281 -0.7968  1.2000
  301MPD2    N1 4594   3.749   1.364   1.052  0.2885 -0.3887  0.0520
  301MPD2    H7 4595   3.672   1.327   0.996  1.9530  1.0292 -3.1634
  302TMC3    C1 4596   3.859   0.711   0.961 -0.2315  0.1221 -0.1487
  302TMC3    C2 4597   3.966   0.657   1.029 -0.1795 -1.0007  0.7421
  302TMC3    C3 4598   3.995   0.530   0.998  0.0614 -0.1118 -0.2724
  302TMC3    C4 4599   3.797   0.645   0.861 -0.3266  0.3318 -0.1503
  302TMC3    C5 4600   3.828   0.515   0.834 -0.0590 -0.3760 -0.0207
  302TMC3    C6 4601   3.924   0.455   0.907 -0.3192  0.5116  0.3056
  302TMC3     C 4602   3.833   0.857   0.974  0.4388 -0.3535  0.4295
  302TMC3     O 4603   3.721   0.896   0.955  0.1613  0.0078  0.3216
  302TMC3     H 4604   4.028   0.714   1.099  0.0544 -2.9898  2.1444
  302TMC3    H1 4605   3.712   0.691   0.812 -1.3911 -1.3445  0.1310
  302TMC3    H2 4606   3.950   0.357   0.869  1.0853  1.0255 -0.0457
  302TMC3    C7 4607   3.759   0.438   0.731  0.5349  0.1861 -0.2516
  302TMC3    C8 4608   4.128   0.488   1.026  0.0911 -0.1912  0.5312
  302TMC3    O1 4609   3.813   0.335   0.687  0.3013  0.2871 -0.8575
  302TMC3    O2 4610   4.179   0.408   0.953 -0.6922 -0.1331 -0.1945
  303MPD2     C 4611   4.690   4.693  10.748  0.6316  1.0643 -0.5865
  303MPD2    C1 4612   4.617   4.655  10.638  0.3243  0.2145  0.5760
  303MPD2    C2 4613   4.612   0.002  10.528  0.3210 -0.1509  0.3304
  303MPD2    C3 4614   4.675   0.123  10.537  0.6731 -0.2165  0.4743
  303MPD2    C4 4615   0.020   0.162  10.646 -0.0080  0.4925  0.7206
  303MPD2    C5 4616   0.033   0.069  10.749 -0.5712 -0.8065  0.0416
  303MPD2     H 4617   4.567   4.702  10.435 -1.2356 -0.6607  1.2598
  303MPD2    H1 4618   0.064   0.259  10.670  2.1013 -0.1418 -0.5689
  303MPD2    H2 4619   4.703   4.624  10.831  2.8699  0.3962 -1.4842
  303MPD2    H3 4620   0.092   0.086  10.838 -0.6441  1.0739 -0.2512
  303MPD2     N 4621   4.652   0.217  10.432  0.2850  0.5456  0.0293
  303MPD2    H5 4622   4.690   0.311  10.438 -1.4201  1.0523  2.8101
  303MPD2    N1 4623   4.546   4.530  10.645 -0.9910  0.1159  0.1464
  303MPD2    H7 4624   4.558   4.477  10.730 -0.3575  0.6427  0.3830
  304TMC3    C1 4625   4.391   4.366  10.602  0.1263 -0.3883  0.0035
  304TMC3    C2 4626   4.322   4.392  10.714 -0.3387 -0.8101 -0.5867
  304TMC3    C3 4627   4.233   4.304  10.750  0.2531  0.7969  0.0563
  304TMC3    C4 4628   4.355   4.271  10.516 -0.0135 -0.2864 -0.5516
  304TMC3    C5 4629   4.268   4.170  10.552  0.1529 -0.1860  0.1608
  304TMC3    C6 4630   4.213   4.187  10.682 -0.1590 -0.1588 -0.4236
  304TMC3     C 4631   4.476   4.466  10.544 -0.0175 -0.2650 -1.2333
  304TMC3     O 4632   4.481   4.492  10.425 -0.3424 -0.0942 -0.4630
  304TMC3     H 4633   4.327   4.490  10.762  1.1209 -0.5755 -1.2268
  304TMC3    H1 4634   4.392   4.274  10.414  0.0498  0.0901 -0.5194
  304TMC3    H2 4635   4.140   4.112  10.709 -1.3349  2.1554  2.7409
  304TMC3    C7 4636   4.178   4.116  10.454 -0.3968  0.4817 -0.0271
  304TMC3    C8 4637   4.118   4.376  10.757  1.3177  0.8893 -0.4024
  304TMC3    O1 4638   4.062   4.094  10.491  0.0993  0.3346  0.2352
  304TMC3    O2 4639   4.120   4.487  10.708  0.5443 -0.7744 -0.2884
  305MPD2     C 4640   2.273   1.529  14.027  0.9754 -0.2125 -0.0193
  305MPD2    C1 4641   2.343   1.408  14.043 -0.0894  0.6332 -0.4814
  305MPD2    C2 4642   2.337   1.305  13.948  0.8006 -0.5101  0.4257
  305MPD2    C3 4643   2.261   1.326  13.839 -0.3597  0.5995  0.2865
  305MPD2    C4 4644   2.201   1.454  13.819 -0.3853  0.6514  0.1079
  305MPD2    C5 4645   2.213   1.559  13.908  0.1144  0.1886  0.5238
  305MPD2     H 4646   2.406   1.222  13.958 -0.8641 -1.9476 -0.0936
  305MPD2    H1 4647   2.140   1.466  13.730  1.2434  0.3133 -1.0541
  305MPD2    H2 4648   2.270   1.594  14.114 -1.6340 -0.0061 -0.2541
  305MPD2    H3 4649   2.165   1.656  13.904  0.7319  0.4581 -0.3158
  305MPD2     N 4650   2.244   1.230  13.743  0.2962  0.2635  0.6039
  305MPD2    H5 4651   2.309   1.151  13.748  1.1676  0.9241 -0.4949
  305MPD2    N1 4652   2.417   1.404  14.166  0.3781  0.0375 -0.3702
  305MPD2    H7 4653   2.410   1.483  14.230  2.6368  0.8407 -1.1050
  306TMC3    C1 4654   2.554   1.318  14.345 -0.1724 -0.2240  0.4208
  306TMC3    C2 4655   2.604   1.200  14.400  0.3410 -0.3457  0.3227
  306TMC3    C3 4656   2.603   1.179  14.530 -0.6973  0.3762  0.2280
  306TMC3    C4 4657   2.489   1.400  14.434  0.3899  0.1054 -0.2804
  306TMC3    C5 4658   2.480   1.368  14.567 -1.0531  0.5130  0.1905
  306TMC3    C6 4659   2.535   1.256  14.618 -0.7091 -0.0570  0.1428
  306TMC3     C 4660   2.500   1.300  14.213  0.3681 -0.4731  0.4414
  306TMC3     O 4661   2.507   1.193  14.165  0.0590  0.1264 -0.3770
  306TMC3     H 4662   2.664   1.141  14.331 -0.2715  0.7420 -1.1423
  306TMC3    H1 4663   2.450   1.499  14.415 -0.1066 -0.1098 -0.3998
  306TMC3    H2 4664   2.515   1.230  14.722  0.2265  1.7519  0.7757
  306TMC3    C7 4665   2.403   1.460  14.649 -0.1460  0.7188  0.8667
  306TMC3    C8 4666   2.682   1.070  14.586 -0.6784  0.0825 -0.5472
  306TMC3    O1 4667   2.311   1.521  14.600 -1.0529  0.5389  0.4148
  306TMC3    O2 4668   2.778   1.029  14.524  0.5806  0.1027 -0.5983
  307MPD2     C 4669   0.180   4.048   0.608  0.0179 -0.1674  0.6367
  307MPD2    C1 4670   0.093   4.152   0.570  1.0614 -0.3957 -0.4465
  307MPD2    C2 4671   4.704   4.165   0.629  0.0866 -0.8923 -0.4932
  307MPD2    C3 4672   4.655   4.077   0.724  0.4890  0.0531 -0.0339
  307MPD2    C4 4673   0.016   3.975   0.758 -0.1948 -0.0172 -0.0761
  307MPD2    C5 4674   0.140   3.962   0.704  0.8717 -0.4747 -0.4542
  307MPD2     H 4675   4.639   4.242   0.590  2.1355  1.5363  0.8717
  307MPD2    H1 4676   4.718   3.900   0.830 -0.6012 -0.1521 -0.3853
  307MPD2    H2 4677   0.274   4.026   0.558 -0.1086  0.3846  0.1514
  307MPD2    H3 4678   0.208   3.885   0.738 -1.3538 -1.8748  0.8124
  307MPD2     N 4679   4.519   4.086   0.769  0.2103 -0.4032  0.2517
  307MPD2    H5 4680   4.460   4.155   0.723  0.7411 -0.4978 -0.5704
  307MPD2    N1 4681   0.130   4.244   0.470 -0.5309 -0.1895  0.4565
  307MPD2    H7 4682   0.080   4.332   0.463  3.1882  2.0243  1.7846
  308TMC3    C1 4683   4.093   4.008   0.903  0.5292 -0.3924  0.6766
  308TMC3    C2 4684   4.077   4.133   0.957 -0.2905  0.0143 -0.2638
  308TMC3    C3 4685   4.182   4.213   0.971 -0.2153 -0.1881 -0.4150
  308TMC3    C4 4686   4.219   3.964   0.877 -0.5435  0.2641  0.9395
  308TMC3    C5 4687   4.326   4.046   0.902 -0.3150  0.4096  0.0484
  308TMC3    C6 4688   4.311   4.174   0.951  0.1269 -0.2665 -0.1814
  308TMC3     C 4689   3.988   3.953   0.820  0.6097  0.4819  0.4179
  308TMC3     O 4690   3.988   3.836   0.786  0.0687 -0.0072 -0.0233
  308TMC3     H 4691   3.980   4.170   0.989 -1.1742 -1.4087 -1.3010
  308TMC3    H1 4692   4.230   3.872   0.821  3.7365  2.3929 -1.7021
  308TMC3    H2 4693   4.394   4.244   0.952  0.8297 -1.1235  1.0953
  308TMC3    C7 4694   4.456   4.011   0.866 -0.3104  0.5014  0.0729
  308TMC3    C8 4695   4.148   4.337   1.020  0.1649 -0.3878  0.2260
  308TMC3    O1 4696   4.493   3.903   0.919  0.7077  0.1730  0.2715
  308TMC3    O2 4697   4.051   4.354   1.095  0.1492  0.2784 -0.2156
  309MPD2     C 4698   3.973   0.127  17.314 -0.6440 -0.2196  0.7367
  309MPD2    C1 4699   3.919   0.186  17.199  0.2506  0.3626 -0.5787
  309MPD2    C2 4700   3.785   0.212  17.201 -0.1998 -0.5198 -0.8007
  309MPD2    C3 4701   3.707   0.185  17.312 -0.3195  0.6134 -0.2898
  309MPD2    C4 4702   3.765   0.128  17.424  0.3343 -0.0330  0.4594
  309MPD2    C5 4703   3.898   0.099  17.425 -0.1965 -0.4154  0.1175
  309MPD2     H 4704   3.734   0.244  17.111  0.7596  1.5876 -0.6001
  309MPD2    H1 4705   3.704   0.104  17.511 -0.6278 -1.1408 -0.5210
  309MPD2    H2 4706   4.075   0.091  17.320 -0.0123  1.5335  0.3965
  309MPD2    H3 4707   3.940   0.044  17.508  0.7345 -1.8408 -1.2696
  309MPD2     N 4708   3.573   0.238  17.321 -0.2899  0.5511 -0.5701
  309MPD2    H5 4709   3.520   0.214  17.405 -2.2941  1.2509 -1.6372
  309MPD2    N1 4710   3.988   0.211  17.077 -0.1047  0.4641 -0.0270
  309MPD2    H7 4711   3.941   0.257  17.000  0.0914 -1.7163 -1.4449
  310TMC3    C1 4712   4.203   0.236  16.961  0.5843 -0.6132  1.2416
  310TMC3    C2 4713   4.160   0.347  16.891  0.0897  0.3562 -0.4547
  310TMC3    C3 4714   4.233   0.397  16.785 -0.3677 -0.3328 -0.5280
  310TMC3    C4 4715   4.330   0.196  16.937  0.0370 -0.3407  0.5666
  310TMC3    C5 4716   4.403   0.249  16.828 -0.3270  0.5209  0.1027
  310TMC3    C6 4717   4.352   0.343  16.747  0.5291 -0.2091  0.3988
  310TMC3     C 4718   4.122   0.168  17.066  0.1255 -0.3913 -0.4010
  310TMC3     O 4719   4.188   0.087  17.138 -0.3036  0.1415 -0.2856
  310TMC3     H 4720   4.066   0.395  16.918  0.3761  0.8971 -0.4117
  310TMC3    H1 4721   4.348   0.093  16.966  0.6322 -0.4623 -0.2314
  310TMC3    H2 4722   4.411   0.381  16.664  0.4967 -0.6813  0.1580
  310TMC3    C7 4723   4.507   0.162  16.770  0.2535  0.0940 -0.2606
  310TMC3    C8 4724   4.147   0.450  16.685 -0.8917 -0.6633  0.4314
  310TMC3    O1 4725   4.523   0.183  16.653 -0.2965 -0.1356  0.8062
  310TMC3    O2 4726   4.031   0.404  16.683 -0.2264 -1.1891  0.2061
  311MPD2     C 4727   1.046   1.383  12.502 -0.5821  0.2683  0.2219
  311MPD2    C1 4728   1.103   1.347  12.623 -0.7876  0.0132 -0.1848
  311MPD2    C2 4729   1.022   1.310  12.725 -0.3763  0.5389  0.6498
  311MPD2    C3 4730   0.888   1.281  12.692 -0.1233  0.1857  0.3242
  311MPD2    C4 4731   0.830   1.303  12.573  0.2746  0.2009 -0.0339
  311MPD2    C5 4732   0.914   1.353  12.477  0.2653  0.4837 -0.3296
  311MPD2     H 4733   1.061   1.300  12.826  0.6725  1.5384  0.3505
  311MPD2    H1 4734   0.726   1.287  12.548  0.4588  0.2707 -0.8486
  311MPD2    H2 4735   1.104   1.424  12.420  0.7677  0.8842  1.4909
  311MPD2    H3 4736   0.886   1.364  12.373  0.2266  1.3216 -0.2343
  311MPD2     N 4737   0.815   1.214  12.795  0.1682  0.1928 -0.3909
  311MPD2    H5 4738   0.838   1.234  12.892 -0.7023 -4.4530  0.8114
  311MPD2    N1 4739   1.243   1.371  12.645  0.0021 -0.2263 -0.2444
  311MPD2    H7 4740   1.284   1.365  12.737 -1.6492 -0.2469  0.4850
  312TMC3    C1 4741   0.646   1.085  12.901 -0.1944  0.1138  0.2574
  312TMC3    C2 4742   0.508   1.062  12.900  0.7910 -0.8472 -0.5302
  312TMC3    C3 4743   0.448   1.029  13.021 -0.0951 -0.4938 -0.2073
  312TMC3    C4 4744   0.708   1.088  13.015  0.3953 -0.1246 -0.4400
  312TMC3    C5 4745   0.649   1.052  13.140  0.6318  0.3656  0.0460
  312TMC3    C6 4746   0.512   1.022  13.140  0.3019  0.1729  0.3702
  312TMC3     C 4747   0.700   1.146  12.777  0.2993 -0.3248 -0.1404
  312TMC3     O 4748   0.629   1.137  12.678  0.2521 -0.3044 -0.2902
  312TMC3     H 4749   0.453   1.058  12.807  1.8961 -0.4802 -1.1981
  312TMC3    H1 4750   0.817   1.088  13.016  0.3936 -1.6532  0.0247
  312TMC3    H2 4751   0.460   1.005  13.234  0.2654  3.3904  0.9308
  312TMC3    C7 4752   0.718   1.044  13.267 -0.3136 -0.5097  0.1102
  312TMC3    C8 4753   0.303   1.025  13.021  0.2839  0.3201 -0.4254
  312TMC3    O1 4754   0.656   0.967  13.337  0.3063 -0.4027  0.2433
  312TMC3    O2 4755   0.245   0.933  13.076 -0.1545  0.0336 -0.2782
  313MPD2     C 4756   0.258   1.110  11.589 -0.8945 -0.1113  0.4436
  313MPD2    C1 4757   0.303   1.101  11.461  0.5711  0.3677  0.1228
  313MPD2    C2 4758   0.327   0.975  11.401  0.2594 -0.2599  0.2083
  313MPD2    C3 4759   0.318   0.860  11.468 -0.2876  0.9573  0.4010
  313MPD2    C4 4760   0.268   0.863  11.597  0.4017 -1.0390  0.5131
  313MPD2    C5 4761   0.241   0.988  11.651  0.9811  0.4467 -0.3911
  313MPD2     H 4762   0.369   0.986  11.301 -1.7902  1.0647 -0.5123
  313MPD2    H1 4763   0.251   0.774  11.656  1.0575 -0.9503  0.8312
  313MPD2    H2 4764   0.230   1.206  11.630  1.2367 -0.4750  2.7353
  313MPD2    H3 4765   0.198   0.985  11.751  1.1606 -2.0533 -0.3986
  313MPD2     N 4766   0.358   0.746  11.402  0.1131  0.4918 -1.2081
  313MPD2    H5 4767   0.382   0.760  11.304 -0.4620  1.4053 -1.2199
  313MPD2    N1 4768   0.310   1.209  11.369 -1.0809  0.3051 -0.1511
  313MPD2    H7 4769   0.302   1.185  11.270  0.3016  0.5281 -0.3116
  314TMC3    C1 4770   0.304   1.425  11.292 -0.2700  0.1527 -0.0733
  314TMC3    C2 4771   0.429   1.466  11.263 -0.0697  0.1820 -0.0681
  314TMC3    C3 4772   0.466   1.445  11.131 -0.0846  0.1406  0.5697
  314TMC3    C4 4773   0.219   1.378  11.202  0.1008 -0.3073  1.0260
  314TMC3    C5 4774   0.262   1.358  11.068 -0.0062  0.3133  0.1889
  314TMC3    C6 4775   0.389   1.399  11.028  0.1295 -0.1352  0.0520
  314TMC3     C 4776   0.302   1.342  11.413 -0.2656  0.3248 -0.3235
  314TMC3     O 4777   0.341   1.388  11.522  0.2216 -0.1810  0.3620
  314TMC3     H 4778   0.488   1.504  11.345 -0.3822 -1.4071  0.8759
  314TMC3    H1 4779   0.123   1.339  11.235  0.9831 -1.1706  2.5206
  314TMC3    H2 4780   0.436   1.391  10.930  0.5223  1.9972  0.0676
  314TMC3    C7 4781   0.195   1.254  10.990 -0.5035 -0.2930  0.1290
  314TMC3    C8 4782   0.611   1.466  11.101  0.6961  0.2773 -0.1219
  314TMC3    O1 4783   0.116   1.192  11.059  0.2988  0.3782  0.0971
  314TMC3    O2 4784   0.635   1.480  10.983  0.7452  0.4116 -0.0853
  315MPD2     C 4785   0.577   3.896  17.669  0.4661 -0.2999  0.3097
  315MPD2    C1 4786   0.648   3.953   0.045  0.1016  1.0689  0.2371
  315MPD2    C2 4787   0.706   4.074   0.026  0.2998  0.3200 -0.5154
  315MPD2    C3 4788   0.685   4.144  17.634  0.2163  0.2808  0.3280
  315MPD2    C4 4789   0.600   4.093  17.538 -0.0165 -0.5334 -0.1493
  315MPD2    C5 4790   0.560   3.965  17.546 -0.3006  0.3136  0.3600
  315MPD2     H 4791   0.773   4.112   0.102 -1.1144  1.4346  0.1826
  315MPD2    H1 4792   0.583   4.139  17.441 -1.9980  0.0869  0.5004
  315MPD2    H2 4793   0.530   3.798  17.678  0.6973 -0.8580 -4.3588
  315MPD2    H3 4794   0.504   3.912  17.470 -0.8938 -0.7218  1.5191
  315MPD2     N 4795   0.753   4.271  17.629  0.0623 -0.1273 -0.1977
  315MPD2    H5 4796   0.811   4.289  17.710 -0.2353  1.8358 -0.4223
  315MPD2    N1 4797   0.677   3.887   0.165  0.2339 -0.1284 -0.6060
  315MPD2    H7 4798   0.726   3.940   0.236 -1.3580 -1.0276  1.1499
  316TMC3    C1 4799   0.817   4.486  17.563 -0.3147  0.3886 -1.0287
  316TMC3    C2 4800   0.905   4.491  17.671 -0.3648  0.7093 -0.1439
  316TMC3    C3 4801   0.938   4.617  17.720  0.0861 -0.5304  0.8504
  316TMC3    C4 4802   0.762   4.595  17.506  0.1387  0.4194  0.2522
  316TMC3    C5 4803   0.786   4.717  17.567 -0.1516 -0.0161  0.2814
  316TMC3    C6 4804   0.871   4.731  17.672  0.1595 -0.4070  0.2142
  316TMC3     C 4805   0.758   4.357  17.524  0.2949 -0.3887 -0.3239
  316TMC3     O 4806   0.705   4.343  17.413  0.1463 -0.6028  0.1666
  316TMC3     H 4807   0.944   4.401  17.717 -0.8217  1.5265  1.8356
  316TMC3    H1 4808   0.687   4.575  17.431 -0.1247  0.2475  0.5606
  316TMC3    H2 4809   0.866   0.087   0.007 -2.0775  1.0600 -1.9943
  316TMC3    C7 4810   0.697   0.092  17.550 -0.2215 -0.6512  0.3871
  316TMC3    C8 4811   0.985   4.627   0.132 -0.6716 -0.6993 -0.3638
  316TMC3    O1 4812   0.683   0.177  17.637  0.1216 -0.1296  0.3800
  316TMC3    O2 4813   0.909   4.690   0.207 -0.0742 -0.2947  0.0785
  317MPD2     C 4814   2.325   2.658  13.061  0.4168 -0.3929  0.4819
  317MPD2    C1 4815   2.463   2.692  13.045 -0.0253 -0.5311 -0.2002
  317MPD2    C2 4816   2.544   2.698  13.157  0.0153 -0.2875 -0.2067
  317MPD2    C3 4817   2.488   2.680  13.286 -0.0674  0.2830 -0.5362
  317MPD2    C4 4818   2.353   2.662  13.297 -0.4592 -0.3229 -0.1461
  317MPD2    C5 4819   2.277   2.641  13.189 -0.3102  0.0833  0.4211
  317MPD2     H 4820   2.649   2.720  13.141 -0.4684  0.0540 -2.9515
  317MPD2    H1 4821   2.303   2.640  13.391  0.9058 -0.6104  0.5228
  317MPD2    H2 4822   2.254   2.625  12.987 -1.9970  1.3926  2.0198
  317MPD2    H3 4823   2.173   2.615  13.204  0.0967 -2.1700 -0.6723
  317MPD2     N 4824   2.564   2.676  13.403  0.3451 -0.2191 -0.4385
  317MPD2    H5 4825   2.520   2.643  13.489  0.4009  1.1480  0.1054
  317MPD2    N1 4826   2.522   2.714  12.913  0.0068  0.2770 -0.4128
  317MPD2    H7 4827   2.618   2.748  12.915  0.3849 -0.7989 -0.4795
  318TMC3    C1 4828   2.756   2.645  13.533 -0.3560 -0.7801 -0.4408
  318TMC3    C2 4829   2.721   2.514  13.559 -0.1449  0.7798  0.5991
  318TMC3    C3 4830   2.809   2.446  13.646 -0.3547  0.6175 -0.4398
  318TMC3    C4 4831   2.874   2.706  13.570 -0.3210 -0.6510 -0.4404
  318TMC3    C5 4832   2.952   2.637  13.655 -0.3911 -0.4423  0.0599
  318TMC3    C6 4833   2.926   2.508  13.687 -0.4192  0.0283 -0.2641
  318TMC3     C 4834   2.702   2.697  13.410  0.1491 -0.4158  0.1384
  318TMC3     O 4835   2.779   2.749  13.329 -0.1010 -0.3224  0.4541
  318TMC3     H 4836   2.647   2.463  13.498 -0.7940 -0.0036  2.0223
  318TMC3    H1 4837   2.901   2.807  13.540 -0.3349 -0.2654  0.8777
  318TMC3    H2 4838   2.997   2.452  13.746  0.3676 -2.7507 -3.8072
  318TMC3    C7 4839   3.081   2.705  13.690  0.8230 -0.3941  0.2596
  318TMC3    C8 4840   2.782   2.310  13.692 -0.6257  0.8155 -0.4563
  318TMC3    O1 4841   3.094   2.824  13.660 -0.4167  0.0171  0.1838
  318TMC3    O2 4842   2.867   2.246  13.748 -0.4197 -0.5486  0.6711
  319MPD2     C 4843   3.432   4.320  16.891 -0.2052 -0.5117 -0.2382
  319MPD2    C1 4844   3.342   4.229  16.943 -0.1563 -0.2457 -0.1809
  319MPD2    C2 4845   3.250   4.169  16.853 -0.5142 -0.0282  0.0299
  319MPD2    C3 4846   3.244   4.199  16.715  0.3525 -0.0989 -0.2747
  319MPD2    C4 4847   3.337   4.287  16.670 -0.0271  0.5085  0.8123
  319MPD2    C5 4848   3.433   4.344  16.756  0.0992 -0.2298  0.2639
  319MPD2     H 4849   3.168   4.107  16.888 -0.5855  0.4983  0.7894
  319MPD2    H1 4850   3.334   4.325  16.569 -2.4459 -2.3368 -0.1988
  319MPD2    H2 4851   3.497   4.377  16.957 -0.4778 -0.8778  0.3436
  319MPD2    H3 4852   3.506   4.411  16.714  1.2392 -1.7641 -0.2036
  319MPD2     N 4853   3.147   4.156  16.625 -0.4921  0.0094  0.3095
  319MPD2    H5 4854   3.151   4.177  16.526 -0.7976 -4.0008 -0.5613
  319MPD2    N1 4855   3.337   4.188  17.076 -0.3314  0.4348  0.0355
  319MPD2    H7 4856   3.262   4.121  17.089 -0.2428  0.1536 -0.8250
  320TMC3    C1 4857   2.953   4.061  16.540 -0.5461  0.8992  0.3737
  320TMC3    C2 4858   2.947   4.166  16.447  0.3101  0.1242  0.2509
  320TMC3    C3 4859   2.878   4.139  16.335  0.5924 -0.4453  0.3546
  320TMC3    C4 4860   2.886   3.943  16.514  0.4727 -0.3681 -0.7326
  320TMC3    C5 4861   2.815   3.922  16.399 -0.4064 -0.0443 -0.2251
  320TMC3    C6 4862   2.813   4.020  16.302  0.1239  0.8020  0.7906
  320TMC3     C 4863   3.039   4.078  16.653  0.9245 -0.1413 -0.3635
  320TMC3     O 4864   3.009   4.017  16.752 -0.0053 -0.3552  0.5667
  320TMC3     H 4865   3.008   4.256  16.448 -0.5164  0.6663  1.0570
  320TMC3    H1 4866   2.910   3.864  16.584  1.9779  0.4449 -0.3187
  320TMC3    H2 4867   2.747   4.010  16.217 -0.1676 -0.9646  1.2234
  320TMC3    C7 4868   2.765   3.789  16.373 -0.2775 -0.0780 -0.3042
  320TMC3    C8 4869   2.874   4.245  16.232  0.3110  0.4465  0.9647
  320TMC3    O1 4870   2.733   3.766  16.256  0.3708 -0.2857  0.0374
  320TMC3    O2 4871   2.935   4.351  16.257 -0.2845 -0.3252 -0.5725
  321TMC3    C1 4872   3.401   4.166  17.299 -0.2943 -0.5667  0.6995
  321TMC3    C2 4873   3.365   4.039  17.301  0.1748  0.9350  0.2222
  321TMC3    C3 4874   3.385   3.971  17.424 -0.8843 -0.3190  0.1146
  321TMC3    C4 4875   3.427   4.241  17.409  0.2391 -0.7613  0.1667
  321TMC3    C5 4876   3.449   4.173  17.521  0.4280  0.0194  0.0657
  321TMC3    C6 4877   3.420   4.039  17.537  0.0555 -0.3017  0.0876
  321TMC3     C 4878   3.424   4.224  17.173  0.3393  0.1830 -0.3463
  321TMC3     O 4879   3.478   4.332  17.179  0.5569 -0.4491 -0.4719
  321TMC3     H 4880   3.335   3.986  17.211  1.7990  0.0502  0.2069
  321TMC3    H1 4881   3.426   4.349  17.416  2.6716 -0.8181  1.6535
  321TMC3    H2 4882   3.416   3.985  17.631 -0.6758 -2.2110 -1.0438
  321TMC3    C7 4883   3.570   4.213  17.596  0.0888  0.3579 -0.4629
  321TMC3    C8 4884   3.461   3.848  17.409 -0.2402 -0.2921  0.2430
  321TMC3    O1 4885   3.613   4.115  17.661  0.4558  0.1873  0.7247
  321TMC3    O2 4886   3.429   3.756  17.342 -0.7856 -0.0475  0.2440
  322MPD2     C 4887   1.857   0.275  13.553  0.4613  0.4349  0.7453
  322MPD2    C1 4888   1.934   0.282  13.665 -0.1275  0.6050  0.1933
  322MPD2    C2 4889   2.009   0.169  13.698 -0.0016  1.0786  0.0911
  322MPD2    C3 4890   2.011   0.055  13.617  0.4326  0.2806  0.0169
  322MPD2    C4 4891   1.955   0.062  13.492  0.1702 -0.1444  0.6483
  322MPD2    C5 4892   1.877   0.172  13.464 -0.3764 -0.4831 -0.2391
  322MPD2     H 4893   2.065   0.174  13.791  0.0934 -1.2247  0.1558
  322MPD2    H1 4894   1.962   4.715  13.417 -1.2067  0.3148  0.0404
  322MPD2    H2 4895   1.799   0.363  13.528 -0.5841 -0.8189 -1.2015
  322MPD2    H3 4896   1.813   0.170  13.376  0.9666  0.3866 -1.2349
  322MPD2     N 4897   2.098   4.679  13.661  0.2854 -0.2255 -0.4575
  322MPD2    H5 4898   2.133   4.689  13.756 -1.9064 -0.4491  0.3749
  322MPD2    N1 4899   1.944   0.407  13.735 -0.4254 -0.3522 -0.2784
  322MPD2    H7 4900   1.920   0.492  13.685 -0.2148 -0.1503 -0.0368
  323TMC3    C1 4901   2.033   0.562  13.891 -0.2547 -0.6669 -0.2816
  323TMC3    C2 4902   2.113   0.634  13.802  0.6546 -0.6545 -0.4359
  323TMC3    C3 4903   2.169   0.751  13.850 -0.1949  0.7612  0.0718
  323TMC3    C4 4904   2.023   0.588  14.026 -0.2027  0.2900  0.6969
  323TMC3    C5 4905   2.090   0.697  14.070 -0.3203 -0.2250 -0.0258
  323TMC3    C6 4906   2.152   0.784  13.984 -0.8407 -0.4022 -0.9928
  323TMC3     C 4907   2.000   0.425  13.859 -0.0969 -0.3086 -0.0726
  323TMC3     O 4908   2.023   0.342  13.945  0.3905  0.5858 -0.1155
  323TMC3     H 4909   2.115   0.603  13.698 -1.0505 -1.0426 -0.3522
  323TMC3    H1 4910   1.972   0.513  14.085  0.3927 -1.6036 -1.1926
  323TMC3    H2 4911   2.202   0.874  14.018  0.3993 -0.7506 -1.8603
  323TMC3    C7 4912   2.115   0.699  14.214  0.0818  0.3470  0.5842
  323TMC3    C8 4913   2.260   0.836  13.779  0.2161  0.2020  0.5707
  323TMC3    O1 4914   2.028   0.644  14.277  0.4009 -0.1386 -0.1672
  323TMC3    O2 4915   2.290   0.939  13.835 -0.2470 -0.5332 -0.1973
  324MPD2     C 4916   3.481   1.506  14.457 -0.0733 -0.6516 -0.4635
  324MPD2    C1 4917   3.558   1.602  14.528  0.1767 -0.0654 -0.0788
  324MPD2    C2 4918   3.503   1.653  14.649  0.0461  0.2446 -0.0206
  324MPD2    C3 4919   3.390   1.603  14.708  1.4076 -0.2384 -0.2266
  324MPD2    C4 4920   3.328   1.496  14.638  0.5785 -0.1114  0.2444
  324MPD2    C5 4921   3.367   1.461  14.513 -0.4321 -0.0070 -0.3214
  324MPD2     H 4922   3.557   1.737  14.692  0.0674 -0.3683  1.1481
  324MPD2    H1 4923   3.233   1.462  14.679  1.3290  0.6207  2.6092
  324MPD2    H2 4924   3.519   1.472  14.362 -0.2735  1.8628 -1.4469
  324MPD2    H3 4925   3.315   1.392  14.448 -1.3853  0.6769 -0.2831
  324MPD2     N 4926   3.313   1.652  14.816 -0.2456 -0.1523 -0.5118
  324MPD2    H5 4927   3.235   1.593  14.842 -1.1394 -0.0983 -3.0291
  324MPD2    N1 4928   3.678   1.660  14.474  0.1539  0.0381  0.4889
  324MPD2    H7 4929   3.717   1.744  14.516 -0.3288  1.3389 -1.6530
  325TMC3    C1 4930   3.235   1.806  14.978  0.0966 -0.5827 -0.8439
  325TMC3    C2 4931   3.166   1.694  15.013  0.4633  0.5218 -0.0224
  325TMC3    C3 4932   3.035   1.702  15.033 -0.0535  0.3890 -0.3056
  325TMC3    C4 4933   3.182   1.927  14.969 -0.3402 -0.6160 -1.2428
  325TMC3    C5 4934   3.048   1.933  15.008  0.0822  0.5662  0.3687
  325TMC3    C6 4935   2.973   1.824  15.040  0.7365  0.1025  0.0270
  325TMC3     C 4936   3.340   1.776  14.882 -0.1307 -0.0043 -0.0528
  325TMC3     O 4937   3.424   1.863  14.860  0.4501 -0.1568 -0.1721
  325TMC3     H 4938   3.211   1.596  15.025 -0.9649 -0.2299 -0.7578
  325TMC3    H1 4939   3.236   2.020  14.955 -1.0711 -0.1210 -0.7936
  325TMC3    H2 4940   2.869   1.824  15.069  0.3259 -0.2434 -1.4385
  325TMC3    C7 4941   2.970   2.047  14.963 -0.1276  0.1110  0.2291
  325TMC3    C8 4942   2.984   1.630  14.911  1.3386 -0.5621  0.2213
  325TMC3    O1 4943   2.867   2.076  15.023 -0.6708  0.0082  0.1215
  325TMC3    O2 4944   3.062   1.545  14.865 -0.3884 -0.3919 -0.6891
  326MPD2     C 4945   0.163   3.562  11.269  0.5647  0.0489 -0.0609
  326MPD2    C1 4946   0.249   3.475  11.206 -0.2968 -0.3245  0.0336
  326MPD2    C2 4947   0.371   3.437  11.259 -0.1600 -0.1065  0.6223
  326MPD2    C3 4948   0.417   3.482  11.384 -0.1540  0.4305  0.3806
  326MPD2    C4 4949   0.335   3.575  11.441 -0.1364 -0.1081  0.0684
  326MPD2    C5 4950   0.209   3.608  11.388 -0.0862 -0.0603 -0.1634
  326MPD2     H 4951   0.430   3.366  11.203  1.1028  2.5941 -1.4713
  326MPD2    H1 4952   0.355   3.621  11.536 -0.7057  0.2621  0.0133
  326MPD2    H2 4953   0.059   3.569  11.240  0.7468  0.5774 -0.5879
  326MPD2    H3 4954   0.143   3.667  11.450 -0.0561  2.0338 -2.1520
  326MPD2     N 4955   0.547   3.459  11.427 -0.2344  0.1998  0.1842
  326MPD2    H5 4956   0.567   3.500  11.517 -0.3037  0.0828  0.2522
  326MPD2    N1 4957   0.225   3.420  11.079 -0.1452 -0.2801 -0.1869
  326MPD2    H7 4958   0.292   3.354  11.042 -0.6550 -0.5156 -0.6843
  327TMC3    C1 4959   0.147   3.398  10.856 -0.1162  0.2253 -0.1499
  327TMC3    C2 4960   0.066   3.467  10.773  0.2652 -0.0913  0.1428
  327TMC3    C3 4961   0.103   3.487  10.641  0.6182 -0.0497 -0.7196
  327TMC3    C4 4962   0.268   3.340  10.815 -0.0828  0.2469 -0.2172
  327TMC3    C5 4963   0.302   3.348  10.685 -0.9992 -0.4209 -0.1965
  327TMC3    C6 4964   0.221   3.424  10.600  0.0740 -0.4015 -0.0551
  327TMC3     C 4965   0.122   3.443  10.992 -0.0819  0.6054  0.0680
  327TMC3     O 4966   0.039   3.532  11.005 -0.2040 -0.0701 -0.3531
  327TMC3     H 4967   4.702   3.508  10.801 -0.7258 -1.2617 -1.5380
  327TMC3    H1 4968   0.343   3.300  10.882 -0.2349 -0.7595 -0.6417
  327TMC3    H2 4969   0.260   3.440  10.500  0.2101  1.3927  0.2833
  327TMC3    C7 4970   0.438   3.326  10.627  0.3535  0.0028  0.5857
  327TMC3    C8 4971   0.093   3.622  10.592  0.8329 -0.2561  0.4940
  327TMC3    O1 4972   0.473   3.394  10.532  0.0702  0.0657 -0.2565
  327TMC3    O2 4973   0.169   3.656  10.501 -0.1041 -0.1387  0.3650
  328MPD2     C 4974   2.563   2.217  17.341 -0.0225  0.1735 -0.3687
  328MPD2    C1 4975   2.491   2.199  17.228 -0.3000  0.0210  0.1006
  328MPD2    C2 4976   2.480   2.298  17.130 -0.1654  0.1643  0.0086
  328MPD2    C3 4977   2.533   2.420  17.169 -1.2308 -0.0081 -0.3131
  328MPD2    C4 4978   2.614   2.440  17.270  0.2293 -0.4206  0.3746
  328MPD2    C5 4979   2.625   2.340  17.362  0.5762 -0.2553 -0.2666
  328MPD2     H 4980   2.427   2.277  17.037 -1.1393  0.2275  0.5512
  328MPD2    H1 4981   2.651   2.537  17.301  0.9316 -0.5150 -0.1609
  328MPD2    H2 4982   2.570   2.137  17.415  2.2543  2.9758  2.4512
  328MPD2    H3 4983   2.691   2.339  17.448  1.4514  2.2509 -0.8999
  328MPD2     N 4984   2.508   2.533  17.092 -0.2222 -0.3998 -0.1616
  328MPD2    H5 4985   2.555   2.621  17.113 -3.3840  1.0994  0.7072
  328MPD2    N1 4986   2.421   2.077  17.211 -0.2345  0.2272  0.1855
  328MPD2    H7 4987   2.409   2.022  17.295  0.9989 -1.1077 -0.5013
  329TMC3    C1 4988   2.243   1.967  17.095  0.1648 -0.3514 -0.2988
  329TMC3    C2 4989   2.151   2.028  17.174  0.6857 -0.3770  0.3088
  329TMC3    C3 4990   2.018   2.009  17.140  0.0381 -0.1101  0.6136
  329TMC3    C4 4991   2.207   1.893  16.980  0.8305  0.3758 -0.4041
  329TMC3    C5 4992   2.075   1.871  16.958  1.2430  0.2147  0.1305
  329TMC3    C6 4993   1.978   1.933  17.033 -0.5292  0.5726 -0.4264
  329TMC3     C 4994   2.370   2.038  17.084 -0.5245  0.1776  0.0422
  329TMC3     O 4995   2.417   2.062  16.972 -0.3807 -0.3455  0.7080
  329TMC3     H 4996   2.180   2.103  17.246  1.6324 -0.6275  0.1938
  329TMC3    H1 4997   2.278   1.856  16.906 -0.9987 -1.2049 -1.3724
  329TMC3    H2 4998   1.871   1.924  17.024 -0.4410 -0.6124 -0.2476
  329TMC3    C7 4999   2.045   1.794  16.840 -0.0834  0.4118 -0.7116
  329TMC3    C8 5000   1.918   2.104  17.189  0.5037  0.2053 -0.0183
  329TMC3    O1 5001   2.115   1.698  16.822 -0.2301  0.4827 -0.3620
  329TMC3    O2 5002   1.816   2.117  17.121 -0.0503 -0.1753  0.4169
  330TMC3    C1 5003   0.334   3.000   9.754  0.3389  0.4166  0.1853
  330TMC3    C2 5004   0.280   2.877   9.791  0.1972 -0.4369  0.5087
  330TMC3    C3 5005   0.370   2.788   9.851 -0.2051  0.8107  0.4292
  330TMC3    C4 5006   0.469   3.026   9.761  0.0902 -0.5128  0.5503
  330TMC3    C5 5007   0.552   2.931   9.812 -0.5600 -0.1982 -0.1373
  330TMC3    C6 5008   0.504   2.815   9.858 -0.7712 -0.0476 -0.3427
  330TMC3     C 5009   0.255   3.104   9.695 -0.7077  0.5127  0.4080
  330TMC3     O 5010   0.318   3.184   9.629  0.6650 -0.0991 -0.1159
  330TMC3     H 5011   0.176   2.846   9.800 -0.2010  1.0693  1.1925
  330TMC3    H1 5012   0.508   3.117   9.718 -0.1389 -1.8837 -2.5133
  330TMC3    H2 5013   0.572   2.731   9.867 -0.6503  0.0659 -0.1941
  330TMC3    C7 5014   0.687   2.928   9.752 -0.6902 -0.0485  0.1181
  330TMC3    C8 5015   0.349   2.645   9.806  0.3278 -0.5228  0.2547
  330TMC3    O1 5016   0.693   2.966   9.637  0.1213  0.0048 -0.3627
  330TMC3    O2 5017   0.423   2.563   9.850 -0.4493  0.0088  0.2967
  331MPD2     C 5018   3.205   1.600  13.046  0.8785  0.8018 -0.3167
  331MPD2    C1 5019   3.312   1.557  12.969 -0.7181 -0.2650 -0.5982
  331MPD2    C2 5020   3.320   1.428  12.925  0.3585 -0.4543  0.2232
  331MPD2    C3 5021   3.219   1.338  12.962  0.7207 -0.3078  0.1333
  331MPD2    C4 5022   3.113   1.377  13.048 -0.1736 -0.0647 -0.1976
  331MPD2    C5 5023   3.108   1.510  13.089 -0.1967  0.2067 -0.3564
  331MPD2     H 5024   3.395   1.400  12.852 -0.3375 -2.4792  0.2928
  331MPD2    H1 5025   3.029   1.314  13.075 -0.3419  0.1793 -0.1411
  331MPD2    H2 5026   3.194   1.702  13.083  2.0987  0.4268  1.0853
  331MPD2    H3 5027   3.033   1.549  13.158  1.3306 -0.1712  1.5051
  331MPD2     N 5028   3.237   1.209  12.903 -0.2222 -0.1867  0.1754
  331MPD2    H5 5029   3.309   1.190  12.833 -1.1675  0.0609 -0.8636
  331MPD2    N1 5030   3.400   1.655  12.916  0.4094  0.2719  0.1722
  331MPD2    H7 5031   3.369   1.752  12.921  0.0874  0.1109  1.2827
  332TMC3    C1 5032   3.212   0.988  12.838  0.6972  0.2429  0.5467
  332TMC3    C2 5033   3.121   0.929  12.749  0.1978 -0.8803 -0.9511
  332TMC3    C3 5034   3.167   0.843  12.653 -0.2070 -0.2496 -1.0528
  332TMC3    C4 5035   3.347   0.976  12.836 -0.8861  0.4133 -0.1786
  332TMC3    C5 5036   3.383   0.880  12.747 -0.5917  0.0125 -0.5711
  332TMC3    C6 5037   3.299   0.823  12.652  0.0951 -0.4498  0.0952
  332TMC3     C 5038   3.156   1.095  12.918  0.1720  0.2700  0.2177
  332TMC3     O 5039   3.048   1.085  12.977 -0.3808 -0.1014 -0.4696
  332TMC3     H 5040   3.016   0.954  12.759  0.6481  0.0781  1.3160
  332TMC3    H1 5041   3.414   1.019  12.909  0.5447 -1.0830 -0.6009
  332TMC3    H2 5042   3.332   0.765  12.566 -1.3328  0.1750 -0.8671
  332TMC3    C7 5043   3.510   0.813  12.770 -0.4593  0.1202  0.0126
  332TMC3    C8 5044   3.089   0.825  12.534 -0.0919 -1.0846  0.2770
  332TMC3    O1 5045   3.599   0.878  12.818  0.0823  0.0147  0.0986
  332TMC3    O2 5046   2.977   0.780  12.530  0.0871  0.1374  0.0022
  333MPD2     C 5047   3.601   1.700  11.483  0.2325  0.1254 -0.2247
  333MPD2    C1 5048   3.632   1.640  11.361  0.6373  1.1011 -0.0197
  333MPD2    C2 5049   3.548   1.541  11.312 -0.2590  0.8545  0.0638
  333MPD2    C3 5050   3.448   1.493  11.397 -0.3353  0.3464 -0.3872
  333MPD2    C4 5051   3.424   1.546  11.527 -0.0999  0.2645  1.0079
  333MPD2    C5 5052   3.502   1.658  11.562 -0.4343  0.4843 -0.3515
  333MPD2     H 5053   3.574   1.503  11.214  2.1882 -0.0052  1.0634
  333MPD2    H1 5054   3.356   1.507  11.601 -1.2383  3.0445  1.4276
  333MPD2    H2 5055   3.660   1.786  11.514  0.0538 -0.4522  1.6847
  333MPD2    H3 5056   3.484   1.705  11.658  0.3770  1.6901 -0.7954
  333MPD2     N 5057   3.388   1.367  11.361 -0.0288  0.2193 -0.0759
  333MPD2    H5 5058   3.418   1.330  11.271  2.4731  1.1632  0.3672
  333MPD2    N1 5059   3.756   1.686  11.302 -0.5734  0.0290 -0.7628
  333MPD2    H7 5060   3.806   1.759  11.353 -1.6993 -0.9377  1.7437
  334TMC3    C1 5061   3.938   1.695  11.147 -0.4368 -0.5905 -0.4503
  334TMC3    C2 5062   4.046   1.615  11.117 -0.3293  0.1302 -0.1979
  334TMC3    C3 5063   4.157   1.692  11.080  0.4836 -0.0337  0.1704
  334TMC3    C4 5064   3.921   1.833  11.137  0.1657 -0.4489  0.0615
  334TMC3    C5 5065   4.038   1.895  11.087 -0.4163 -0.0122 -0.8897
  334TMC3    C6 5066   4.153   1.825  11.053 -0.5139  0.2768  0.2606
  334TMC3     C 5067   3.813   1.630  11.188  0.2250 -0.6175 -0.0803
  334TMC3     O 5068   3.785   1.529  11.124 -0.2143 -1.2159 -0.2850
  334TMC3     H 5069   4.067   1.520  11.165 -1.7865 -0.3084 -0.4156
  334TMC3    H1 5070   3.826   1.880  11.163 -0.0320 -2.0098  2.1758
  334TMC3    H2 5071   4.240   1.884  11.029 -0.0945 -0.2477  0.4990
  334TMC3    C7 5072   4.048   2.047  11.102  0.6073  0.0152 -0.6402
  334TMC3    C8 5073   4.277   1.610  11.053 -0.0674 -0.0451  0.0793
  334TMC3    O1 5074   4.151   2.090  11.148 -0.2142  0.2555  0.0328
  334TMC3    O2 5075   4.287   1.502  11.114  0.3021 -0.1976 -0.2509
  335TMC3    C1 5076   3.366   2.650  17.663 -0.0063  0.1852  0.0887
  335TMC3    C2 5077   3.316   2.580  17.555  0.0114 -0.2695 -0.2775
  335TMC3    C3 5078   3.392   2.592  17.441 -0.2936 -0.2036  0.0625
  335TMC3    C4 5079   3.468   2.750  17.662  0.7761  0.4496  0.0443
  335TMC3    C5 5080   3.523   2.763  17.537 -0.0957  0.6692 -0.0349
  335TMC3    C6 5081   3.494   2.682  17.430 -0.0847  0.4622  0.0982
  335TMC3     C 5082   3.305   2.622   0.064 -0.4805 -0.9508  0.5226
  335TMC3     O 5083   3.281   2.704   0.153  0.3386 -0.6636 -0.3991
  335TMC3     H 5084   3.217   2.536  17.557  0.5508 -1.4617  0.4243
  335TMC3    H1 5085   3.493   2.802   0.026  0.7518 -2.4201  1.6908
  335TMC3    H2 5086   3.559   2.673  17.343 -1.4379 -0.7656 -0.7711
  335TMC3    C7 5087   3.643   2.834  17.528  0.0754  0.0432 -0.5461
  335TMC3    C8 5088   3.334   2.547  17.313 -0.7249 -0.7112  0.3492
  335TMC3    O1 5089   3.718   2.804  17.438  0.3221 -0.1631  0.1884
  335TMC3    O2 5090   3.353   2.613  17.213 -0.2041 -0.0277 -0.5450
  336MPD2     C 5091   3.261   0.776  16.405  0.2956  0.5989 -0.5507
  336MPD2    C1 5092   3.184   0.728  16.297 -0.3924  0.0827  0.2094
  336MPD2    C2 5093   3.202   0.594  16.262  0.6545  0.0109 -0.1158
  336MPD2    C3 5094   3.278   0.517  16.348  0.2559  0.6913  0.6544
  336MPD2    C4 5095   3.333   0.562  16.461  0.2979 -0.1175  0.0165
  336MPD2    C5 5096   3.331   0.692  16.485  0.0453 -0.4414 -0.4657
  336MPD2     H 5097   3.144   0.555  16.179 -0.6587  0.5556  0.5557
  336MPD2    H1 5098   3.390   0.493  16.523  2.3457  0.3518 -1.3592
  336MPD2    H2 5099   3.252   0.880  16.431 -0.4754  1.0493 -2.6460
  336MPD2    H3 5100   3.380   0.725  16.575  1.2025 -0.6443 -1.0263
  336MPD2     N 5101   3.303   0.381  16.327  0.4792  0.2979  0.0062
  336MPD2    H5 5102   3.358   0.324  16.391 -0.3523  0.2807  0.7197
  336MPD2    N1 5103   3.109   0.802  16.207 -0.4790  0.6511 -0.0379
  336MPD2    H7 5104   3.077   0.753  16.123  1.0158  0.7801 -0.6761
  337TMC3    C1 5105   3.014   0.999  16.114 -0.3851  0.0161 -0.0548
  337TMC3    C2 5106   2.934   0.917  16.033 -0.9928 -0.4236  0.3292
  337TMC3    C3 5107   2.854   0.985  15.936  0.5929  0.1804  0.3322
  337TMC3    C4 5108   3.020   1.133  16.095 -0.4954  0.2387 -0.6628
  337TMC3    C5 5109   2.941   1.188  15.994 -0.5453 -1.2351  0.3944
  337TMC3    C6 5110   2.849   1.122  15.919 -0.2394  0.4931  0.6058
  337TMC3     C 5111   3.078   0.935  16.227  0.5393  0.2480  0.3873
  337TMC3     O 5112   3.113   1.012  16.314 -0.4468  0.1579 -0.0520
  337TMC3     H 5113   2.924   0.810  16.048  2.6490 -0.7704  0.2511
  337TMC3    H1 5114   3.061   1.200  16.170 -2.0365  0.8832 -0.3910
  337TMC3    H2 5115   2.788   1.173  15.846 -1.2510  0.3714  1.3729
  337TMC3    C7 5116   2.972   1.324  15.964  0.8971 -0.6944 -0.0786
  337TMC3    C8 5117   2.739   0.907  15.887 -0.8786 -0.3622  0.3062
  337TMC3    O1 5118   2.874   1.392  15.941  0.2785 -0.7014 -0.3222
  337TMC3    O2 5119   2.727   0.800  15.944  1.1504  0.8157  0.5029
  338MPD2     C 5120   3.559   0.221   0.912 -0.1692  0.5378 -0.1839
  338MPD2    C1 5121   3.438   0.211   0.837 -0.8277 -0.0363  1.0629
  338MPD2    C2 5122   3.325   0.285   0.866  0.1744 -0.0838 -0.3606
  338MPD2    C3 5123   3.331   0.379   0.970 -0.6713 -0.4732 -0.1446
  338MPD2    C4 5124   3.452   0.391   1.038  0.3011  0.1014 -0.4737
  338MPD2    C5 5125   3.560   0.314   1.012  0.5290 -0.3845  0.3161
  338MPD2     H 5126   3.235   0.275   0.807 -0.1589 -1.5939  0.4002
  338MPD2    H1 5127   3.457   0.469   1.113 -1.7413  0.2977 -0.5570
  338MPD2    H2 5128   3.641   0.152   0.897  1.2111  2.0344  0.4655
  338MPD2    H3 5129   3.652   0.325   1.069 -1.2628  0.8818  2.9365
  338MPD2     N 5130   3.220   0.465   0.984  0.2645 -0.3872  0.3288
  338MPD2    H5 5131   3.151   0.446   0.912 -1.4960  0.9599  1.6773
  338MPD2    N1 5132   3.414   0.117   0.731 -0.3633 -0.0273  0.2591
  338MPD2    H7 5133   3.331   0.125   0.674  0.5964  1.3957 -0.9456
  339TMC3    C1 5134   3.045   0.546   1.094 -0.1437 -0.5648 -0.0246
  339TMC3    C2 5135   3.000   0.478   1.205 -0.6221  0.0778  0.1958
  339TMC3    C3 5136   2.910   0.378   1.188 -0.0068  0.5031 -0.7441
  339TMC3    C4 5137   2.995   0.519   0.969 -0.5002  0.1690 -0.7281
  339TMC3    C5 5138   2.896   0.420   0.964 -0.6371  0.6334  0.1316
  339TMC3    C6 5139   2.860   0.341   1.070  0.0716  0.1278  0.0365
  339TMC3     C 5140   3.188   0.537   1.095  0.0054 -0.6694 -0.3594
  339TMC3     O 5141   3.247   0.537   1.201  0.1305 -0.1546 -0.5038
  339TMC3     H 5142   3.051   0.491   1.299 -1.4074  1.1902  0.4653
  339TMC3    H1 5143   3.020   0.590   0.892  1.2395 -1.7097 -1.9003
  339TMC3    H2 5144   2.772   0.278   1.071  1.1886 -1.4100  1.2406
  339TMC3    C7 5145   2.882   0.365   0.828 -0.3008 -0.1272 -0.1198
  339TMC3    C8 5146   2.914   0.279   1.299  0.2306 -1.0363 -0.1119
  339TMC3    O1 5147   2.959   0.413   0.749  0.3469  0.0668 -0.1897
  339TMC3    O2 5148   2.948   0.318   1.407  0.0642 -0.0791 -0.0889
  340MPD2     C 5149   3.108   3.080  10.118 -0.7145  0.4131  0.0975
  340MPD2    C1 5150   3.136   3.102   9.985  0.3248  0.4380  0.4303
  340MPD2    C2 5151   3.213   3.210   9.955 -0.5643  0.5411 -0.2054
  340MPD2    C3 5152   3.253   3.296  10.056  0.4932 -0.1215  0.7061
  340MPD2    C4 5153   3.213   3.280  10.193  0.2600 -0.8448  0.2202
  340MPD2    C5 5154   3.136   3.170  10.220  0.5066  0.1760 -0.5011
  340MPD2     H 5155   3.248   3.227   9.854  2.2673 -0.5701  0.5920
  340MPD2    H1 5156   3.255   3.344  10.269 -0.3540  0.6796 -0.7230
  340MPD2    H2 5157   3.061   2.987  10.149 -0.3648 -0.3067 -1.5420
  340MPD2    H3 5158   3.102   3.145  10.320 -1.2161  3.6939 -0.1859
  340MPD2     N 5159   3.322   3.416  10.035 -0.0380 -0.2390  0.5024
  340MPD2    H5 5160   3.354   3.464  10.118 -0.2800  0.3909  0.2275
  340MPD2    N1 5161   3.108   3.011   9.882  0.1120 -0.5593 -0.5555
  340MPD2    H7 5162   3.171   3.011   9.802 -0.5153  1.2276 -1.0241
  341TMC3    C1 5163   3.066   2.784   9.832 -0.3639 -0.0819  0.3201
  341TMC3    C2 5164   2.990   2.673   9.873 -0.2946 -0.2820  0.2750
  341TMC3    C3 5165   3.039   2.549   9.835  0.5149  0.1851 -0.1629
  341TMC3    C4 5166   3.191   2.773   9.774  0.2502  0.0513  0.4298
  341TMC3    C5 5167   3.237   2.647   9.755  0.4553  0.1766 -0.6390
  341TMC3    C6 5168   3.160   2.541   9.775  0.2302 -0.8242  0.1497
  341TMC3     C 5169   3.023   2.906   9.898 -0.4382 -0.2066  0.0436
  341TMC3     O 5170   2.919   2.908   9.961  0.1722  0.1519 -0.0451
  341TMC3     H 5171   2.897   2.679   9.929  0.5133 -0.8724  1.6934
  341TMC3    H1 5172   3.249   2.859   9.741 -1.0288  0.2694 -1.2275
  341TMC3    H2 5173   3.204   2.442   9.765 -1.4562 -1.8106  2.5258
  341TMC3    C7 5174   3.376   2.631   9.717 -0.0593  0.2384  0.1130
  341TMC3    C8 5175   2.971   2.426   9.861  0.1494 -0.1985 -0.0922
  341TMC3    O1 5176   3.464   2.692   9.781  0.1197  0.4246 -0.4167
  341TMC3    O2 5177   3.032   2.322   9.860  0.3439 -0.0941  0.0517
  342MPD2     C 5178   1.107   0.951  17.514 -0.5795  0.4673  0.3047
  342MPD2    C1 5179   1.244   0.959  17.539  0.3837  0.3962 -0.2037
  342MPD2    C2 5180   1.288   1.076  17.588 -0.4143  0.3491  0.1074
  342MPD2    C3 5181   1.201   1.177  17.630  0.2076  0.7734  0.0716
  342MPD2    C4 5182   1.069   1.168  17.601 -0.4986 -0.0976  0.4776
  342MPD2    C5 5183   1.017   1.052  17.539 -0.1557  0.4034 -0.5108
  342MPD2     H 5184   1.392   1.075  17.618 -0.2906 -0.7123 -0.3655
  342MPD2    H1 5185   1.005   1.245  17.642 -0.9910 -0.3301  0.1491
  342MPD2    H2 5186   1.070   0.863  17.462  2.9157 -2.2849  2.5027
  342MPD2    H3 5187   0.912   1.046  17.512 -0.4243  1.1936  0.3324
  342MPD2     N 5188   1.225   1.289  17.715 -0.1307 -0.2392  0.3012
  342MPD2    H5 5189   1.152   1.357   0.006  1.2299  1.2908 -0.0107
  342MPD2    N1 5190   1.336   0.849  17.516 -0.3814  0.3615 -0.5183
  342MPD2    H7 5191   1.435   0.871  17.515  0.2889 -2.5562  3.5849
  343TMC3    C1 5192   1.404   0.646  17.407  0.4941  0.2796  0.4833
  343TMC3    C2 5193   1.536   0.682  17.402  0.2940 -0.2709  0.4608
  343TMC3    C3 5194   1.635   0.594  17.355  0.3872 -0.3508  0.5373
  343TMC3    C4 5195   1.374   0.520  17.380  0.0851  0.3857 -0.4984
  343TMC3    C5 5196   1.468   0.427  17.355 -0.0393  0.7013  0.6188
  343TMC3    C6 5197   1.598   0.467  17.334 -0.0438  0.2284  0.2623
  343TMC3     C 5198   1.296   0.727  17.474  0.5115  0.4878 -0.3694
  343TMC3     O 5199   1.192   0.668  17.492 -0.4832 -0.2959  0.2746
  343TMC3     H 5200   1.572   0.780  17.434  1.3632 -0.6431  0.4065
  343TMC3    H1 5201   1.275   0.479  17.396  0.2757  0.5046  0.9383
  343TMC3    H2 5202   1.668   0.395  17.293 -1.7535 -1.7163  0.7640
  343TMC3    C7 5203   1.430   0.288  17.334 -0.3459 -0.0409  0.0338
  343TMC3    C8 5204   1.769   0.646  17.328  0.4462 -0.4704 -0.4637
  343TMC3    O1 5205   1.316   0.266  17.298 -0.0910 -0.2887  0.2071
  343TMC3    O2 5206   1.796   0.759  17.372  0.6376  0.6438 -0.1891
  344MPD2     C 5207   2.152   0.835  11.969 -0.5286 -0.6594 -1.1911
  344MPD2    C1 5208   2.081   0.802  11.853 -0.4933  0.2819  0.6566
  344MPD2    C2 5209   2.101   0.875  11.737  0.1227 -0.1120  0.3700
  344MPD2    C3 5210   2.198   0.971  11.731 -0.0474 -0.0601  0.2505
  344MPD2    C4 5211   2.255   1.011  11.852 -0.3907 -0.0957 -0.7802
  344MPD2    C5 5212   2.230   0.945  11.966  0.8338 -0.4921  0.0843
  344MPD2     H 5213   2.055   0.842  11.644 -0.2722  0.9011  0.2064
  344MPD2    H1 5214   2.319   1.097  11.860  1.2298 -1.3664 -0.0423
  344MPD2    H2 5215   2.128   0.785  12.062  0.9699 -0.0581 -0.4932
  344MPD2    H3 5216   2.279   0.979  12.056 -0.5533 -0.6928  0.9155
  344MPD2     N 5217   2.235   1.037  11.610  0.2792 -0.3051  0.3153
  344MPD2    H5 5218   2.305   1.110  11.612  0.5500 -0.4793 -2.7181
  344MPD2    N1 5219   2.003   0.688  11.842  0.3195 -0.4901 -0.3472
  344MPD2    H7 5220   1.945   0.667  11.761 -0.3986 -0.9196  0.2734
  345TMC3    C1 5221   2.259   1.085  11.381  0.2229  0.3899  0.1785
  345TMC3    C2 5222   2.360   1.167  11.410 -0.0186 -0.1335 -0.5171
  345TMC3    C3 5223   2.447   1.198  11.304  0.0034  0.5049 -0.3251
  345TMC3    C4 5224   2.222   1.040  11.256  0.2580  0.7991  0.0658
  345TMC3    C5 5225   2.304   1.085  11.156 -0.6339 -0.8915  0.1403
  345TMC3    C6 5226   2.419   1.157  11.179 -0.1947  0.2101 -0.4669
  345TMC3     C 5227   2.174   1.025  11.487  0.3348 -1.1635 -0.1239
  345TMC3     O 5228   2.076   0.957  11.461  0.3301  0.4249 -0.3630
  345TMC3     H 5229   2.381   1.211  11.507  3.9230 -0.4722 -1.2394
  345TMC3    H1 5230   2.136   0.977  11.237  1.3573  0.2153 -2.8656
  345TMC3    H2 5231   2.489   1.178  11.100 -0.5337  4.4110  0.3720
  345TMC3    C7 5232   2.255   1.101  11.021  0.1096  0.5512 -0.1352
  345TMC3    C8 5233   2.494   1.335  11.307 -0.6518 -0.0877 -0.4482
  345TMC3    O1 5234   2.307   1.195  10.961 -0.5413  0.1199 -0.4440
  345TMC3    O2 5235   2.535   1.381  11.414  0.6412 -0.4779  0.2282
  346MPD2     C 5236   2.229   2.066  14.181 -0.7519  0.0341 -0.0526
  346MPD2    C1 5237   2.353   2.036  14.228  0.4799 -0.3963 -0.8193
  346MPD2    C2 5238   2.390   2.094  14.348  0.1750  0.4070 -0.0523
  346MPD2    C3 5239   2.310   2.194  14.409 -0.4534  0.3696 -0.6781
  346MPD2    C4 5240   2.179   2.220  14.359 -0.5274 -0.6680 -0.3384
  346MPD2    C5 5241   2.148   2.151  14.249 -0.0382 -0.1549 -0.6116
  346MPD2     H 5242   2.489   2.081  14.388 -0.0031 -0.1836  0.1894
  346MPD2    H1 5243   2.109   2.292  14.400 -0.1842 -0.4026 -0.2191
  346MPD2    H2 5244   2.184   2.038  14.086  1.1803  0.5556 -1.1252
  346MPD2    H3 5245   2.050   2.169  14.206 -1.5222 -3.5362  1.3929
  346MPD2     N 5246   2.360   2.275  14.521  0.2580 -0.5849 -0.0400
  346MPD2    H5 5247   2.459   2.259  14.536  0.8843  2.3119 -1.1119
  346MPD2    N1 5248   2.454   1.977  14.149 -0.7403  0.1266 -0.1959
  346MPD2    H7 5249   2.439   1.969  14.049 -0.7500 -0.7434 -0.1326
  347TMC3    C1 5250   2.352   2.431  14.708 -0.5944 -0.4555  0.4444
  347TMC3    C2 5251   2.489   2.455  14.704 -0.1027 -0.0282  0.1328
  347TMC3    C3 5252   2.542   2.529  14.806  0.7515 -0.0545 -0.1947
  347TMC3    C4 5253   2.275   2.491  14.801  0.2419 -0.4926 -0.2220
  347TMC3    C5 5254   2.330   2.566  14.901 -1.3040  0.3091  0.3790
  347TMC3    C6 5255   2.471   2.579  14.906 -0.1200 -0.2175  0.0696
  347TMC3     C 5256   2.281   2.356  14.602 -0.1077  0.6043 -0.1442
  347TMC3     O 5257   2.158   2.351  14.612  0.2696  0.1274  1.0337
  347TMC3     H 5258   2.544   2.416  14.619  3.0944 -0.3895  2.3823
  347TMC3    H1 5259   2.170   2.465  14.804  0.1204  0.1327  0.8853
  347TMC3    H2 5260   2.515   2.623  14.995 -0.9248 -0.7445  0.7303
  347TMC3    C7 5261   2.250   2.619  15.013  0.4819 -0.3267  0.1551
  347TMC3    C8 5262   2.671   2.480  14.850  0.3958 -0.2516  0.2105
  347TMC3    O1 5263   2.156   2.547  15.044  0.2551 -0.4776  0.7751
  347TMC3    O2 5264   2.693   2.441  14.961  0.0884 -0.0076  0.5401
  348MPD2     C 5265   1.204   1.907  12.113 -0.5693  0.4237  0.1358
  348MPD2    C1 5266   1.171   1.849  11.998 -0.8838  0.1565 -0.9130
  348MPD2    C2 5267   1.186   1.922  11.881  0.2996 -0.2799  0.3297
  348MPD2    C3 5268   1.249   2.044  11.880 -0.3726 -0.6235  0.0552
  348MPD2    C4 5269   1.296   2.089  12.004 -0.4003  0.3758  0.0386
  348MPD2    C5 5270   1.260   2.031  12.121 -0.2818  0.1824  0.0295
  348MPD2     H 5271   1.151   1.880  11.787 -0.4652  1.7438 -0.2823
  348MPD2    H1 5272   1.353   2.181  12.000 -2.2179  1.5401  0.8985
  348MPD2    H2 5273   1.182   1.860  12.208  1.4253  0.9454  0.8599
  348MPD2    H3 5274   1.292   2.080  12.212  1.0491 -1.5105  0.4755
  348MPD2     N 5275   1.261   2.105  11.756  0.2671 -0.8678 -0.0170
  348MPD2    H5 5276   1.201   2.055  11.691 -1.6471  0.9760  0.3492
  348MPD2    N1 5277   1.096   1.729  11.983 -0.3087 -0.0114 -0.5933
  348MPD2    H7 5278   1.066   1.713  11.888 -2.5184  0.5523  0.0102
  349TMC3    C1 5279   0.988   1.521  12.026  0.5302  0.2973 -0.2425
  349TMC3    C2 5280   1.010   1.389  12.067  0.5519 -0.7571  0.6266
  349TMC3    C3 5281   0.962   1.289  11.984  0.8487 -0.4120 -0.2986
  349TMC3    C4 5282   0.912   1.559  11.922  0.1727 -0.3176 -0.4165
  349TMC3    C5 5283   0.867   1.454  11.841 -0.1588 -0.4383  0.0636
  349TMC3    C6 5284   0.894   1.321  11.869 -0.0341  0.3940  0.1468
  349TMC3     C 5285   1.081   1.630  12.074  0.6606 -0.0740  0.7142
  349TMC3     O 5286   1.143   1.611  12.179 -0.2046 -0.0876 -0.0284
  349TMC3     H 5287   1.052   1.380  12.167 -0.0892  0.2068  0.9843
  349TMC3    H1 5288   0.895   1.663  11.898  2.0441 -0.1170 -0.8367
  349TMC3    H2 5289   0.853   1.240  11.810  0.5028 -1.3345  2.1784
  349TMC3    C7 5290   0.776   1.485  11.725  1.0288  0.6660  0.2852
  349TMC3    C8 5291   0.908   1.173  12.057 -0.4253 -0.1805  0.4661
  349TMC3    O1 5292   0.706   1.400  11.674 -0.2164  0.5061  0.2988
  349TMC3    O2 5293   0.823   1.108  12.000  0.5004 -0.1967  0.0555
  350MPD2     C 5294   0.639   0.630  10.535 -0.2578 -0.2927  0.8976
  350MPD2    C1 5295   0.585   0.513  10.560 -0.3103  0.7635  0.4444
  350MPD2    C2 5296   0.567   0.469  10.693  0.1496  0.7139  0.4439
  350MPD2    C3 5297   0.585   0.560  10.795 -0.8242 -0.4777  0.5326
  350MPD2    C4 5298   0.641   0.686  10.772 -0.0604 -0.1391 -0.6016
  350MPD2    C5 5299   0.664   0.714  10.641 -0.1213 -0.2371 -0.0915
  350MPD2     H 5300   0.523   0.373  10.717 -0.5222  0.7897 -0.4833
  350MPD2    H1 5301   0.655   0.754  10.855 -1.1383 -0.8633  0.1797
  350MPD2    H2 5302   0.647   0.679  10.439  0.9048  0.6942  1.4870
  350MPD2    H3 5303   0.715   0.808  10.622 -1.5295  0.5149 -0.1196
  350MPD2     N 5304   0.550   0.514  10.922  0.1712 -0.5058 -0.4913
  350MPD2    H5 5305   0.531   0.414  10.918  0.6832 -0.6920  1.5861
  350MPD2    N1 5306   0.553   0.433  10.449 -1.0346 -0.0936  1.0197
  350MPD2    H7 5307   0.547   0.333  10.465  0.5517 -0.6546 -2.0034
  351TMC3    C1 5308   0.495   0.375  10.215 -0.4197  0.6503 -0.4828
  351TMC3    C2 5309   0.542   0.250  10.241 -0.1848 -1.0591 -0.3277
  351TMC3    C3 5310   0.480   0.148  10.167 -0.3200 -0.3502 -0.3698
  351TMC3    C4 5311   0.408   0.410  10.117  0.5147  0.0973  0.2421
  351TMC3    C5 5312   0.353   0.302  10.045  0.1019  0.1340  0.2806
  351TMC3    C6 5313   0.375   0.170  10.078 -0.6459  0.0217  0.1342
  351TMC3     C 5314   0.520   0.480  10.323  0.3723  0.5658 -0.6147
  351TMC3     O 5315   0.498   0.591  10.288 -0.1800 -0.2957  0.5099
  351TMC3     H 5316   0.631   0.230  10.300  1.2276  0.4935 -1.9576
  351TMC3    H1 5317   0.389   0.512  10.088 -0.0707  0.0685  0.5140
  351TMC3    H2 5318   0.334   0.094  10.011 -0.9319 -0.0489  0.3900
  351TMC3    C7 5319   0.263   0.340   9.936  0.3251  0.1859 -0.1683
  351TMC3    C8 5320   0.514   0.006  10.179  0.3844  0.8780 -0.4521
  351TMC3    O1 5321   0.288   0.443   9.874  0.1092  0.6658 -0.3596
  351TMC3    O2 5322   0.489   4.661  10.086  0.7266 -0.2698  0.3181
  352MPD2     C 5323   3.729   2.335   0.832  0.6674  0.0553  0.7419
  352MPD2    C1 5324   3.602   2.287   0.797  0.3916  0.9079 -1.0754
  352MPD2    C2 5325   3.554   2.170   0.848 -0.5585 -0.1714  0.4610
  352MPD2    C3 5326   3.630   2.094   0.943 -0.6601 -0.0606 -0.1189
  352MPD2    C4 5327   3.754   2.147   0.977  0.1730  0.0347  0.1360
  352MPD2    C5 5328   3.800   2.270   0.932 -0.3390 -0.6120  0.0403
  352MPD2     H 5329   3.458   2.127   0.819 -1.2687 -0.0211  2.6013
  352MPD2    H1 5330   3.817   2.092   1.046 -2.7559  2.2050  4.5257
  352MPD2    H2 5331   3.780   2.416   0.780  2.6434 -1.6294  0.0280
  352MPD2    H3 5332   3.893   2.317   0.960 -1.5999  2.4368 -0.8780
  352MPD2     N 5333   3.586   1.969   0.999 -0.7671  0.3194  0.1411
  352MPD2    H5 5334   3.648   1.932   1.070 -2.2806 -2.1687  0.1528
  352MPD2    N1 5335   3.529   2.368   0.706  0.0454 -0.7393  0.3199
  352MPD2    H7 5336   3.583   2.441   0.659  0.6947 -1.2632  0.2610
  353TMC3    C1 5337   3.502   1.747   0.976 -0.1601  0.0869 -0.0912
  353TMC3    C2 5338   3.614   1.692   1.025  0.3735 -0.3754 -0.4770
  353TMC3    C3 5339   3.611   1.560   1.062 -0.1016  0.3149  0.4240
  353TMC3    C4 5340   3.386   1.682   0.955  0.7767  0.7107  0.2635
  353TMC3    C5 5341   3.384   1.549   0.989  0.0527  0.1466  0.6058
  353TMC3    C6 5342   3.500   1.491   1.040  0.5410 -0.5500  0.0875
  353TMC3     C 5343   3.488   1.890   0.943  0.3607 -0.5005 -0.4730
  353TMC3     O 5344   3.397   1.926   0.873 -0.1291 -0.1795 -0.6270
  353TMC3     H 5345   3.703   1.749   1.050  0.3194  0.5649 -2.3708
  353TMC3    H1 5346   3.299   1.727   0.909 -0.3603 -1.3783  0.3904
  353TMC3    H2 5347   3.499   1.383   1.053  1.0465 -0.5168  0.3890
  353TMC3    C7 5348   3.307   1.454   0.905 -0.2853 -0.1969 -0.0029
  353TMC3    C8 5349   3.738   1.493   1.102 -0.4049 -0.4464 -0.6165
  353TMC3    O1 5350   3.297   1.343   0.950  0.5176 -0.3184  0.0357
  353TMC3    O2 5351   3.831   1.562   1.141  0.0504 -0.3086 -0.3743
  354TMC3    C1 5352   0.682   2.389  13.207  0.4920  0.1349 -0.4757
  354TMC3    C2 5353   0.671   2.515  13.260 -0.2031  0.7228 -0.4767
  354TMC3    C3 5354   0.677   2.627  13.175 -0.2277 -0.3871  0.8082
  354TMC3    C4 5355   0.677   2.371  13.072 -0.5233  0.2467  0.4995
  354TMC3    C5 5356   0.690   2.477  12.989 -0.1843  0.5900 -1.0425
  354TMC3    C6 5357   0.691   2.608  13.039  0.7226 -0.1916  0.0966
  354TMC3     C 5358   0.702   2.268  13.292 -1.0155 -0.1073  0.3592
  354TMC3     O 5359   0.678   2.165  13.232 -0.3769 -0.0304 -0.2828
  354TMC3     H 5360   0.653   2.517  13.367  1.7775  0.8283 -0.1504
  354TMC3    H1 5361   0.683   2.272  13.027 -0.5847  0.8254 -0.7693
  354TMC3    H2 5362   0.683   2.689  12.968  0.0561 -0.3547 -0.0193
  354TMC3    C7 5363   0.787   2.458  12.876  0.0275 -0.8483 -0.0243
  354TMC3    C8 5364   0.702   2.759  13.221  0.3128 -0.7565 -0.1900
  354TMC3    O1 5365   0.798   2.352  12.817  0.0894  0.2820 -0.6281
  354TMC3    O2 5366   0.752   2.828  13.133 -0.3754  0.3116  0.7989
  355MPD2     C 5367   0.667   4.030  11.890 -0.6159  0.2140 -1.0772
  355MPD2    C1 5368   0.788   4.058  11.831  0.6168 -0.3406 -0.3936
  355MPD2    C2 5369   0.895   3.987  11.871  0.2718  0.7771  0.0788
  355MPD2    C3 5370   0.887   3.881  11.963  0.0093 -0.1438  0.0775
  355MPD2    C4 5371   0.766   3.833  11.999  0.0853 -0.5219 -0.5714
  355MPD2    C5 5372   0.652   3.913  11.968  0.2922 -0.6190  0.5057
  355MPD2     H 5373   0.994   4.022  11.844  0.0325  0.1596 -1.6135
  355MPD2    H1 5374   0.750   3.751  12.068 -0.0193 -0.7577 -0.8776
  355MPD2    H2 5375   0.581   4.091  11.863  0.6253  1.3691 -2.4502
  355MPD2    H3 5376   0.556   3.877  12.005 -2.1002  2.2082 -2.8654
  355MPD2     N 5377   1.005   3.815  12.004 -0.3019  0.2535 -0.6763
  355MPD2    H5 5378   1.094   3.849  11.968  0.7757  0.7814  2.5009
  355MPD2    N1 5379   0.804   4.164  11.735 -0.4726  0.3823  0.7164
  355MPD2    H7 5380   0.893   4.172  11.689 -1.2859 -0.7868 -1.0768
  356TMC3    C1 5381   1.158   3.721  12.149 -1.1149 -0.5644  0.2883
  356TMC3    C2 5382   1.243   3.806  12.080 -0.6848  0.0632  0.2596
  356TMC3    C3 5383   1.327   3.885  12.156  0.4233 -0.4744  0.8206
  356TMC3    C4 5384   1.165   3.707  12.287 -0.0072  0.5975 -0.0020
  356TMC3    C5 5385   1.253   3.786  12.351  0.5658  0.2411  0.1350
  356TMC3    C6 5386   1.339   3.878  12.294  0.2608 -0.3378  0.0095
  356TMC3     C 5387   1.022   3.709  12.091 -0.5977  0.8288  0.3949
  356TMC3     O 5388   0.940   3.642  12.144  0.0993 -0.5575 -0.7824
  356TMC3     H 5389   1.257   3.805  11.973 -0.9049 -1.4174  0.2463
  356TMC3    H1 5390   1.084   3.655  12.338  1.3601  0.7731  2.3237
  356TMC3    H2 5391   1.401   3.935  12.361  0.7554 -1.8852  0.8698
  356TMC3    C7 5392   1.222   3.803  12.496  0.3504  0.3510  0.5717
  356TMC3    C8 5393   1.415   3.979  12.078 -0.0075 -0.0267  0.5029
  356TMC3    O1 5394   1.154   3.719  12.556  0.0417  0.5628  0.3169
  356TMC3    O2 5395   1.406   3.969  11.957  0.0714  0.0691  0.7361
  357MPD2     C 5396   0.541   3.585   0.706  1.0156  0.2608 -1.1805
  357MPD2    C1 5397   0.419   3.581   0.763  0.0299  0.1059  0.0252
  357MPD2    C2 5398   0.304   3.618   0.698  0.5992 -0.1513  0.2439
  357MPD2    C3 5399   0.310   3.626   0.557  0.8637  0.0667  0.3231
  357MPD2    C4 5400   0.433   3.622   0.491  0.4088 -0.1815 -0.2955
  357MPD2    C5 5401   0.544   3.605   0.569 -0.1399  1.0209 -0.2429
  357MPD2     H 5402   0.209   3.623   0.751 -0.2350 -1.0238 -1.1577
  357MPD2    H1 5403   0.442   3.624   0.383  0.1060  1.6335 -0.2861
  357MPD2    H2 5404   0.632   3.562   0.760  0.7893 -0.4985 -1.1275
  357MPD2    H3 5405   0.642   3.590   0.524  0.4345 -1.1137  1.7002
  357MPD2     N 5406   0.201   3.643   0.471 -0.4092 -0.0622  0.0004
  357MPD2    H5 5407   0.214   3.639   0.371 -0.8288  0.2489 -0.0647
  357MPD2    N1 5408   0.426   3.534   0.891 -0.5801 -0.6510  0.4819
  357MPD2    H7 5409   0.513   3.489   0.916 -1.4697 -2.4833  0.2936
  358TMC3    C1 5410   0.342   3.424   1.079 -0.8509  0.3067  0.0398
  358TMC3    C2 5411   0.410   3.307   1.056 -0.6969  0.1401 -0.0276
  358TMC3    C3 5412   0.445   3.234   1.174 -0.1581 -0.3683  0.6077
  358TMC3    C4 5413   0.307   3.463   1.205 -0.3144  0.6281 -1.0145
  358TMC3    C5 5414   0.348   3.391   1.311  0.2961 -0.3762  0.3474
  358TMC3    C6 5415   0.431   3.280   1.301 -0.5503 -0.3595  0.5401
  358TMC3     C 5416   0.319   3.523   0.979 -0.0502 -0.1464 -0.7082
  358TMC3     O 5417   0.219   3.592   0.994  0.1643  0.5417  0.1880
  358TMC3     H 5418   0.429   3.265   0.958  3.4265  0.7355  0.5249
  358TMC3    H1 5419   0.246   3.551   1.222 -0.2219  0.8908 -2.0974
  358TMC3    H2 5420   0.437   3.213   1.386  0.8793  2.3095  2.5428
  358TMC3    C7 5421   0.307   3.437   1.443 -0.1101 -0.6571 -0.0272
  358TMC3    C8 5422   0.466   3.089   1.153 -0.0295  0.8886 -0.1777
  358TMC3    O1 5423   0.202   3.500   1.449  1.0048  0.8565  0.1637
  358TMC3    O2 5424   0.529   3.028   1.238  0.1978  0.3014  0.7406
  359MPD2     C 5425   0.511   2.718  12.187  0.3543 -0.5956  0.1339
  359MPD2    C1 5426   0.592   2.616  12.156  0.0036 -0.4307 -0.6335
  359MPD2    C2 5427   0.543   2.485  12.167 -0.2561 -0.8138  0.8188
  359MPD2    C3 5428   0.406   2.459  12.203  0.2865  0.2078 -0.4318
  359MPD2    C4 5429   0.329   2.567  12.241  0.7438  0.7807  0.5515
  359MPD2    C5 5430   0.387   2.690  12.238  0.1925  0.2718  0.2783
  359MPD2     H 5431   0.609   2.402  12.146  0.6629  0.5104 -1.5000
  359MPD2    H1 5432   0.227   2.553  12.273 -0.0681  1.1711 -1.8593
  359MPD2    H2 5433   0.529   2.825  12.189  1.3848 -0.8049  2.1186
  359MPD2    H3 5434   0.329   2.776  12.272 -1.8355 -0.8914 -0.2325
  359MPD2     N 5435   0.356   2.326  12.211  0.5271  0.3502 -0.4839
  359MPD2    H5 5436   0.263   2.316  12.250 -0.3699  2.9276 -1.9783
  359MPD2    N1 5437   0.724   2.630  12.107 -0.0534  0.8819 -0.3110
  359MPD2    H7 5438   0.769   2.539  12.097  1.6361  1.6999 -0.0959
  360TMC3    C1 5439   0.928   2.713  12.040 -0.1878 -0.2810  0.3560
  360TMC3    C2 5440   1.028   2.786  12.091 -0.7370  0.4278 -0.4294
  360TMC3    C3 5441   1.155   2.752  12.049  0.1187 -0.2505  0.3972
  360TMC3    C4 5442   0.939   2.611  11.946  0.1837  0.0844  0.4916
  360TMC3    C5 5443   1.068   2.566  11.915  1.0995 -0.2261 -0.1148
  360TMC3    C6 5444   1.172   2.638  11.974  0.3625  0.6165 -0.3890
  360TMC3     C 5445   0.802   2.743  12.095 -0.1928 -0.0268 -0.0396
  360TMC3     O 5446   0.784   2.865  12.103 -0.2861  0.1620 -0.1679
  360TMC3     H 5447   1.005   2.880  12.139 -1.2101  0.3928 -0.5894
  360TMC3    H1 5448   0.857   2.590  11.879  0.0337  1.4152  0.2591
  360TMC3    H2 5449   1.274   2.603  11.962 -0.1591 -0.4348 -1.6985
  360TMC3    C7 5450   1.087   2.521  11.778  0.6827  0.7531  0.6933
  360TMC3    C8 5451   1.241   2.862  12.029  0.1065  0.1032  1.2224
  360TMC3    O1 5452   1.180   2.577  11.722  0.0887 -0.0207 -0.8400
  360TMC3    O2 5453   1.204   2.967  12.076 -0.7453  0.1771 -0.4884
  361MPD2     C 5454   1.945   1.254  16.784 -0.0836  0.0911  0.2973
  361MPD2    C1 5455   1.976   1.343  16.888 -0.2681  0.0198 -0.3788
  361MPD2    C2 5456   2.110   1.342  16.928 -0.8610 -0.3192  0.6964
  361MPD2    C3 5457   2.207   1.272  16.866 -0.4239 -0.5291  0.6198
  361MPD2    C4 5458   2.177   1.209  16.743 -0.2453  0.2930  0.2484
  361MPD2    C5 5459   2.046   1.195  16.716  0.8462  0.4413 -0.8188
  361MPD2     H 5460   2.131   1.387  17.024 -1.1566  0.0786  0.5742
  361MPD2    H1 5461   2.247   1.163  16.674 -0.0790  0.8032  0.0795
  361MPD2    H2 5462   1.844   1.220  16.764 -0.2368  1.9596 -2.1773
  361MPD2    H3 5463   2.029   1.146  16.622 -0.8985 -0.0740 -0.2297
  361MPD2     N 5464   2.343   1.270  16.909 -0.7240 -0.0672 -0.1087
  361MPD2    H5 5465   2.403   1.224  16.841 -1.6097 -0.9141 -0.3171
  361MPD2    N1 5466   1.884   1.417  16.961 -0.7461  0.6099 -0.2151
  361MPD2    H7 5467   1.921   1.486  17.026 -1.4660 -0.0234  0.8815
  362TMC3    C1 5468   1.682   1.552  16.968  0.1387 -0.3844  0.8603
  362TMC3    C2 5469   1.718   1.588  17.092  0.2440  0.3927 -0.3002
  362TMC3    C3 5470   1.683   1.716  17.129 -0.3869  0.1015 -0.4194
  362TMC3    C4 5471   1.622   1.637  16.872 -0.6014  0.4380  0.2172
  362TMC3    C5 5472   1.590   1.765  16.916  0.4735  0.0131  0.2505
  362TMC3    C6 5473   1.631   1.809  17.040  0.0175  0.0557  0.2692
  362TMC3     C 5474   1.752   1.434  16.917 -0.3939 -0.8216 -0.2210
  362TMC3     O 5475   1.681   1.361  16.851 -0.4395 -0.3383 -0.0010
  362TMC3     H 5476   1.737   1.512  17.167 -1.7543 -1.7482 -1.9432
  362TMC3    H1 5477   1.600   1.593  16.775 -0.3369 -0.6881  0.6637
  362TMC3    H2 5478   1.597   1.909  17.067  1.4244  0.9224 -1.2364
  362TMC3    C7 5479   1.555   1.862  16.820 -0.3368  0.2641 -0.1510
  362TMC3    C8 5480   1.726   1.753  17.260 -0.0447 -0.3638  1.1384
  362TMC3    O1 5481   1.574   1.975  16.854 -0.0897 -0.1032 -0.2019
  362TMC3    O2 5482   1.819   1.692  17.312  0.0379  0.2679 -0.5066
  363TMC3    C1 5483   0.623   0.121   9.797 -0.2818 -0.5038 -0.4315
  363TMC3    C2 5484   0.728   0.039   9.839  0.0729  0.4728  0.4493
  363TMC3    C3 5485   0.837   0.107   9.888 -0.1934  0.1211  0.4436
  363TMC3    C4 5486   0.636   0.261   9.803  0.3250  0.1511  0.1476
  363TMC3    C5 5487   0.744   0.318   9.851  0.2573  0.6454  1.0926
  363TMC3    C6 5488   0.844   0.243   9.893 -0.7223  0.1288 -0.6087
  363TMC3     C 5489   0.495   0.059   9.757 -0.0790  0.6947 -0.0093
  363TMC3     O 5490   0.394   0.130   9.759 -0.0293 -0.0040 -0.0689
  363TMC3     H 5491   0.722   4.664   9.856  2.9339  0.4295  1.1165
  363TMC3    H1 5492   0.551   0.315   9.761 -0.5621 -1.0520  0.3911
  363TMC3    H2 5493   0.930   0.278   9.949 -0.9986 -1.4377  0.7853
  363TMC3    C7 5494   0.764   0.460   9.822  1.0726 -0.6000  0.1377
  363TMC3    C8 5495   0.936   0.028   9.956  0.5359  0.8049 -0.4863
  363TMC3    O1 5496   0.662   0.533   9.811  0.0852 -0.1226 -0.4844
  363TMC3    O2 5497   1.001   0.091  10.041 -0.9416  0.1964  0.5184
  364MPD2     C 5498   4.668   4.105  10.670 -0.4726  0.4189 -0.5846
  364MPD2    C1 5499   0.018   4.054  10.573 -1.0436  0.0471 -0.3098
  364MPD2    C2 5500   0.033   3.916  10.561 -0.1248 -0.4102  0.1211
  364MPD2    C3 5501   4.701   3.829  10.646 -0.2051  0.2276 -0.2654
  364MPD2    C4 5502   4.619   3.879  10.744 -0.5519  0.2538 -0.4361
  364MPD2    C5 5503   4.610   4.017  10.759  0.1433  0.1702 -0.2174
  364MPD2     H 5504   0.095   3.870  10.486  1.1267  1.8434 -0.2304
  364MPD2    H1 5505   4.579   3.813  10.821 -0.2383  1.5180  0.8259
  364MPD2    H2 5506   4.639   4.209  10.668  2.4064  1.2471  0.1674
  364MPD2    H3 5507   4.543   4.052  10.837  0.4436 -0.7225  0.4525
  364MPD2     N 5508   4.725   3.690  10.653 -0.0336 -0.4226 -0.2951
  364MPD2    H5 5509   4.668   3.638  10.719 -0.3960 -0.1793 -0.4176
  364MPD2    N1 5510   0.080   4.135  10.480 -0.1444 -0.7844  0.3287
  364MPD2    H7 5511   0.114   4.100  10.392 -0.7590  1.5365 -0.8286
  365TMC3    C1 5512   0.219   4.330  10.431  0.3856  0.2840 -0.2111
  365TMC3    C2 5513   0.325   4.245  10.404 -0.8302  0.4549  0.7238
  365TMC3    C3 5514   0.447   4.289  10.442  0.3464 -0.6771  0.2071
  365TMC3    C4 5515   0.249   4.449  10.492  0.4549  0.5159  0.1276
  365TMC3    C5 5516   0.377   4.486  10.524 -0.5438 -0.0759  0.0605
  365TMC3    C6 5517   0.483   4.408  10.500  0.7551 -0.1643  0.2888
  365TMC3     C 5518   0.117   4.263  10.514  0.4678 -0.4335  1.2504
  365TMC3     O 5519   0.111   4.315  10.623 -0.2043 -0.1864 -0.8373
  365TMC3     H 5520   0.303   4.148  10.362  0.3468  0.3937  0.2512
  365TMC3    H1 5521   0.177   4.526  10.520 -1.6374 -1.2497 -0.4184
  365TMC3    H2 5522   0.584   4.427  10.532  1.6840 -1.1660 -2.0371
  365TMC3    C7 5523   0.385   4.563  10.646 -0.0785 -0.7666 -0.4690
  365TMC3    C8 5524   0.564   4.190  10.434  0.1288 -0.8384 -0.8394
  365TMC3    O1 5525   0.483   4.633  10.668  0.1138  0.0627  0.4979
  365TMC3    O2 5526   0.659   4.210  10.506  0.1586 -0.5763 -0.1428
  366MPD2     C 5527   2.688   4.456  15.446 -0.7140  0.6732 -0.0711
  366MPD2    C1 5528   2.792   4.538  15.473 -0.5636 -0.2977  0.1145
  366MPD2    C2 5529   2.921   4.493  15.455 -0.0459  0.0589  0.0299
  366MPD2    C3 5530   2.951   4.378  15.391  0.4035  0.2846 -0.0527
  366MPD2    C4 5531   2.846   4.291  15.373 -0.4460 -0.3211  0.4373
  366MPD2    C5 5532   2.717   4.333  15.391 -0.5551 -0.3537 -0.0787
  366MPD2     H 5533   2.999   4.564  15.481 -0.1252  0.0029  0.4097
  366MPD2    H1 5534   2.859   4.198  15.319  0.1134  0.0016 -0.0000
  366MPD2    H2 5535   2.584   4.482  15.459 -0.8129 -0.1083  0.6156
  366MPD2    H3 5536   2.644   4.256  15.370  0.0781 -1.8776  3.2833
  366MPD2     N 5537   3.079   4.369  15.340 -0.2236  0.2761 -0.2202
  366MPD2    H5 5538   3.145   4.444  15.361  0.7511 -0.7101  0.2622
  366MPD2    N1 5539   2.778   4.675  15.494 -0.0870 -0.7304 -0.7338
  366MPD2    H7 5540   2.863   4.727  15.511  0.3392 -1.5544 -0.3356
  367TMC3    C1 5541   2.683   0.162  15.503  0.4537 -0.3393 -0.3966
  367TMC3    C2 5542   2.785   0.207  15.579 -0.6765  1.1119  0.6089
  367TMC3    C3 5543   2.801   0.341  15.587  0.8323  0.0739  0.1159
  367TMC3    C4 5544   2.599   0.242  15.426  0.2771  0.4047  0.1860
  367TMC3    C5 5545   2.625   0.374  15.430  0.4293  0.0237  0.4768
  367TMC3    C6 5546   2.715   0.428  15.517 -0.1497  0.1005  0.0710
  367TMC3     C 5547   2.658   0.016  15.496  0.2836 -0.1184  0.7943
  367TMC3     O 5548   2.551   4.705  15.448  0.7544  0.0570  0.3764
  367TMC3     H 5549   2.852   0.144  15.636 -1.1531  0.7068  0.7136
  367TMC3    H1 5550   2.515   0.193  15.378  1.7292 -0.7736 -1.1581
  367TMC3    H2 5551   2.709   0.534  15.537 -0.0964  0.0152  0.5417
  367TMC3    C7 5552   2.519   0.466  15.377  0.4878 -0.1185 -0.7401
  367TMC3    C8 5553   2.903   0.401  15.670 -0.4391 -0.8682 -0.5860
  367TMC3    O1 5554   2.534   0.584  15.400 -0.0127  0.0483 -0.1190
  367TMC3    O2 5555   2.958   0.319  15.745  0.0439 -0.0500 -0.9626
  368MPD2     C 5556   3.891   1.497  13.237 -0.1976  0.1054 -0.0051
  368MPD2    C1 5557   3.836   1.562  13.129  0.2642 -0.1899 -0.6700
  368MPD2    C2 5558   3.892   1.544  13.002 -0.0837 -0.0273  0.3824
  368MPD2    C3 5559   4.010   1.466  12.991 -0.3791  0.3875  0.2884
  368MPD2    C4 5560   4.062   1.410  13.103 -0.0919 -0.0759  0.1822
  368MPD2    C5 5561   4.005   1.427  13.225  0.5222 -0.4389 -0.1590
  368MPD2     H 5562   3.856   1.613  12.927 -1.2440 -1.8406 -0.7170
  368MPD2    H1 5563   4.155   1.354  13.098  0.3930  0.5248  2.3186
  368MPD2    H2 5564   3.846   1.489  13.335 -0.8762  1.5991 -0.1874
  368MPD2    H3 5565   4.028   1.367  13.312  2.8144 -0.6048 -0.8759
  368MPD2     N 5566   4.091   1.461  12.880 -0.0285  0.0821 -0.4738
  368MPD2    H5 5567   4.181   1.415  12.883  0.7327  1.6807  1.6172
  368MPD2    N1 5568   3.736   1.663  13.168  0.1273 -0.4711  0.7933
  368MPD2    H7 5569   3.690   1.641  13.256 -0.5303  1.2694  0.8850
  369TMC3    C1 5570   3.615   1.845  13.169  0.4342  0.1171 -0.2031
  369TMC3    C2 5571   3.635   1.979  13.161  0.2319 -0.0388  0.3879
  369TMC3    C3 5572   3.557   2.068  13.228  0.1409  0.2345  0.0272
  369TMC3    C4 5573   3.502   1.794  13.221 -1.1046  1.3130 -1.2213
  369TMC3    C5 5574   3.423   1.883  13.289 -0.3031 -0.0690  0.2958
  369TMC3    C6 5575   3.453   2.017  13.299 -0.2178  0.3299 -0.0712
  369TMC3     C 5576   3.701   1.767  13.086 -0.0336 -0.2554  0.7947
  369TMC3     O 5577   3.766   1.823  12.997 -0.2787 -0.4370 -0.0533
  369TMC3     H 5578   3.728   2.017  13.120  0.5144  1.1611  2.1142
  369TMC3    H1 5579   3.478   1.689  13.213  1.4369  0.7103 -0.9317
  369TMC3    H2 5580   3.378   2.082  13.343 -1.0722 -0.0943 -0.8894
  369TMC3    C7 5581   3.314   1.831  13.368  0.4146 -0.5129  0.5249
  369TMC3    C8 5582   3.620   2.194  13.266 -0.3241  0.2903 -0.8099
  369TMC3    O1 5583   3.340   1.722  13.413 -0.3719  0.7071  0.3430
  369TMC3    O2 5584   3.594   2.232  13.379 -0.6015 -0.4905 -0.6009
  370TMC3    C1 5585   3.372   2.344  16.147 -0.5181  0.5365 -0.2230
  370TMC3    C2 5586   3.324   2.283  16.255 -0.0767 -0.4632 -0.4254
  370TMC3    C3 5587   3.337   2.148  16.256 -0.0624  0.0011  0.3671
  370TMC3    C4 5588   3.432   2.275  16.046  0.4453 -0.6329  0.2038
  370TMC3    C5 5589   3.451   2.140  16.055  0.0137 -0.3815 -0.0104
  370TMC3    C6 5590   3.405   2.070  16.160  0.9194  0.6969  0.1080
  370TMC3     C 5591   3.367   2.485  16.139 -0.1581  0.1146 -0.4159
  370TMC3     O 5592   3.297   2.533  16.230  0.2799 -0.8058 -0.4350
  370TMC3     H 5593   3.277   2.333  16.339  0.7410 -2.1876  1.0558
  370TMC3    H1 5594   3.477   2.328  15.962 -0.1149 -0.4059  0.0463
  370TMC3    H2 5595   3.413   1.962  16.157  1.1257  0.6961  0.7548
  370TMC3    C7 5596   3.508   2.065  15.952  0.2335 -0.4769 -0.6282
  370TMC3    C8 5597   3.272   2.064  16.353 -0.4261 -0.4536  0.9131
  370TMC3    O1 5598   3.507   2.113  15.841  0.0059 -0.2712 -0.2629
  370TMC3    O2 5599   3.306   1.945  16.356  0.0187 -0.5242  0.5267
  371TMC3    C1 5600   4.682   0.474  15.510 -0.2840 -0.1757 -0.6267
  371TMC3    C2 5601   4.629   0.518  15.625 -0.5142  0.2387  0.1242
  371TMC3    C3 5602   4.619   0.656  15.646 -0.7243  0.4106 -0.2061
  371TMC3    C4 5603   0.004   0.557  15.416  0.0946  0.0346 -0.1394
  371TMC3    C5 5604   0.007   0.698  15.443  0.9227 -0.1973  0.3658
  371TMC3    C6 5605   4.681   0.749  15.559 -0.6942  0.0742 -0.6613
  371TMC3     C 5606   4.727   0.339  15.504  0.7967 -0.3765 -0.4153
  371TMC3     O 5607   0.112   0.336  15.469 -0.0328 -0.0375 -0.1834
  371TMC3     H 5608   4.590   0.452  15.701 -1.0097 -0.4637 -0.7317
  371TMC3    H1 5609   0.051   0.516  15.328 -0.2192  1.4911 -0.9858
  371TMC3    H2 5610   4.681   0.856  15.577  0.4606 -0.1497  0.6725
  371TMC3    C7 5611   0.042   0.788  15.337 -0.3746  0.2263  0.1688
  371TMC3    C8 5612   4.585   0.694  15.781 -0.8249 -0.1007 -0.2170
  371TMC3    O1 5613   4.709   0.892  15.323  0.0715 -0.0025  0.4163
  371TMC3    O2 5614   4.604   0.607  15.870  0.8123 -0.3601  0.2967
  372MPD2     C 5615   3.727   1.778  13.551 -0.2760 -0.0793 -0.3831
  372MPD2    C1 5616   3.833   1.699  13.540 -1.0432 -0.0196  0.3530
  372MPD2    C2 5617   3.831   1.571  13.598 -0.0587 -0.7757  0.4879
  372MPD2    C3 5618   3.719   1.516  13.650  1.0911 -0.0130  0.4012
  372MPD2    C4 5619   3.607   1.586  13.621 -0.4243 -0.4755  0.2704
  372MPD2    C5 5620   3.611   1.718  13.582  0.3099 -0.2334 -0.2599
  372MPD2     H 5621   3.916   1.504  13.609  1.5339  1.0861 -0.5210
  372MPD2    H1 5622   3.511   1.543  13.646 -0.7761  1.0139  1.4816
  372MPD2    H2 5623   3.720   1.876  13.506  0.5690  0.0315 -0.2840
  372MPD2    H3 5624   3.522   1.778  13.576  0.1649 -0.3631  0.6678
  372MPD2     N 5625   3.717   1.387  13.711 -0.1362  0.0333 -0.3592
  372MPD2    H5 5626   3.809   1.354  13.737 -1.0231 -0.3533  2.2957
  372MPD2    N1 5627   3.950   1.734  13.470 -0.2956  0.2953  0.8272
  372MPD2    H7 5628   4.020   1.661  13.476 -2.8828 -2.3629 -1.2773
  373TMC3    C1 5629   3.642   1.193  13.808 -0.3307 -0.2750 -0.1670
  373TMC3    C2 5630   3.542   1.139  13.884 -0.1092  0.5862  0.6163
  373TMC3    C3 5631   3.538   1.008  13.924 -0.0410 -0.3250 -0.3858
  373TMC3    C4 5632   3.738   1.115  13.754  0.1329  0.4076  1.2673
  373TMC3    C5 5633   3.740   0.984  13.785 -0.8344  0.5722 -0.3584
  373TMC3    C6 5634   3.647   0.935  13.873  0.1264  0.3346  0.5059
  373TMC3     C 5635   3.605   1.317  13.746 -0.3102  0.2173 -0.1532
  373TMC3     O 5636   3.490   1.355  13.749  0.4758  0.2171 -0.0981
  373TMC3     H 5637   3.477   1.210  13.933  0.7399  0.2470  2.2442
  373TMC3    H1 5638   3.819   1.151  13.691  0.2857 -0.3418  1.0342
  373TMC3    H2 5639   3.668   0.841  13.923  0.2819 -0.5697 -1.2662
  373TMC3    C7 5640   3.827   0.898  13.713 -0.1760  0.4612 -0.9280
  373TMC3    C8 5641   3.537   0.999  14.066  0.1101 -1.5773  0.0626
  373TMC3    O1 5642   3.927   0.950  13.667  0.0720 -0.7897  0.0882
  373TMC3    O2 5643   3.492   0.897  14.112  0.1457 -0.0960  0.0902
  374TMC3    C1 5644   4.706   2.156   9.923  0.0220  0.9243 -0.6595
  374TMC3    C2 5645   0.048   2.256   9.978  0.1896  0.3037  1.3344
  374TMC3    C3 5646   0.013   2.380   9.942 -0.6875  0.5678 -0.0087
  374TMC3    C4 5647   4.635   2.173   9.813 -0.0856  0.1558 -0.1454
  374TMC3    C5 5648   4.596   2.300   9.781  0.0798  0.2924 -0.4567
  374TMC3    C6 5649   4.649   2.407   9.848 -0.2223  0.3597 -0.0616
  374TMC3     C 5650   0.002   2.025   9.971  0.1961 -0.1801 -0.2906
  374TMC3     O 5651   0.106   2.014  10.032 -0.4869 -0.5005  0.2816
  374TMC3     H 5652   0.119   2.234  10.056  1.8468 -2.4037 -0.9652
  374TMC3    H1 5653   4.600   2.088   9.756 -0.8829  0.0840  0.4443
  374TMC3    H2 5654   4.631   2.505   9.805  0.0543  0.9351  1.1536
  374TMC3    C7 5655   4.531   2.328   9.652 -0.7406  0.0759  0.0860
  374TMC3    C8 5656   0.080   2.491   9.999 -0.8935 -0.5829 -0.0810
  374TMC3    O1 5657   4.528   2.445   9.611 -0.1018 -0.1327 -0.3436
  374TMC3    O2 5658   0.048   2.595   9.944 -0.4273  0.4651 -0.2166
  375MPD2     C 5659   4.635   2.658  17.392 -0.1033 -0.3868  0.4692
  375MPD2    C1 5660   4.597   2.702  17.265 -0.1897 -0.2530  0.2678
  375MPD2    C2 5661   4.619   2.617  17.159 -0.2789  0.0892 -0.0519
  375MPD2    C3 5662   4.686   2.500  17.181  0.0787  0.0223 -0.3876
  375MPD2    C4 5663   0.009   2.466  17.300 -0.4343 -0.8923 -0.4811
  375MPD2    C5 5664   4.718   2.547  17.411  0.5966 -0.1560 -0.7427
  375MPD2     H 5665   4.594   2.642  17.057  0.6862 -1.0374 -0.5629
  375MPD2    H1 5666   0.054   2.367  17.305 -0.4179 -1.0227 -3.0205
  375MPD2    H2 5667   4.621   2.724  17.477  1.9586  0.0202  0.4965
  375MPD2    H3 5668   0.018   2.530  17.513 -2.4836 -0.7747  0.1291
  375MPD2     N 5669   4.714   2.405  17.076  0.6618  0.0051  0.2038
  375MPD2    H5 5670   0.042   2.328  17.104  0.7600  0.4862  1.3259
  375MPD2    N1 5671   4.531   2.828  17.241  0.0508 -0.1959  0.2192
  375MPD2    H7 5672   4.535   2.852  17.142  0.3142 -0.2895  0.2071
  376TMC3    C1 5673   4.717   2.299  16.863 -0.2486  0.1901  0.3447
  376TMC3    C2 5674   0.085   2.215  16.902  0.2269 -0.2412 -0.4562
  376TMC3    C3 5675   0.120   2.110  16.810 -0.6690  0.7963  0.2637
  376TMC3    C4 5676   4.663   2.293  16.744 -0.0693  0.1152  0.0285
  376TMC3    C5 5677   4.711   2.205  16.652 -0.2084 -0.5832 -0.0802
  376TMC3    C6 5678   0.069   2.103  16.684 -0.2409 -0.0744 -0.2101
  376TMC3     C 5679   4.661   2.403  16.945  0.1453 -0.5207  0.5713
  376TMC3     O 5680   4.566   2.470  16.909  0.4742 -0.4704 -0.1947
  376TMC3     H 5681   0.130   2.214  17.000  0.2805 -1.8169 -0.4968
  376TMC3    H1 5682   4.594   2.370  16.711 -0.0805  0.5369  1.0138
  376TMC3    H2 5683   0.099   2.028  16.612  1.2185 -0.2656  0.6040
  376TMC3    C7 5684   4.668   2.223  16.516 -0.0276  0.1541 -0.2352
  376TMC3    C8 5685   0.268   2.100  16.798  0.2837 -0.7065 -0.2066
  376TMC3    O1 5686   4.611   2.322  16.479 -0.5781 -0.3911  0.5320
  376TMC3    O2 5687   0.319   2.112  16.686  0.1832 -0.0251  0.1422
  377MPD2     C 5688   2.776   2.442  12.555  0.3204 -0.4338  0.7034
  377MPD2    C1 5689   2.854   2.363  12.631  0.0218  0.1946  0.0631
  377MPD2    C2 5690   2.793   2.271  12.717  0.4473 -0.0681  0.5905
  377MPD2    C3 5691   2.656   2.283  12.744 -0.0801  0.3808 -0.1751
  377MPD2    C4 5692   2.583   2.378  12.682 -0.1426  0.5440 -0.3479
  377MPD2    C5 5693   2.643   2.454  12.582  0.0881 -0.9890  0.1330
  377MPD2     H 5694   2.858   2.194  12.757 -0.6182 -0.9422  0.6232
  377MPD2    H1 5695   2.476   2.391  12.695 -0.2699 -0.9017  0.0730
  377MPD2    H2 5696   2.819   2.511  12.484  0.7804  0.4851  1.8846
  377MPD2    H3 5697   2.576   2.522  12.531 -0.6883 -2.8655 -1.3638
  377MPD2     N 5698   2.587   2.207  12.835  0.3872  0.7668  0.0067
  377MPD2    H5 5699   2.497   2.245  12.863  0.4652 -0.4977  1.9444
  377MPD2    N1 5700   2.988   2.361  12.593  0.1150 -0.3377 -0.0153
  377MPD2    H7 5701   3.011   2.424  12.517  0.9599  0.2042  0.6857
  378TMC3    C1 5702   3.368   2.455  12.493  0.8771 -0.8340 -0.5407
  378TMC3    C2 5703   3.238   2.432  12.526  0.1840 -0.2858  0.2655
  378TMC3    C3 5704   3.218   2.320  12.611  0.1714 -0.8698 -0.3462
  378TMC3    C4 5705   3.464   2.353  12.510 -0.9312  0.6617  0.0278
  378TMC3    C5 5706   3.432   2.246  12.584 -0.2328 -0.0944  0.1858
  378TMC3    C6 5707   3.315   2.227  12.641 -0.6462 -0.2104  0.3448
  378TMC3     C 5708   3.398   2.556  12.397 -0.5740  0.0917 -0.0405
  378TMC3     O 5709   3.314   2.595  12.317  0.4047  0.1536 -0.3990
  378TMC3     H 5710   3.171   2.516  12.516 -0.2477 -0.4322  1.8819
  378TMC3    H1 5711   3.559   2.362  12.459 -2.3578  1.7061 -2.4626
  378TMC3    H2 5712   3.292   2.148  12.711  0.4414 -0.4928  0.3843
  378TMC3    C7 5713   3.537   2.165  12.623  0.6242  0.0668  0.4545
  378TMC3    C8 5714   3.082   2.285  12.653  0.7807  0.2125  0.3082
  378TMC3    O1 5715   3.508   2.082  12.709 -0.0040  0.0168 -0.1353
  378TMC3    O2 5716   3.069   2.189  12.729  0.0887  0.2015 -0.5549
  379MPD2     C 5717   4.078   0.704  16.244  0.4410  0.0579 -0.0992
  379MPD2    C1 5718   3.983   0.634  16.318 -0.4985 -0.5854  0.3320
  379MPD2    C2 5719   4.035   0.568  16.432  0.0303 -0.0983  0.1574
  379MPD2    C3 5720   4.165   0.586  16.480  0.2106 -0.1286 -0.4466
  379MPD2    C4 5721   4.253   0.657  16.404  0.0482  0.6406  0.0627
  379MPD2    C5 5722   4.210   0.711  16.286 -0.2293  0.6183 -0.3051
  379MPD2     H 5723   3.962   0.511  16.488  0.8179  0.1394  1.4379
  379MPD2    H1 5724   4.355   0.671  16.440  0.3410 -1.4669  0.0929
  379MPD2    H2 5725   4.060   0.760  16.152 -1.4435  0.2459  0.3899
  379MPD2    H3 5726   4.283   0.760  16.223 -0.3503 -0.0353 -0.9424
  379MPD2     N 5727   4.210   0.537  16.603 -0.0450  0.6287 -0.3481
  379MPD2    H5 5728   4.299   0.573  16.634 -0.9712  3.0364 -0.4937
  379MPD2    N1 5729   3.858   0.615  16.258 -0.1531  0.3650 -0.1242
  379MPD2    H7 5730   3.842   0.674  16.177 -0.6520  0.8469  0.3212
  380TMC3    C1 5731   3.661   0.510  16.202 -0.2138 -0.1626  0.7581
  380TMC3    C2 5732   3.673   0.389  16.139  0.1027 -0.0871 -0.3808
  380TMC3    C3 5733   3.605   0.377  16.021  0.4564  0.2716  0.1511
  380TMC3    C4 5734   3.585   0.616  16.154  0.4154  0.2851 -0.7842
  380TMC3    C5 5735   3.527   0.593  16.029  0.1093 -0.5494  0.4048
  380TMC3    C6 5736   3.529   0.471  15.966  0.2192 -0.4927 -0.0034
  380TMC3     C 5737   3.763   0.526  16.294 -0.7352  0.4682  0.3776
  380TMC3     O 5738   3.775   0.455  16.389  0.2301  0.5763 -0.0708
  380TMC3     H 5739   3.743   0.318  16.182  0.0678  0.2503  0.2328
  380TMC3    H1 5740   3.567   0.706  16.212  1.7393 -0.4304  0.7217
  380TMC3    H2 5741   3.497   0.468  15.863 -0.1905  4.3515 -0.0073
  380TMC3    C7 5742   3.418   0.681  15.998 -0.3544  0.5766 -0.3430
  380TMC3    C8 5743   3.663   0.283  15.927  0.7586 -0.0812 -0.2684
  380TMC3    O1 5744   3.435   0.798  16.015  0.7685  0.0409 -0.6676
  380TMC3    O2 5745   3.653   0.301  15.805  0.2844  0.5327  0.2857
  381TMC3    C1 5746   3.668   1.448  16.394 -0.9006 -0.0345  0.1576
  381TMC3    C2 5747   3.673   1.583  16.364 -0.2542 -0.5533  0.1211
  381TMC3    C3 5748   3.610   1.667  16.445 -0.0237  0.1642 -0.2712
  381TMC3    C4 5749   3.608   1.410  16.511 -0.6904 -0.3472  0.4697
  381TMC3    C5 5750   3.557   1.503  16.596  0.6039 -0.0520 -0.0784
  381TMC3    C6 5751   3.549   1.633  16.563 -0.0218  0.1529 -0.0475
  381TMC3     C 5752   3.649   1.352  16.287  0.4124 -0.0926  0.4536
  381TMC3     O 5753   3.603   1.242  16.324  0.1024 -0.0326  0.6247
  381TMC3     H 5754   3.705   1.612  16.264 -0.8888  1.6726  0.5736
  381TMC3    H1 5755   3.596   1.305  16.535 -0.6713 -0.0767  1.7045
  381TMC3    H2 5756   3.517   1.715  16.627  0.7187  0.2436  0.2054
  381TMC3    C7 5757   3.464   1.447  16.696 -0.4787  0.5494 -0.1896
  381TMC3    C8 5758   3.610   1.802  16.384 -0.4348  0.0852 -0.6918
  381TMC3    O1 5759   3.494   1.340  16.736  0.2136  0.6302 -0.2412
  381TMC3    O2 5760   3.595   1.799  16.260 -0.2532 -0.0176 -1.0057
  382MPD2     C 5761   3.114   3.730  17.208  0.0960  0.5071 -0.2469
  382MPD2    C1 5762   2.977   3.777  17.224  0.4728 -0.3233  0.4372
  382MPD2    C2 5763   2.879   3.687  17.248 -0.0665 -0.4137 -0.5385
  382MPD2    C3 5764   2.909   3.552  17.283  0.0618  0.3228 -0.2425
  382MPD2    C4 5765   3.037   3.522  17.295 -0.6218 -0.5108 -0.2858
  382MPD2    C5 5766   3.131   3.599  17.239 -0.5500  0.0532 -0.5523
  382MPD2     H 5767   2.777   3.724  17.242 -0.0559 -0.2633  0.3335
  382MPD2    H1 5768   3.067   3.426  17.336 -1.0599  0.4535  2.3121
  382MPD2    H2 5769   3.202   3.781  17.170  0.5605 -2.0353 -2.6399
  382MPD2    H3 5770   3.231   3.559  17.251  0.0459  1.6725 -0.1252
  382MPD2     N 5771   2.815   3.452  17.324 -0.0286 -0.0063 -0.0193
  382MPD2    H5 5772   2.848   3.357  17.337  1.1740  0.3257 -0.6376
  382MPD2    N1 5773   2.925   3.912  17.189 -0.1138  0.0016  0.4204
  382MPD2    H7 5774   2.827   3.933  17.205 -0.0693  1.1602 -0.8816
  383TMC3    C1 5775   2.622   3.350  17.365  0.5034 -0.8547  0.1379
  383TMC3    C2 5776   2.501   3.325  17.312 -0.3444 -0.7164 -0.9187
  383TMC3    C3 5777   2.440   3.204  17.346 -0.2241 -0.5857  0.4838
  383TMC3    C4 5778   2.678   3.269  17.461  0.0969  0.2421 -0.2661
  383TMC3    C5 5779   2.610   3.157  17.492  0.0132  0.1176  0.3215
  383TMC3    C6 5780   2.499   3.118  17.429  0.0065 -0.2137  0.0272
  383TMC3     C 5781   2.684   3.474  17.324 -0.1420 -0.0277 -0.2662
  383TMC3     O 5782   2.618   3.572  17.291 -0.9528 -0.0425  0.6572
  383TMC3     H 5783   2.455   3.390  17.238  1.2997 -1.8994 -2.9419
  383TMC3    H1 5784   2.773   3.284  17.511  0.2898 -1.0018 -0.2415
  383TMC3    H2 5785   2.453   3.030  17.471  3.5105 -1.5921  0.9893
  383TMC3    C7 5786   2.599   3.128  17.634  0.4815 -1.1001  0.1104
  383TMC3    C8 5787   2.311   3.163  17.289 -0.2770 -0.0386 -0.3623
  383TMC3    O1 5788   2.574   3.011  17.667  0.0232 -0.6344  0.5965
  383TMC3    O2 5789   2.246   3.247  17.225  0.3925  0.1372  0.2806
  384MPD2     C 5790   3.905   0.294  11.863 -0.4493 -0.1495 -0.4194
  384MPD2    C1 5791   3.911   0.259  11.997 -0.2138  0.8834 -0.5411
  384MPD2    C2 5792   4.025   0.229  12.061 -0.1827  0.4151  0.1283
  384MPD2    C3 5793   4.138   0.220  11.982 -0.1436 -0.4242 -0.7273
  384MPD2    C4 5794   4.132   0.254  11.847 -0.2272 -0.1877  0.1551
  384MPD2    C5 5795   4.014   0.291  11.786  0.1296 -0.6640  0.7561
  384MPD2     H 5796   4.021   0.188  12.161 -2.7233 -1.6220 -0.8142
  384MPD2    H1 5797   4.222   0.249  11.786  1.5275  0.7076  2.6493
  384MPD2    H2 5798   3.810   0.331  11.824 -0.8465 -1.0785 -0.3257
  384MPD2    H3 5799   4.015   0.320  11.682 -0.8954 -1.0150  0.6506
  384MPD2     N 5800   4.252   0.178  12.050  0.3358  0.0516 -0.5393
  384MPD2    H5 5801   4.233   0.146  12.144  0.5112  0.4184 -0.3816
  384MPD2    N1 5802   3.798   0.271  12.085 -0.2042  0.2750 -0.4559
  384MPD2    H7 5803   3.825   0.276  12.183  0.7686  0.9360 -0.7567
  385TMC3    C1 5804   4.440   0.052  12.081 -0.2375  0.3071 -0.5222
  385TMC3    C2 5805   4.457   4.659  12.050 -0.4492 -0.2197 -0.2633
  385TMC3    C3 5806   4.440   4.561  12.148  0.7718 -0.0915  0.1198
  385TMC3    C4 5807   4.426   0.093  12.213 -0.1494  0.6931  0.4883
  385TMC3    C5 5808   4.397   4.730  12.307 -0.1343  0.3269 -0.5410
  385TMC3    C6 5809   4.404   4.596  12.274 -0.1715  0.3892 -0.4026
  385TMC3     C 5810   4.368   0.136  11.995  0.6994  0.2970  0.5846
  385TMC3     O 5811   4.414   0.148  11.883  0.1754 -0.4438 -0.3374
  385TMC3     H 5812   4.501   4.632  11.954  1.6506 -4.9481  2.0127
  385TMC3    H1 5813   4.445   0.197  12.237 -0.8851  0.7910  0.6377
  385TMC3    H2 5814   4.369   4.523  12.346 -1.3843  4.2023  2.8560
  385TMC3    C7 5815   4.280   0.035  12.373  0.0905 -0.1001 -0.0027
  385TMC3    C8 5816   4.470   4.423  12.113 -1.0679 -0.4911  0.0368
  385TMC3    O1 5817   4.224   0.130  12.325  0.1999  0.0877 -0.2786
  385TMC3    O2 5818   4.474   4.343  12.206  0.4385 -0.8959  0.2241
  386TMC3    C1 5819   0.293   2.480  11.852  0.2568  0.1867  0.2544
  386TMC3    C2 5820   0.315   2.566  11.748 -0.3652 -1.1825  0.1278
  386TMC3    C3 5821   0.223   2.669  11.733 -0.1730  1.0915 -0.0350
  386TMC3    C4 5822   0.192   2.485  11.943  0.2703 -0.4629  0.3491
  386TMC3    C5 5823   0.109   2.592  11.929 -0.1254 -0.3307 -0.0205
  386TMC3    C6 5824   0.130   2.688  11.829  0.8934 -0.6887  0.2268
  386TMC3     C 5825   0.373   2.367  11.854  0.6664  0.6013 -0.9723
  386TMC3     O 5826   0.489   2.380  11.813 -0.5694  0.1749 -0.4390
  386TMC3     H 5827   0.396   2.536  11.682 -0.3402  1.6806 -1.1414
  386TMC3    H1 5828   0.185   2.412  12.023  1.6840 -1.1385 -0.1354
  386TMC3    H2 5829   0.066   2.775  11.828  0.0407 -1.3169  0.1145
  386TMC3    C7 5830   4.718   2.576  11.997  0.1375 -0.0261 -0.0424
  386TMC3    C8 5831   0.169   2.690  11.598 -0.4345 -0.3750 -0.9278
  386TMC3    O1 5832   4.725   2.545  12.113 -0.0628 -0.0066 -0.5737
  386TMC3    O2 5833   0.066   2.757  11.601  0.0331  0.1577 -0.2341
  387MPD2     C 5834   1.757   1.912   9.987 -0.3035 -0.0586  0.1589
  387MPD2    C1 5835   1.894   1.904   9.966 -0.0620 -0.8469  0.2448
  387MPD2    C2 5836   1.953   1.778   9.982  0.0603 -0.3065 -0.1528
  387MPD2    C3 5837   1.885   1.668  10.037 -0.2010 -0.1819 -0.2346
  387MPD2    C4 5838   1.750   1.679  10.072 -0.1649  0.1452  0.7088
  387MPD2    C5 5839   1.685   1.799  10.036  0.4988 -0.4926 -0.6098
  387MPD2     H 5840   2.061   1.774   9.976 -0.0238 -0.3271 -1.6914
  387MPD2    H1 5841   1.697   1.598  10.119  0.3762 -0.7326 -0.1873
  387MPD2    H2 5842   1.710   2.010   9.987  0.6837  0.4078  0.6163
  387MPD2    H3 5843   1.579   1.813  10.052  0.7515 -0.3499  0.9210
  387MPD2     N 5844   1.949   1.554  10.075 -0.2957  0.1845 -0.2161
  387MPD2    H5 5845   1.900   1.478  10.121 -0.8898  1.3615  1.0925
  387MPD2    N1 5846   1.976   2.012   9.942 -0.3534 -0.0636 -0.1494
  387MPD2    H7 5847   2.073   1.988   9.927 -0.6158 -1.0395 -0.3118
  388TMC3    C1 5848   2.071   2.225   9.970 -0.3325  0.1003  0.3110
  388TMC3    C2 5849   2.076   2.356   9.931  0.3665 -0.8727  0.1008
  388TMC3    C3 5850   2.182   2.431   9.975  0.1772 -0.9524  0.1817
  388TMC3    C4 5851   2.166   2.174  10.052  0.1879 -0.0193  0.5136
  388TMC3    C5 5852   2.275   2.249  10.078  0.0197 -0.9466  0.0878
  388TMC3    C6 5853   2.290   2.378  10.036 -0.0130 -0.3573 -0.1853
  388TMC3     C 5854   1.948   2.146   9.935 -0.1736  0.0538 -0.1503
  388TMC3     O 5855   1.842   2.204   9.926 -0.2784 -0.0981  0.0314
  388TMC3     H 5856   1.989   2.406   9.891 -0.2398 -1.9343  0.0980
  388TMC3    H1 5857   2.150   2.078  10.099 -0.4613 -0.0620  0.1990
  388TMC3    H2 5858   2.381   2.430  10.067  0.4365 -0.5020 -1.2653
  388TMC3    C7 5859   2.381   2.183  10.161 -0.1647 -0.0697  0.3710
  388TMC3    C8 5860   2.188   2.575   9.954 -0.0953  0.3735 -0.0139
  388TMC3    O1 5861   2.466   2.244  10.218 -0.3717  0.2987 -0.1906
  388TMC3    O2 5862   2.266   2.640  10.021  0.0383  0.1236 -0.7122
  389MPD2     C 5863   1.542   1.289  10.977  0.4273  0.6274 -0.2787
  389MPD2    C1 5864   1.492   1.187  10.900 -0.6110  0.3290 -0.0601
  389MPD2    C2 5865   1.467   1.069  10.966 -1.3060 -0.2228 -0.1940
  389MPD2    C3 5866   1.496   1.052  11.102  0.4380  0.7634  0.3623
  389MPD2    C4 5867   1.537   1.162  11.181  0.3681 -0.0662 -0.5205
  389MPD2    C5 5868   1.568   1.275  11.114 -0.3774 -0.3831 -0.2871
  389MPD2     H 5869   1.436   0.985  10.905 -1.7680  0.8304 -1.4259
  389MPD2    H1 5870   1.547   1.154  11.289  0.1043 -1.6300 -0.6033
  389MPD2    H2 5871   1.577   1.376  10.922  1.7415  1.1668  1.4182
  389MPD2    H3 5872   1.617   1.361  11.159 -0.8239 -0.0375 -0.4636
  389MPD2     N 5873   1.472   0.928  11.173 -0.4148  0.1949 -0.2986
  389MPD2    H5 5874   1.503   0.934  11.269 -3.9245 -1.6731  0.9264
  389MPD2    N1 5875   1.498   1.198  10.755  0.5940 -0.0520 -0.7131
  389MPD2    H7 5876   1.538   1.283  10.716  1.4891  0.0538  0.4536
  390TMC3    C1 5877   1.391   0.731  11.264  0.6296  0.4049  0.1108
  390TMC3    C2 5878   1.372   0.594  11.237 -0.1946  0.0441 -0.2473
  390TMC3    C3 5879   1.385   0.506  11.341 -0.1613  0.3791  0.6319
  390TMC3    C4 5880   1.413   0.779  11.393  0.1479  0.2918  0.2134
  390TMC3    C5 5881   1.416   0.687  11.489 -0.3067 -0.2808  0.2941
  390TMC3    C6 5882   1.401   0.556  11.464  0.1784 -0.4214  0.5879
  390TMC3     C 5883   1.394   0.823  11.144  0.1673 -0.3029 -0.0191
  390TMC3     O 5884   1.345   0.778  11.037  0.1578  0.2231  0.4512
  390TMC3     H 5885   1.359   0.556  11.137 -1.6213  1.1243 -0.4670
  390TMC3    H1 5886   1.425   0.886  11.410 -0.5915  0.2913  0.7643
  390TMC3    H2 5887   1.385   0.497  11.554  1.9973 -0.1401  1.0858
  390TMC3    C7 5888   1.358   0.729  11.612  0.0031 -0.4090 -0.0078
  390TMC3    C8 5889   1.343   0.367  11.337  0.0577  0.6120 -0.2218
  390TMC3    O1 5890   1.408   0.822  11.674  0.6302  0.0435  0.3435
  390TMC3    O2 5891   1.258   0.340  11.254 -0.0890  0.0233  0.4474
  391MPD2     C 5892   0.953   1.964  11.259  0.0693 -0.7260 -0.6857
  391MPD2    C1 5893   1.042   2.056  11.206  0.3770 -0.1096 -0.2136
  391MPD2    C2 5894   1.007   2.126  11.094 -0.3952  0.1689 -0.0686
  391MPD2    C3 5895   0.882   2.105  11.037  0.7104 -0.4675  0.3659
  391MPD2    C4 5896   0.792   2.018  11.088 -0.6750 -0.5357  0.5174
  391MPD2    C5 5897   0.829   1.938  11.198 -0.0358 -0.4390  0.7927
  391MPD2     H 5898   1.076   2.191  11.042 -1.2472  1.5293  0.4893
  391MPD2    H1 5899   0.692   1.997  11.051 -0.6070 -1.3364  0.7954
  391MPD2    H2 5900   0.978   1.913  11.351 -1.7895 -2.8452 -1.3817
  391MPD2    H3 5901   0.748   1.875  11.232  0.0311 -0.2921  1.2212
  391MPD2     N 5902   0.842   2.198  10.941 -0.0585  0.3911 -0.1744
  391MPD2    H5 5903   0.903   2.279  10.936  0.5745 -0.0841 -0.1515
  391MPD2    N1 5904   1.155   2.085  11.280 -0.2698  0.3211 -0.0202
  391MPD2    H7 5905   1.160   2.051  11.376  1.4975 -1.1318 -0.6188
  392TMC3    C1 5906   0.725   2.306  10.769  0.2615  0.7538 -0.7086
  392TMC3    C2 5907   0.619   2.318  10.688  1.0200  0.2818  0.4852
  392TMC3    C3 5908   0.618   2.425  10.591 -0.3663  0.5002 -0.4007
  392TMC3    C4 5909   0.842   2.387  10.753  0.3340  0.5124  0.5501
  392TMC3    C5 5910   0.838   2.483  10.657  0.5698  0.1938 -0.9032
  392TMC3    C6 5911   0.727   2.508  10.584 -1.3933 -0.4697 -0.5308
  392TMC3     C 5912   0.741   2.186  10.847  0.0412 -0.1634 -0.0354
  392TMC3     O 5913   0.676   2.085  10.819 -0.0214  0.3130  0.0702
  392TMC3     H 5914   0.534   2.252  10.695  1.4614 -0.1638  1.5790
  392TMC3    H1 5915   0.932   2.379  10.812 -0.2043 -1.5159  1.1096
  392TMC3    H2 5916   0.737   2.571  10.496 -0.9479  0.6903  0.3499
  392TMC3    C7 5917   0.944   2.584  10.646 -0.8010 -0.5927 -0.3005
  392TMC3    C8 5918   0.502   2.438  10.506  0.0736 -0.0667  0.7584
  392TMC3    O1 5919   0.914   2.702  10.661  0.3462  0.2338  0.3982
  392TMC3    O2 5920   0.429   2.341  10.503  0.4454 -1.2386 -0.0296
  393TMC3    C1 5921   4.298   0.252  10.696  0.2626 -0.1879  0.0789
  393TMC3    C2 5922   4.170   0.211  10.673 -0.3067 -0.8577  0.4502
  393TMC3    C3 5923   4.124   0.099  10.737  0.3625  0.4443 -0.2756
  393TMC3    C4 5924   4.379   0.172  10.777 -0.1176 -0.7730 -0.2016
  393TMC3    C5 5925   4.324   0.055  10.837  0.5186  0.3289 -0.5150
  393TMC3    C6 5926   4.193   0.022  10.827 -0.3229 -0.2200 -0.7109
  393TMC3     C 5927   4.351   0.363  10.617 -0.0409 -0.1406 -0.1450
  393TMC3     O 5928   4.283   0.403  10.523  0.0214  0.4621 -0.0745
  393TMC3     H 5929   4.104   0.269  10.608  0.8142  0.4104  0.4269
  393TMC3    H1 5930   4.487   0.182  10.783 -0.3178  1.7090 -0.8368
  393TMC3    H2 5931   4.150   4.667  10.875 -0.8624  1.8072  2.4835
  393TMC3    C7 5932   4.410   4.721  10.939  0.4478  0.6315  0.0624
  393TMC3    C8 5933   3.987   0.055  10.712 -0.0423 -0.5721  0.0048
  393TMC3    O1 5934   4.354   4.626  10.993 -0.2770 -0.3108  0.4687
  393TMC3    O2 5935   3.926   4.726  10.796  0.1671  0.2693  0.4015
  394TMC3    C1 5936   1.514   1.126  10.531  0.1561 -0.6746 -0.0567
  394TMC3    C2 5937   1.599   1.033  10.475 -0.2173 -0.4142 -0.8064
  394TMC3    C3 5938   1.633   1.060  10.342 -0.3960 -0.3558  0.1991
  394TMC3    C4 5939   1.474   1.239  10.471 -0.2556 -0.0146 -0.3860
  394TMC3    C5 5940   1.511   1.262  10.343 -0.5384  0.4724  0.4204
  394TMC3    C6 5941   1.585   1.169  10.272  0.1660 -0.0542  0.4691
  394TMC3     C 5942   1.470   1.094  10.663 -0.0538  0.4439  0.1131
  394TMC3     O 5943   1.436   0.976  10.678 -0.2709 -0.1676  0.0332
  394TMC3     H 5944   1.605   0.937  10.525 -0.7154  1.0326  1.9939
  394TMC3    H1 5945   1.423   1.325  10.512  1.0834  0.2319  0.7570
  394TMC3    H2 5946   1.616   1.189  10.170  0.4504  0.1620  0.5999
  394TMC3    C7 5947   1.466   1.376  10.272  0.3742  0.1168 -0.2857
  394TMC3    C8 5948   1.645   0.940  10.258  0.0807  0.1625  0.4931
  394TMC3    O1 5949   1.539   1.436  10.189  0.2066  0.1226 -0.7468
  394TMC3    O2 5950   1.642   0.960  10.137 -0.2538 -0.4966  0.1190
  395TMC3    C1 5951   1.567   2.227  14.815  0.4054 -0.3967  0.1497
  395TMC3    C2 5952   1.469   2.190  14.726  0.0883 -0.1158 -0.0571
  395TMC3    C3 5953   1.434   2.284  14.634 -0.4042 -0.0350 -0.2681
  395TMC3    C4 5954   1.634   2.346  14.803  0.2317 -1.0506 -0.2976
  395TMC3    C5 5955   1.594   2.437  14.710 -0.3142  0.4005  0.0301
  395TMC3    C6 5956   1.491   2.411  14.629 -0.0731 -0.5334 -0.4462
  395TMC3     C 5957   1.615   2.134  14.906 -0.2924 -0.2412 -0.1485
  395TMC3     O 5958   1.737   2.114  14.906 -0.3310 -0.3721 -0.8875
  395TMC3     H 5959   1.418   2.095  14.715  0.2823 -0.2220 -0.0336
  395TMC3    H1 5960   1.725   2.358  14.861 -0.3714 -3.4685  1.1229
  395TMC3    H2 5961   1.460   2.494  14.566 -0.8035 -0.3820  0.0983
  395TMC3    C7 5962   1.658   2.568  14.685  0.3592 -0.1417  0.4392
  395TMC3    C8 5963   1.324   2.257  14.538  0.3488 -0.1558  0.1304
  395TMC3    O1 5964   1.582   2.657  14.652  0.0432 -0.2070 -0.5800
  395TMC3    O2 5965   1.279   2.353  14.477  0.1879  0.0284  1.0076
  396MPD2     C 5966   0.224   3.439  16.831  0.4395 -0.4907 -0.0330
  396MPD2    C1 5967   0.310   3.482  16.936  0.1495 -0.6435 -0.3054
  396MPD2    C2 5968   0.423   3.566  16.904 -0.2144  0.5269  0.2517
  396MPD2    C3 5969   0.445   3.603  16.769  0.1654  0.0715  0.1261
  396MPD2    C4 5970   0.345   3.575  16.673  0.2402  0.7206  0.0429
  396MPD2    C5 5971   0.239   3.489  16.708  0.3788 -1.0877 -0.0427
  396MPD2     H 5972   0.494   3.600  16.979  0.3420  0.3389 -0.2010
  396MPD2    H1 5973   0.352   3.602  16.568  0.3231  2.2215  0.4354
  396MPD2    H2 5974   0.133   3.388  16.863  0.7914 -1.4077 -0.4838
  396MPD2    H3 5975   0.166   3.476  16.630  2.0935  0.4155 -1.8984
  396MPD2     N 5976   0.565   3.672  16.745 -0.0418  0.3378  0.7534
  396MPD2    H5 5977   0.623   3.691  16.826  1.3232  0.7005 -0.2871
  396MPD2    N1 5978   0.269   3.441  17.069 -0.2902 -0.0224  1.0959
  396MPD2    H7 5979   0.181   3.391  17.077 -0.8005  0.9392  1.5269
  397TMC3    C1 5980   0.291   3.410  17.303  0.0626  1.0407 -0.4586
  397TMC3    C2 5981   0.357   3.462  17.407 -0.1535 -0.1348 -0.7172
  397TMC3    C3 5982   0.384   3.369  17.512  0.8294 -0.0229 -0.4055
  397TMC3    C4 5983   0.269   3.271  17.296  0.1688  0.0586 -0.0391
  397TMC3    C5 5984   0.294   3.193  17.403  0.3665  0.3965 -1.0896
  397TMC3    C6 5985   0.358   3.237  17.511  0.8756 -0.2814 -0.2921
  397TMC3     C 5986   0.335   3.476  17.181  0.5145  0.7034  0.0701
  397TMC3     O 5987   0.419   3.566  17.196  0.7327  0.4448 -0.5292
  397TMC3     H 5988   0.375   3.566  17.428  4.0792 -0.5680 -2.1824
  397TMC3    H1 5989   0.226   3.229  17.206  2.3724 -1.6582 -0.2926
  397TMC3    H2 5990   0.364   3.175  17.600 -1.0435  2.4140  1.7054
  397TMC3    C7 5991   0.287   3.049  17.389  0.0494 -0.1929 -0.0646
  397TMC3    C8 5992   0.473   3.407  17.622 -0.1788 -0.1587  0.3326
  397TMC3    O1 5993   0.190   3.000  17.325  0.3491 -0.9148  0.1792
  397TMC3    O2 5994   0.454   3.363   0.006  0.0957 -0.4079  0.2439
  398MPD2     C 5995   3.739   0.280   0.167 -0.2230  0.2707  0.1732
  398MPD2    C1 5996   3.773   0.181   0.256  0.6448 -0.1680 -0.5218
  398MPD2    C2 5997   3.867   0.205   0.350 -0.3084 -0.0543  0.5285
  398MPD2    C3 5998   3.931   0.329   0.354  0.5547  0.9048  0.0405
  398MPD2    C4 5999   3.898   0.420   0.265  0.3777 -0.7892  0.0967
  398MPD2    C5 6000   3.800   0.400   0.174 -0.4703  0.3465 -0.5222
  398MPD2     H 6001   3.907   0.134   0.421  3.2166 -1.0876 -2.4899
  398MPD2    H1 6002   3.946   0.517   0.262 -1.7368  0.2757  0.9641
  398MPD2    H2 6003   3.656   0.271   0.098 -0.5362  0.8354  0.4713
  398MPD2    H3 6004   3.766   0.477   0.107  0.3992 -2.4299 -4.1831
  398MPD2     N 6005   4.037   0.343   0.448 -0.0942  0.0995  0.6377
  398MPD2    H5 6006   4.064   0.260   0.500 -0.3707  0.6148  1.6004
  398MPD2    N1 6007   3.721   0.051   0.256  0.2735  0.5516  0.1076
  398MPD2    H7 6008   3.754   4.721   0.329  1.0084 -1.1191 -1.6605
  399TMC3    C1 6009   3.594   4.587   0.214 -0.1316 -0.1554 -0.8490
  399TMC3    C2 6010   3.696   4.510   0.252  0.6442  0.1957  0.1167
  399TMC3    C3 6011   3.679   4.368   0.246 -0.5369  0.5940  0.0209
  399TMC3    C4 6012   3.476   4.533   0.166  0.0937  0.2024 -0.5580
  399TMC3    C5 6013   3.463   4.394   0.159 -0.0918 -0.4099 -1.0196
  399TMC3    C6 6014   3.559   4.308   0.200  0.0579  0.6595  0.2467
  399TMC3     C 6015   3.618   4.732   0.184 -0.0063  0.5538 -0.0063
  399TMC3     O 6016   3.549   0.049   0.092 -0.0889 -0.5698  0.4822
  399TMC3     H 6017   3.795   4.549   0.272  0.3681  0.0543  1.7305
  399TMC3    H1 6018   3.399   4.598   0.125  2.3533  3.3777  0.2540
  399TMC3    H2 6019   3.537   4.204   0.220  1.4852  0.3110 -0.0066
  399TMC3    C7 6020   3.337   4.332   0.111  0.3707 -0.4150  0.2983
  399TMC3    C8 6021   3.785   4.289   0.301  0.6689  0.4995  0.3335
  399TMC3    O1 6022   3.301   4.233   0.174  0.1262 -0.1422 -0.3361
  399TMC3    O2 6023   3.871   4.352   0.358  0.0442 -0.0526  0.5395
  400TMC3    C1 6024   2.387   2.680  16.964  0.0022  0.0901 -0.5490
  400TMC3    C2 6025   2.259   2.717  16.944 -0.1339 -0.6065  0.2675
  400TMC3    C3 6026   2.222   2.853  16.934 -0.6848  0.4768  0.4704
  400TMC3    C4 6027   2.490   2.774  16.985 -0.6616  0.2847 -0.0102
  400TMC3    C5 6028   2.451   2.905  16.970  0.2776  0.8791 -0.7502
  400TMC3    C6 6029   2.319   2.944  16.949  0.4214 -0.2804 -0.1548
  400TMC3     C 6030   2.407   2.537  16.996  0.1982  0.1807 -0.2437
  400TMC3     O 6031   2.307   2.464  16.982 -0.2508 -0.1337 -0.1389
  400TMC3     H 6032   2.179   2.643  16.937  0.1462 -0.8604 -0.2616
  400TMC3    H1 6033   2.590   2.741  17.014 -1.1735 -0.4311  0.9444
  400TMC3    H2 6034   2.300   3.045  16.914  1.4764  0.1247  0.4446
  400TMC3    C7 6035   2.559   2.989  17.003  0.1585  0.8547  0.0621
  400TMC3    C8 6036   2.081   2.893  16.912 -0.3093  0.4633 -0.3169
  400TMC3    O1 6037   2.671   2.946  16.987  0.3870  0.0563  0.1590
  400TMC3    O2 6038   2.057   3.014  16.902 -0.3288  0.0702  0.0231
  401MPD2     C 6039   0.036   1.793   0.627 -0.6397 -0.0928 -0.2594
  401MPD2    C1 6040   0.120   1.692   0.663  0.5014 -0.2473  0.1662
  401MPD2    C2 6041   0.105   1.575   0.600  0.4982 -0.5735  0.0966
  401MPD2    C3 6042   0.023   1.552   0.497  0.0575 -0.2865  0.5899
  401MPD2    C4 6043   4.673   1.654   0.460  0.2290 -0.2639 -0.1216
  401MPD2    C5 6044   4.672   1.771   0.536  0.5390 -0.2430  0.4666
  401MPD2     H 6045   0.163   1.488   0.628  1.1754  1.3388  4.5727
  401MPD2    H1 6046   4.593   1.642   0.387  0.0543  0.3520 -0.0345
  401MPD2    H2 6047   0.036   1.894   0.667  2.3467  0.0891 -0.7162
  401MPD2    H3 6048   4.609   1.854   0.506 -0.6746 -0.4730  2.3457
  401MPD2     N 6049   0.037   1.429   0.433  0.1705  0.5939  0.0678
  401MPD2    H5 6050   0.092   1.358   0.480 -0.9641 -0.7148 -0.5565
  401MPD2    N1 6051   0.231   1.706   0.746  0.6863  0.0506  0.3117
  401MPD2    H7 6052   0.288   1.624   0.762 -1.9094 -1.4897  1.7782
  402TMC3    C1 6053   4.712   1.258   0.289  0.2319 -0.2224 -0.3695
  402TMC3    C2 6054   4.723   1.181   0.403  0.9731 -0.4074  0.7897
  402TMC3    C3 6055   0.083   1.082   0.419 -0.0304  0.2457  0.7672
  402TMC3    C4 6056   0.056   1.228   0.185  0.3859 -0.2815  0.0356
  402TMC3    C5 6057   0.147   1.124   0.201 -0.2163  0.1845  0.6221
  402TMC3    C6 6058   0.177   1.059   0.319  0.2307  0.5723 -0.8489
  402TMC3     C 6059   4.704   1.401   0.319  0.2909  0.0659 -0.7210
  402TMC3     O 6060   4.644   1.471   0.233  0.5557 -0.1685  0.1343
  402TMC3     H 6061   4.665   1.199   0.493 -0.5312  3.2299 -0.9127
  402TMC3    H1 6062   0.058   1.304   0.108 -1.0382 -0.2883 -0.0018
  402TMC3    H2 6063   0.236   0.968   0.311  0.1383  0.4987 -0.6954
  402TMC3    C7 6064   0.230   1.081   0.091 -0.1211 -0.0914 -0.4979
  402TMC3    C8 6065   0.157   1.076   0.547 -0.5319  0.3251  0.1717
  402TMC3    O1 6066   0.167   1.058  17.716 -0.3627 -0.1168 -0.0321
  402TMC3    O2 6067   0.264   1.028   0.526  0.3628  0.7371 -0.4146
  403MPD2     C 6068   3.779   4.713  13.180 -0.6914 -0.5657 -0.0806
  403MPD2    C1 6069   3.746   4.663  13.305  0.0916  0.0643  0.6054
  403MPD2    C2 6070   3.831   4.688  13.411 -0.1622 -0.0551 -0.7921
  403MPD2    C3 6071   3.940   0.041  13.392 -0.3189 -0.5714  0.1629
  403MPD2    C4 6072   3.968   0.107  13.272 -0.0681  0.3726  0.0428
  403MPD2    C5 6073   3.890   0.065  13.166  0.2257 -0.2601 -0.6472
  403MPD2     H 6074   3.809   4.639  13.505  1.9723 -1.4658 -1.0227
  403MPD2    H1 6075   4.057   0.167  13.255  0.2721 -0.4255 -0.9948
  403MPD2    H2 6076   3.723   4.684  13.092  1.0538 -2.6533 -0.5160
  403MPD2    H3 6077   3.916   0.107  13.070  0.0915  1.6664  0.1544
  403MPD2     N 6078   4.016   0.066  13.508  0.0848 -0.2783  0.1731
  403MPD2    H5 6079   3.988   0.015  13.591 -0.4186  0.4294  0.4410
  403MPD2    N1 6080   3.638   4.575  13.303 -0.0734 -0.4991  0.0286
  403MPD2    H7 6081   3.595   4.571  13.211  2.9967 -0.1338 -1.4171
  404TMC3    C1 6082   3.536   4.376  13.363  0.5497  0.4445  0.6746
  404TMC3    C2 6083   3.554   4.268  13.444 -0.1026  0.0323  1.1977
  404TMC3    C3 6084   3.559   4.146  13.387 -0.0431 -0.0845 -0.0564
  404TMC3    C4 6085   3.520   4.370  13.221  0.2141  0.4080 -0.2677
  404TMC3    C5 6086   3.529   4.247  13.167  0.3833  0.5725 -0.2846
  404TMC3    C6 6087   3.550   4.133  13.248  0.4093 -0.5962 -0.4065
  404TMC3     C 6088   3.605   4.490  13.406 -0.2591  0.8968 -0.1031
  404TMC3     O 6089   3.640   4.492  13.525 -0.2161 -0.0665  0.0955
  404TMC3     H 6090   3.562   4.284  13.551 -1.4325 -1.5086  1.5244
  404TMC3    H1 6091   3.501   4.459  13.161  0.5346  0.8591  0.2946
  404TMC3    H2 6092   3.529   4.033  13.210 -0.3906 -0.8226  0.6279
  404TMC3    C7 6093   3.518   4.244  13.025  0.7411  0.3486  0.2678
  404TMC3    C8 6094   3.620   4.039  13.450 -0.3916  0.1139  0.0718
  404TMC3    O1 6095   3.523   4.354  12.976 -0.2146 -0.4662  0.2438
  404TMC3    O2 6096   3.659   3.953  13.370 -0.6765 -0.2000 -0.6183
  405MPD2     C 6097   4.243   0.420  14.840  0.2960  0.0084 -0.6234
  405MPD2    C1 6098   4.289   0.343  14.732  0.1613  0.9514  0.5046
  405MPD2    C2 6099   4.271   0.397  14.607  0.2712  0.3414 -0.0909
  405MPD2    C3 6100   4.188   0.505  14.586 -0.4689 -0.7004 -0.0739
  405MPD2    C4 6101   4.140   0.575  14.696 -0.4176  0.0086  0.2836
  405MPD2    C5 6102   4.176   0.536  14.823 -0.0519 -0.6809  0.7798
  405MPD2     H 6103   4.326   0.358  14.522  0.8650  0.8240  0.0723
  405MPD2    H1 6104   4.066   0.654  14.690 -0.0548  0.5402  2.8507
  405MPD2    H2 6105   4.266   0.386  14.941  1.7237  0.1901 -0.8913
  405MPD2    H3 6106   4.135   0.590  14.908 -0.3883 -1.7224  1.2792
  405MPD2     N 6107   4.155   0.528  14.451 -0.0417  0.1555 -0.0420
  405MPD2    H5 6108   4.197   0.470  14.379 -0.2477  0.8020 -0.6925
  405MPD2    N1 6109   4.351   0.220  14.760  0.0982  0.8661  0.1551
  405MPD2    H7 6110   4.366   0.205  14.859  1.1562 -0.2525 -0.1850
  406TMC3    C1 6111   3.835   0.579  14.117 -0.2290  0.1989 -0.2893
  406TMC3    C2 6112   3.870   0.460  14.059 -0.4679  0.4933  0.1698
  406TMC3    C3 6113   3.972   0.393  14.124 -0.3782  0.0396 -0.1866
  406TMC3    C4 6114   3.904   0.644  14.218 -0.2560 -0.2287 -0.1945
  406TMC3    C5 6115   3.998   0.562  14.288  0.3515 -0.4128  0.3078
  406TMC3    C6 6116   4.028   0.436  14.245  0.4215 -0.5677 -0.3526
  406TMC3     C 6117   3.693   0.620  14.087  0.4123 -0.3569 -0.2129
  406TMC3     O 6118   3.648   0.589  13.975 -0.1830 -0.6415 -0.1441
  406TMC3     H 6119   3.829   0.426  13.965 -1.9974  1.1611  0.5914
  406TMC3    H1 6120   3.878   0.747  14.242  0.6487 -0.1027  0.2487
  406TMC3    H2 6121   4.084   0.373  14.313  2.8765  0.9614 -0.9675
  406TMC3    C7 6122   4.041   0.597  14.421  0.8348  0.9416 -0.7872
  406TMC3    C8 6123   4.019   0.263  14.064  0.5802 -0.0870 -0.6583
  406TMC3    O1 6124   3.973   0.676  14.482  0.6402  0.5244 -0.2285
  406TMC3    O2 6125   3.952   0.226  13.967 -0.1329  0.3316 -0.1217
  407MPD2     C 6126   1.583   2.622   9.483 -0.6246 -0.0808  0.4999
  407MPD2    C1 6127   1.674   2.562   9.567 -0.0444 -0.2410  0.1532
  407MPD2    C2 6128   1.714   2.631   9.682 -0.5884 -0.4828  0.2403
  407MPD2    C3 6129   1.664   2.761   9.704 -0.9737 -0.2502 -0.2963
  407MPD2    C4 6130   1.576   2.818   9.607  0.4656  0.0238 -0.9210
  407MPD2    C5 6131   1.545   2.747   9.497  0.2059 -0.0873  0.0272
  407MPD2     H 6132   1.766   2.572   9.756  2.6785 -0.4353 -2.0393
  407MPD2    H1 6133   1.533   2.916   9.622 -1.0872 -0.7256 -0.4913
  407MPD2    H2 6134   1.549   2.562   9.400  0.3274  0.1166 -0.0340
  407MPD2    H3 6135   1.478   2.794   9.425  1.0312  1.1302  0.0522
  407MPD2     N 6136   1.706   2.835   9.814 -0.1109 -0.1869 -0.0274
  407MPD2    H5 6137   1.674   2.931   9.824 -1.3531 -0.7036  1.0423
  407MPD2    N1 6138   1.707   2.423   9.537  0.1719  0.6400  0.5120
  407MPD2    H7 6139   1.661   2.379   9.459 -2.0132  1.5385  1.3104
  408TMC3    C1 6140   1.804   2.212   9.572  0.1339  0.4752 -0.6447
  408TMC3    C2 6141   1.924   2.147   9.598  0.4712  0.5496 -0.2348
  408TMC3    C3 6142   1.926   2.008   9.580 -0.2984  0.6344  0.0855
  408TMC3    C4 6143   1.688   2.142   9.546 -0.0131  0.6574 -0.0013
  408TMC3    C5 6144   1.695   2.000   9.529 -0.1073 -0.0033 -0.5600
  408TMC3    C6 6145   1.807   1.934   9.556 -0.4453 -0.2310 -0.6068
  408TMC3     C 6146   1.807   2.348   9.607 -0.8622 -0.4036 -0.6785
  408TMC3     O 6147   1.908   2.400   9.655  0.2673  0.6178  0.1230
  408TMC3     H 6148   2.011   2.206   9.626  1.0079 -0.2948 -0.1335
  408TMC3    H1 6149   1.594   2.195   9.550  0.5595  1.4029  3.0625
  408TMC3    H2 6150   1.810   1.825   9.550  1.4873 -0.3433  2.7023
  408TMC3    C7 6151   1.578   1.918   9.508 -0.9010  0.0674 -0.6548
  408TMC3    C8 6152   2.055   1.938   9.597  0.2395 -0.5104 -1.2931
  408TMC3    O1 6153   1.607   1.803   9.472  0.5744 -0.1604  0.2477
  408TMC3    O2 6154   2.053   1.814   9.606 -0.4238 -0.3428 -0.0572
  409MPD2     C 6155   0.941   2.743  17.376  0.5470 -0.2025 -0.1775
  409MPD2    C1 6156   1.076   2.757  17.412 -0.2105  0.4546 -0.0165
  409MPD2    C2 6157   1.150   2.853  17.349 -0.2033 -0.2659  0.1599
  409MPD2    C3 6158   1.093   2.950  17.263 -0.1175 -0.5298  0.1451
  409MPD2    C4 6159   0.956   2.948  17.254  0.0289  0.1472  0.4065
  409MPD2    C5 6160   0.884   2.842  17.301  0.0557 -0.0826 -0.0487
  409MPD2     H 6161   1.255   2.858  17.377 -0.4154  0.2397  0.8616
  409MPD2    H1 6162   0.902   3.009  17.183  0.6466  0.3050  0.0752
  409MPD2    H2 6163   0.878   2.659  17.402 -0.4350  0.8923  1.0196
  409MPD2    H3 6164   0.781   2.835  17.269  0.3468 -0.1788 -0.9628
  409MPD2     N 6165   1.181   3.054  17.215  0.4364  0.7375  0.4101
  409MPD2    H5 6166   1.140   3.144  17.192 -0.8381  0.6305  2.2999
  409MPD2    N1 6167   1.149   2.668  17.492 -0.0627  0.4061 -0.3826
  409MPD2    H7 6168   1.247   2.678  17.516 -0.4286 -0.6206  1.5992
  410TMC3    C1 6169   1.409   3.139  17.201  0.3817  0.2689  0.4001
  410TMC3    C2 6170   1.543   3.097  17.224  0.4933 -0.5117 -0.7505
  410TMC3    C3 6171   1.622   3.172  17.298 -0.6597 -1.1056 -0.2767
  410TMC3    C4 6172   1.356   3.259  17.244 -0.5259  1.2084  0.0379
  410TMC3    C5 6173   1.440   3.328  17.322 -0.3475  0.2262  0.4137
  410TMC3    C6 6174   1.570   3.290  17.349  0.5521  0.3788  0.3520
  410TMC3     C 6175   1.314   3.022  17.196  0.4684 -0.1078 -0.7416
  410TMC3     O 6176   1.367   2.911  17.180  0.1126 -0.7397  0.2165
  410TMC3     H 6177   1.575   3.000  17.188  0.5656 -0.4081 -0.9666
  410TMC3    H1 6178   1.260   3.305  17.227 -0.8931 -0.2886 -1.9729
  410TMC3    H2 6179   1.646   3.349  17.401 -0.9664  2.4611  0.2243
  410TMC3    C7 6180   1.432   3.479  17.328  1.1731  0.0474  0.2532
  410TMC3    C8 6181   1.768   3.151  17.293  0.1783 -0.2199 -0.3212
  410TMC3    O1 6182   1.472   3.539  17.427 -0.1729  0.1125 -0.1278
  410TMC3    O2 6183   1.837   3.247  17.328  0.3394 -0.4438  0.0801
  411MPD2     C 6184   1.337   3.217  15.164 -0.2242 -0.4102  0.0679
  411MPD2    C1 6185   1.404   3.249  15.055 -0.9042  0.2188 -0.8752
  411MPD2    C2 6186   1.394   3.175  14.941  0.0552  0.0352 -0.1566
  411MPD2    C3 6187   1.320   3.057  14.942  0.0931  0.4301  0.2147
  411MPD2    C4 6188   1.243   3.027  15.052  0.3005  0.1362  1.3961
  411MPD2    C5 6189   1.260   3.104  15.161 -0.0048  0.1145 -0.0066
  411MPD2     H 6190   1.449   3.195  14.850 -2.0317  0.5823 -1.2925
  411MPD2    H1 6191   1.185   2.936  15.063  0.8769 -0.4670 -0.5035
  411MPD2    H2 6192   1.347   3.279  15.252 -0.6260  0.5266 -0.5498
  411MPD2    H3 6193   1.216   3.085  15.259 -0.5631 -1.3905 -0.5460
  411MPD2     N 6194   1.307   2.976  14.824  0.0604 -0.0692  0.1105
  411MPD2    H5 6195   1.249   2.893  14.826 -0.7625  0.5421  2.0425
  411MPD2    N1 6196   1.465   3.377  15.054 -0.2638 -0.2810  0.2488
  411MPD2    H7 6197   1.458   3.429  15.141  0.8108 -0.3573  0.3793
  412TMC3    C1 6198   1.308   2.902  14.597  0.6979  0.5545 -0.2642
  412TMC3    C2 6199   1.240   2.790  14.635  0.2145  0.4600 -0.2934
  412TMC3    C3 6200   1.223   2.697  14.536 -0.8527 -0.0133 -0.4550
  412TMC3    C4 6201   1.354   2.931  14.467  0.2296 -0.1738 -0.0417
  412TMC3    C5 6202   1.334   2.834  14.377  0.2587 -0.1884  0.5402
  412TMC3    C6 6203   1.282   2.714  14.416 -0.1847 -0.4072  0.5613
  412TMC3     C 6204   1.365   2.995  14.700 -0.6314 -0.3820  0.4236
  412TMC3     O 6205   1.453   3.063  14.651 -0.6802  0.0283  0.2978
  412TMC3     H 6206   1.197   2.772  14.733  0.2531 -0.9665 -0.5485
  412TMC3    H1 6207   1.375   3.034  14.441  0.2671 -0.4579 -1.1170
  412TMC3    H2 6208   1.271   2.631  14.347  0.4169 -0.1809  0.1952
  412TMC3    C7 6209   1.282   2.879  14.242 -0.6005  0.8090  0.2707
  412TMC3    C8 6210   1.090   2.643  14.528 -0.5366  0.8150 -0.5432
  412TMC3    O1 6211   1.195   2.808  14.196  0.5117 -0.3127 -0.2706
  412TMC3    O2 6212   1.047   2.584  14.629 -0.2043  0.3484  0.5073
  413MPD2     C 6213   3.308   1.555  15.692 -0.2154  0.3499  0.0698
  413MPD2    C1 6214   3.221   1.480  15.623  0.2072 -0.7957 -0.3725
  413MPD2    C2 6215   3.270   1.364  15.561 -0.2733  0.9881  0.0386
  413MPD2    C3 6216   3.402   1.319  15.583 -0.1319 -0.0585 -0.6366
  413MPD2    C4 6217   3.485   1.393  15.668  0.4484  0.2616 -0.0316
  413MPD2    C5 6218   3.435   1.513  15.714 -0.0831 -0.1357 -0.4580
  413MPD2     H 6219   3.213   1.305  15.491  0.6876  1.3120 -1.0248
  413MPD2    H1 6220   3.584   1.365  15.702  0.6634  1.9630  0.7486
  413MPD2    H2 6221   3.273   1.648  15.736  0.0434  0.5844 -0.2198
  413MPD2    H3 6222   3.508   1.581  15.757 -0.6319  0.4228 -0.4085
  413MPD2     N 6223   3.445   1.209  15.507  0.1365 -0.1959 -0.1857
  413MPD2    H5 6224   3.374   1.157  15.457 -0.9032  0.4023  0.6663
  413MPD2    N1 6225   3.090   1.525  15.609 -0.1277 -0.2049  0.0640
  413MPD2    H7 6226   3.058   1.607  15.659  1.4994 -0.1815  1.0923
  414TMC3    C1 6227   3.609   1.083  15.391  0.2978 -0.6299 -0.4020
  414TMC3    C2 6228   3.703   0.994  15.437  0.0358  0.2980 -0.0071
  414TMC3    C3 6229   3.733   0.895  15.351 -0.6254  0.2172  0.0324
  414TMC3    C4 6230   3.541   1.074  15.273  0.5913 -0.1623 -0.3199
  414TMC3    C5 6231   3.575   0.980  15.183  0.4537  0.4880 -0.1556
  414TMC3    C6 6232   3.667   0.885  15.226 -0.6213 -0.4030  0.6413
  414TMC3     C 6233   3.582   1.177  15.496 -0.6484  0.8629  0.2503
  414TMC3     O 6234   3.683   1.229  15.540 -0.2518 -0.1377  0.5130
  414TMC3     H 6235   3.751   0.998  15.534  2.8111 -1.7232 -1.2897
  414TMC3    H1 6236   3.473   1.153  15.243  0.2433 -0.5637 -0.5895
  414TMC3    H2 6237   3.697   0.806  15.158  0.9820 -0.9416  1.9792
  414TMC3    C7 6238   3.492   0.963  15.066  0.0717 -0.5571 -0.5914
  414TMC3    C8 6239   3.829   0.797  15.391 -0.4117 -0.2311  0.2372
  414TMC3    O1 6240   3.374   0.991  15.072 -0.4735 -0.4350 -0.1596
  414TMC3    O2 6241   3.809   0.690  15.335  0.0391  0.1081 -0.6913
  415TMC3    C1 6242   4.556   0.324  10.249 -0.1092  0.3290  0.2051
  415TMC3    C2 6243   4.668   0.381  10.205 -0.3616  0.4787 -0.1309
  415TMC3    C3 6244   4.649   0.469  10.105 -0.4580  0.6564  0.4954
  415TMC3    C4 6245   4.429   0.338  10.194 -0.5274 -0.6054  0.1634
  415TMC3    C5 6246   4.408   0.434  10.101 -0.9619 -0.2281  0.5878
  415TMC3    C6 6247   4.520   0.497  10.057 -0.6295  0.4750  0.0104
  415TMC3     C 6248   4.568   0.207  10.325 -0.0574  0.1016 -0.5712
  415TMC3     O 6249   4.490   0.119  10.308  0.0085  0.4844  0.4919
  415TMC3     H 6250   0.035   0.357  10.241 -0.5490  1.0188  0.7269
  415TMC3    H1 6251   4.348   0.296  10.251  0.4439 -0.9849  1.2585
  415TMC3    H2 6252   4.509   0.566   9.974 -1.1440  0.5374  0.1344
  415TMC3    C7 6253   4.305   0.415   9.998  0.3980  0.0762  0.0865
  415TMC3    C8 6254   0.031   0.555  10.091 -0.1985  0.0338 -1.1310
  415TMC3    O1 6255   4.315   0.474   9.892 -0.0148 -0.2858  0.1406
  415TMC3    O2 6256   0.114   0.547  10.176 -0.2933  0.2093 -0.5056
  416MPD2     C 6257   0.757   2.795  11.723  0.3909  0.2309 -0.6546
  416MPD2    C1 6258   0.828   2.905  11.688 -0.3261  0.2170  0.6332
  416MPD2    C2 6259   0.897   2.914  11.573  0.4043  0.3002  0.2425
  416MPD2    C3 6260   0.904   2.802  11.486 -0.6839 -0.1723 -0.4932
  416MPD2    C4 6261   0.825   2.692  11.516  0.0784 -0.0855 -0.7863
  416MPD2    C5 6262   0.752   2.690  11.633 -0.7058  0.4225  0.4383
  416MPD2     H 6263   0.939   3.009  11.541  0.6766 -0.0950 -0.5734
  416MPD2    H1 6264   0.824   2.605  11.451  1.1902 -0.8570  0.2180
  416MPD2    H2 6265   0.681   2.796  11.800 -0.2191  2.4631 -1.2680
  416MPD2    H3 6266   0.682   2.608  11.644  0.2880 -0.5496 -0.4945
  416MPD2     N 6267   0.966   2.804  11.353 -0.0831  0.2646  0.1715
  416MPD2    H5 6268   0.962   2.720  11.297 -0.7411 -0.7066  1.7031
  416MPD2    N1 6269   0.808   3.013  11.773 -0.1330 -0.1135  0.1135
  416MPD2    H7 6270   0.754   2.988  11.856 -2.9614  2.3714 -0.9612
  417TMC3    C1 6271   0.776   3.234  11.841 -1.2198 -0.2663 -0.0402
  417TMC3    C2 6272   0.774   3.200  11.970 -0.2351  0.2011 -0.8363
  417TMC3    C3 6273   0.697   3.287  12.043  0.3249  0.6525  0.1822
  417TMC3    C4 6274   0.731   3.351  11.797  0.3871 -0.1588  0.3748
  417TMC3    C5 6275   0.664   3.438  11.877  0.0085 -0.3927 -0.3815
  417TMC3    C6 6276   0.629   3.397  12.002  0.1864 -0.1787  0.7294
  417TMC3     C 6277   0.850   3.144  11.756 -0.4090 -0.1872  1.3367
  417TMC3     O 6278   0.903   3.203  11.659 -0.9479  0.2375 -0.8719
  417TMC3     H 6279   0.806   3.108  12.018  1.8797  0.7585 -1.1757
  417TMC3    H1 6280   0.742   3.376  11.692 -0.0304 -1.1746  0.0864
  417TMC3    H2 6281   0.578   3.461  12.073  0.6201 -0.0259  0.9038
  417TMC3    C7 6282   0.603   3.553  11.809 -0.4180  0.2624 -0.5741
  417TMC3    C8 6283   0.725   3.297  12.188  0.0789  0.1959  0.4226
  417TMC3    O1 6284   0.641   3.584  11.698 -0.5772  0.0148 -0.0151
  417TMC3    O2 6285   0.646   3.362  12.259  0.1154 -0.3950 -0.3050
  418TMC3    C1 6286   4.447   0.414   0.506  0.2600  0.2022  0.0647
  418TMC3    C2 6287   4.328   0.484   0.494 -0.0078  0.0530 -0.6205
  418TMC3    C3 6288   4.219   0.429   0.554  0.0543 -0.4397 -0.3175
  418TMC3    C4 6289   4.456   0.299   0.583 -0.0371 -0.5908 -0.4845
  418TMC3    C5 6290   4.349   0.276   0.665  0.2137 -0.3201 -0.4416
  418TMC3    C6 6291   4.220   0.330   0.649  0.3814  0.2536 -0.0084
  418TMC3     C 6292   4.561   0.456   0.424 -0.4078 -0.4295  1.0094
  418TMC3     O 6293   4.566   0.578   0.398 -0.6136 -0.2431 -0.2064
  418TMC3     H 6294   4.322   0.572   0.430 -2.5705 -0.2574 -0.7967
  418TMC3    H1 6295   4.552   0.258   0.613  0.0861 -1.1813 -1.6606
  418TMC3    H2 6296   4.126   0.317   0.700 -0.8048  0.9292 -2.0333
  418TMC3    C7 6297   4.361   0.159   0.746 -0.1755  0.4740 -0.3983
  418TMC3    C8 6298   4.107   0.457   0.468 -0.6631  0.0162  0.5520
  418TMC3    O1 6299   4.404   0.057   0.696  0.3236  0.1604  0.0750
  418TMC3    O2 6300   4.102   0.565   0.409 -0.4686 -0.2274 -0.4774
  419MPD2     C 6301   3.363   3.142  12.082 -0.1925  0.8799  0.2187
  419MPD2    C1 6302   3.233   3.155  12.076 -0.0672  0.4394  0.2044
  419MPD2    C2 6303   3.152   3.135  12.189 -0.5380  0.4096  0.4089
  419MPD2    C3 6304   3.202   3.087  12.315 -0.7883  0.2961 -0.2893
  419MPD2    C4 6305   3.337   3.074  12.317 -0.5959  0.1764  0.0478
  419MPD2    C5 6306   3.415   3.108  12.205  0.7201  0.1154  0.6350
  419MPD2     H 6307   3.045   3.151  12.179 -0.8141  0.1700  2.8035
  419MPD2    H1 6308   3.391   3.031  12.401 -0.9716  0.7973  0.6062
  419MPD2    H2 6309   3.428   3.176  12.003 -1.8678  1.9635 -0.7048
  419MPD2    H3 6310   3.522   3.100  12.220  0.8973  1.0573 -0.1174
  419MPD2     N 6311   3.119   3.083  12.429 -0.2671  0.0808 -0.0027
  419MPD2    H5 6312   3.020   3.088  12.408  0.6550  3.1456 -3.5419
  419MPD2    N1 6313   3.165   3.186  11.956 -0.2105 -0.0646 -0.0430
  419MPD2    H7 6314   3.064   3.189  11.957 -0.2546 -0.7991 -2.0178
  420TMC3    C1 6315   3.066   3.092  12.663 -0.8863 -0.0132 -0.8769
  420TMC3    C2 6316   2.927   3.102  12.634  0.2058 -1.0636 -0.0478
  420TMC3    C3 6317   2.843   3.131  12.741  0.0189 -0.1405  0.4641
  420TMC3    C4 6318   3.114   3.105  12.785  0.0659 -0.5908  0.0354
  420TMC3    C5 6319   3.028   3.151  12.879 -0.4780  0.4859 -0.1878
  420TMC3    C6 6320   2.891   3.167  12.862 -0.0532  0.1188  0.1069
  420TMC3     C 6321   3.164   3.064  12.557 -0.4369  0.3319 -0.3756
  420TMC3     O 6322   3.274   3.042  12.597  0.1004 -0.0365  1.0040
  420TMC3     H 6323   2.887   3.054  12.546  2.2152 -1.1067 -0.9313
  420TMC3    H1 6324   3.219   3.095  12.811  0.3155  0.7358 -0.4892
  420TMC3    H2 6325   2.830   3.199  12.945  0.8324  2.1735 -0.0429
  420TMC3    C7 6326   3.069   3.193  13.007  0.1981 -0.7028  0.0410
  420TMC3    C8 6327   2.700   3.133  12.723  0.4495 -0.9240 -0.2443
  420TMC3    O1 6328   3.157   3.124  13.065 -0.1618  0.6067  0.4090
  420TMC3    O2 6329   2.659   3.136  12.609  0.3036 -0.6577  0.3534
  421TMC3    C1 6330   4.163   0.155  13.659 -0.1284 -1.2602 -0.3308
  421TMC3    C2 6331   4.182   0.280  13.707  0.0670 -0.4206  0.0985
  421TMC3    C3 6332   4.281   0.302  13.800  0.0760  0.5314 -0.2010
  421TMC3    C4 6333   4.237   0.048  13.698 -0.0995  0.7845 -1.2225
  421TMC3    C5 6334   4.325   0.068  13.802  0.4398 -0.6383 -0.1720
  421TMC3    C6 6335   4.360   0.198  13.845 -0.2079 -0.2507 -0.0457
  421TMC3     C 6336   4.113   0.153  13.526  0.3818 -0.5992 -0.3734
  421TMC3     O 6337   4.180   0.215  13.447  0.2673  0.3622  0.5439
  421TMC3     H 6338   4.109   0.358  13.688 -0.6386 -0.3488  3.0492
  421TMC3    H1 6339   4.228   4.688  13.642  0.7947 -1.4533  2.2809
  421TMC3    H2 6340   4.438   0.214  13.918 -1.5918  1.4957  1.0574
  421TMC3    C7 6341   4.415   4.697  13.853 -0.5439  0.1553 -0.1250
  421TMC3    C8 6342   4.288   0.418  13.887 -0.1996 -0.7001 -0.1652
  421TMC3    O1 6343   4.528   4.729  13.885  0.0486  0.0628  0.1498
  421TMC3    O2 6344   4.352   0.416  13.993 -0.2363 -0.0494 -0.4121
  422TMC3    C1 6345   1.664   1.542  12.526 -0.1405  0.2309 -0.4056
  422TMC3    C2 6346   1.688   1.603  12.643  0.5690  0.1501  0.1510
  422TMC3    C3 6347   1.597   1.585  12.746 -0.1384  0.2822  1.1062
  422TMC3    C4 6348   1.552   1.470  12.498  0.1914 -0.5954 -0.4361
  422TMC3    C5 6349   1.467   1.443  12.605  0.1141  0.1394 -0.5436
  422TMC3    C6 6350   1.484   1.503  12.733  0.5137  0.9635  0.2101
  422TMC3     C 6351   1.757   1.570  12.417  0.6092 -0.2154  0.9944
  422TMC3     O 6352   1.848   1.645  12.443  0.3413 -0.4856 -0.0465
  422TMC3     H 6353   1.781   1.653  12.666 -0.5685  0.9322  3.0215
  422TMC3    H1 6354   1.536   1.428  12.400 -0.5960 -1.1646 -0.0676
  422TMC3    H2 6355   1.418   1.489  12.818  0.4370 -1.3527 -0.2273
  422TMC3    C7 6356   1.337   1.410  12.550  0.6310  0.3337 -0.6765
  422TMC3    C8 6357   1.632   1.653  12.878 -0.5167  0.5667  0.4873
  422TMC3    O1 6358   1.324   1.411  12.432 -0.1308 -0.0951  0.1339
  422TMC3    O2 6359   1.569   1.630  12.982  0.1916  0.0944 -0.3023
  423MPD2     C 6360   3.717   2.548   0.065  0.5815 -0.2108 -0.6524
  423MPD2    C1 6361   3.621   2.461   0.125 -0.2393  0.3485  0.4575
  423MPD2    C2 6362   3.589   2.343   0.056  0.1633 -0.1560 -0.0531
  423MPD2    C3 6363   3.638   2.310  17.664 -0.3158 -0.5533  0.2246
  423MPD2    C4 6364   3.716   2.399  17.601  0.7494  0.3649 -0.1908
  423MPD2    C5 6365   3.756   2.514  17.668  0.6650  0.0152 -0.4465
  423MPD2     H 6366   3.505   2.287   0.094 -0.0930 -0.3668 -0.9392
  423MPD2    H1 6367   3.754   2.386  17.501  0.0972  0.1764 -0.4072
  423MPD2    H2 6368   3.764   2.634   0.112 -0.6205  0.3717 -0.5244
  423MPD2    H3 6369   3.827   2.575  17.613 -0.6557  1.0360 -1.0289
  423MPD2     N 6370   3.586   2.207  17.582  0.5099 -0.0410  0.3124
  423MPD2    H5 6371   3.608   2.211  17.483 -0.8416  1.3590  0.0687
  423MPD2    N1 6372   3.561   2.482   0.249 -0.0621  0.4721  0.7307
  423MPD2    H7 6373   3.509   2.408   0.295  2.8340 -0.9223  1.7347
  424TMC3    C1 6374   3.466   2.599   0.421 -0.5781  0.5165 -0.1083
  424TMC3    C2 6375   3.468   2.477   0.488 -0.7497  0.2143  0.0854
  424TMC3    C3 6376   3.366   2.455   0.575 -0.2840  0.7276 -0.3592
  424TMC3    C4 6377   3.376   2.695   0.453  1.0590  0.7099 -0.6887
  424TMC3    C5 6378   3.276   2.669   0.540 -0.1655 -0.2022 -0.8845
  424TMC3    C6 6379   3.273   2.551   0.613  0.3320  0.5168 -0.1762
  424TMC3     C 6380   3.552   2.605   0.303  0.2452  0.0539  0.1506
  424TMC3     O 6381   3.583   2.718   0.265 -0.6250  0.6740  0.6148
  424TMC3     H 6382   3.544   2.404   0.462 -0.8785 -0.2788  1.1029
  424TMC3    H1 6383   3.371   2.784   0.393  0.8222  0.5762 -0.8700
  424TMC3    H2 6384   3.200   2.525   0.688 -0.2080 -0.3013 -0.9882
  424TMC3    C7 6385   3.159   2.753   0.514  0.3571 -0.7034  0.3661
  424TMC3    C8 6386   3.396   2.357   0.678 -0.0159  0.3114 -0.3532
  424TMC3    O1 6387   3.167   2.857   0.451  0.1923  0.2648  0.2106
  424TMC3    O2 6388   3.301   2.296   0.735  0.4821  0.0482  0.2026
  425MPD2     C 6389   2.096   1.615  17.618 -0.2914 -0.3734 -0.0061
  425MPD2    C1 6390   1.996   1.540  17.557 -0.6251  0.5654 -0.1050
  425MPD2    C2 6391   1.876   1.530  17.619  1.1214  0.1976 -0.2142
  425MPD2    C3 6392   1.843   1.612  17.722  0.0594 -0.2175 -0.0677
  425MPD2    C4 6393   1.942   1.690   0.052  0.1202 -0.1059 -0.7102
  425MPD2    C5 6394   2.067   1.688   0.003  0.2352  0.0635  0.2343
  425MPD2     H 6395   1.794   1.466  17.587  0.7266 -0.4159  1.9640
  425MPD2    H1 6396   1.919   1.750   0.139 -0.2387 -1.1262 -0.0996
  425MPD2    H2 6397   2.194   1.614  17.571  0.6049 -0.5479  1.8303
  425MPD2    H3 6398   2.144   1.757   0.034 -1.8987  1.6554  1.9677
  425MPD2     N 6399   1.714   1.600   0.050  0.6940 -0.2168 -0.3837
  425MPD2    H5 6400   1.649   1.541  17.726 -1.0152 -0.9036  2.5762
  425MPD2    N1 6401   2.023   1.456  17.447 -0.2742 -0.0986 -0.2928
  425MPD2    H7 6402   2.117   1.458  17.410 -0.3289 -0.1892 -0.4396
  426TMC3    C1 6403   2.006   1.269  17.305  0.6564 -0.2191 -0.5727
  426TMC3    C2 6404   1.922   1.189  17.231 -0.3020 -0.6569 -0.2424
  426TMC3    C3 6405   1.977   1.069  17.193  0.1608 -0.0735 -0.4908
  426TMC3    C4 6406   2.139   1.234  17.329 -0.3577 -0.9135  0.4085
  426TMC3    C5 6407   2.185   1.113  17.286 -0.3134  1.1601  0.3292
  426TMC3    C6 6408   2.103   1.025  17.218 -0.2368  0.0546  0.2860
  426TMC3     C 6409   1.938   1.363  17.394  0.3503 -1.0046  0.3200
  426TMC3     O 6410   1.819   1.344  17.415 -0.0883 -0.4685 -0.3720
  426TMC3     H 6411   1.824   1.225  17.200  0.4048  1.3937 -0.0987
  426TMC3    H1 6412   2.209   1.291  17.389  0.2438 -1.2064 -0.0055
  426TMC3    H2 6413   2.144   0.931  17.183 -0.4468  0.5619 -1.3252
  426TMC3    C7 6414   2.270   1.058  17.384 -0.5964  0.1336  0.3498
  426TMC3    C8 6415   1.899   0.993  17.097 -1.0210 -0.4269 -0.0255
  426TMC3    O1 6416   2.372   1.121  17.410 -0.0755  0.0648  0.5950
  426TMC3    O2 6417   1.776   1.006  17.101 -0.3612 -0.1205  0.3125
  427MPD2     C 6418   0.718   3.387  15.051 -0.2440 -0.1463  0.2840
  427MPD2    C1 6419   0.669   3.347  15.173  0.4808 -0.3232 -0.5473
  427MPD2    C2 6420   0.539   3.387  15.194  0.3399 -0.3139  0.5825
  427MPD2    C3 6421   0.459   3.448  15.100 -0.2925  0.5402  0.1500
  427MPD2    C4 6422   0.515   3.481  14.975 -0.2434  0.4160  0.1334
  427MPD2    C5 6423   0.645   3.447  14.956 -0.2548  0.0201  0.5675
  427MPD2     H 6424   0.503   3.372  15.295 -1.3931 -1.0187 -0.1364
  427MPD2    H1 6425   0.451   3.527  14.901  2.8062  1.0749 -2.0864
  427MPD2    H2 6426   0.819   3.362  15.020 -1.0771 -2.7388 -0.3975
  427MPD2    H3 6427   0.694   3.463  14.861 -2.7131  0.8510 -0.5551
  427MPD2     N 6428   0.326   3.484  15.127 -0.1117  0.3808 -0.0596
  427MPD2    H5 6429   0.284   3.534  15.049  0.3464 -0.8570 -1.1244
  427MPD2    N1 6430   0.734   3.274  15.273  0.0805 -0.0523  0.0274
  427MPD2    H7 6431   0.679   3.252  15.355 -1.1470 -0.0739 -0.8059
  428TMC3    C1 6432   0.911   3.158  15.380 -0.5249  0.4124 -1.1738
  428TMC3    C2 6433   0.830   3.054  15.431  0.7173  0.0991 -0.0564
  428TMC3    C3 6434   0.863   2.990  15.545 -0.5063 -0.5198  0.3192
  428TMC3    C4 6435   1.018   3.197  15.447 -0.7685 -0.2698  0.2180
  428TMC3    C5 6436   1.050   3.126  15.557  0.0178  0.3207 -0.3772
  428TMC3    C6 6437   0.980   3.024  15.614  0.1622  0.6811  0.3533
  428TMC3     C 6438   0.867   3.241  15.265  0.1011 -0.0275  0.4153
  428TMC3     O 6439   0.950   3.270  15.182 -0.7905 -0.0863 -0.1965
  428TMC3     H 6440   0.728   3.036  15.396  0.3922  0.0333  0.9219
  428TMC3    H1 6441   1.067   3.289  15.416  0.1208 -0.7785  0.0928
  428TMC3    H2 6442   1.014   2.976  15.705  0.5028  1.1178  0.4508
  428TMC3    C7 6443   1.152   3.184  15.646  0.4454  0.1560  0.3780
  428TMC3    C8 6444   0.787   2.868  15.579  0.4115 -0.1456 -0.7466
  428TMC3    O1 6445   1.143   3.175  15.766  0.1825 -0.0527  0.3837
  428TMC3    O2 6446   0.668   2.849  15.556  0.1225 -0.2040 -0.0244
  429MPD2     C 6447   1.781   3.729  17.380 -1.0032  0.4924  0.2642
  429MPD2    C1 6448   1.899   3.676  17.436 -0.6979 -0.0166  0.4629
  429MPD2    C2 6449   2.017   3.696  17.370  0.8408  0.4141  0.3385
  429MPD2    C3 6450   2.026   3.778  17.249 -0.6591  0.3862 -0.2730
  429MPD2    C4 6451   1.906   3.821  17.201 -0.7373  0.0980  0.1277
  429MPD2    C5 6452   1.786   3.800  17.265 -0.2385 -0.2144  0.0275
  429MPD2     H 6453   2.109   3.664  17.417  0.2254 -3.4230 -1.0778
  429MPD2    H1 6454   1.901   3.884  17.113 -1.1625  2.6503  1.9893
  429MPD2    H2 6455   1.681   3.706  17.415  0.2170  0.4310  3.6672
  429MPD2    H3 6456   1.698   3.841  17.218 -1.9828  0.8696  4.2914
  429MPD2     N 6457   2.147   3.809  17.182 -0.9740 -0.2571  0.3607
  429MPD2    H5 6458   2.230   3.760  17.213 -0.3549 -1.2608 -2.8731
  429MPD2    N1 6459   1.896   3.597  17.542 -0.1296  0.2463 -0.1258
  429MPD2    H7 6460   1.805   3.558  17.564 -0.6791  0.7506 -1.5315
  430TMC3    C1 6461   2.288   3.911  17.024  0.2427  0.1257  0.1287
  430TMC3    C2 6462   2.300   3.963  16.894  0.5022 -0.3224  1.0463
  430TMC3    C3 6463   2.398   3.915  16.808  0.1068 -0.8138 -0.8469
  430TMC3    C4 6464   2.384   3.824  17.065 -0.4811 -0.3154  0.0965
  430TMC3    C5 6465   2.481   3.784  16.979  0.0435  0.1914 -0.3975
  430TMC3    C6 6466   2.486   3.823  16.846  0.0421  0.1957  0.3116
  430TMC3     C 6467   2.160   3.905  17.084  0.2471  0.3000  0.4262
  430TMC3     O 6468   2.080   3.983  17.038  0.4783 -0.1546  0.0788
  430TMC3     H 6469   2.232   4.042  16.864  0.7136  0.2125  1.9813
  430TMC3    H1 6470   2.386   3.784  17.166 -2.1047 -1.1356 -0.2105
  430TMC3    H2 6471   2.565   3.794  16.777 -0.3824 -0.3640  0.0550
  430TMC3    C7 6472   2.493   3.643  16.985  0.3685  1.0487  0.1240
  430TMC3    C8 6473   2.363   3.895  16.670  0.1533  1.0220  0.9747
  430TMC3    O1 6474   2.390   3.584  17.017 -0.4121  0.0956 -0.4969
  430TMC3    O2 6475   2.451   3.894  16.589 -0.0111 -0.0564  0.7824
  431MPD2     C 6476   2.782   3.288  12.371  0.5461  0.2253  0.4302
  431MPD2    C1 6477   2.764   3.409  12.311  0.4473  0.2250 -0.1848
  431MPD2    C2 6478   2.764   3.408  12.173  0.3182 -0.7613 -0.1340
  431MPD2    C3 6479   2.788   3.295  12.092 -0.0609 -0.2464 -0.6273
  431MPD2    C4 6480   2.778   3.180  12.157 -0.2866  0.6934 -0.1759
  431MPD2    C5 6481   2.773   3.172  12.296  0.4849  0.6460 -0.0830
  431MPD2     H 6482   2.763   3.502  12.118  0.6898 -0.2116  0.7903
  431MPD2    H1 6483   2.782   3.086  12.104 -0.7236  0.5593  0.0283
  431MPD2    H2 6484   2.773   3.282  12.479  0.7786 -1.6088  0.3464
  431MPD2    H3 6485   2.769   3.071  12.333  1.3485 -0.3554 -2.6827
  431MPD2     N 6486   2.805   3.302  11.953 -0.5313 -0.2563  0.3867
  431MPD2    H5 6487   2.811   3.209  11.911 -1.2539 -0.1782  0.1093
  431MPD2    N1 6488   2.769   3.532  12.381 -0.8484 -0.6058  0.0755
  431MPD2    H7 6489   2.758   3.615  12.325  1.5617  0.2379  0.8584
  432TMC3    C1 6490   2.904   3.372  11.762  0.3924 -0.1986 -0.4408
  432TMC3    C2 6491   2.938   3.491  11.698  0.4943 -0.2390 -0.1647
  432TMC3    C3 6492   3.071   3.511  11.675 -0.4620  0.0845  0.6438
  432TMC3    C4 6493   2.994   3.274  11.778 -0.6255 -0.1627 -0.4623
  432TMC3    C5 6494   3.127   3.299  11.756  0.0249  0.3273 -0.0834
  432TMC3    C6 6495   3.166   3.419  11.706  0.1076 -0.4735  0.2004
  432TMC3     C 6496   2.832   3.408  11.879 -0.4302 -0.4228 -0.4622
  432TMC3     O 6497   2.842   3.525  11.916  1.1179 -0.0874  0.2333
  432TMC3     H 6498   2.857   3.561  11.682 -0.5155 -1.3284  0.2629
  432TMC3    H1 6499   2.960   3.175  11.804  0.7579 -0.4878  0.1208
  432TMC3    H2 6500   3.272   3.444  11.699 -0.3815  1.6868  0.3949
  432TMC3    C7 6501   3.224   3.238  11.841 -0.4060 -0.2127  0.6213
  432TMC3    C8 6502   3.111   3.645  11.653  0.6052  0.2791  0.6398
  432TMC3    O1 6503   3.342   3.272  11.822 -0.6042 -0.6578  0.1837
  432TMC3    O2 6504   3.056   3.697  11.562 -0.0721 -0.1151  0.7240
  433MPD2     C 6505   1.428   2.496  10.853  0.9453 -1.1956 -0.2262
  433MPD2    C1 6506   1.561   2.488  10.811  0.1015  0.7970 -0.1651
  433MPD2    C2 6507   1.649   2.588  10.853  0.0067  0.4289  0.5678
  433MPD2    C3 6508   1.611   2.678  10.944 -0.1446  1.0810 -0.1300
  433MPD2    C4 6509   1.477   2.689  10.979 -0.4904  0.2205  0.2999
  433MPD2    C5 6510   1.386   2.606  10.927  0.3564  0.1443  0.0284
  433MPD2     H 6511   1.751   2.596  10.816  0.0668  1.2650  0.9342
  433MPD2    H1 6512   1.450   2.768  11.047 -1.6035  0.4407 -0.3928
  433MPD2    H2 6513   1.355   2.424  10.820  0.9865 -1.3092 -0.0666
  433MPD2    H3 6514   1.281   2.631  10.934  0.5667  0.5212  2.0887
  433MPD2     N 6515   1.718   2.744  11.005 -0.5169 -0.4513 -0.1772
  433MPD2    H5 6516   1.811   2.729  10.969  0.3348 -0.9352  2.2271
  433MPD2    N1 6517   1.597   2.372  10.731  0.3254  0.1959 -0.5131
  433MPD2    H7 6518   1.519   2.307  10.722  0.0055  0.3696  0.9881
  434TMC3    C1 6519   1.730   2.217  10.614 -0.3380 -0.1628  0.5796
  434TMC3    C2 6520   1.841   2.133  10.634  0.4154  0.1256 -0.3331
  434TMC3    C3 6521   1.822   2.003  10.625  0.0369  0.4302  0.0795
  434TMC3    C4 6522   1.613   2.163  10.573  0.1556  0.3523 -0.1283
  434TMC3    C5 6523   1.595   2.028  10.568  0.1697 -0.1419  0.1618
  434TMC3    C6 6524   1.698   1.946  10.610  0.5713 -0.1163  0.3316
  434TMC3     C 6525   1.726   2.336  10.696  0.0368  0.3450 -0.1700
  434TMC3     O 6526   1.830   2.374  10.750 -0.0147 -0.0958  0.2520
  434TMC3     H 6527   1.941   2.172  10.648  0.6787  0.1956 -2.3524
  434TMC3    H1 6528   1.523   2.216  10.548  1.1462  1.9287 -0.3555
  434TMC3    H2 6529   1.687   1.838  10.605 -3.9681  0.2870  1.8629
  434TMC3    C7 6530   1.468   1.973  10.530  0.3510  0.4872  0.4966
  434TMC3    C8 6531   1.920   1.925  10.706  0.6546  0.6433  0.1272
  434TMC3    O1 6532   1.395   2.046  10.466  0.0330 -0.1562  0.1477
  434TMC3    O2 6533   2.029   1.978  10.738 -0.0940  0.0396 -0.4401
  435MPD2     C 6534   3.464   2.400  15.311  0.4641 -0.0005  0.5395
  435MPD2    C1 6535   3.405   2.397  15.439  0.5173  0.5904 -0.5136
  435MPD2    C2 6536   3.478   2.331  15.539 -0.0879 -0.1757  0.0466
  435MPD2    C3 6537   3.595   2.268  15.507 -0.2556  0.1256 -0.1262
  435MPD2    C4 6538   3.645   2.267  15.376 -0.4778 -0.6130 -0.1547
  435MPD2    C5 6539   3.572   2.332  15.280 -0.2254 -0.3802  0.6648
  435MPD2     H 6540   3.442   2.313  15.640 -1.4737 -1.1334 -0.6160
  435MPD2    H1 6541   3.736   2.217  15.346 -1.1978 -1.0775 -1.5864
  435MPD2    H2 6542   3.433   2.464  15.229 -1.4448 -1.3549  0.2164
  435MPD2    H3 6543   3.613   2.348  15.181 -0.5917  0.8695  0.7128
  435MPD2     N 6544   3.670   2.210  15.614 -0.5849 -0.1999  0.0165
  435MPD2    H5 6545   3.630   2.213  15.707  0.7303  1.1414  0.5360
  435MPD2    N1 6546   3.288   2.468  15.466 -0.6059  0.0254  0.0227
  435MPD2    H7 6547   3.242   2.462  15.557 -3.4911 -0.7238 -1.5015
  436TMC3    C1 6548   2.952   2.633  15.594 -0.0400 -0.5343 -0.3931
  436TMC3    C2 6549   3.054   2.562  15.544  1.0022  0.1389 -0.1621
  436TMC3    C3 6550   3.122   2.628  15.450  0.9371 -0.0003  0.0158
  436TMC3    C4 6551   2.945   2.769  15.589  0.6338  0.0240 -0.3279
  436TMC3    C5 6552   3.026   2.830  15.505  0.0767  0.9734 -0.0772
  436TMC3    C6 6553   3.117   2.765  15.434 -0.4988 -0.6760 -0.1489
  436TMC3     C 6554   2.867   2.564  15.687 -0.7803 -0.3652  0.4650
  436TMC3     O 6555   2.860   2.446  15.668 -0.4034 -0.1796  0.0902
  436TMC3     H 6556   3.055   2.455  15.559  4.0317  0.0675 -0.8149
  436TMC3    H1 6557   2.869   2.832  15.633 -1.0257 -2.2703  0.1193
  436TMC3    H2 6558   3.199   2.813  15.381  0.8613 -3.5148 -0.6040
  436TMC3    C7 6559   3.048   2.972  15.530 -0.5546  0.7038  1.0149
  436TMC3    C8 6560   3.237   2.568  15.384 -0.4284  0.3646 -0.4014
  436TMC3    O1 6561   2.973   3.033  15.604  0.0644  0.6313 -0.2367
  436TMC3    O2 6562   3.285   2.630  15.291 -0.0521 -0.1310  0.5566
  437TMC3    C1 6563   1.872   3.897  13.021  0.0046  0.0639  0.7530
  437TMC3    C2 6564   1.736   3.905  13.043 -0.3145  0.2790 -0.0130
  437TMC3    C3 6565   1.685   4.030  13.056  0.8912  0.8095  0.2430
  437TMC3    C4 6566   1.944   4.009  13.011  0.8875 -0.0579  0.3424
  437TMC3    C5 6567   1.887   4.135  13.016 -0.2681  0.7030 -0.1423
  437TMC3    C6 6568   1.757   4.146  13.047 -0.8775 -0.6175  0.4813
  437TMC3     C 6569   1.930   3.765  13.048  0.3807 -0.5164 -0.1392
  437TMC3     O 6570   1.852   3.678  13.086  0.5459 -0.2195 -0.2577
  437TMC3     H 6571   1.670   3.822  13.068 -1.2852 -0.0620 -3.8039
  437TMC3    H1 6572   2.052   4.011  13.003  0.7524  1.3255 -1.1130
  437TMC3    H2 6573   1.723   4.243  13.083  0.5387 -0.4882  1.5154
  437TMC3    C7 6574   1.959   4.260  12.973  0.5741  0.0020 -0.0478
  437TMC3    C8 6575   1.539   4.042  13.091  0.0439  0.3527  0.5126
  437TMC3    O1 6576   1.886   4.361  12.978  0.5388 -0.5186  0.1464
  437TMC3    O2 6577   1.494   3.932  13.118  0.5329 -0.3976 -0.6239
  438MPD2     C 6578   0.083   0.430  16.852  0.8176 -0.7248 -0.8442
  438MPD2    C1 6579   0.106   0.304  16.881 -0.2021  0.4496  0.4257
  438MPD2    C2 6580   0.081   0.250  17.009  0.6045  0.3058 -0.1293
  438MPD2    C3 6581   0.049   0.343  17.111  0.2523 -0.4814 -0.1255
  438MPD2    C4 6582   0.029   0.475  17.082 -0.2514  0.7807  0.4578
  438MPD2    C5 6583   0.043   0.518  16.951 -0.8283  0.9244  0.2432
  438MPD2     H 6584   0.101   0.144  17.023 -2.1808 -0.1001  0.7032
  438MPD2    H1 6585   0.001   0.546  17.159 -0.9845  0.1198  0.8081
  438MPD2    H2 6586   0.095   0.459  16.748 -0.6899 -2.7453 -1.5721
  438MPD2    H3 6587   0.024   0.620  16.918  0.3846  0.3288 -2.3201
  438MPD2     N 6588   0.033   0.303  17.246  0.1907  0.1201  0.1984
  438MPD2    H5 6589   0.013   0.380  17.310 -0.0876 -0.0108  0.2699
  438MPD2    N1 6590   0.147   0.213  16.786  0.4894  0.5530  0.8387
  438MPD2    H7 6591   0.146   0.116  16.816 -1.8100 -0.4710 -2.5535
  439TMC3    C1 6592   0.244   0.107  16.608  0.6263 -0.1868 -0.5680
  439TMC3    C2 6593   0.260   0.080  16.477 -0.0526 -0.5515 -0.0353
  439TMC3    C3 6594   0.316   4.695  16.436 -0.2383 -0.2308  0.2574
  439TMC3    C4 6595   0.306   0.020  16.701  0.4556 -0.6682 -0.3910
  439TMC3    C5 6596   0.353   4.633  16.649 -0.0594  0.0648  0.3671
  439TMC3    C6 6597   0.358   4.598  16.521 -0.4406  0.0202  0.2279
  439TMC3     C 6598   0.195   0.229  16.660 -0.2451 -0.4389  0.0997
  439TMC3     O 6599   0.193   0.320  16.580 -0.0360 -0.7044 -0.7520
  439TMC3     H 6600   0.210   0.144  16.405  3.2003  0.0941 -1.7245
  439TMC3    H1 6601   0.320   0.046  16.805  0.3024 -1.8159 -0.0856
  439TMC3    H2 6602   0.403   4.505  16.488 -1.7181 -0.6979  0.4931
  439TMC3    C7 6603   0.428   4.542  16.740  0.3976  0.9966  0.6911
  439TMC3    C8 6604   0.330   4.660  16.297  0.3599 -0.2564 -0.4662
  439TMC3    O1 6605   0.502   4.594  16.822 -0.3607 -0.2954 -0.0568
  439TMC3    O2 6606   0.346   4.542  16.265  0.4497 -0.6960  0.2150
  440MPD2     C 6607   3.614   0.399  14.986  0.2266 -0.0577  0.3456
  440MPD2    C1 6608   3.667   0.436  15.103  0.2874  0.0113 -0.0805
  440MPD2    C2 6609   3.789   0.392  15.142 -0.0408  0.3765  0.5014
  440MPD2    C3 6610   3.859   0.308  15.049  0.2750 -0.9136  0.5897
  440MPD2    C4 6611   3.803   0.276  14.925 -0.4287 -0.1580 -0.1249
  440MPD2    C5 6612   3.679   0.323  14.893 -0.1277 -0.6443  1.0122
  440MPD2     H 6613   3.831   0.403  15.241 -0.0847  1.3444  0.4087
  440MPD2    H1 6614   3.855   0.210  14.856 -1.9627 -3.2608  1.6998
  440MPD2    H2 6615   3.519   0.444  14.961  1.1656  3.1980  2.6803
  440MPD2    H3 6616   3.632   0.302  14.798 -0.8112  0.8760  1.0036
  440MPD2     N 6617   3.976   0.248  15.090  0.1114 -0.0415 -0.2002
  440MPD2    H5 6618   4.001   0.162  15.041  1.5121 -0.9290  2.1035
  440MPD2    N1 6619   3.593   0.507  15.204 -0.2670 -0.2682 -0.2506
  440MPD2    H7 6620   3.637   0.506  15.296 -0.1448  0.7409 -0.3031
  441TMC3    C1 6621   4.152   0.213  15.246  0.0743 -0.6690  0.1915
  441TMC3    C2 6622   4.255   0.276  15.298  0.0538  0.0430 -0.6502
  441TMC3    C3 6623   4.296   0.243  15.426 -0.2404  0.1518  0.2613
  441TMC3    C4 6624   4.089   0.110  15.304 -0.7470 -0.2271  0.3735
  441TMC3    C5 6625   4.126   0.070  15.427 -0.3804  0.4609 -0.4968
  441TMC3    C6 6626   4.230   0.137  15.484  0.5553  0.3297 -0.3862
  441TMC3     C 6627   4.049   0.297  15.192  0.0958 -0.1362 -0.2956
  441TMC3     O 6628   4.059   0.412  15.230  0.2153  0.2033 -0.3734
  441TMC3     H 6629   4.296   0.361  15.245 -3.6278  1.0251 -1.9188
  441TMC3    H1 6630   4.001   0.069  15.257  0.6967 -0.5196 -2.0950
  441TMC3    H2 6631   4.281   0.102  15.573  2.1323 -0.7585 -1.7265
  441TMC3    C7 6632   4.008   0.071  15.511 -0.0772  0.4722  0.9993
  441TMC3    C8 6633   4.303   0.360  15.511  0.1999  0.1633  0.1474
  441TMC3    O1 6634   3.912   0.133  15.472  0.2456 -0.0584  0.3977
  441TMC3    O2 6635   4.372   0.356  15.609 -0.0811  0.1405  0.3220
  442MPD2     C 6636   1.614   1.354  16.510 -0.1349  0.0351 -0.5041
  442MPD2    C1 6637   1.514   1.257  16.546 -0.0245 -0.3382  0.2148
  442MPD2    C2 6638   1.543   1.123  16.519 -0.4164  0.5674  0.1773
  442MPD2    C3 6639   1.672   1.093  16.465  0.3815 -0.2758  0.4044
  442MPD2    C4 6640   1.762   1.192  16.433 -0.5905  0.0657  0.0925
  442MPD2    C5 6641   1.730   1.322  16.451 -0.1718  0.7978  0.0850
  442MPD2     H 6642   1.469   1.044  16.526 -0.3486  0.5018  0.1641
  442MPD2    H1 6643   1.860   1.169  16.393  0.5072  1.7162  1.8152
  442MPD2    H2 6644   1.593   1.460  16.508  0.7519  0.2470  1.3339
  442MPD2    H3 6645   1.796   1.400  16.415  0.2209  0.3113 -0.2512
  442MPD2     N 6646   1.713   0.959  16.438 -0.0851  0.4168 -0.3660
  442MPD2    H5 6647   1.806   0.941  16.401 -1.1448 -2.3574 -1.7246
  442MPD2    N1 6648   1.396   1.296  16.609 -0.3832 -0.6058  0.2448
  442MPD2    H7 6649   1.342   1.215  16.641 -0.7087  0.1031  1.4880
  443TMC3    C1 6650   1.238   1.427  16.732  0.0785 -0.1758 -0.5480
  443TMC3    C2 6651   1.143   1.523  16.699  0.1041 -0.4766  0.1455
  443TMC3    C3 6652   1.013   1.483  16.720 -0.1116 -0.3998 -0.0644
  443TMC3    C4 6653   1.202   1.315  16.802  0.8525 -0.1172  0.5707
  443TMC3    C5 6654   1.073   1.300  16.846 -0.1127  0.3344  0.2495
  443TMC3    C6 6655   0.969   1.383  16.806 -0.1173  0.1059  0.5802
  443TMC3     C 6656   1.359   1.425  16.642 -0.1996  0.1148 -0.0641
  443TMC3     O 6657   1.416   1.530  16.621  0.4733 -0.5509 -0.2691
  443TMC3     H 6658   1.176   1.590  16.621  3.1899 -0.4302  1.4907
  443TMC3    H1 6659   1.283   1.245  16.818 -0.0721 -0.7046  2.6210
  443TMC3    H2 6660   0.862   1.363  16.814 -0.2163  0.2378 -0.3465
  443TMC3    C7 6661   1.051   1.189  16.940 -0.4625 -0.2233 -0.2206
  443TMC3    C8 6662   0.958   1.450  16.593 -0.1689  0.0583  0.6005
  443TMC3    O1 6663   1.150   1.134  16.987  0.0227 -0.0555 -0.1533
  443TMC3    O2 6664   0.899   1.343  16.590 -0.2918 -0.0293  0.2232
  444MPD2     C 6665   2.060   0.674  17.283  0.4276  0.9413  0.1311
  444MPD2    C1 6666   1.970   0.598  17.204  0.1216 -0.3815  0.3050
  444MPD2    C2 6667   2.017   0.537  17.089 -0.2680  0.7252 -0.0622
  444MPD2    C3 6668   2.148   0.555  17.041 -0.5885  0.2472 -0.2280
  444MPD2    C4 6669   2.233   0.627  17.122 -1.3916 -0.6504  0.0224
  444MPD2    C5 6670   2.191   0.683  17.237 -0.0318  0.1930  0.3748
  444MPD2     H 6671   1.956   0.465  17.037 -0.2026 -0.6156  1.7003
  444MPD2    H1 6672   2.339   0.643  17.107 -1.6032  0.8556  0.1936
  444MPD2    H2 6673   2.035   0.733  17.371  4.0453 -1.4756  2.8279
  444MPD2    H3 6674   2.263   0.736  17.299  0.1878  0.8155 -0.4066
  444MPD2     N 6675   2.194   0.475  16.934 -0.8815 -0.5070 -0.4997
  444MPD2    H5 6676   2.119   0.434  16.879 -2.7288  0.8203  1.0233
  444MPD2    N1 6677   1.837   0.571  17.241  0.0095 -0.1482 -0.3668
  444MPD2    H7 6678   1.790   0.496  17.191 -0.1553  0.7015 -1.4868
  445TMC3    C1 6679   2.346   0.359  16.793 -0.4750 -0.4656 -0.5088
  445TMC3    C2 6680   2.242   0.302  16.723 -0.1083  0.5801 -0.2921
  445TMC3    C3 6681   2.257   0.172  16.675 -0.2181  0.4011 -0.1287
  445TMC3    C4 6682   2.472   0.313  16.781  0.0066  0.2756 -0.1269
  445TMC3    C5 6683   2.493   0.189  16.724  0.5573  0.0368 -0.0750
  445TMC3    C6 6684   2.383   0.116  16.673 -0.3630  0.5236  0.2909
  445TMC3     C 6685   2.325   0.478  16.883  0.2760 -0.3828  0.7401
  445TMC3     O 6686   2.425   0.541  16.917 -0.1098 -0.7668 -0.0829
  445TMC3     H 6687   2.143   0.344  16.726 -1.7323 -3.3098  0.4749
  445TMC3    H1 6688   2.548   0.366  16.836 -0.9193  2.6575 -1.1117
  445TMC3    H2 6689   2.395   0.029  16.609  2.7493  0.4631  0.9276
  445TMC3    C7 6690   2.620   0.139  16.677  0.0481 -0.0908  0.1177
  445TMC3    C8 6691   2.154   0.121  16.586  0.5493 -0.9473 -0.8232
  445TMC3    O1 6692   2.703   0.219  16.644 -0.2084  0.4552  0.1183
  445TMC3    O2 6693   2.058   0.195  16.569  0.8566 -0.5455  0.1089
  446MPD2     C 6694   1.682   1.904  11.142  0.3542  0.4077 -0.1551
  446MPD2    C1 6695   1.638   1.994  11.048 -0.8720 -0.0242 -1.0015
  446MPD2    C2 6696   1.733   2.084  11.006 -0.2730 -0.1324 -0.4741
  446MPD2    C3 6697   1.865   2.089  11.054 -0.1558 -0.8226 -0.2809
  446MPD2    C4 6698   1.898   2.000  11.156  0.2762 -0.0491  0.6784
  446MPD2    C5 6699   1.798   1.921  11.207  1.0131 -0.1240 -0.2504
  446MPD2     H 6700   1.717   2.150  10.921  1.6710  1.1692  0.1707
  446MPD2    H1 6701   1.992   2.004  11.210  1.6891 -0.9199 -1.7200
  446MPD2    H2 6702   1.625   1.819  11.180  0.7185 -1.6219 -4.0835
  446MPD2    H3 6703   1.826   1.856  11.289 -2.3174 -0.0694  0.9110
  446MPD2     N 6704   1.964   2.171  10.991  0.5159 -0.0256 -0.1815
  446MPD2    H5 6705   1.936   2.228  10.912  0.5554 -0.7828 -0.7434
  446MPD2    N1 6706   1.499   1.982  11.006  0.3060  0.5499  0.0295
  446MPD2    H7 6707   1.439   1.916  11.056 -1.3177  0.6467 -1.7864
  447TMC3    C1 6708   2.192   2.210  10.907  0.9218 -0.4368 -0.2698
  447TMC3    C2 6709   2.158   2.323  10.838 -0.1417  0.6296 -0.0954
  447TMC3    C3 6710   2.257   2.406  10.784  0.0568  0.3994 -0.8878
  447TMC3    C4 6711   2.320   2.166  10.924  0.2865  0.3946  0.2915
  447TMC3    C5 6712   2.417   2.249  10.871 -0.2777  0.1413  0.3085
  447TMC3    C6 6713   2.384   2.360  10.793 -0.0772 -0.1512  0.3535
  447TMC3     C 6714   2.101   2.156  11.007  0.0346  0.6389  0.0857
  447TMC3     O 6715   2.151   2.080  11.087 -0.3350  0.0632 -0.3306
  447TMC3     H 6716   2.057   2.363  10.827 -0.5712 -0.5832 -0.5390
  447TMC3    H1 6717   2.344   2.085  10.991  1.1949 -0.2220 -0.7757
  447TMC3    H2 6718   2.466   2.429  10.775  1.5732 -2.2387 -0.1429
  447TMC3    C7 6719   2.556   2.206  10.882  0.7621  1.0085  0.1605
  447TMC3    C8 6720   2.214   2.515  10.694 -0.1151 -0.7165  0.4730
  447TMC3    O1 6721   2.578   2.123  10.975 -0.1879 -0.2726  0.4022
  447TMC3    O2 6722   2.116   2.587  10.717  0.2176  0.3088 -0.3485
  448TMC3    C1 6723   0.360   1.268  17.450  0.3871 -0.0712  0.0787
  448TMC3    C2 6724   0.382   1.242  17.323  0.0648 -0.9245 -0.9392
  448TMC3    C3 6725   0.284   1.218  17.232 -0.3509  0.5495  0.1554
  448TMC3    C4 6726   0.232   1.264  17.507 -0.3562  0.2635 -0.3422
  448TMC3    C5 6727   0.132   1.236  17.415 -0.4501  0.2585 -0.4542
  448TMC3    C6 6728   0.153   1.217  17.286  0.9927  0.4410 -0.0904
  448TMC3     C 6729   0.479   1.299  17.534 -0.2697  0.3712 -0.1348
  448TMC3     O 6730   0.592   1.287  17.489 -0.7949 -0.2145 -0.0971
  448TMC3     H 6731   0.486   1.245  17.290 -0.2103  3.3531 -1.3945
  448TMC3    H1 6732   0.208   1.274  17.613  0.1673  1.0447 -0.2978
  448TMC3    H2 6733   0.071   1.189  17.222 -0.6022  2.4161  1.0579
  448TMC3    C7 6734   4.730   1.235  17.455 -0.4045 -0.4244  0.4489
  448TMC3    C8 6735   0.325   1.139  17.114  0.5491 -0.7503  0.1796
  448TMC3    O1 6736   4.648   1.246  17.365  0.2787  1.0057  0.2457
  448TMC3    O2 6737   0.267   1.030  17.109  0.3261 -0.5346  0.2803
  449MPD2     C 6738   1.718   4.476  13.918 -0.0384  0.3820 -1.1324
  449MPD2    C1 6739   1.598   4.467  13.848  0.0954  0.2992  0.3579
  449MPD2    C2 6740   1.487   4.532  13.901  0.0695 -0.3971 -0.2613
  449MPD2    C3 6741   1.495   4.605  14.024 -0.1639  0.4551  0.2599
  449MPD2    C4 6742   1.614   4.595  14.092  0.4594 -0.3118 -0.3741
  449MPD2    C5 6743   1.720   4.525  14.043  0.1932  0.5370 -0.1520
  449MPD2     H 6744   1.395   4.536  13.844 -1.6123  0.2805  2.4812
  449MPD2    H1 6745   1.640   4.640  14.187  2.1244 -1.4609 -0.2844
  449MPD2    H2 6746   1.802   4.421  13.877  0.5267  1.2886 -1.1813
  449MPD2    H3 6747   1.811   4.525  14.102  0.7729  0.5052 -1.0417
  449MPD2     N 6748   1.374   4.671  14.072  0.3576  0.6146 -0.5973
  449MPD2    H5 6749   1.294   4.653  14.012  0.9882 -0.5529 -1.1066
  449MPD2    N1 6750   1.589   4.423  13.720 -0.1012  0.3045  0.1625
  449MPD2    H7 6751   1.500   4.418  13.671  0.1676  1.5297 -0.4484
  450TMC3    C1 6752   1.644   4.377  13.495 -0.1642  0.6273 -0.3034
  450TMC3    C2 6753   1.713   4.464  13.410 -0.2243  0.0102  0.3129
  450TMC3    C3 6754   1.638   4.545  13.324  0.2928 -0.3472 -0.2280
  450TMC3    C4 6755   1.506   4.374  13.487  0.7044 -0.2613 -0.0020
  450TMC3    C5 6756   1.434   4.456  13.406 -1.2666 -0.3617 -0.5211
  450TMC3    C6 6757   1.500   4.541  13.323 -0.5547  0.1206  0.3906
  450TMC3     C 6758   1.691   4.390  13.632 -0.1100  0.1904 -0.0639
  450TMC3     O 6759   1.810   4.403  13.648  0.1162  0.1460 -0.0294
  450TMC3     H 6760   1.819   4.474  13.429 -0.4400 -0.7554  1.9044
  450TMC3    H1 6761   1.458   4.292  13.540  0.5750 -0.3261 -0.2217
  450TMC3    H2 6762   1.448   4.586  13.239  3.6797  0.9473 -1.8072
  450TMC3    C7 6763   1.311   4.501  13.471 -0.1203  0.2711 -0.2509
  450TMC3    C8 6764   1.699   4.633  13.230  0.0716  0.3518 -0.2868
  450TMC3    O1 6765   1.295   4.473  13.589 -0.2044 -0.2533 -0.3525
  450TMC3    O2 6766   1.625   4.718  13.181  0.3540  0.3533  0.1023
  451MPD2     C 6767   2.348   3.209   1.123 -0.2757 -0.3348  0.0180
  451MPD2    C1 6768   2.405   3.306   1.036 -0.3083 -0.2230 -0.1038
  451MPD2    C2 6769   2.511   3.263   0.956  0.1289  0.7339 -0.0404
  451MPD2    C3 6770   2.565   3.139   0.970  0.1973  0.1265 -1.0157
  451MPD2    C4 6771   2.514   3.048   1.055 -0.0290  0.3298  0.8698
  451MPD2    C5 6772   2.409   3.088   1.134  0.2403 -0.8369  0.1013
  451MPD2     H 6773   2.558   3.331   0.886  1.7692  0.6398  0.9770
  451MPD2    H1 6774   2.576   2.961   1.075  1.3923  1.4684  1.4079
  451MPD2    H2 6775   2.280   3.247   1.198 -0.5882 -1.3004  0.2286
  451MPD2    H3 6776   2.377   3.023   1.215  0.8646 -0.3133  0.7651
  451MPD2     N 6777   2.683   3.103   0.903 -0.3241  0.0802  0.2483
  451MPD2    H5 6778   2.724   3.013   0.927  0.7217 -0.2944 -2.9454
  451MPD2    N1 6779   2.360   3.443   1.034  0.2488  0.2675 -0.4089
  451MPD2    H7 6780   2.276   3.461   1.089  1.5103  1.6366  1.0721
  452TMC3    C1 6781   2.865   3.133   0.755  0.3515  0.6043 -0.1186
  452TMC3    C2 6782   2.931   3.043   0.827 -0.0694 -0.5977 -0.0412
  452TMC3    C3 6783   3.060   3.007   0.787  0.3001  0.5991 -0.0261
  452TMC3    C4 6784   2.920   3.191   0.642 -0.2927  0.1909  0.4934
  452TMC3    C5 6785   3.046   3.158   0.605 -0.7061  0.5807  0.1113
  452TMC3    C6 6786   3.118   3.071   0.681 -0.2932  0.1661 -0.6195
  452TMC3     C 6787   2.733   3.169   0.793 -0.0208 -0.0680 -0.2678
  452TMC3     O 6788   2.680   3.258   0.730 -0.1695 -0.7804 -0.5240
  452TMC3     H 6789   2.887   2.994   0.913  1.0357  0.5913  1.1852
  452TMC3    H1 6790   2.856   3.247   0.575 -0.1010 -0.3247 -0.1236
  452TMC3    H2 6791   3.218   3.051   0.643  0.8826  1.5740  1.7905
  452TMC3    C7 6792   3.108   3.219   0.478 -0.2692  0.2761 -0.4213
  452TMC3    C8 6793   3.130   2.899   0.850  0.1372 -0.0335 -0.0321
  452TMC3    O1 6794   3.018   3.274   0.419  0.5369  0.4301 -0.4505
  452TMC3    O2 6795   3.068   2.826   0.924 -0.3938 -0.3192 -0.1410
  453TMC3    C1 6796   3.380   0.555  11.845  0.4483  0.3635  0.4744
  453TMC3    C2 6797   3.328   0.438  11.894 -0.4282 -0.1528  0.2517
  453TMC3    C3 6798   3.316   0.328  11.813 -0.2059 -0.1223 -0.5205
  453TMC3    C4 6799   3.401   0.568  11.714  0.1883  0.9868 -0.5045
  453TMC3    C5 6800   3.375   0.462  11.636 -0.3788  0.5057 -0.4576
  453TMC3    C6 6801   3.330   0.337  11.681 -0.0464 -0.1427 -0.0823
  453TMC3     C 6802   3.468   0.626  11.931  0.0955 -0.3704 -0.9117
  453TMC3     O 6803   3.557   0.676  11.865  0.2602  0.0835  0.1339
  453TMC3     H 6804   3.334   0.413  12.000 -1.9321  1.3000  0.6845
  453TMC3    H1 6805   3.419   0.667  11.673 -0.0966  1.8603  1.4912
  453TMC3    H2 6806   3.305   0.249  11.622 -1.5594  1.5356 -1.9701
  453TMC3    C7 6807   3.357   0.477  11.493 -1.1425 -0.5963 -0.2861
  453TMC3    C8 6808   3.293   0.204  11.878  0.2007  0.0941 -0.5690
  453TMC3    O1 6809   3.298   0.385  11.437  0.2713 -0.0949 -0.0999
  453TMC3    O2 6810   3.217   0.196  11.974 -0.1536 -0.0450  0.2188
  454MPD2     C 6811   2.959   0.336  16.454  0.2780  0.0656  0.2585
  454MPD2    C1 6812   2.883   0.434  16.391 -0.1898  0.1093 -0.0831
  454MPD2    C2 6813   2.818   0.536  16.469  0.1297 -0.4061 -0.1122
  454MPD2    C3 6814   2.832   0.538  16.602 -0.3309 -0.0780 -0.2675
  454MPD2    C4 6815   2.927   0.454  16.651 -0.4573  0.1047 -0.4027
  454MPD2    C5 6816   2.983   0.354  16.582  0.4194  0.0999  0.0439
  454MPD2     H 6817   2.759   0.608  16.412  1.3357  0.2664 -0.4970
  454MPD2    H1 6818   2.947   0.464  16.757 -0.3699 -0.2756 -0.3861
  454MPD2    H2 6819   3.005   0.252  16.403  0.2705  1.3945 -1.9266
  454MPD2    H3 6820   3.051   0.280  16.622 -0.4942 -1.3345 -1.0092
  454MPD2     N 6821   2.769   0.628  16.696 -0.1564 -0.2249 -0.4147
  454MPD2    H5 6822   2.814   0.616  16.786  0.5883  0.7982 -0.6479
  454MPD2    N1 6823   2.854   0.427  16.250  0.2089  0.5664 -0.1363
  454MPD2    H7 6824   2.805   0.510  16.220 -0.9270 -0.7080 -1.8088
  455TMC3    C1 6825   2.557   0.660  16.572 -0.2293  0.8564 -0.7109
  455TMC3    C2 6826   2.452   0.754  16.567  0.4994  0.1251 -0.4517
  455TMC3    C3 6827   2.335   0.717  16.508  0.0259 -0.8996 -0.6383
  455TMC3    C4 6828   2.532   0.532  16.532  0.0053  0.0516 -0.1681
  455TMC3    C5 6829   2.417   0.506  16.465  0.2601  0.0952  0.4594
  455TMC3    C6 6830   2.318   0.596  16.463 -0.0100 -0.2874 -0.1726
  455TMC3     C 6831   2.652   0.707  16.679 -0.0925 -0.3573  0.1251
  455TMC3     O 6832   2.616   0.797  16.754  0.5274 -0.0700 -0.1444
  455TMC3     H 6833   2.465   0.857  16.599  1.3393 -0.5124  1.2694
  455TMC3    H1 6834   2.596   0.450  16.563  1.6517  1.2101 -0.5409
  455TMC3    H2 6835   2.221   0.565  16.425 -0.0146  1.4348 -1.5724
  455TMC3    C7 6836   2.397   0.386  16.381 -0.1586  0.0645 -0.2144
  455TMC3    C8 6837   2.223   0.783  16.577  0.3504  0.0220 -0.0623
  455TMC3    O1 6838   2.283   0.355  16.351  0.3868  0.2197  0.2111
  455TMC3    O2 6839   2.246   0.900  16.606 -0.3709  0.2752  0.1093
  456MPD2     C 6840   0.705   0.067  16.127  0.0063 -0.2967 -0.3811
  456MPD2    C1 6841   0.749   0.005  16.244  0.4158  0.0229 -1.2146
  456MPD2    C2 6842   0.721   0.076  16.359 -0.4599 -0.9076  0.5072
  456MPD2    C3 6843   0.667   0.206  16.364  0.3814 -0.4732  0.1133
  456MPD2    C4 6844   0.645   0.267  16.243 -0.2985 -0.1729  0.9868
  456MPD2    C5 6845   0.654   0.197  16.126  0.8196  0.3004 -0.5772
  456MPD2     H 6846   0.748   0.039  16.457 -0.5874 -2.3486  0.0004
  456MPD2    H1 6847   0.602   0.366  16.235 -0.9373 -0.5610 -0.4568
  456MPD2    H2 6848   0.713   0.012  16.034 -2.3109 -1.0908 -0.0935
  456MPD2    H3 6849   0.627   0.244  16.033 -1.4622 -1.7607 -0.9467
  456MPD2     N 6850   0.646   0.269  16.491  0.1618 -0.2907 -0.7145
  456MPD2    H5 6851   0.665   0.208  16.570 -1.2771 -0.7706 -0.7456
  456MPD2    N1 6852   0.809   4.612  16.236  0.2926 -0.5274 -0.0492
  456MPD2    H7 6853   0.820   4.580  16.141  1.0193  1.9605 -0.7876
  457TMC3    C1 6854   0.569   0.430  16.643 -0.0543 -0.2426 -0.3658
  457TMC3    C2 6855   0.552   0.564  16.666  0.1624  0.0020  0.2860
  457TMC3    C3 6856   0.474   0.601  16.774  0.0149 -0.1938 -0.5854
  457TMC3    C4 6857   0.537   0.335  16.736  0.3348 -0.0592  0.1699
  457TMC3    C5 6858   0.469   0.382  16.850  0.3050 -0.3056 -0.1209
  457TMC3    C6 6859   0.429   0.513  16.867 -0.4526  0.2531  0.7500
  457TMC3     C 6860   0.591   0.395  16.509 -0.2594  0.0302 -0.2197
  457TMC3     O 6861   0.574   0.484  16.426  0.2608 -0.1582  0.3331
  457TMC3     H 6862   0.580   0.631  16.585  0.1155 -0.5328 -0.1796
  457TMC3    H1 6863   0.544   0.229  16.714  0.7391 -0.6307  3.0848
  457TMC3    H2 6864   0.365   0.538  16.951  0.0590  1.7352  0.7055
  457TMC3    C7 6865   0.467   0.294  16.972  0.3366  0.6873  0.2105
  457TMC3    C8 6866   0.456   0.739  16.807 -0.1137 -0.5236 -0.4182
  457TMC3    O1 6867   0.510   0.177  16.959  0.0681  0.6148  0.3750
  457TMC3    O2 6868   0.383   0.761  16.902 -0.0440 -0.1468  0.2357
  458MPD2     C 6869   2.351   4.515  12.751 -0.8109  0.2116  0.1123
  458MPD2    C1 6870   2.393   4.387  12.783 -0.2869  0.0533  0.2845
  458MPD2    C2 6871   2.310   4.303  12.846  0.2088  0.2293  0.0858
  458MPD2    C3 6872   2.176   4.343  12.882  0.3442 -0.0554 -0.1862
  458MPD2    C4 6873   2.137   4.471  12.864  0.5498 -0.0489 -0.0068
  458MPD2    C5 6874   2.224   4.548  12.793 -0.2302  0.3978  0.5182
  458MPD2     H 6875   2.343   4.201  12.865  0.3094  0.1574 -0.4626
  458MPD2    H1 6876   2.038   4.511  12.884  0.5290  0.1412 -0.4846
  458MPD2    H2 6877   2.404   4.600  12.710 -0.7139 -0.1393 -0.4904
  458MPD2    H3 6878   2.188   4.650  12.782 -0.6961  0.2587  0.7686
  458MPD2     N 6879   2.088   4.243  12.924  0.6837 -0.3721 -0.0765
  458MPD2    H5 6880   2.112   4.145  12.910 -0.5556 -0.8014  0.7935
  458MPD2    N1 6881   2.531   4.357  12.755  0.3027  0.3082 -0.4837
  458MPD2    H7 6882   2.587   4.432  12.716  0.5791 -0.5854 -1.7955
  459TMC3    C1 6883   2.739   4.237  12.732 -0.7061 -0.0859  0.4985
  459TMC3    C2 6884   2.796   4.353  12.682 -0.3875  0.2059  0.2316
  459TMC3    C3 6885   2.928   4.374  12.697  0.4618  0.0462  0.4031
  459TMC3    C4 6886   2.820   4.146  12.797 -0.3543  0.0488  0.0785
  459TMC3    C5 6887   2.950   4.182  12.823  0.2034  0.3179  0.1803
  459TMC3    C6 6888   3.006   4.291  12.773 -0.0512  0.4360 -0.0546
  459TMC3     C 6889   2.596   4.233  12.771  0.2317  0.0458 -0.0502
  459TMC3     O 6890   2.556   4.129  12.820 -0.1560 -0.2889 -0.4033
  459TMC3     H 6891   2.734   4.420  12.623 -1.9288  1.3959  3.1820
  459TMC3    H1 6892   2.775   4.059  12.843 -0.9334 -0.4219 -1.3841
  459TMC3    H2 6893   3.107   4.315  12.806  0.0393  0.2038 -0.1624
  459TMC3    C7 6894   3.015   4.093  12.917  0.0134  0.5524  0.0300
  459TMC3    C8 6895   3.003   4.454  12.602 -0.5120  0.1134 -0.6567
  459TMC3    O1 6896   2.980   3.977  12.916  0.3930  0.3104 -0.1538
  459TMC3    O2 6897   3.125   4.433  12.595 -0.3074  0.1765  0.2505
  460MPD2     C 6898   2.437   2.634  10.418  0.4217  0.2834 -0.5957
  460MPD2    C1 6899   2.323   2.636  10.496 -0.0051  0.6420 -0.0010
  460MPD2    C2 6900   2.222   2.723  10.470 -0.5023  0.1194  0.0923
  460MPD2    C3 6901   2.232   2.810  10.364  0.3156 -0.0148  0.0962
  460MPD2    C4 6902   2.345   2.805  10.279 -0.0540  0.4076  0.1397
  460MPD2    C5 6903   2.446   2.717  10.306  0.4422 -0.1009  0.0289
  460MPD2     H 6904   2.130   2.722  10.527  0.0534 -2.0492  0.9291
  460MPD2    H1 6905   2.346   2.859  10.185 -1.1541  3.3358  1.8195
  460MPD2    H2 6906   2.521   2.570  10.440 -1.3763 -2.0738 -0.5529
  460MPD2    H3 6907   2.533   2.714  10.242  0.8621 -1.4785  0.6819
  460MPD2     N 6908   2.111   2.880  10.330 -0.4521  0.3555 -0.0391
  460MPD2    H5 6909   2.023   2.867  10.379  0.8024 -0.3311  2.0326
  460MPD2    N1 6910   2.316   2.541  10.603  0.8086 -0.2543  0.1343
  460MPD2    H7 6911   2.394   2.476  10.608  0.3675 -0.8153 -0.2949
  461TMC3    C1 6912   1.975   2.984  10.171 -0.1265 -0.3522  0.5028
  461TMC3    C2 6913   1.917   2.874  10.110 -0.1966  0.3569 -0.6021
  461TMC3    C3 6914   1.832   2.898  10.004 -0.1157  0.5553  0.4473
  461TMC3    C4 6915   1.951   3.114  10.140  0.9019 -0.1469  0.3466
  461TMC3    C5 6916   1.865   3.134  10.030  0.0176  0.3295 -0.2548
  461TMC3    C6 6917   1.806   3.029   9.962 -0.4587  0.3387 -0.1843
  461TMC3     C 6918   2.107   2.964  10.222  0.5493 -0.1055 -0.5275
  461TMC3     O 6919   2.195   3.030  10.172  0.7827  0.2455 -0.1403
  461TMC3     H 6920   1.933   2.774  10.148 -0.4769  0.8912  0.9072
  461TMC3    H1 6921   1.990   3.189  10.208 -2.8128  0.0686  2.1711
  461TMC3    H2 6922   1.738   3.060   9.884 -1.4272 -1.5497 -0.1004
  461TMC3    C7 6923   1.825   3.263   9.988  0.4652 -0.2305  0.1657
  461TMC3    C8 6924   1.779   2.786   9.919  0.1941 -0.5748  0.5663
  461TMC3    O1 6925   1.730   3.276   9.912 -0.2205  0.0465  0.1042
  461TMC3    O2 6926   1.813   2.669   9.947 -0.0455 -0.5076  0.1798
  462TMC3    C1 6927   2.137   2.867   0.146  0.2461  0.4121 -0.4701
  462TMC3    C2 6928   2.114   2.790   0.032 -0.7778 -0.4909 -0.1531
  462TMC3    C3 6929   2.050   2.662   0.041  0.1340  0.4616  0.2377
  462TMC3    C4 6930   2.096   2.819   0.272  0.2752  0.2030  0.3497
  462TMC3    C5 6931   2.032   2.697   0.278 -0.1929 -0.4923 -0.3056
  462TMC3    C6 6932   2.022   2.610   0.166 -0.2553 -0.2591 -0.9584
  462TMC3     C 6933   2.173   3.006   0.132 -0.3989 -0.2821 -0.3486
  462TMC3     O 6934   2.228   3.055   0.229  0.7840  0.0281  0.3100
  462TMC3     H 6935   2.134   2.828  17.660  3.0974 -1.3335  0.2930
  462TMC3    H1 6936   2.082   2.891   0.352 -1.0870 -0.1861  0.4672
  462TMC3    H2 6937   1.944   2.535   0.174  1.3733 -1.8085  0.2741
  462TMC3    C7 6938   1.963   2.647   0.400  0.2333  0.1585  0.2832
  462TMC3    C8 6939   1.951   2.641  17.662 -0.6284 -0.1850 -0.8652
  462TMC3    O1 6940   1.903   2.544   0.391  0.2185  0.2777  0.0101
  462TMC3    O2 6941   1.898   2.739  17.615  0.8257 -0.1726  0.2931
  463MPD2     C 6942   3.476   1.155   1.319  0.5241  0.4957  0.1210
  463MPD2    C1 6943   3.378   1.250   1.351  0.6098  0.0034  0.0778
  463MPD2    C2 6944   3.415   1.378   1.385  0.5497 -0.0660  0.0220
  463MPD2    C3 6945   3.545   1.414   1.412 -0.6879  0.3079  0.6023
  463MPD2    C4 6946   3.635   1.311   1.390 -0.6007 -0.1063 -0.7448
  463MPD2    C5 6947   3.606   1.190   1.341  0.8153  0.2700 -0.0502
  463MPD2     H 6948   3.340   1.452   1.411  0.2098 -0.2178 -0.5219
  463MPD2    H1 6949   3.739   1.325   1.416 -0.5394  0.4842 -1.3016
  463MPD2    H2 6950   3.450   1.064   1.267  1.9644  1.1434 -1.7258
  463MPD2    H3 6951   3.684   1.117   1.324  0.2130 -0.3605 -0.0901
  463MPD2     N 6952   3.594   1.541   1.458  0.4587  0.6976  0.6866
  463MPD2    H5 6953   3.694   1.553   1.469  0.7925  0.0848 -1.8223
  463MPD2    N1 6954   3.244   1.226   1.329 -1.4285  0.0077  0.3401
  463MPD2    H7 6955   3.186   1.309   1.333 -0.5884  0.5708  0.9053
  464TMC3    C1 6956   3.043   1.104   1.282  1.0074  0.0380 -0.2814
  464TMC3    C2 6957   2.959   1.196   1.346  0.4186 -0.0237 -0.1809
  464TMC3    C3 6958   2.823   1.190   1.336 -0.1548 -0.2612 -0.3359
  464TMC3    C4 6959   2.983   1.016   1.196  0.1625 -0.1504 -0.1379
  464TMC3    C5 6960   2.844   1.015   1.173 -0.0859 -0.4400  0.0110
  464TMC3    C6 6961   2.762   1.100   1.249 -0.5548  0.1447  1.0295
  464TMC3     C 6962   3.191   1.105   1.296 -0.7616  0.3053  0.0995
  464TMC3     O 6963   3.242   0.997   1.282  0.0417 -0.3940  0.2017
  464TMC3     H 6964   3.012   1.269   1.405  1.2841  1.1248 -2.3948
  464TMC3    H1 6965   3.050   0.951   1.140  0.4608  1.2241 -1.3807
  464TMC3    H2 6966   2.653   1.099   1.254 -0.7646 -2.2071 -3.4243
  464TMC3    C7 6967   2.796   0.891   1.122  0.5376  0.5040  0.6080
  464TMC3    C8 6968   2.739   1.264   1.424  0.2130 -0.1145 -0.1161
  464TMC3    O1 6969   2.883   0.801   1.119 -0.2910 -0.1932 -0.0994
  464TMC3    O2 6970   2.629   1.289   1.384  0.1654 -0.1498 -0.1310
  465MPD2     C 6971   4.505   0.783  16.980 -0.5615 -0.1775  0.3040
  465MPD2    C1 6972   4.371   0.775  17.000 -0.3404 -0.2311  0.3325
  465MPD2    C2 6973   4.284   0.818  16.902 -0.6563 -0.2195 -0.4733
  465MPD2    C3 6974   4.329   0.868  16.782 -1.1431  0.2748 -0.0846
  465MPD2    C4 6975   4.465   0.894  16.774 -0.5010  0.3596 -0.4154
  465MPD2    C5 6976   4.554   0.843  16.869 -0.0105 -0.4863 -0.0418
  465MPD2     H 6977   4.178   0.797  16.904 -0.5982 -0.8483 -3.0325
  465MPD2    H1 6978   4.517   0.952  16.698  1.6089 -0.5763  0.3213
  465MPD2    H2 6979   4.578   0.726  17.038  0.1762  0.5287  0.0669
  465MPD2    H3 6980   4.659   0.862  16.854 -0.1468 -0.4297 -0.8960
  465MPD2     N 6981   4.237   0.915  16.681  0.0108 -0.2849 -0.7578
  465MPD2    H5 6982   4.138   0.896  16.694  0.3466 -0.8091  1.0361
  465MPD2    N1 6983   4.308   0.698  17.104 -0.5972  0.2100 -0.2993
  465MPD2    H7 6984   4.208   0.681  17.102 -0.8521  2.1457 -3.2576
  466TMC3    C1 6985   3.916   0.978  16.469  0.3457 -0.0766  0.2222
  466TMC3    C2 6986   3.910   1.109  16.426  0.3255  0.5272 -0.0297
  466TMC3    C3 6987   4.033   1.163  16.390  0.2776  0.3818  0.1726
  466TMC3    C4 6988   4.039   0.921  16.504  0.7691 -0.7274 -0.1880
  466TMC3    C5 6989   4.154   0.990  16.478  0.2068 -0.1489  0.0837
  466TMC3    C6 6990   4.152   1.104  16.403 -0.4422  0.1300  0.4993
  466TMC3     C 6991   3.796   0.911  16.517 -0.4516 -0.2917  0.0795
  466TMC3     O 6992   3.818   0.815  16.583  0.4146 -0.0093  0.2236
  466TMC3     H 6993   3.817   1.166  16.419 -0.3446 -0.4422  0.9253
  466TMC3    H1 6994   4.034   0.833  16.567 -1.4643 -3.0137 -3.5455
  466TMC3    H2 6995   4.250   1.151  16.399 -0.5755  0.1399 -2.7507
  466TMC3    C7 6996   4.271   0.962  16.553 -0.2609  0.1548  0.0698
  466TMC3    C8 6997   4.049   1.300  16.405  0.1354 -0.2468  0.5286
  466TMC3    O1 6998   4.380   0.998  16.511  0.3439  0.0585 -0.7216
  466TMC3    O2 6999   4.140   1.348  16.346  0.1371  0.5618 -0.1309
  467TMC3    C1 7000   0.469   4.038  13.913  0.0840 -0.6725 -0.4410
  467TMC3    C2 7001   0.519   4.163  13.873  0.7704 -0.0559  1.2047
  467TMC3    C3 7002   0.429   4.262  13.851 -0.2810  0.1302  0.1010
  467TMC3    C4 7003   0.339   4.009  13.928  0.2120  0.6642  0.2241
  467TMC3    C5 7004   0.248   4.109  13.894  0.2187  0.5564 -0.0075
  467TMC3    C6 7005   0.292   4.236  13.853  0.5372  0.2675  0.8709
  467TMC3     C 7006   0.564   3.926  13.910 -0.0832 -1.0440  0.3774
  467TMC3     O 7007   0.519   3.816  13.872 -0.3591  0.0893 -0.2287
  467TMC3     H 7008   0.627   4.168  13.869  0.7494 -0.1863  0.4746
  467TMC3    H1 7009   0.298   3.909  13.942  1.0892  0.1825 -0.6207
  467TMC3    H2 7010   0.216   4.305  13.819  1.3017 -0.0316 -1.4179
  467TMC3    C7 7011   0.128   4.064  13.832  0.7863  0.2934 -0.4076
  467TMC3    C8 7012   0.467   4.368  13.755  0.7506  0.0527  0.0142
  467TMC3    O1 7013   0.095   4.121  13.730  0.5596  0.2151  0.0883
  467TMC3    O2 7014   0.380   4.445  13.715 -0.4881  0.1875 -0.5427
  468MPD2     C 7015   3.843   2.519  11.120  0.3371  0.1291  0.6163
  468MPD2    C1 7016   3.977   2.484  11.137  0.2357 -0.6797 -0.6510
  468MPD2    C2 7017   4.002   2.344  11.135 -0.1862 -0.0287 -0.5232
  468MPD2    C3 7018   3.902   2.253  11.099  0.3960  0.6132 -0.2003
  468MPD2    C4 7019   3.773   2.295  11.093 -0.9243  0.2217  0.6531
  468MPD2    C5 7020   3.744   2.430  11.104 -0.7825  0.1066  0.6199
  468MPD2     H 7021   4.103   2.310  11.150 -0.7514 -0.6892  1.8476
  468MPD2    H1 7022   3.696   2.219  11.084 -0.3282 -0.4521  1.2178
  468MPD2    H2 7023   3.803   2.620  11.119  0.0310  0.0045 -0.0345
  468MPD2    H3 7024   3.638   2.451  11.103 -0.4829  1.6543  0.0747
  468MPD2     N 7025   3.929   2.117  11.078 -0.4651  0.2781 -0.5888
  468MPD2    H5 7026   3.848   2.061  11.054 -1.1209  1.8808 -2.1100
  468MPD2    N1 7027   4.079   2.580  11.151  0.3520 -1.2376  0.3321
  468MPD2    H7 7028   4.166   2.547  11.191  0.3138 -2.0640 -0.2585
  469TMC3    C1 7029   4.199   2.771  11.183 -0.1280 -0.4922 -0.3775
  469TMC3    C2 7030   4.301   2.734  11.097 -0.5665 -0.6870 -0.7586
  469TMC3    C3 7031   4.417   2.810  11.092  0.0819  0.0042 -0.1930
  469TMC3    C4 7032   4.208   2.882  11.261  0.0742 -0.1415 -0.2453
  469TMC3    C5 7033   4.314   2.968  11.235  0.7112  0.2962 -0.5311
  469TMC3    C6 7034   4.427   2.932  11.169  0.1373  0.4990 -0.2475
  469TMC3     C 7035   4.070   2.717  11.168  0.0062 -0.0248 -0.3371
  469TMC3     O 7036   3.968   2.783  11.182  0.4801 -0.8726  0.6941
  469TMC3     H 7037   4.286   2.648  11.032 -1.9034  0.1289 -1.5092
  469TMC3    H1 7038   4.125   2.919  11.321  0.4315  0.1621  0.0582
  469TMC3    H2 7039   4.516   2.994  11.168  0.5976 -0.1829 -2.5655
  469TMC3    C7 7040   4.319   3.095  11.299  0.1220 -0.3218  0.4414
  469TMC3    C8 7041   4.538   2.737  11.065  0.3573 -0.0032 -0.1252
  469TMC3    O1 7042   4.382   3.187  11.251 -0.6207  0.3702  0.2771
  469TMC3    O2 7043   4.538   2.638  10.996  0.0733 -0.0415 -0.1908
  470TMC3    C1 7044   1.243   2.674   0.522 -0.0525 -0.0075  0.8092
  470TMC3    C2 7045   1.334   2.773   0.554  0.4737 -0.9693  0.6766
  470TMC3    C3 7046   1.312   2.843   0.674  0.3185  0.1032 -0.1838
  470TMC3    C4 7047   1.136   2.648   0.605 -0.2820  0.2824 -0.6052
  470TMC3    C5 7048   1.120   2.718   0.712  0.2602  0.9506  0.4774
  470TMC3    C6 7049   1.202   2.820   0.747  0.2857  0.6272  0.5956
  470TMC3     C 7050   1.267   2.570   0.428  0.3964  0.6481  0.1389
  470TMC3     O 7051   1.165   2.507   0.396  0.5917 -0.2584  0.1472
  470TMC3     H 7052   1.414   2.799   0.485 -0.5899  1.7431  0.4624
  470TMC3    H1 7053   1.072   2.563   0.584  0.3356 -0.3984  0.2804
  470TMC3    H2 7054   1.196   2.864   0.846  0.2808  0.5820  0.6155
  470TMC3    C7 7055   1.013   2.673   0.799 -0.4163  0.0741 -0.0982
  470TMC3    C8 7056   1.388   2.963   0.710  0.0890  0.0302 -0.4454
  470TMC3    O1 7057   0.917   2.628   0.744  0.1134  0.4139 -0.3067
  470TMC3    O2 7058   1.339   3.027   0.797 -0.2179  0.1642  0.0400
  471MPD2     C 7059   1.999   3.842  16.317  0.3484  0.3835  0.2331
  471MPD2    C1 7060   1.939   3.840  16.443  0.2189  0.6496  0.0353
  471MPD2    C2 7061   2.022   3.854  16.555 -0.3305  0.4525 -0.1886
  471MPD2    C3 7062   2.158   3.871  16.537 -0.4107 -0.9970 -0.0819
  471MPD2    C4 7063   2.207   3.893  16.415  0.8171  0.1360 -0.3468
  471MPD2    C5 7064   2.128   3.874  16.307  0.0771 -0.2973 -0.5264
  471MPD2     H 7065   1.976   3.853  16.653  0.9274 -0.9857  0.3847
  471MPD2    H1 7066   2.313   3.913  16.405  1.4032 -1.6734  2.3346
  471MPD2    H2 7067   1.932   3.831  16.232 -1.1874 -1.5442  1.7042
  471MPD2    H3 7068   2.180   3.887  16.212 -1.1988 -0.1455 -1.2109
  471MPD2     N 7069   2.233   3.881  16.655 -0.1582  0.1960 -0.4741
  471MPD2    H5 7070   2.178   3.871  16.740 -3.3513  3.2053 -2.1749
  471MPD2    N1 7071   1.810   3.804  16.470  0.0167  0.3848  0.1440
  471MPD2    H7 7072   1.789   3.807  16.570  1.0809  0.3396  0.3665
  472TMC3    C1 7073   1.579   3.772  16.435  0.3197 -0.1463 -0.1104
  472TMC3    C2 7074   1.471   3.742  16.355  0.1024  0.1780 -0.1240
  472TMC3    C3 7075   1.348   3.715  16.412 -0.1432 -1.4012  0.5282
  472TMC3    C4 7076   1.551   3.803  16.566 -0.2342  0.0377  0.0875
  472TMC3    C5 7077   1.419   3.801  16.612 -0.0612 -0.5142 -0.8967
  472TMC3    C6 7078   1.317   3.746  16.539 -0.9262  0.0071  0.6716
  472TMC3     C 7079   1.711   3.784  16.381  0.2179 -0.0509  0.1725
  472TMC3     O 7080   1.721   3.784  16.259 -0.0669  0.6602 -0.5298
  472TMC3     H 7081   1.482   3.742  16.247  0.1351  0.3946 -0.1189
  472TMC3    H1 7082   1.631   3.837  16.632  0.7512  1.3324 -1.7685
  472TMC3    H2 7083   1.214   3.756  16.570 -1.2297  1.3632 -0.7714
  472TMC3    C7 7084   1.395   3.773  16.747 -0.1779  0.8528 -0.0731
  472TMC3    C8 7085   1.235   3.671  16.327 -0.0235 -0.3358 -0.1801
  472TMC3    O1 7086   1.300   3.701  16.767 -0.1544  0.8658 -0.7003
  472TMC3    O2 7087   1.222   3.704  16.207 -0.3859 -0.8735 -0.3654
  473MPD2     C 7088   2.125   1.108  14.255  0.6959 -0.0859 -0.9779
  473MPD2    C1 7089   2.056   1.192  14.170 -0.9069  0.1073 -0.2311
  473MPD2    C2 7090   2.064   1.331  14.202  0.0531  0.2685 -0.0567
  473MPD2    C3 7091   2.122   1.379  14.315  0.0927  0.1217  0.0822
  473MPD2    C4 7092   2.186   1.292  14.391  0.1821  0.7389  0.8871
  473MPD2    C5 7093   2.192   1.158  14.359  0.3271 -0.0412  0.1596
  473MPD2     H 7094   2.024   1.403  14.131 -1.9086  0.5989  1.4020
  473MPD2    H1 7095   2.232   1.321  14.484  1.9324 -1.3111  0.6676
  473MPD2    H2 7096   2.143   1.003  14.235  1.6790 -0.0280 -0.4239
  473MPD2    H3 7097   2.263   1.095  14.411  1.2619  1.3647  0.5963
  473MPD2     N 7098   2.110   1.512  14.355 -0.3114  0.4350  0.1319
  473MPD2    H5 7099   2.183   1.541  14.419  0.4915  2.0183 -1.4965
  473MPD2    N1 7100   1.988   1.143  14.053  0.7217  0.0688  0.3492
  473MPD2    H7 7101   1.978   1.205  13.973 -0.4253 -1.2443 -0.5096
  474TMC3    C1 7102   2.012   1.725  14.393  0.2550 -0.7614  0.1869
  474TMC3    C2 7103   1.903   1.808  14.375 -0.2411  0.0008  0.2485
  474TMC3    C3 7104   1.903   1.928  14.449 -0.1386  0.2728 -0.0210
  474TMC3    C4 7105   2.117   1.753  14.482  0.2599 -0.1984  0.3833
  474TMC3    C5 7106   2.118   1.878  14.535  0.5477 -0.3813  0.0206
  474TMC3    C6 7107   2.013   1.969  14.530  0.1155 -0.0513  0.2047
  474TMC3     C 7108   2.012   1.597  14.323 -0.0914 -0.3759 -0.8384
  474TMC3     O 7109   1.900   1.570  14.273  0.4961 -0.5328  0.0330
  474TMC3     H 7110   1.836   1.791  14.291 -0.8950  3.8041  0.0098
  474TMC3    H1 7111   2.212   1.702  14.482  0.9535  1.0662 -1.5145
  474TMC3    H2 7112   2.026   2.069  14.568 -1.2413 -0.4226  1.6228
  474TMC3    C7 7113   2.247   1.926  14.578 -0.6826  0.5676  0.3670
  474TMC3    C8 7114   1.790   2.018  14.423  0.3975  0.6860 -0.2597
  474TMC3    O1 7115   2.341   1.866  14.530 -0.2591  0.8051  0.1128
  474TMC3    O2 7116   1.697   1.968  14.366 -0.4540  0.1310 -0.0570
  475MPD2     C 7117   4.711   0.053  11.346  0.3382  0.1131 -0.0171
  475MPD2    C1 7118   0.034   0.120  11.237 -0.3275 -0.0031  0.1368
  475MPD2    C2 7119   4.703   0.114  11.114 -0.0784 -0.5949  0.3007
  475MPD2    C3 7120   4.589   0.041  11.099  0.3995 -0.3191  0.2852
  475MPD2    C4 7121   4.541   4.704  11.209 -0.1023 -0.2019 -0.2237
  475MPD2    C5 7122   4.595   4.720  11.329 -0.2926  0.2462 -0.3640
  475MPD2     H 7123   0.013   0.170  11.031 -1.5652  0.3351  0.1706
  475MPD2    H1 7124   4.442   4.662  11.201 -0.6651  0.8999  0.7769
  475MPD2    H2 7125   0.013   0.062  11.449 -0.8294 -0.7787  0.4406
  475MPD2    H3 7126   4.543   4.675  11.413  0.5256 -0.4048 -0.2113
  475MPD2     N 7127   4.521   0.059  10.978 -0.0554  0.9449  0.0437
  475MPD2    H5 7128   4.561   0.111  10.900 -0.2687  3.0050  1.3342
  475MPD2    N1 7129   0.147   0.204  11.259 -0.2293  0.1389  0.1889
  475MPD2    H7 7130   0.174   0.215  11.356 -0.4638 -0.2272  0.2978
  476TMC3    C1 7131   0.322   0.365  11.220  0.4561  0.3495  0.1939
  476TMC3    C2 7132   0.421   0.385  11.129 -0.5009 -0.5713 -0.3507
  476TMC3    C3 7133   0.498   0.495  11.153  0.5003  0.6660 -0.0198
  476TMC3    C4 7134   0.304   0.431  11.340  0.3401 -0.5268  0.1830
  476TMC3    C5 7135   0.388   0.530  11.357  0.2035  0.0836  0.2420
  476TMC3    C6 7136   0.479   0.569  11.263  0.2456  0.4821  0.3620
  476TMC3     C 7137   0.219   0.271  11.166 -0.1202 -0.9763 -0.7838
  476TMC3     O 7138   0.221   0.260  11.044  0.1008 -0.8510 -0.3647
  476TMC3     H 7139   0.434   0.319  11.045  0.4547  1.8289 -2.0844
  476TMC3    H1 7140   0.217   0.414  11.403  0.8984 -0.9582  0.8352
  476TMC3    H2 7141   0.551   0.643  11.295  0.5950 -1.0180  3.1209
  476TMC3    C7 7142   0.345   0.625  11.456 -0.1029  0.5923 -0.3710
  476TMC3    C8 7143   0.555   0.580  11.042 -0.3886 -0.2319 -0.3361
  476TMC3    O1 7144   0.305   0.581  11.563  0.0980 -0.3646  0.5982
  476TMC3    O2 7145   0.554   0.701  11.068 -0.5421  0.0296  0.0977
  477MPD2     C 7146   2.843   1.774  11.806 -0.0361 -0.1692  0.4042
  477MPD2    C1 7147   2.729   1.717  11.768 -0.4280  0.6223  0.2500
  477MPD2    C2 7148   2.684   1.612  11.849  0.2975  0.1891 -0.4992
  477MPD2    C3 7149   2.742   1.584  11.973 -0.5514 -0.4916 -0.1188
  477MPD2    C4 7150   2.860   1.654  12.009 -0.1561  0.4295 -0.0052
  477MPD2    C5 7151   2.907   1.740  11.924  0.1769 -0.1541 -0.3987
  477MPD2     H 7152   2.599   1.553  11.818  0.9188 -0.8807 -0.1511
  477MPD2    H1 7153   2.919   1.635  12.098  0.6725 -1.1761 -0.8977
  477MPD2    H2 7154   2.884   1.853  11.743  1.5538 -2.0215 -0.9011
  477MPD2    H3 7155   2.999   1.793  11.945 -0.3557  0.4379  0.4072
  477MPD2     N 7156   2.684   1.486  12.056 -0.3802  0.0055  0.0549
  477MPD2    H5 7157   2.604   1.439  12.016  0.0616  0.2684 -1.1341
  477MPD2    N1 7158   2.653   1.768  11.662  0.3068  0.4198  0.5964
  477MPD2    H7 7159   2.681   1.856  11.619 -0.7603  0.1158 -0.7305
  478TMC3    C1 7160   2.477   1.775  11.503 -0.1173 -0.0187  0.5022
  478TMC3    C2 7161   2.513   1.905  11.464 -0.4065  0.0116 -0.0241
  478TMC3    C3 7162   2.455   1.951  11.345  0.1404 -0.1919  0.9076
  478TMC3    C4 7163   2.385   1.705  11.432 -0.5548 -0.0386 -0.4018
  478TMC3    C5 7164   2.319   1.763  11.330 -0.2522  0.0061 -0.1244
  478TMC3    C6 7165   2.356   1.889  11.274  0.0592  0.1232 -0.1187
  478TMC3     C 7166   2.530   1.718  11.624  0.1123  0.1824 -0.4919
  478TMC3     O 7167   2.455   1.636  11.675  0.6888  0.2400  0.0197
  478TMC3     H 7168   2.575   1.969  11.525 -0.1382 -0.6978  0.4462
  478TMC3    H1 7169   2.350   1.609  11.468 -1.0202  0.6535  1.0398
  478TMC3    H2 7170   2.321   1.926  11.178  1.0198  0.4646 -0.3366
  478TMC3    C7 7171   2.208   1.687  11.265  0.7704 -0.6084 -0.7513
  478TMC3    C8 7172   2.473   2.096  11.334  0.5250 -0.7035 -0.3426
  478TMC3    O1 7173   2.166   1.586  11.313  0.8321  0.8108  0.2941
  478TMC3    O2 7174   2.580   2.141  11.359  0.1458 -0.1074 -0.2588
  479MPD2     C 7175   1.423   3.401  15.539  0.2563 -1.0959 -0.2129
  479MPD2    C1 7176   1.352   3.332  15.629  0.2029  0.1506  0.6790
  479MPD2    C2 7177   1.386   3.331  15.758 -0.5161  0.0142 -0.1441
  479MPD2    C3 7178   1.459   3.438  15.805  0.1094 -0.1261 -0.3148
  479MPD2    C4 7179   1.531   3.516  15.718 -0.4387 -0.3286 -0.2275
  479MPD2    C5 7180   1.517   3.493  15.586 -0.2502  0.4324 -0.1375
  479MPD2     H 7181   1.335   3.268  15.830 -0.0080 -0.4238 -0.1669
  479MPD2    H1 7182   1.603   3.586  15.760 -0.6045  1.1013 -2.3246
  479MPD2    H2 7183   1.419   3.393  15.431  1.1462 -0.0828 -0.3194
  479MPD2    H3 7184   1.571   3.550  15.512  0.9212 -1.0242 -0.4161
  479MPD2     N 7185   1.468   3.480  15.942 -0.0277  0.2644 -0.3466
  479MPD2    H5 7186   1.547   3.542  15.959  0.0174 -0.1632  0.9926
  479MPD2    N1 7187   1.244   3.260  15.573 -0.5930  0.0969 -0.3730
  479MPD2    H7 7188   1.231   3.269  15.473  0.5489 -0.1333 -0.5513
  480TMC3    C1 7189   1.057   3.296  16.093 -0.5626  0.6451  0.4443
  480TMC3    C2 7190   0.980   3.359  15.999 -0.7275  0.4849 -0.5829
  480TMC3    C3 7191   1.044   3.437  15.910  0.1914  0.7020 -0.8588
  480TMC3    C4 7192   1.184   3.326  16.103  1.2471  0.0477  0.3214
  480TMC3    C5 7193   1.239   3.423  16.016 -0.3602 -0.2779  0.7701
  480TMC3    C6 7194   1.176   3.477  15.915  0.7150 -0.8103  1.0495
  480TMC3     C 7195   0.999   3.214  16.198  0.2658 -0.0937  0.2361
  480TMC3     O 7196   1.074   3.132  16.252  0.3625 -0.6632 -0.1164
  480TMC3     H 7197   0.874   3.336  15.996 -0.7976  0.7505 -0.0070
  480TMC3    H1 7198   1.257   3.292  16.176  1.7624  1.1500  0.3198
  480TMC3    H2 7199   1.224   3.538  15.840 -0.1319 -0.0665  1.1135
  480TMC3    C7 7200   1.383   3.453  16.048  0.3145 -0.5395 -1.0231
  480TMC3    C8 7201   0.980   3.457  15.780  0.0621 -0.0219 -0.0802
  480TMC3    O1 7202   1.414   3.476  16.167  0.7784  0.4155 -0.0984
  480TMC3    O2 7203   0.867   3.421  15.780  0.4866 -0.0125 -0.2260
  481MPD2     C 7204   3.548   3.073  14.110  0.4027 -0.1355 -0.0862
  481MPD2    C1 7205   3.422   3.038  14.147  0.3221 -0.0110 -0.3121
  481MPD2    C2 7206   3.402   2.990  14.277  0.6727 -0.3029  0.3337
  481MPD2    C3 7207   3.510   2.983  14.364  0.1608  0.2114 -0.3676
  481MPD2    C4 7208   3.635   3.020  14.320 -0.5603  0.7265  0.2822
  481MPD2    C5 7209   3.657   3.052  14.189 -0.3528  0.2191  0.5441
  481MPD2     H 7210   3.300   2.983  14.314  0.9257 -0.2524  1.0342
  481MPD2    H1 7211   3.725   3.030  14.381  0.2884  0.7397 -0.9866
  481MPD2    H2 7212   3.569   3.132  14.022 -1.0644 -0.8959 -0.9353
  481MPD2    H3 7213   3.754   3.100  14.178 -0.2906 -0.0895 -0.1827
  481MPD2     N 7214   3.493   2.962  14.502 -0.5659  0.4537  0.0601
  481MPD2    H5 7215   3.574   2.963  14.564 -0.1013  0.4160 -0.5434
  481MPD2    N1 7216   3.327   3.063  14.049 -0.0856 -0.1272  0.1564
  481MPD2    H7 7217   3.357   3.103  13.960  2.0589  0.4164  1.1351
  482TMC3    C1 7218   3.112   3.096  13.944 -0.4894 -0.1694  0.4689
  482TMC3    C2 7219   2.980   3.057  13.959 -0.0172  0.1998 -0.6205
  482TMC3    C3 7220   2.902   3.068  13.849 -0.1837 -0.0119 -0.0772
  482TMC3    C4 7221   3.165   3.149  13.830 -0.4245 -0.3732  1.6352
  482TMC3    C5 7222   3.080   3.156  13.722 -0.1454 -0.1521 -0.0256
  482TMC3    C6 7223   2.953   3.103  13.722 -0.0603  1.0696  0.1401
  482TMC3     C 7224   3.189   3.049  14.062  0.8018 -0.0232 -0.4238
  482TMC3     O 7225   3.131   3.000  14.160 -0.2797 -0.4419  0.1905
  482TMC3     H 7226   2.943   3.001  14.044  0.5183 -0.2479 -0.6802
  482TMC3    H1 7227   3.270   3.176  13.830 -0.4683 -0.2045  2.0975
  482TMC3    H2 7228   2.882   3.106  13.640  1.2842  0.9108 -1.0283
  482TMC3    C7 7229   3.086   3.275  13.645  0.3320  0.6552 -0.2863
  482TMC3    C8 7230   2.774   3.008  13.859 -0.9299  0.0894 -0.3358
  482TMC3    O1 7231   3.142   3.372  13.692 -0.3739  0.6737  0.1016
  482TMC3    O2 7232   2.687   3.048  13.780 -0.1827  0.2763 -0.2785
  483TMC3    C1 7233   0.389   1.785   0.900 -0.6279 -0.0930 -1.1910
  483TMC3    C2 7234   0.427   1.896   0.974 -1.1129  0.7735 -0.6732
  483TMC3    C3 7235   0.537   1.884   1.048  0.0332  0.3454 -0.2020
  483TMC3    C4 7236   0.457   1.665   0.884 -0.5093 -0.1029 -0.5833
  483TMC3    C5 7237   0.580   1.669   0.949 -0.8028 -0.0038  0.3233
  483TMC3    C6 7238   0.611   1.768   1.046 -0.3143  0.3285  0.3888
  483TMC3     C 7239   0.271   1.819   0.811 -1.3463 -0.1128  0.1824
  483TMC3     O 7240   0.207   1.923   0.836  0.7848  0.5864  0.5113
  483TMC3     H 7241   0.365   1.984   0.981 -1.5825  0.3686  0.2180
  483TMC3    H1 7242   0.414   1.580   0.832 -5.4239  1.2006  1.3133
  483TMC3    H2 7243   0.709   1.765   1.093  0.9165  2.0126 -2.0996
  483TMC3    C7 7244   0.692   1.588   0.905 -0.6197 -0.5222  0.1136
  483TMC3    C8 7245   0.603   2.007   1.093 -0.8754  0.0875 -0.5560
  483TMC3    O1 7246   0.787   1.583   0.981 -0.0501 -0.9251  0.8437
  483TMC3    O2 7247   0.597   2.117   1.042  0.2558  0.1843  0.2896
  484MPD2     C 7248   2.860   4.679  12.355  0.5224 -0.7494  0.2219
  484MPD2    C1 7249   2.961   4.620  12.428  0.7595 -0.0647 -0.2138
  484MPD2    C2 7250   3.094   4.657  12.404  0.0098  0.3068 -0.4382
  484MPD2    C3 7251   3.122   0.016  12.308  0.2807 -0.5112  0.4831
  484MPD2    C4 7252   3.020   0.085  12.239  0.3027  0.3611 -0.0512
  484MPD2    C5 7253   2.887   0.043  12.266  0.3478  0.2131  0.3444
  484MPD2     H 7254   3.172   4.621  12.470  0.4754 -0.2332 -1.2841
  484MPD2    H1 7255   3.048   0.153  12.159 -2.3826  0.2515 -1.0601
  484MPD2    H2 7256   2.755   4.654  12.365  0.9634 -3.4024 -1.8677
  484MPD2    H3 7257   2.810   0.097  12.210  1.8652  0.5185 -1.4625
  484MPD2     N 7258   3.253   0.065  12.283  0.2115  0.4395  0.3875
  484MPD2    H5 7259   3.272   0.135  12.212 -0.6249 -0.0528 -0.3132
  484MPD2    N1 7260   2.924   4.538  12.531  0.1062 -0.0616  0.2488
  484MPD2    H7 7261   2.824   4.548  12.544  0.3437  1.0544  1.2255
  485TMC3    C1 7262   3.484   0.098  12.307  0.1539 -0.4466  0.9348
  485TMC3    C2 7263   3.578   0.124  12.410 -0.2690 -0.1257  1.1409
  485TMC3    C3 7264   3.662   0.233  12.402 -0.2987  0.9005 -0.3174
  485TMC3    C4 7265   3.493   0.150  12.182  0.1745  0.3257 -0.2540
  485TMC3    C5 7266   3.592   0.250  12.178  0.1505 -0.3774 -0.2840
  485TMC3    C6 7267   3.662   0.298  12.284  0.9093 -0.0249 -0.1710
  485TMC3     C 7268   3.367   0.036  12.365  0.3771 -0.2451  0.7322
  485TMC3     O 7269   3.377   4.682  12.451 -0.1499  0.1357 -0.4167
  485TMC3     H 7270   3.557   0.074  12.504 -1.5909 -1.3268  0.2109
  485TMC3    H1 7271   3.424   0.115  12.106 -2.4293  0.5057  2.0099
  485TMC3    H2 7272   3.711   0.395  12.276  0.3157  0.4294  1.7077
  485TMC3    C7 7273   3.669   0.263  12.057  0.0111  0.1868 -0.2491
  485TMC3    C8 7274   3.791   0.218  12.460 -0.1544 -0.1369  0.3263
  485TMC3    O1 7275   3.611   0.267  11.949 -0.4624 -0.1675 -0.1210
  485TMC3    O2 7276   3.885   0.271  12.398  0.3265  0.3940 -0.4508
  486MPD2     C 7277   1.047   3.562  13.071  0.5247  0.5484  0.3011
  486MPD2    C1 7278   1.093   3.509  12.951 -0.1419  0.2316 -0.8394
  486MPD2    C2 7279   1.038   3.570  12.841  0.3122  0.4757  0.2090
  486MPD2    C3 7280   0.957   3.680  12.846 -0.2460 -0.3184  0.3815
  486MPD2    C4 7281   0.913   3.721  12.974 -0.2903 -0.1683  0.0852
  486MPD2    C5 7282   0.961   3.664  13.083  0.7254 -0.6108  0.3371
  486MPD2     H 7283   1.054   3.530  12.741 -0.2827 -0.3828  0.4606
  486MPD2    H1 7284   0.843   3.803  12.987  1.2417  1.2979 -0.9374
  486MPD2    H2 7285   1.080   3.514  13.163 -0.8477 -0.7951  0.0942
  486MPD2    H3 7286   0.929   3.701  13.180  1.4154 -1.0575  0.7433
  486MPD2     N 7287   0.905   3.734  12.731 -0.1249 -0.6221 -0.5520
  486MPD2    H5 7288   0.962   3.721  12.649 -2.5960 -0.1560 -2.3415
  486MPD2    N1 7289   1.183   3.399  12.957 -0.2327  0.3576 -0.1548
  486MPD2    H7 7290   1.187   3.344  13.043 -0.8774 -0.9820 -0.9700
  487TMC3    C1 7291   1.291   3.216  12.869 -0.0195 -0.6063 -0.2338
  487TMC3    C2 7292   1.319   3.143  12.756  1.5451 -0.3497 -0.0321
  487TMC3    C3 7293   1.368   3.018  12.774  0.3020 -0.4648 -0.1178
  487TMC3    C4 7294   1.295   3.165  12.996  0.1173  0.3172 -0.5975
  487TMC3    C5 7295   1.330   3.035  13.009 -0.8865 -0.0078 -0.1463
  487TMC3    C6 7296   1.366   2.959  12.896  0.1768  0.4800 -0.4734
  487TMC3     C 7297   1.246   3.350  12.845 -0.4234 -0.0925 -0.2935
  487TMC3     O 7298   1.251   3.400  12.733 -0.3184 -0.1325  0.3305
  487TMC3     H 7299   1.302   3.186  12.658  2.0212  0.0309  0.0523
  487TMC3    H1 7300   1.272   3.215  13.089  0.0419 -0.7578 -0.0451
  487TMC3    H2 7301   1.421   2.867  12.910 -0.7165  0.0167  0.0210
  487TMC3    C7 7302   1.275   2.962  13.121 -0.6345  0.2440 -0.3215
  487TMC3    C8 7303   1.302   2.930  12.684  0.5096 -0.3461  0.0163
  487TMC3    O1 7304   1.243   3.027  13.217 -0.2296  0.1037 -0.4759
  487TMC3    O2 7305   1.358   2.901  12.582  0.3386  0.6181 -0.0886
  488MPD2     C 7306   1.322   0.365  16.492 -0.1708  0.5672  0.4217
  488MPD2    C1 7307   1.284   0.490  16.535  0.2548  0.1419  0.2262
  488MPD2    C2 7308   1.235   0.502  16.663  0.1055  0.0116  0.3462
  488MPD2    C3 7309   1.233   0.395  16.754  0.0987  0.5523 -0.0161
  488MPD2    C4 7310   1.269   0.271  16.710 -0.0226  0.2916 -0.2138
  488MPD2    C5 7311   1.317   0.262  16.584  0.4949 -0.3048 -0.2032
  488MPD2     H 7312   1.208   0.603  16.691  0.0867  0.0617  0.1476
  488MPD2    H1 7313   1.265   0.179  16.768  0.0694  1.0509  0.9988
  488MPD2    H2 7314   1.360   0.341  16.393  0.3573  1.1593  0.4754
  488MPD2    H3 7315   1.353   0.164  16.556  1.2600  0.2297 -1.0694
  488MPD2     N 7316   1.189   0.427  16.890 -0.3557  0.5364 -0.3249
  488MPD2    H5 7317   1.185   0.528  16.903  2.8337  0.8006 -1.4046
  488MPD2    N1 7318   1.288   0.603  16.453 -0.5121 -0.2880 -0.4145
  488MPD2    H7 7319   1.265   0.694  16.490 -0.2369  0.3375 -1.7700
  489TMC3    C1 7320   1.123   0.407  17.115  0.1889  0.5713  0.3057
  489TMC3    C2 7321   1.121   0.543  17.119  0.1013  0.1034  0.2900
  489TMC3    C3 7322   1.034   0.597  17.207 -0.1278  0.7182  0.1827
  489TMC3    C4 7323   1.062   0.330  17.207  0.6815  0.2896 -0.1516
  489TMC3    C5 7324   0.992   0.391  17.305 -0.0760 -0.1446  0.5544
  489TMC3    C6 7325   0.965   0.525  17.299  0.5917 -0.4049 -0.1758
  489TMC3     C 7326   1.168   0.342  16.997  0.2239  0.4254  0.4005
  489TMC3     O 7327   1.160   0.219  16.989  0.7372  0.6360  0.0972
  489TMC3     H 7328   1.180   0.605  17.053  1.7296 -1.3259  0.4026
  489TMC3    H1 7329   1.076   0.223  17.212  0.4272  0.2751  0.2865
  489TMC3    H2 7330   0.914   0.568  17.385  2.4542  0.0735  0.6824
  489TMC3    C7 7331   0.993   0.340  17.446 -0.3440  0.0545  0.2633
  489TMC3    C8 7332   1.027   0.738  17.204 -0.6645  0.6033 -0.7052
  489TMC3    O1 7333   0.928   0.398  17.537 -0.6315  0.7451  0.4154
  489TMC3    O2 7334   1.122   0.802  17.152 -0.1508 -0.5568 -0.8971
  490MPD2     C 7335   1.979   4.611  16.941 -0.0153  0.2221 -0.2201
  490MPD2    C1 7336   1.921   4.661  17.059 -0.1063  0.0637 -0.3943
  490MPD2    C2 7337   1.989   0.023  17.133  0.0877 -0.4575  0.3262
  490MPD2    C3 7338   2.112   0.068  17.092  0.3193  0.0518 -0.4389
  490MPD2    C4 7339   2.165   0.018  16.975 -0.3951 -0.3689 -0.4629
  490MPD2    C5 7340   2.107   4.651  16.902  0.4332  0.3497  0.1473
  490MPD2     H 7341   1.942   0.037  17.230 -1.3934 -0.5802 -0.3679
  490MPD2    H1 7342   2.266   0.049  16.950  0.6781 -2.8811  0.7754
  490MPD2    H2 7343   1.934   4.535  16.878 -1.6510  1.6378 -0.7309
  490MPD2    H3 7344   2.156   4.620  16.810 -2.1599  0.4929 -1.2999
  490MPD2     N 7345   2.199   0.143  17.173 -0.8913 -0.2893  0.3992
  490MPD2    H5 7346   2.296   0.154  17.147 -0.0852 -1.9718  2.6256
  490MPD2    N1 7347   1.805   4.605  17.114  0.4748  0.1814 -0.2695
  490MPD2    H7 7348   1.792   4.624  17.213 -1.1227 -3.1580  0.1712
  491TMC3    C1 7349   1.614   4.467  17.129  0.1798  0.2542 -0.3093
  491TMC3    C2 7350   1.669   4.379  17.222 -0.3425 -0.3425  0.2532
  491TMC3    C3 7351   1.584   4.289  17.277  0.2426  0.0159 -0.6868
  491TMC3    C4 7352   1.489   4.448  17.074  1.2301  0.1087  0.3243
  491TMC3    C5 7353   1.408   4.353  17.134 -0.0936  1.1381 -0.2432
  491TMC3    C6 7354   1.453   4.289  17.244  0.0717  0.5774 -0.1496
  491TMC3     C 7355   1.717   4.523  17.045  0.2316  0.1098 -0.8543
  491TMC3     O 7356   1.707   4.490  16.930 -0.0991  0.2694  0.1317
  491TMC3     H 7357   1.775   4.390  17.246 -0.0385 -0.1779 -1.1553
  491TMC3    H1 7358   1.454   4.498  16.985 -1.6620 -0.4672  1.1347
  491TMC3    H2 7359   1.389   4.213  17.288  0.6571  0.8681  1.2012
  491TMC3    C7 7360   1.294   4.311  17.059  0.2270 -0.2907 -0.4628
  491TMC3    C8 7361   1.636   4.229  17.402 -0.5790  0.2716  0.1143
  491TMC3    O1 7362   1.261   4.192  17.072  0.2591 -0.2776 -0.2694
  491TMC3    O2 7363   1.551   4.193  17.483 -0.0231  0.0077  0.0534
  492MPD2     C 7364   2.138   0.077  12.295  0.4341 -0.6335 -0.7235
  492MPD2    C1 7365   2.067   0.035  12.187  0.6110  0.7122  1.0353
  492MPD2    C2 7366   2.028   4.633  12.182  0.9173  0.6179  0.7727
  492MPD2    C3 7367   2.054   4.549  12.291  0.1188  0.3824 -0.3303
  492MPD2    C4 7368   2.106   4.603  12.408  0.3329  0.3329 -0.6187
  492MPD2    C5 7369   2.157   4.730  12.403  0.0055 -0.1530  0.4164
  492MPD2     H 7370   1.961   4.594  12.106  1.2056  1.6231  0.0007
  492MPD2    H1 7371   2.117   4.558  12.506 -1.1502  0.6974 -0.2860
  492MPD2    H2 7372   2.183   0.175  12.297 -1.2751  0.1506 -0.8649
  492MPD2    H3 7373   2.206   0.032  12.494 -1.1193 -1.0093  1.3351
  492MPD2     N 7374   2.021   4.412  12.290  0.5480  0.0057  0.0659
  492MPD2    H5 7375   2.025   4.373  12.384  1.3856  2.2225  0.9438
  492MPD2    N1 7376   2.041   0.131  12.083  0.2010 -0.1706  0.0017
  492MPD2    H7 7377   2.085   0.222  12.087  0.5672 -0.3416 -0.1182
  493TMC3    C1 7378   1.915   0.239  11.905  0.4917 -0.2387  0.0830
  493TMC3    C2 7379   1.943   0.356  11.958  0.5980  0.1093  0.4856
  493TMC3    C3 7380   1.932   0.468  11.878  0.5581  0.5515 -0.5285
  493TMC3    C4 7381   1.886   0.215  11.777  0.2105  0.2579 -0.0445
  493TMC3    C5 7382   1.864   0.323  11.695 -0.0940 -0.3905  0.0639
  493TMC3    C6 7383   1.893   0.451  11.744  0.1391 -0.6021  0.3760
  493TMC3     C 7384   1.939   0.120  11.985  1.0293  0.5436  0.2295
  493TMC3     O 7385   1.862   0.026  11.976  0.0977 -0.3545  0.3251
  493TMC3     H 7386   1.939   0.378  12.064  1.0617 -0.1234  0.5505
  493TMC3    H1 7387   1.883   0.111  11.746 -2.0865 -0.1191  1.4673
  493TMC3    H2 7388   1.881   0.539  11.682 -0.2150 -0.7308  0.2636
  493TMC3    C7 7389   1.794   0.303  11.566  0.4032 -1.1361 -0.6821
  493TMC3    C8 7390   1.989   0.590  11.936 -0.1020 -0.7432 -0.3152
  493TMC3    O1 7391   1.784   0.398  11.485 -0.1724  0.0233  0.5715
  493TMC3    O2 7392   2.031   0.575  12.051 -0.2192  0.0387 -0.3688
  494TMC3    C1 7393   2.407   1.686   0.608  0.1517 -0.5182  0.8950
  494TMC3    C2 7394   2.442   1.558   0.637  0.8467 -0.5095  0.0403
  494TMC3    C3 7395   2.502   1.491   0.535  0.2442  0.3315  0.0471
  494TMC3    C4 7396   2.420   1.742   0.482  0.2961  0.6212  0.3896
  494TMC3    C5 7397   2.483   1.665   0.388 -0.0523  1.1528 -0.1950
  494TMC3    C6 7398   2.529   1.541   0.411 -0.0045  0.1627 -0.2049
  494TMC3     C 7399   2.361   1.765   0.723  0.5457  0.0267  0.3071
  494TMC3     O 7400   2.358   1.704   0.831 -0.4989  0.1367  0.9475
  494TMC3     H 7401   2.430   1.501   0.729  1.8962  0.8712  1.0401
  494TMC3    H1 7402   2.367   1.832   0.453 -0.1649 -0.3181 -1.7078
  494TMC3    H2 7403   2.593   1.482   0.347  0.5684  0.8917 -0.2923
  494TMC3    C7 7404   2.470   1.698   0.247  0.0083 -0.2852 -1.0919
  494TMC3    C8 7405   2.533   1.349   0.561 -0.3059  0.7833 -0.0336
  494TMC3    O1 7406   2.501   1.808   0.203 -0.0638  0.1260 -0.0592
  494TMC3    O2 7407   2.631   1.299   0.504 -0.1410 -0.3549  0.2364
  495TMC3    C1 7408   1.520   3.585  14.961 -0.1838  0.0023 -0.1197
  495TMC3    C2 7409   1.459   3.633  14.852  0.7039 -0.4762  0.3378
  495TMC3    C3 7410   1.342   3.699  14.861 -0.9507  0.2287  0.4129
  495TMC3    C4 7411   1.471   3.614  15.081 -0.5176  0.1632 -0.2765
  495TMC3    C5 7412   1.345   3.673  15.089 -0.5527 -0.4420  0.1276
  495TMC3    C6 7413   1.283   3.722  14.982  0.5440 -0.0506 -0.2694
  495TMC3     C 7414   1.516   3.439  14.947 -0.4346 -0.3063  0.2876
  495TMC3     O 7415   1.535   3.400  14.833 -0.2026  0.2880  0.1462
  495TMC3     H 7416   1.509   3.606  14.760  1.8160  2.5115  0.0714
  495TMC3    H1 7417   1.535   3.594  15.166  0.6746  1.8063 -0.7732
  495TMC3    H2 7418   1.179   3.753  14.985  0.3075 -1.2172  3.4229
  495TMC3    C7 7419   1.272   3.636  15.213 -0.4882 -0.5270  0.5036
  495TMC3    C8 7420   1.249   3.663  14.757 -0.1341  0.8671  0.0813
  495TMC3    O1 7421   1.345   3.591  15.296 -0.0922 -0.2712 -0.0448
  495TMC3    O2 7422   1.133   3.705  14.766 -0.6164  0.6313 -0.6313
  496MPD2     C 7423   3.530   4.094  15.383 -1.0195 -0.1648 -0.1276
  496MPD2    C1 7424   3.449   3.989  15.345 -0.0056  0.0508  0.8743
  496MPD2    C2 7425   3.315   3.995  15.373  0.6247 -0.2315 -0.1354
  496MPD2    C3 7426   3.268   4.087  15.469  0.8945 -0.0512 -0.5606
  496MPD2    C4 7427   3.349   4.187  15.522 -0.2546 -1.2902  1.0373
  496MPD2    C5 7428   3.481   4.191  15.475 -0.3380  0.5108  0.4105
  496MPD2     H 7429   3.250   3.912  15.350  0.8486 -0.4813  0.1338
  496MPD2    H1 7430   3.321   4.266  15.590 -0.0022  0.9841 -1.4705
  496MPD2    H2 7431   3.637   4.091  15.366 -0.8731  1.1188  0.6028
  496MPD2    H3 7432   3.556   4.261  15.509 -1.9930  1.7735  1.4187
  496MPD2     N 7433   3.136   4.073  15.510 -0.2541 -0.0179 -0.2478
  496MPD2    H5 7434   3.087   3.990  15.479 -0.3921 -0.6532  1.6772
  496MPD2    N1 7435   3.513   3.888  15.272 -0.2695 -0.5447  0.4706
  496MPD2    H7 7436   3.613   3.894  15.254 -0.4625 -0.4323 -0.5655
  497TMC3    C1 7437   2.975   4.035  15.668 -0.8744  0.4455 -0.3668
  497TMC3    C2 7438   2.904   3.979  15.574  0.2361 -0.5492  0.0789
  497TMC3    C3 7439   2.864   3.850  15.600  0.4581  0.9109  0.4664
  497TMC3    C4 7440   3.001   3.980  15.791 -0.0114 -0.6022 -0.6267
  497TMC3    C5 7441   2.955   3.849  15.818  0.0450 -0.6657 -0.3629
  497TMC3    C6 7442   2.884   3.787  15.722  0.3853  0.4745  0.3935
  497TMC3     C 7443   3.076   4.121  15.623  0.1285 -0.6125  1.2315
  497TMC3     O 7444   3.126   4.202  15.705  0.1194  0.1169 -0.5869
  497TMC3     H 7445   2.885   4.032  15.482 -1.0379  0.1431  0.7459
  497TMC3    H1 7446   3.054   4.048  15.856 -2.5427  0.3872  0.4236
  497TMC3    H2 7447   2.860   3.682  15.734  1.2628  0.1864 -0.4314
  497TMC3    C7 7448   2.985   3.779  15.936 -0.4344  0.0511 -0.8379
  497TMC3    C8 7449   2.880   3.774  15.476 -0.0529  0.1275  0.2567
  497TMC3    O1 7450   2.943   3.662  15.949 -0.1262 -1.1072 -0.3096
  497TMC3    O2 7451   2.927   3.839  15.384  0.0700  0.6539  0.2480
  498MPD2     C 7452   0.296   0.925   9.870  0.5632 -0.4828  0.4781
  498MPD2    C1 7453   0.334   0.823   9.956  0.4051 -0.3338  0.0870
  498MPD2    C2 7454   0.244   0.740  10.004 -0.2075  0.5835  0.3944
  498MPD2    C3 7455   0.113   0.743   9.960  0.1694 -0.0156 -0.7126
  498MPD2    C4 7456   0.079   0.839   9.869 -0.3313  0.4773 -0.4399
  498MPD2    C5 7457   0.169   0.928   9.824  1.1449  0.7656  0.1076
  498MPD2     H 7458   0.262   0.683  10.094 -0.6189  0.4854  0.4127
  498MPD2    H1 7459   4.708   0.848   9.837 -0.1519 -0.7731 -1.3615
  498MPD2    H2 7460   0.358   1.001   9.825 -0.2037  0.6442  1.3062
  498MPD2    H3 7461   0.142   1.000   9.747 -0.7764 -0.6813 -0.5766
  498MPD2     N 7462   0.015   0.647   9.999 -0.4802 -0.0995 -0.8477
  498MPD2    H5 7463   4.659   0.646   9.948  0.7500 -2.0411 -2.9741
  498MPD2    N1 7464   0.468   0.816  10.008 -0.6941 -0.3080 -0.0444
  498MPD2    H7 7465   0.494   0.748  10.079 -0.7983 -0.0104  0.2803
  499TMC3    C1 7466   0.695   0.860  10.033  0.0542  0.9289 -0.5667
  499TMC3    C2 7467   0.719   0.733  10.075 -0.7909  0.1949  0.4680
  499TMC3    C3 7468   0.837   0.709  10.139  0.0393 -0.6337 -0.5316
  499TMC3    C4 7469   0.786   0.961  10.044  0.1780  0.1698  0.1413
  499TMC3    C5 7470   0.909   0.927  10.093 -0.5619 -0.0550  0.0103
  499TMC3    C6 7471   0.943   0.802  10.138 -0.1757 -0.6709 -0.5321
  499TMC3     C 7472   0.570   0.900   9.969  0.0854  0.0750  0.1386
  499TMC3     O 7473   0.578   0.984   9.880  0.5232 -0.5307  0.0708
  499TMC3     H 7474   0.651   0.651  10.055 -0.7627  0.7739 -1.9910
  499TMC3    H1 7475   0.750   1.063  10.033  0.9871  0.6036  1.4167
  499TMC3    H2 7476   1.029   0.782  10.201  0.5512  0.7530 -1.0842
  499TMC3    C7 7477   1.010   1.030  10.082  0.0579  0.0553 -0.5220
  499TMC3    C8 7478   0.863   0.568  10.173 -0.5169 -0.2560 -0.1567
  499TMC3    O1 7479   0.969   1.140  10.072  0.0946 -0.1609  0.1512
  499TMC3    O2 7480   0.800   0.493  10.105  0.1001 -0.3234  0.3090
  500MPD2     C 7481   0.579   1.100  10.911  0.4364  0.5749  0.5260
  500MPD2    C1 7482   0.681   1.120  10.813  0.2434 -0.4312 -0.2293
  500MPD2    C2 7483   0.654   1.096  10.679 -0.3329  1.4379 -0.1163
  500MPD2    C3 7484   0.532   1.039  10.640  0.6729  0.0783 -0.4985
  500MPD2    C4 7485   0.437   1.027  10.735  0.2030 -0.1697 -0.4385
  500MPD2    C5 7486   0.463   1.047  10.867 -0.5502  0.3001 -0.1271
  500MPD2     H 7487   0.727   1.130  10.607  1.6967 -1.5801  0.5234
  500MPD2    H1 7488   0.336   0.997  10.708  0.2729  0.1334 -1.0242
  500MPD2    H2 7489   0.590   1.134  11.013  1.3101 -0.5373  0.8060
  500MPD2    H3 7490   0.380   1.029  10.934  0.4766 -0.6703  0.8721
  500MPD2     N 7491   0.479   1.029  10.509  0.2615  0.2777 -0.1513
  500MPD2    H5 7492   0.381   1.004  10.505 -0.4308  2.6674  1.8369
  500MPD2    N1 7493   0.806   1.157  10.850 -0.4745 -0.1167  0.4927
  500MPD2    H7 7494   0.878   1.170  10.780 -1.1926  0.7435 -0.0751
  501TMC3    C1 7495   0.991   1.200  10.992 -0.6050 -0.3740  0.0930
  501TMC3    C2 7496   1.041   1.300  10.911  0.0391  0.3658 -0.1105
  501TMC3    C3 7497   1.154   1.367  10.956  0.2488  0.2823 -0.0216
  501TMC3    C4 7498   1.043   1.180  11.118 -0.3517  0.2287 -0.1209
  501TMC3    C5 7499   1.150   1.247  11.152 -0.4380  0.6491  0.2299
  501TMC3    C6 7500   1.216   1.339  11.077  0.3963 -0.0824 -1.1567
  501TMC3     C 7501   0.858   1.149  10.975 -0.8474  0.3537  0.0090
  501TMC3     O 7502   0.802   1.120  11.079 -0.1405 -0.1333  0.1886
  501TMC3     H 7503   0.983   1.322  10.822 -1.2428  2.4251  1.2404
  501TMC3    H1 7504   1.004   1.090  11.165  0.0647 -0.3946 -0.9584
  501TMC3    H2 7505   1.299   1.400  11.114 -1.5669  1.8628  0.0580
  501TMC3    C7 7506   1.191   1.247  11.291 -0.2777 -0.1758 -0.2232
  501TMC3    C8 7507   1.210   1.473  10.876 -0.7926  0.5430 -1.2185
  501TMC3    O1 7508   1.296   1.302  11.325  0.5927 -0.2004 -0.6715
  501TMC3    O2 7509   1.327   1.501  10.903  0.4632 -0.7974  0.3135
  502TMC3    C1 7510   0.766   4.180  14.771  0.5812 -0.1729  0.2362
  502TMC3    C2 7511   0.761   4.298  14.696  0.4002  0.3459 -0.4479
  502TMC3    C3 7512   0.667   4.395  14.724 -0.3506 -0.8058 -0.6767
  502TMC3    C4 7513   0.651   4.148  14.831 -0.1099  0.3475 -0.4583
  502TMC3    C5 7514   0.542   4.234  14.848  0.1694 -0.7408 -0.5797
  502TMC3    C6 7515   0.556   4.366  14.808 -0.6149 -0.9049 -0.5318
  502TMC3     C 7516   0.879   4.209  14.849  0.6478 -0.3626  0.7908
  502TMC3     O 7517   0.971   4.262  14.789 -0.3568 -0.0551 -0.3908
  502TMC3     H 7518   0.844   4.310  14.626 -0.1692 -0.0652 -1.1997
  502TMC3    H1 7519   0.649   4.055  14.885  1.5572 -0.2390 -1.4077
  502TMC3    H2 7520   0.487   4.444  14.837 -0.4132 -1.1649  0.6204
  502TMC3    C7 7521   0.482   4.211  14.975  0.0196  0.4294  0.5618
  502TMC3    C8 7522   0.724   4.525  14.742  0.0440 -0.2263  0.1118
  502TMC3    O1 7523   0.566   4.169  15.054 -0.0732 -0.7432  0.2085
  502TMC3    O2 7524   0.646   4.616  14.777  0.4855  0.0313 -0.0426
  503MPD2     C 7525   2.986   0.910  16.772 -0.7707  0.2702  0.5871
  503MPD2    C1 7526   2.951   0.902  16.908 -0.0948 -0.5489 -0.2986
  503MPD2    C2 7527   3.006   0.805  16.995  0.0682 -0.4892 -1.0828
  503MPD2    C3 7528   3.079   0.703  16.941 -0.5192  0.1392  0.0160
  503MPD2    C4 7529   3.106   0.709  16.806 -0.3644 -0.0143  0.0040
  503MPD2    C5 7530   3.065   0.810  16.723  0.1205  0.4388 -0.0878
  503MPD2     H 7531   2.973   0.799  17.098 -0.2463  2.0935 -1.0419
  503MPD2    H1 7532   3.164   0.627  16.766 -0.1718  1.8321 -3.5618
  503MPD2    H2 7533   2.955   0.989  16.705 -0.4834 -0.1628 -0.0516
  503MPD2    H3 7534   3.070   0.792  16.616 -0.2178 -0.6339  0.0709
  503MPD2     N 7535   3.119   0.587  17.014  0.4867 -0.0147  0.2822
  503MPD2    H5 7536   3.184   0.521  16.973 -0.7640 -0.3350 -1.1574
  503MPD2    N1 7537   2.868   0.999  16.967  0.2218  0.4140 -0.9321
  503MPD2    H7 7538   2.842   0.985  17.064 -0.9270  0.2279 -1.2580
  504TMC3    C1 7539   3.155   0.442  17.204 -0.3645 -0.0818 -0.4927
  504TMC3    C2 7540   3.095   0.382  17.306 -0.7764  0.1565 -0.2544
  504TMC3    C3 7541   3.167   0.291  17.378  0.3105  1.0105  0.0626
  504TMC3    C4 7542   3.291   0.428  17.179 -0.0885  0.1054  0.6843
  504TMC3    C5 7543   3.365   0.340  17.262  0.7132  0.0210 -0.2885
  504TMC3    C6 7544   3.302   0.277  17.368 -0.6957  0.1466 -0.7168
  504TMC3     C 7545   3.083   0.560  17.150 -0.4788 -0.2311 -0.6927
  504TMC3     O 7546   2.997   0.614  17.219 -0.1903  0.2063  0.0028
  504TMC3     H 7547   2.987   0.378  17.298 -0.8478  2.4441 -0.5669
  504TMC3    H1 7548   3.344   0.472  17.095 -0.8634 -1.9625 -0.8653
  504TMC3    H2 7549   3.348   0.196  17.424 -1.9856 -1.2564 -1.7037
  504TMC3    C7 7550   3.508   0.314  17.229  0.2502 -0.4387 -0.1820
  504TMC3    C8 7551   3.096   0.179  17.433  0.2003  0.2002 -0.5389
  504TMC3    O1 7552   3.542   0.347  17.114  0.2636 -0.6186 -0.3854
  504TMC3    O2 7553   3.006   0.130  17.369  0.3604  0.0392  0.3353
  505MPD2     C 7554   3.620   4.308  10.610 -0.4706 -0.1490  0.4782
  505MPD2    C1 7555   3.722   4.377  10.547 -0.8200 -0.0476  0.0585
  505MPD2    C2 7556   3.847   4.387  10.610 -0.0736 -0.7633 -0.0784
  505MPD2    C3 7557   3.873   4.311  10.724 -0.1813  0.8572 -0.4187
  505MPD2    C4 7558   3.770   4.244  10.785  0.7885 -0.1259 -0.4346
  505MPD2    C5 7559   3.641   4.254  10.733 -0.4593 -0.5602 -0.3725
  505MPD2     H 7560   3.920   4.459  10.575  0.5824  0.0424  2.9445
  505MPD2    H1 7561   3.785   4.190  10.878 -0.5139  0.4513  0.1068
  505MPD2    H2 7562   3.527   4.291  10.557 -1.0886  0.2886  1.4131
  505MPD2    H3 7563   3.561   4.193  10.773  1.5063 -1.7858  1.7236
  505MPD2     N 7564   4.007   4.297  10.785  0.4923 -0.3285 -0.5972
  505MPD2    H5 7565   4.020   4.226  10.857  3.0380  2.3304  1.5712
  505MPD2    N1 7566   3.689   4.422  10.417  0.2742 -0.1904  0.9955
  505MPD2    H7 7567   3.595   4.399  10.385  0.4528  1.9240 -1.0784
  506TMC3    C1 7568   3.703   4.470  10.192  0.1219  0.0071 -0.2068
  506TMC3    C2 7569   3.740   4.565  10.110  0.0024  0.8506 -0.4005
  506TMC3    C3 7570   3.743   4.538   9.977 -0.6824 -0.3620  0.7618
  506TMC3    C4 7571   3.695   4.340  10.148  0.5571 -0.3325 -0.1244
  506TMC3    C5 7572   3.694   4.319  10.013  0.5202  0.2919 -0.2551
  506TMC3    C6 7573   3.708   4.419   9.924  0.4768  0.5366  0.1007
  506TMC3     C 7574   3.770   4.481  10.321  0.2779 -0.5375  0.6049
  506TMC3     O 7575   3.886   4.512  10.323  0.4824  0.1344 -0.1442
  506TMC3     H 7576   3.732   4.668  10.144  0.5405  0.7457  0.0287
  506TMC3    H1 7577   3.651   4.264  10.213 -1.8589 -0.2982 -1.7229
  506TMC3    H2 7578   3.727   4.404   9.818  0.5537  1.0891  0.0374
  506TMC3    C7 7579   3.764   4.199   9.977 -0.1482 -0.0874  0.3492
  506TMC3    C8 7580   3.804   4.636   9.882 -1.1317  0.6040 -0.1052
  506TMC3    O1 7581   3.771   4.164   9.859 -0.6331  0.1474 -0.1551
  506TMC3    O2 7582   3.772   4.636   9.765  0.3874 -0.2123  0.2334
  507TMC3    C1 7583   4.148   4.601  14.819 -0.6648  0.2377  0.1181
  507TMC3    C2 7584   4.170   4.502  14.729 -0.3855 -0.3065  0.3958
  507TMC3    C3 7585   4.272   4.518  14.638  0.2424  0.2709  0.1330
  507TMC3    C4 7586   4.235   4.705  14.828  0.2985 -0.2176  0.2006
  507TMC3    C5 7587   4.348   4.719  14.743  0.0956 -0.5584 -0.7615
  507TMC3    C6 7588   4.359   4.623  14.645 -0.0113  0.0577  0.7346
  507TMC3     C 7589   4.028   4.624  14.895  0.0501 -0.4719  0.3644
  507TMC3     O 7590   4.025   4.709  14.987 -0.0562  0.0295  0.4315
  507TMC3     H 7591   4.101   4.419  14.724 -0.4675 -0.1790 -0.6405
  507TMC3    H1 7592   4.211   0.051  14.899 -1.2751  1.9938 -2.7587
  507TMC3    H2 7593   4.441   4.637  14.575 -0.8588 -1.0181 -0.4877
  507TMC3    C7 7594   4.338   0.112  14.676 -0.7492  0.3572 -0.0519
  507TMC3    C8 7595   4.231   4.489  14.504  0.2601  0.1058 -0.1497
  507TMC3    O1 7596   4.298   0.109  14.560 -0.5401 -0.2562  0.2684
  507TMC3    O2 7597   4.144   4.402  14.485  0.2615 -0.2224  0.0554
  508MPD2     C 7598   4.680   1.969  16.241 -0.5073 -0.2333 -0.2617
  508MPD2    C1 7599   4.682   2.089  16.300 -0.4706 -0.8833  0.6766
  508MPD2    C2 7600   4.680   2.203  16.221  0.0846  0.0577 -0.2616
  508MPD2    C3 7601   4.690   2.205  16.083 -0.1477 -0.0958 -0.0308
  508MPD2    C4 7602   4.687   2.077  16.026  0.3105  0.4932  0.4710
  508MPD2    C5 7603   4.679   1.960  16.101  0.1300 -0.5735 -0.6076
  508MPD2     H 7604   4.684   2.305  16.259 -0.6533 -0.3870  0.9944
  508MPD2    H1 7605   4.684   2.062  15.918  1.0345 -4.1169  1.0962
  508MPD2    H2 7606   4.656   1.885  16.305 -1.5984 -0.6836 -1.2653
  508MPD2    H3 7607   4.653   1.871  16.045  0.1609 -0.4194 -0.8661
  508MPD2     N 7608   4.715   2.328  16.013 -0.1990 -0.6856  0.7760
  508MPD2    H5 7609   0.006   2.414  16.062  1.0808 -0.0674 -0.9090
  508MPD2    N1 7610   4.683   2.106  16.438 -0.2065 -0.2820 -0.5166
  508MPD2    H7 7611   4.715   2.021  16.482  0.8472 -0.1858 -1.0928
  509TMC3    C1 7612   4.650   2.696  15.765  0.3382 -0.6838  0.9929
  509TMC3    C2 7613   0.012   2.765  15.836 -0.8280 -0.1778 -0.3084
  509TMC3    C3 7614   0.095   2.689  15.916 -1.2209 -0.1415  0.0983
  509TMC3    C4 7615   4.630   2.561  15.773 -1.0074  0.3608  0.8570
  509TMC3    C5 7616   4.721   2.483  15.840 -0.2412 -0.0856 -1.3881
  509TMC3    C6 7617   0.081   2.551  15.918  0.1345 -0.2976  0.1446
  509TMC3     C 7618   4.551   2.771  15.692  0.3880  0.2201 -0.7147
  509TMC3     O 7619   4.447   2.714  15.680  0.2456  0.0411  0.1889
  509TMC3     H 7620   0.004   2.873  15.840  3.2293  0.0982  0.2618
  509TMC3    H1 7621   4.538   2.518  15.734  0.4678  0.2261 -2.4828
  509TMC3    H2 7622   0.158   2.491  15.966  0.4882  0.5879  0.6825
  509TMC3    C7 7623   4.700   2.350  15.882  0.3392 -0.6246  0.1122
  509TMC3    C8 7624   0.222   2.742  15.959  0.5566 -1.0475  0.5592
  509TMC3    O1 7625   4.640   2.284  15.804 -0.0799 -0.0643  0.2826
  509TMC3    O2 7626   0.296   2.662  16.014  0.0381  0.1711  0.2159
  510MPD2     C 7627   3.011   4.158  14.741 -0.3796  0.6899 -0.0281
  510MPD2    C1 7628   3.006   4.021  14.746  0.3091  0.5570 -0.0199
  510MPD2    C2 7629   3.097   3.940  14.681  0.6030 -0.0886 -1.3734
  510MPD2    C3 7630   3.191   4.006  14.598  0.4394  0.0432  0.1118
  510MPD2    C4 7631   3.190   4.145  14.582  0.5500 -0.0354  0.3845
  510MPD2    C5 7632   3.095   4.217  14.655 -0.1692 -0.0634 -0.6318
  510MPD2     H 7633   3.083   3.832  14.686 -0.2216  0.0427 -0.7689
  510MPD2    H1 7634   3.255   4.198  14.513 -0.8562  0.3911 -0.6097
  510MPD2    H2 7635   2.936   4.219  14.791 -2.0806 -0.7967 -0.7452
  510MPD2    H3 7636   3.090   4.324  14.640 -0.0814  0.1665  1.0017
  510MPD2     N 7637   3.280   3.927  14.515 -0.2444  0.6254  0.3181
  510MPD2    H5 7638   3.272   3.829  14.538 -2.1010  0.7691  0.3035
  510MPD2    N1 7639   2.903   3.969  14.832 -0.3117  0.2816  0.3613
  510MPD2    H7 7640   2.832   4.032  14.867 -2.3447 -1.2960 -0.9555
  511TMC3    C1 7641   2.758   3.805  14.939  0.0855 -0.1607 -0.5487
  511TMC3    C2 7642   2.705   3.895  15.028 -0.3040 -0.5547 -0.2125
  511TMC3    C3 7643   2.604   3.845  15.108  0.1593  0.0545 -0.2857
  511TMC3    C4 7644   2.727   3.675  14.935  0.2440  0.2840  0.3034
  511TMC3    C5 7645   2.616   3.640  14.998 -0.5436 -0.7052  0.2303
  511TMC3    C6 7646   2.546   3.724  15.085  0.2827 -0.3359 -0.2825
  511TMC3     C 7647   2.878   3.840  14.860 -0.1051  0.5999 -0.7650
  511TMC3     O 7648   2.944   3.746  14.829  0.5406  0.5377  0.5509
  511TMC3     H 7649   2.747   3.994  15.041  0.5758 -0.5467 -3.1583
  511TMC3    H1 7650   2.775   3.604  14.869  0.1173  1.6699 -1.2822
  511TMC3    H2 7651   2.448   3.700  15.124 -0.3041  2.7981  0.1864
  511TMC3    C7 7652   2.560   3.510  14.957  0.2257  0.1361  0.4206
  511TMC3    C8 7653   2.563   3.920  15.226 -0.6354 -0.0691  0.4284
  511TMC3    O1 7654   2.622   3.447  14.875  0.2539  0.2728 -0.4453
  511TMC3    O2 7655   2.580   4.039  15.240 -0.3563 -0.5979 -0.4118
  512TMC3    C1 7656   1.570   3.135  13.815 -0.1955 -0.1731 -0.3732
  512TMC3    C2 7657   1.688   3.148  13.884 -1.0287  0.4280  0.3087
  512TMC3    C3 7658   1.737   3.038  13.950 -0.2823  0.3045 -0.5955
  512TMC3    C4 7659   1.500   3.013  13.822  0.1603 -0.6232 -0.8091
  512TMC3    C5 7660   1.558   2.904  13.877  0.4983  0.9868 -0.0401
  512TMC3    C6 7661   1.677   2.915  13.943  0.4268 -0.3128 -0.5127
  512TMC3     C 7662   1.515   3.245  13.741  0.2190  1.2973 -0.3813
  512TMC3     O 7663   1.543   3.360  13.773 -0.2020  0.4949  0.8165
  512TMC3     H 7664   1.744   3.241  13.879 -0.4681 -0.0068 -1.3177
  512TMC3    H1 7665   1.403   2.998  13.775  0.4956  0.1242 -1.7375
  512TMC3    H2 7666   1.707   2.836  14.011 -0.8623 -0.9605 -0.6929
  512TMC3    C7 7667   1.485   2.776  13.884 -0.1414  0.2641 -0.4652
  512TMC3    C8 7668   1.873   3.045  14.000 -0.3029 -0.0131 -0.5544
  512TMC3    O1 7669   1.365   2.787  13.850  0.3643  0.3309 -0.6757
  512TMC3    O2 7670   1.927   2.938  14.018  0.2268 -0.0080  0.3781
  513MPD2     C 7671   3.972   3.410  13.556  0.9124 -0.1236  0.1197
  513MPD2    C1 7672   4.013   3.350  13.443 -0.6803 -0.1953  0.2707
  513MPD2    C2 7673   4.149   3.335  13.437  1.1726 -0.0655 -0.0319
  513MPD2    C3 7674   4.234   3.354  13.542 -0.2827  0.3018 -0.6332
  513MPD2    C4 7675   4.190   3.401  13.663  0.2399 -0.4763 -1.2819
  513MPD2    C5 7676   4.052   3.432  13.666  0.2238 -0.1726 -0.1052
  513MPD2     H 7677   4.191   3.295  13.345 -0.9104 -0.0837 -0.9925
  513MPD2    H1 7678   4.258   3.423  13.744 -0.6816 -1.6847 -0.1875
  513MPD2    H2 7679   3.867   3.434  13.570  0.9406 -0.0487  0.2017
  513MPD2    H3 7680   4.010   3.483  13.752 -0.4103 -1.5042  0.3747
  513MPD2     N 7681   4.369   3.338  13.510 -0.0182  0.5547  0.0271
  513MPD2    H5 7682   4.393   3.316  13.414  1.7369 -1.7632  0.9889
  513MPD2    N1 7683   3.936   3.330  13.327 -0.0338  0.0679 -0.0161
  513MPD2    H7 7684   3.989   3.287  13.252  0.9688 -0.6487  1.1142
  514TMC3    C1 7685   3.773   3.362  13.163 -0.3460 -0.9048  0.6838
  514TMC3    C2 7686   3.737   3.467  13.089 -0.3554  0.0992 -0.0947
  514TMC3    C3 7687   3.788   3.484  12.967 -0.0805 -0.1739  0.0104
  514TMC3    C4 7688   3.839   3.260  13.100  0.6286  0.3566 -0.5611
  514TMC3    C5 7689   3.888   3.277  12.977 -0.2123 -0.4473  0.5859
  514TMC3    C6 7690   3.851   3.386  12.906  0.1738 -0.5243  0.0348
  514TMC3     C 7691   3.818   3.389  13.297 -0.2613 -0.5090  0.4414
  514TMC3     O 7692   3.772   3.490  13.349  0.2545  0.2655 -0.7561
  514TMC3     H 7693   3.693   3.556  13.132 -0.3037 -0.1116  0.3944
  514TMC3    H1 7694   3.861   3.170  13.157  0.5268  0.2484 -0.6941
  514TMC3    H2 7695   3.904   3.393  12.812  0.1404  0.4623  0.0868
  514TMC3    C7 7696   4.026   3.241  12.990 -0.1415 -0.8765  0.3241
  514TMC3    C8 7697   3.715   3.577  12.880  0.1190  0.1284  0.6854
  514TMC3    O1 7698   4.057   3.235  13.107 -0.1210 -0.2627  0.2741
  514TMC3    O2 7699   3.644   3.666  12.930 -0.5029  0.6118  0.0145
  515MPD2     C 7700   1.773   0.442  15.325 -0.8495 -0.3126  0.1588
  515MPD2    C1 7701   1.787   0.481  15.190 -0.7573  0.0165 -0.0806
  515MPD2    C2 7702   1.818   0.608  15.164  0.0521 -0.1094  0.6307
  515MPD2    C3 7703   1.867   0.695  15.262  0.2710  0.4745 -0.2558
  515MPD2    C4 7704   1.849   0.655  15.389 -0.5728 -0.6754  0.4096
  515MPD2    C5 7705   1.803   0.531  15.423 -0.2839 -0.2270  0.2123
  515MPD2     H 7706   1.801   0.641  15.062  0.1333 -0.4074  0.5230
  515MPD2    H1 7707   1.873   0.722  15.471  0.2881 -0.6572  0.1415
  515MPD2    H2 7708   1.736   0.348  15.364 -0.5030 -0.9131 -0.9857
  515MPD2    H3 7709   1.790   0.496  15.525  0.2265 -3.1062 -0.7375
  515MPD2     N 7710   1.917   0.818  15.244  0.5487 -0.5327 -0.0719
  515MPD2    H5 7711   1.943   0.869  15.328  1.9953 -1.2098 -0.0998
  515MPD2    N1 7712   1.755   0.395  15.080 -0.0849 -0.3497  0.2081
  515MPD2    H7 7713   1.766   0.440  14.990  0.7193 -0.6591  0.1507
  516TMC3    C1 7714   1.665   0.217  14.965 -0.4912 -0.1504  0.7457
  516TMC3    C2 7715   1.580   0.298  14.897 -0.5806 -0.0049 -0.8077
  516TMC3    C3 7716   1.492   0.232  14.816 -0.0575 -0.1204  0.7901
  516TMC3    C4 7717   1.661   0.081  14.958  0.1475  0.0768  1.0349
  516TMC3    C5 7718   1.572   0.019  14.875 -0.5689  0.2188  0.3872
  516TMC3    C6 7719   1.482   0.090  14.800 -0.3469  0.3802  0.7134
  516TMC3     C 7720   1.721   0.261  15.093  0.1092 -0.1944 -0.1188
  516TMC3     O 7721   1.743   0.192  15.187 -0.8408  0.6969 -0.0491
  516TMC3     H 7722   1.584   0.405  14.916 -0.6547 -0.1992  0.3485
  516TMC3    H1 7723   1.728   0.028  15.024  0.2973 -2.2634 -0.9877
  516TMC3    H2 7724   1.402   0.048  14.740 -0.1465  0.8474  0.1282
  516TMC3    C7 7725   1.561   4.604  14.893 -0.1055 -0.2670  0.0998
  516TMC3    C8 7726   1.404   0.308  14.732 -0.6228  0.3233  0.6282
  516TMC3    O1 7727   1.616   4.552  14.991 -0.3231  0.1833 -0.1283
  516TMC3    O2 7728   1.370   0.248  14.629  0.0527 -0.1020 -0.2068
  517MPD2     C 7729   0.971   1.919   0.329  0.2364  0.9004 -0.0535
  517MPD2    C1 7730   1.111   1.921   0.356 -0.4407 -0.9270  0.3969
  517MPD2    C2 7731   1.163   2.013   0.452 -0.7353  0.0265 -0.4697
  517MPD2    C3 7732   1.073   2.104   0.519 -0.3849  0.9517  0.3077
  517MPD2    C4 7733   0.940   2.088   0.504  0.3773 -0.1216  0.1892
  517MPD2    C5 7734   0.893   1.993   0.421  0.3024  0.1725 -0.2857
  517MPD2     H 7735   1.270   2.024   0.449 -0.8463  1.4550  1.0137
  517MPD2    H1 7736   0.866   2.139   0.566 -1.0045 -2.1044  0.1970
  517MPD2    H2 7737   0.923   1.836   0.278 -0.8149  3.0934 -2.6245
  517MPD2    H3 7738   0.786   1.980   0.418  0.2370  0.9882 -1.6742
  517MPD2     N 7739   1.119   2.203   0.611  0.1718  0.4033  0.4812
  517MPD2    H5 7740   1.053   2.260   0.664 -0.0753 -0.0561  0.6687
  517MPD2    N1 7741   1.206   1.841   0.287  0.1520 -0.0061 -0.2174
  517MPD2    H7 7742   1.297   1.834   0.331 -0.0289 -1.1192 -0.0201
  518TMC3    C1 7743   1.283   1.652   0.164 -0.7252 -0.1073  0.4221
  518TMC3    C2 7744   1.266   1.531   0.110  0.6400  0.0072 -0.9204
  518TMC3    C3 7745   1.366   1.441   0.104 -0.5573 -0.6397  0.1995
  518TMC3    C4 7746   1.409   1.707   0.180 -0.4655  0.4600 -0.3422
  518TMC3    C5 7747   1.520   1.625   0.170 -0.1550 -0.3303 -0.2526
  518TMC3    C6 7748   1.493   1.490   0.132 -0.3844 -0.0799 -0.1406
  518TMC3     C 7749   1.179   1.753   0.182  0.1458  0.4899 -0.2622
  518TMC3     O 7750   1.071   1.737   0.123  0.0668 -0.1446 -0.4935
  518TMC3     H 7751   1.161   1.512   0.096  0.7063 -1.2310  0.2973
  518TMC3    H1 7752   1.422   1.814   0.186  1.5459  0.0382  2.7226
  518TMC3    H2 7753   1.567   1.412   0.146 -1.4014 -0.7209  1.6766
  518TMC3    C7 7754   1.649   1.686   0.131 -0.4238  0.7922 -0.9291
  518TMC3    C8 7755   1.352   1.313   0.028 -0.2407  0.1571 -0.7094
  518TMC3    O1 7756   1.687   1.787   0.189 -0.0016 -0.9375  0.0861
  518TMC3    O2 7757   1.434   1.233   0.060  0.2839  0.0967 -0.2063
  519MPD2     C 7758   3.035   0.197  14.558  0.2583  0.5559  0.1947
  519MPD2    C1 7759   2.995   0.232  14.431  0.6631  0.2869  0.7044
  519MPD2    C2 7760   3.080   0.197  14.326  0.9262 -0.3113 -0.0152
  519MPD2    C3 7761   3.195   0.118  14.342  0.3807  0.2165 -0.3986
  519MPD2    C4 7762   3.237   0.099  14.470  0.0401 -0.4845  0.2147
  519MPD2    C5 7763   3.152   0.130  14.574  0.5233 -0.0587 -0.4100
  519MPD2     H 7764   3.047   0.221  14.225 -2.6537 -1.7487  0.8055
  519MPD2    H1 7765   3.323   0.039  14.497 -0.2869 -0.7246  0.7207
  519MPD2    H2 7766   2.975   0.229  14.642 -0.7132  2.8148 -1.3451
  519MPD2    H3 7767   3.188   0.107  14.674 -0.4064  3.0409  0.6316
  519MPD2     N 7768   3.270   0.057  14.240 -0.3007  0.0400  0.0747
  519MPD2    H5 7769   3.336   4.719  14.272 -0.4477 -1.8847 -3.9007
  519MPD2    N1 7770   2.860   0.284  14.422  0.5192 -0.4247  0.1963
  519MPD2    H7 7771   2.801   0.286  14.504 -1.1040  0.6099 -1.0033
  520TMC3    C1 7772   3.310   4.712  14.009  0.0533  0.0574  0.2867
  520TMC3    C2 7773   3.245   4.705  13.887 -0.1147  0.0751 -0.1485
  520TMC3    C3 7774   3.306   4.630  13.784 -0.2450  0.4111  0.6410
  520TMC3    C4 7775   3.436   4.669  14.022  0.7909  0.2803  0.0144
  520TMC3    C5 7776   3.501   4.614  13.912 -0.3014 -0.0943 -0.4678
  520TMC3    C6 7777   3.437   4.597  13.793 -0.1775  0.4093  0.5817
  520TMC3     C 7778   3.241   0.056  14.105  0.9095 -0.7620  1.0420
  520TMC3     O 7779   3.156   0.126  14.052 -0.1193 -0.1199 -0.1216
  520TMC3     H 7780   3.141   4.730  13.873  0.0729 -0.3347 -2.2641
  520TMC3    H1 7781   3.489   4.686  14.115  0.1658 -0.7949  0.5720
  520TMC3    H2 7782   3.478   4.547  13.705 -0.6205 -1.4970  1.4652
  520TMC3    C7 7783   3.621   4.538  13.938 -0.5024 -0.7043 -0.3413
  520TMC3    C8 7784   3.230   4.589  13.667 -0.0172 -0.3936 -0.6232
  520TMC3    O1 7785   3.662   4.556  14.050 -0.1905 -0.9313 -0.2471
  520TMC3    O2 7786   3.297   4.570  13.563  0.5240  0.5335  0.2746
  521MPD2     C 7787   3.690   3.190  17.652 -0.4869 -0.9113  0.4956
  521MPD2    C1 7788   3.727   3.069  17.591  0.4887  0.9049  0.4032
  521MPD2    C2 7789   3.844   3.067  17.513  0.1945  0.3608 -0.1925
  521MPD2    C3 7790   3.936   3.169  17.520  0.6312  0.4127 -0.3798
  521MPD2    C4 7791   3.906   3.282  17.592  0.4273 -0.3296  0.3586
  521MPD2    C5 7792   3.779   3.298  17.644 -0.8130 -0.9144 -0.3501
  521MPD2     H 7793   3.875   2.984  17.451  1.0965  1.2923 -0.9930
  521MPD2    H1 7794   3.977   3.364  17.591 -0.0502  0.1264  3.1303
  521MPD2    H2 7795   3.589   3.204  17.688 -0.8909 -1.3866 -0.4501
  521MPD2    H3 7796   3.762   3.388  17.701 -1.2863 -2.2137  1.5427
  521MPD2     N 7797   4.056   3.154  17.451 -0.2835 -0.1551  0.6977
  521MPD2    H5 7798   4.074   3.058  17.426 -0.6217  0.1751 -0.8122
  521MPD2    N1 7799   3.635   2.955  17.601  0.7092  0.4782  0.1179
  521MPD2    H7 7800   3.555   2.976  17.660  1.0707 -0.6560  1.0180
  522TMC3    C1 7801   4.262   3.211  17.352  0.1452 -0.1558 -1.2184
  522TMC3    C2 7802   4.326   3.090  17.382 -0.0049  0.3071 -0.3381
  522TMC3    C3 7803   4.416   3.038  17.299  0.4313  0.1247 -0.0795
  522TMC3    C4 7804   4.284   3.276  17.229 -0.1120  0.0203 -0.1157
  522TMC3    C5 7805   4.374   3.213  17.149  0.2623 -0.3895 -0.2193
  522TMC3    C6 7806   4.441   3.099  17.177  0.5338 -0.0116 -0.0042
  522TMC3     C 7807   4.143   3.258  17.416 -0.1850  0.0716 -0.3734
  522TMC3     O 7808   4.118   3.378  17.404  0.2285  0.5074 -0.2051
  522TMC3     H 7809   4.289   3.038  17.470 -0.3888  1.0075 -0.0832
  522TMC3    H1 7810   4.228   3.364  17.199  2.5715  1.2708 -1.4596
  522TMC3    H2 7811   4.508   3.058  17.102 -1.0955 -0.8293 -1.0098
  522TMC3    C7 7812   4.385   3.259  17.012 -0.0102  0.1779  0.6099
  522TMC3    C8 7813   4.470   2.909  17.336 -0.1342 -0.4866  0.0799
  522TMC3    O1 7814   4.500   3.264  16.970 -0.5598  0.8302  1.3415
  522TMC3    O2 7815   4.450   2.885  17.454  0.0548 -0.3776 -0.0248
  523MPD2     C 7816   1.928   3.577  10.138  0.7657 -0.1164  0.6782
  523MPD2    C1 7817   1.843   3.504  10.059 -0.0727 -0.0915  0.5843
  523MPD2    C2 7818   1.753   3.569   9.976 -0.8529  0.1837  0.3942
  523MPD2    C3 7819   1.751   3.713   9.976  0.3160  0.1910  0.1968
  523MPD2    C4 7820   1.829   3.778  10.062  0.2421  0.4683 -0.4413
  523MPD2    C5 7821   1.913   3.709  10.143 -0.0717  0.2679 -0.1541
  523MPD2     H 7822   1.696   3.510   9.905  0.6719 -1.2864  0.3826
  523MPD2    H1 7823   1.814   3.884  10.079 -1.1533  0.4252 -1.3394
  523MPD2    H2 7824   2.009   3.533  10.194 -0.4708 -1.9242  1.0479
  523MPD2    H3 7825   1.978   3.770  10.205 -1.2835  0.3224  1.0585
  523MPD2     N 7826   1.665   3.793   9.897 -0.2534 -0.9354  0.3472
  523MPD2    H5 7827   1.671   3.892   9.921 -2.0899 -0.9464  0.8120
  523MPD2    N1 7828   1.872   3.361  10.066 -0.2742  0.1215 -0.1051
  523MPD2    H7 7829   1.944   3.334  10.133  0.4284 -2.3015 -1.8388
  524TMC3    C1 7830   1.486   3.849   9.752  0.0504  0.1714  0.0924
  524TMC3    C2 7831   1.389   3.809   9.663  0.7070  0.1190 -0.3799
  524TMC3    C3 7832   1.278   3.888   9.638  0.0669 -0.1201  0.5913
  524TMC3    C4 7833   1.489   3.981   9.789 -0.5127  0.0816 -0.2518
  524TMC3    C5 7834   1.379   4.060   9.757  0.5336 -0.6194 -0.4035
  524TMC3    C6 7835   1.275   4.015   9.683  0.2249  1.2154 -0.7631
  524TMC3     C 7836   1.564   3.742   9.813 -0.8101 -0.2655 -0.1535
  524TMC3     O 7837   1.538   3.624   9.778  0.6049 -0.2744  0.6988
  524TMC3     H 7838   1.389   3.705   9.634 -1.2810  0.2936 -1.0047
  524TMC3    H1 7839   1.568   4.022   9.851 -1.2425  0.1728  0.6146
  524TMC3    H2 7840   1.197   4.079   9.643 -0.7960  0.1404 -0.4939
  524TMC3    C7 7841   1.361   4.170   9.850 -0.1103 -0.5137  0.4895
  524TMC3    C8 7842   1.181   3.854   9.532 -0.7281 -0.4411  0.0256
  524TMC3    O1 7843   1.453   4.191   9.932  0.0572 -0.1517  0.3485
  524TMC3    O2 7844   1.077   3.921   9.524 -0.2148 -0.3839 -0.0059
  525MPD2     C 7845   4.445   4.261  14.408  0.6741 -1.0300  0.1067
  525MPD2    C1 7846   4.544   4.304  14.496 -0.5329 -0.1729 -0.4895
  525MPD2    C2 7847   4.615   4.420  14.467  0.7941  0.5487 -0.7886
  525MPD2    C3 7848   4.591   4.495  14.352  0.6229 -0.4773  0.1021
  525MPD2    C4 7849   4.490   4.459  14.272 -0.3375 -0.5416 -0.4553
  525MPD2    C5 7850   4.423   4.341  14.299 -0.4280 -0.7135  0.3450
  525MPD2     H 7851   4.698   4.449  14.530 -1.3664  1.1280  1.8117
  525MPD2    H1 7852   4.471   4.516  14.182  1.9877 -0.8298 -1.1396
  525MPD2    H2 7853   4.391   4.168  14.424 -0.1366 -0.3831  1.0644
  525MPD2    H3 7854   4.345   4.317  14.228 -0.2855 -3.4333  1.1218
  525MPD2     N 7855   4.655   4.617  14.336 -0.0241 -0.1038  0.2523
  525MPD2    H5 7856   4.611   4.691  14.281 -0.0040  0.4213  0.9447
  525MPD2    N1 7857   4.566   4.243  14.627  0.4662  0.1992  0.0434
  525MPD2    H7 7858   4.635   4.271  14.696  1.4164  1.4234 -1.3901
  526TMC3    C1 7859   4.541   4.105  14.809  0.1115  0.6865  0.0843
  526TMC3    C2 7860   4.462   4.082  14.921  0.6277  0.8628  0.3557
  526TMC3    C3 7861   4.525   4.066  15.040  0.5426  0.4478  0.3901
  526TMC3    C4 7862   4.682   4.093  14.809 -0.2986 -0.6184  1.1626
  526TMC3    C5 7863   0.004   4.075  14.930  0.3488  0.0245 -0.6528
  526TMC3    C6 7864   4.659   4.065  15.048 -0.3753 -0.0481 -0.1203
  526TMC3     C 7865   4.479   4.158  14.690 -0.8882  0.1396 -0.9503
  526TMC3     O 7866   4.359   4.140  14.661 -0.4809  0.2465 -0.5840
  526TMC3     H 7867   4.357   4.109  14.911  0.1702 -0.6944  0.8156
  526TMC3    H1 7868   0.009   4.081  14.719 -1.2564  2.4415  0.1220
  526TMC3    H2 7869   4.699   4.054  15.148  1.4358  0.7778 -0.7645
  526TMC3    C7 7870   0.137   4.016  14.947  0.0640 -0.6769  0.6513
  526TMC3    C8 7871   4.455   4.070  15.167 -0.1162  0.2569  0.5139
  526TMC3    O1 7872   0.161   3.963  15.052 -0.0042 -0.1526  0.0282
  526TMC3    O2 7873   4.509   4.129  15.263 -0.6526 -0.5006 -0.1868
  527MPD2     C 7874   2.658   2.886   0.580 -0.1737  0.4008  0.1079
  527MPD2    C1 7875   2.696   2.792   0.674 -0.7358  0.2460 -0.2067
  527MPD2    C2 7876   2.822   2.743   0.669 -0.1374  0.0573  0.5521
  527MPD2    C3 7877   2.916   2.779   0.581 -0.4145 -0.1059  0.2195
  527MPD2    C4 7878   2.872   2.853   0.473 -0.0081  0.0445  0.0799
  527MPD2    C5 7879   2.746   2.911   0.479 -0.3891  0.1687  0.6658
  527MPD2     H 7880   2.841   2.674   0.750 -0.0277  2.4729  2.5989
  527MPD2    H1 7881   2.938   2.882   0.391 -1.2038  1.0051 -0.5336
  527MPD2    H2 7882   2.557   2.925   0.575 -0.1954  0.2881 -0.3248
  527MPD2    H3 7883   2.707   2.976   0.403  1.7642  0.2180 -0.4118
  527MPD2     N 7884   3.043   2.723   0.592 -0.5702 -0.6211 -1.2690
  527MPD2    H5 7885   3.046   2.648   0.659  0.1364  0.0031 -0.6053
  527MPD2    N1 7886   2.620   2.747   0.783  0.0919 -0.1445 -0.0768
  527MPD2    H7 7887   2.669   2.700   0.858 -2.5306  0.3709  1.9805
  528TMC3    C1 7888   2.439   2.736   0.933 -0.8501 -0.5125 -0.0539
  528TMC3    C2 7889   2.503   2.622   0.987 -0.8211 -0.8908  0.1214
  528TMC3    C3 7890   2.434   2.564   1.087 -0.3226 -0.4386  0.6604
  528TMC3    C4 7891   2.321   2.789   0.979 -0.9265 -0.3339  0.4037
  528TMC3    C5 7892   2.256   2.716   1.071  0.0861  0.2331 -0.8449
  528TMC3    C6 7893   2.312   2.614   1.137  0.4346  0.4365 -0.1400
  528TMC3     C 7894   2.502   2.802   0.823  0.5548  0.1596  0.8512
  528TMC3     O 7895   2.428   2.875   0.756  0.4339 -0.1939  0.6536
  528TMC3     H 7896   2.592   2.571   0.952 -1.5331 -1.8004 -0.3345
  528TMC3    H1 7897   2.280   2.884   0.948  2.0990  0.7695 -0.1946
  528TMC3    H2 7898   2.266   2.548   1.209  0.7650 -0.3035 -0.5989
  528TMC3    C7 7899   2.156   2.790   1.143  0.1979 -0.0763 -0.1735
  528TMC3    C8 7900   2.482   2.432   1.121 -0.1405 -0.3188  0.0805
  528TMC3    O1 7901   2.085   2.869   1.082 -0.4062 -0.7547  0.2846
  528TMC3    O2 7902   2.528   2.370   1.029  0.2531 -0.0382  0.1464
  529MPD2     C 7903   4.672   1.107   1.094  0.1562 -0.4578  0.1835
  529MPD2    C1 7904   4.732   1.004   1.016  0.3388 -0.3841 -0.0588
  529MPD2    C2 7905   4.654   0.949   0.917 -0.6514 -0.1980 -0.3509
  529MPD2    C3 7906   4.530   0.989   0.887 -0.1441  0.6491  0.2282
  529MPD2    C4 7907   4.467   1.073   0.976 -0.0785 -1.0832 -0.2404
  529MPD2    C5 7908   4.538   1.141   1.075  0.3111  1.1533  0.0381
  529MPD2     H 7909   4.699   0.879   0.847 -2.2041 -2.1399  0.5961
  529MPD2    H1 7910   4.366   1.109   0.965 -0.4620 -2.0384  0.1596
  529MPD2    H2 7911   4.725   1.165   1.168  2.4035 -2.3409  0.0741
  529MPD2    H3 7912   4.501   1.230   1.125 -0.9709 -0.6834  2.3551
  529MPD2     N 7913   4.460   0.935   0.777 -0.2889  0.3512 -0.1714
  529MPD2    H5 7914   4.363   0.965   0.776 -0.2629  0.4440  0.1861
  529MPD2    N1 7915   0.138   0.975   1.025  0.1310  0.2362 -0.6658
  529MPD2    H7 7916   0.174   0.913   0.953  0.5393 -2.7622  2.1134
  530TMC3    C1 7917   0.359   0.958   1.119  0.2387  0.8064 -0.6365
  530TMC3    C2 7918   0.440   0.986   1.220  0.1614 -0.4253  0.6463
  530TMC3    C3 7919   0.574   0.956   1.213 -0.2166 -0.2242  0.0809
  530TMC3    C4 7920   0.391   0.891   1.002  0.7977 -0.5973  0.4572
  530TMC3    C5 7921   0.519   0.849   1.007  0.7745  0.4008 -0.1963
  530TMC3    C6 7922   0.611   0.885   1.103  0.6807 -0.1289  0.1616
  530TMC3     C 7923   0.225   1.003   1.129  0.4642  0.0498 -0.0235
  530TMC3     O 7924   0.204   1.057   1.237 -0.6628  0.0225 -0.2862
  530TMC3     H 7925   0.413   1.041   1.309  0.9923  2.8079 -1.0559
  530TMC3    H1 7926   0.329   0.861   0.919 -0.1986 -0.9328  1.3340
  530TMC3    H2 7927   0.714   0.852   1.102  0.8376  0.4480 -2.0790
  530TMC3    C7 7928   0.566   0.741   0.934 -0.4732  0.0596  0.9413
  530TMC3    C8 7929   0.673   1.003   1.313 -0.3029 -0.5955  0.2460
  530TMC3    O1 7930   0.686   0.742   0.898  0.8490 -0.5618  0.4350
  530TMC3    O2 7931   0.646   1.104   1.375 -0.5022  0.2550  0.1831
  531MPD2     C 7932   4.470   3.077  12.848  0.4915 -0.4760  0.1537
  531MPD2    C1 7933   4.434   3.139  12.962  0.1293  0.2641 -0.3915
  531MPD2    C2 7934   4.308   3.188  12.969  0.2192 -0.1663 -0.4874
  531MPD2    C3 7935   4.221   3.183  12.860  0.0159 -0.0824 -0.1613
  531MPD2    C4 7936   4.263   3.134  12.747  0.0928 -0.5326 -0.3889
  531MPD2    C5 7937   4.390   3.083  12.738 -0.0822 -0.6169 -0.1443
  531MPD2     H 7938   4.275   3.232  13.063  1.2119  0.6707 -0.5305
  531MPD2    H1 7939   4.208   3.145  12.654 -0.3820  2.1325  0.1943
  531MPD2    H2 7940   4.560   3.016  12.851  1.6869  1.2818 -0.2598
  531MPD2    H3 7941   4.433   3.040  12.647  2.1910 -0.8010  1.0145
  531MPD2     N 7942   4.082   3.220  12.870  0.6512 -0.5783 -0.7643
  531MPD2    H5 7943   4.018   3.203  12.792 -1.5138  3.8218  0.0315
  531MPD2    N1 7944   4.527   3.145  13.075 -0.2979 -0.2500 -0.8935
  531MPD2    H7 7945   4.615   3.096  13.062  0.5139  0.6265  1.4236
  532TMC3    C1 7946   4.611   3.201  13.300 -0.1362 -0.2629  0.1616
  532TMC3    C2 7947   4.590   3.299  13.390 -0.3023 -0.1667  0.1085
  532TMC3    C3 7948   4.586   3.270  13.520  0.0131 -0.0476  0.1181
  532TMC3    C4 7949   4.648   3.078  13.343 -0.0077  0.2813 -0.9858
  532TMC3    C5 7950   4.656   3.056  13.475 -0.2376 -0.0551 -0.1118
  532TMC3    C6 7951   4.619   3.147  13.564 -0.1443 -0.0829  0.2003
  532TMC3     C 7952   4.502   3.205  13.201 -0.3586  0.1957  0.1143
  532TMC3     O 7953   4.400   3.254  13.252 -0.5141  0.0770  1.0116
  532TMC3     H 7954   4.565   3.398  13.353  1.0118  0.3626  0.6463
  532TMC3    H1 7955   4.661   3.000  13.269  1.1597 -1.7283  1.3557
  532TMC3    H2 7956   4.604   3.129  13.670 -0.4687  0.6223  0.2688
  532TMC3    C7 7957   4.691   2.923  13.527  0.3630 -0.1882  0.1407
  532TMC3    C8 7958   4.470   3.324  13.600 -0.9318 -0.1351  0.3492
  532TMC3    O1 7959   4.676   2.912  13.647 -0.4394  0.3500  0.4983
  532TMC3    O2 7960   4.464   3.297  13.723 -0.1344  0.2899  0.2986
  533TMC3    C1 7961   0.056   0.068  14.388  0.9224  0.6027  0.9373
  533TMC3    C2 7962   0.184   0.104  14.414  0.1723 -0.4690 -0.0529
  533TMC3    C3 7963   0.201   0.240  14.432 -0.0240 -0.3943 -0.3562
  533TMC3    C4 7964   4.686   0.151  14.436  0.2455  0.6967  0.3319
  533TMC3    C5 7965   4.709   0.271  14.494  0.7724 -0.3159  0.3481
  533TMC3    C6 7966   0.106   0.319  14.483  0.3972 -0.2216  1.2632
  533TMC3     C 7967   0.034   4.663  14.401 -0.4157 -0.3635  0.2457
  533TMC3     O 7968   0.118   4.602  14.458 -0.6873 -0.4624  0.0837
  533TMC3     H 7969   0.264   0.035  14.390  0.9365 -0.0532  1.3004
  533TMC3    H1 7970   4.582   0.123  14.431  0.4140  0.3158 -0.8799
  533TMC3    H2 7971   0.130   0.417  14.521 -0.1354  0.3505  0.1497
  533TMC3    C7 7972   4.676   0.243  14.632  0.6409  0.7708  0.2875
  533TMC3    C8 7973   0.334   0.296  14.449  0.5060  0.3253  0.0087
  533TMC3    O1 7974   4.639   0.127  14.646 -0.0434 -0.2128 -0.3499
  533TMC3    O2 7975   0.421   0.216  14.476 -0.5336 -0.1726  0.0705
  534MPD2     C 7976   2.637   0.647   1.094 -0.2825 -0.8106  0.0215
  534MPD2    C1 7977   2.579   0.773   1.086  0.0339  0.7889 -0.1730
  534MPD2    C2 7978   2.438   0.783   1.076 -0.2191 -0.5003  0.2872
  534MPD2    C3 7979   2.371   0.662   1.057 -0.6159 -0.4503  0.1080
  534MPD2    C4 7980   2.433   0.541   1.054  0.3413 -0.0251 -1.3621
  534MPD2    C5 7981   2.564   0.531   1.078 -0.7376 -0.1292  1.0347
  534MPD2     H 7982   2.396   0.882   1.078 -2.0574 -1.2980  1.1909
  534MPD2    H1 7983   2.384   0.444   1.048  0.6141 -0.3349  1.2870
  534MPD2    H2 7984   2.736   0.618   1.125  0.1766 -1.6911 -2.2408
  534MPD2    H3 7985   2.606   0.434   1.101  2.0506  0.9629  0.5292
  534MPD2     N 7986   2.228   0.654   1.038  0.1361  0.3996  0.1180
  534MPD2    H5 7987   2.192   0.564   1.011 -1.2097  0.4640  1.7135
  534MPD2    N1 7988   2.656   0.892   1.107  0.1168 -0.3229 -0.1410
  534MPD2    H7 7989   2.608   0.980   1.122 -1.1910 -1.2398  1.0352
  535TMC3    C1 7990   2.002   0.720   1.010 -0.3144  0.6834  0.3133
  535TMC3    C2 7991   1.901   0.795   1.059  0.6325  1.1342  0.1022
  535TMC3    C3 7992   1.786   0.799   0.989  0.1769  0.8574  0.1772
  535TMC3    C4 7993   1.991   0.642   0.892  0.0695 -0.7087  0.3838
  535TMC3    C5 7994   1.874   0.656   0.829  1.3759 -0.6142  0.5475
  535TMC3    C6 7995   1.774   0.730   0.877  0.8559 -0.4181 -0.7169
  535TMC3     C 7996   2.134   0.754   1.054 -0.1614 -0.0260 -0.2786
  535TMC3     O 7997   2.145   0.867   1.101 -0.4228 -0.6551 -0.0977
  535TMC3     H 7998   1.897   0.842   1.157 -0.7141 -0.9142  1.0211
  535TMC3    H1 7999   2.069   0.580   0.849  1.1923  0.9246  0.0466
  535TMC3    H2 8000   1.681   0.733   0.822  0.2000 -1.1145  0.3509
  535TMC3    C7 8001   1.913   0.695   0.696  0.0114  0.3289 -0.3177
  535TMC3    C8 8002   1.668   0.856   1.041 -1.5271  0.7235  0.2817
  535TMC3    O1 8003   2.015   0.638   0.656  0.0229  0.4154 -0.0982
  535TMC3    O2 8004   1.571   0.784   1.015  0.8826  0.2074  0.3325
  536MPD2     C 8005   1.177   4.036  16.141 -0.1144 -0.2992 -0.2085
  536MPD2    C1 8006   1.044   4.032  16.169  0.1396 -0.0705 -0.3079
  536MPD2    C2 8007   0.950   4.073  16.073 -0.5290  0.0997 -0.2092
  536MPD2    C3 8008   0.986   4.090  15.944  0.0725  0.0014 -0.5090
  536MPD2    C4 8009   1.119   4.085  15.911 -0.0785  0.1911  0.6511
  536MPD2    C5 8010   1.210   4.069  16.009  0.5380 -0.1998  0.3368
  536MPD2     H 8011   0.843   4.078  16.093 -0.9539  0.6407 -2.6734
  536MPD2    H1 8012   1.155   4.100  15.810  0.7702 -0.7635  0.8166
  536MPD2    H2 8013   1.253   4.013  16.214 -0.7342 -0.8194  0.2816
  536MPD2    H3 8014   1.315   4.061  15.984  0.5820  1.6116 -0.0292
  536MPD2     N 8015   0.893   4.126  15.840  0.4679  0.3298  0.5658
  536MPD2    H5 8016   0.927   4.172  15.756  2.9536 -0.9791  0.8531
  536MPD2    N1 8017   1.006   3.987  16.299  0.4387 -0.6729  0.5536
  536MPD2    H7 8018   1.073   3.976  16.375 -0.0750 -0.1989  1.0783
  537TMC3    C1 8019   0.874   3.886  16.461  0.5250  0.4566 -0.4291
  537TMC3    C2 8020   0.910   3.972  16.556 -0.4213  0.4846 -0.8774
  537TMC3    C3 8021   0.867   3.947  16.679  0.1112 -0.2348 -0.2877
  537TMC3    C4 8022   0.780   3.790  16.483 -0.1705 -0.7563 -0.0372
  537TMC3    C5 8023   0.737   3.762  16.608 -0.2536 -0.1077  0.1322
  537TMC3    C6 8024   0.785   3.840  16.708  0.2846 -0.5929  0.1066
  537TMC3     C 8025   0.882   3.930  16.324  0.0058  0.4255  0.4930
  537TMC3     O 8026   0.781   3.905  16.261  0.0394 -0.4378  0.3473
  537TMC3     H 8027   0.981   4.054  16.545  0.0714  0.1652 -0.0187
  537TMC3    H1 8028   0.736   3.737  16.400  1.0130 -0.8188 -0.6259
  537TMC3    H2 8029   0.742   3.835  16.808  0.1380  0.9153  0.1272
  537TMC3    C7 8030   0.610   3.699  16.613 -1.0718  0.0052  0.3443
  537TMC3    C8 8031   0.898   4.048  16.782  0.6853 -0.0508 -1.0805
  537TMC3    O1 8032   0.545   3.691  16.510  0.0738  0.3213 -0.2717
  537TMC3    O2 8033   0.929   4.009  16.891 -0.1766 -0.3608 -0.0934
  538TMC3    C1 8034   2.561   2.821  11.078 -0.2870  0.0451  0.0270
  538TMC3    C2 8035   2.629   2.741  10.986  0.9713 -0.3540  0.3906
  538TMC3    C3 8036   2.579   2.756  10.861 -0.1959 -0.0391 -0.0101
  538TMC3    C4 8037   2.448   2.885  11.045 -0.1524  0.2174  0.3106
  538TMC3    C5 8038   2.403   2.894  10.917  0.3597 -0.0646  0.3517
  538TMC3    C6 8039   2.469   2.830  10.820 -0.2256 -1.4788 -0.0224
  538TMC3     C 8040   2.587   2.810  11.220 -0.4237 -0.5922 -0.3349
  538TMC3     O 8041   2.488   2.821  11.287  0.2758  0.0788  0.1627
  538TMC3     H 8042   2.723   2.692  11.007  2.8102  2.2376 -1.7063
  538TMC3    H1 8043   2.391   2.930  11.125 -0.3442  2.0458 -0.8591
  538TMC3    H2 8044   2.415   2.790  10.735 -0.8995 -2.0625  0.6783
  538TMC3    C7 8045   2.277   2.962  10.886 -0.4314  0.5931  0.4175
  538TMC3    C8 8046   2.662   2.717  10.749  0.3447  0.0196 -0.3739
  538TMC3    O1 8047   2.195   2.955  10.977 -0.3478 -0.6565  0.1303
  538TMC3    O2 8048   2.729   2.612  10.758 -0.3713 -0.5745  0.1138
  539MPD2     C 8049   2.451   2.362  11.213  0.0277 -0.2574  0.0379
  539MPD2    C1 8050   2.341   2.292  11.257 -1.3093  0.7552  0.5210
  539MPD2    C2 8051   2.216   2.354  11.254 -0.3298  0.4712  0.0169
  539MPD2    C3 8052   2.200   2.483  11.210 -0.4789 -0.0701 -0.8797
  539MPD2    C4 8053   2.311   2.540  11.156 -0.0135  0.0090  0.0160
  539MPD2    C5 8054   2.435   2.480  11.154  1.2546 -0.1918  0.2112
  539MPD2     H 8055   2.125   2.299  11.280 -0.4191  0.4275 -0.3986
  539MPD2    H1 8056   2.310   2.640  11.115 -1.8052  0.3225  0.8295
  539MPD2    H2 8057   2.552   2.322  11.214 -0.4904 -1.5625 -0.6560
  539MPD2    H3 8058   2.522   2.525  11.107  1.4991 -2.5842 -1.6033
  539MPD2     N 8059   2.094   2.561  11.231  0.5892 -0.2704  0.0101
  539MPD2    H5 8060   2.106   2.660  11.212 -1.8538  0.1821  0.8225
  539MPD2    N1 8061   2.354   2.159  11.316  0.0363 -0.1390  0.2471
  539MPD2    H7 8062   2.268   2.108  11.335 -0.7988  1.2067  0.1172
  540TMC3    C1 8063   1.892   2.634  11.307  0.0324 -0.3617 -0.5562
  540TMC3    C2 8064   1.872   2.707  11.194  0.8183 -0.4730  0.3127
  540TMC3    C3 8065   1.800   2.824  11.207 -0.3275 -0.2754  0.5457
  540TMC3    C4 8066   1.838   2.667  11.427 -0.7797  0.4303 -0.4626
  540TMC3    C5 8067   1.777   2.788  11.440  0.0392 -0.4037  0.0154
  540TMC3    C6 8068   1.753   2.867  11.333 -1.0656  0.9701  0.7330
  540TMC3     C 8069   1.982   2.521  11.304  0.4556 -0.2038  0.8895
  540TMC3     O 8070   1.954   2.426  11.376 -0.4769 -0.8283  0.0803
  540TMC3     H 8071   1.921   2.679  11.102 -1.0389 -4.2530  0.4646
  540TMC3    H1 8072   1.874   2.631  11.523  0.4109  0.6895 -0.8055
  540TMC3    H2 8073   1.695   2.959  11.334 -2.0857  0.3782 -1.5257
  540TMC3    C7 8074   1.688   2.802  11.559  1.1624 -0.0774 -0.3194
  540TMC3    C8 8075   1.708   2.845  11.097 -0.1623  0.0172 -0.5565
  540TMC3    O1 8076   1.674   2.697  11.616 -0.8750 -0.0871  0.1274
  540TMC3    O2 8077   1.609   2.913  11.121 -0.6531  0.3655  0.4952
  541MPD2     C 8078   0.558   2.942  13.511  0.3927 -0.1361  0.3490
  541MPD2    C1 8079   0.613   2.928  13.382  0.4718  0.1982 -0.0304
  541MPD2    C2 8080   0.663   3.041  13.316 -0.4468  0.6516 -1.1074
  541MPD2    C3 8081   0.652   3.164  13.374  0.0623  1.0891 -0.5350
  541MPD2    C4 8082   0.587   3.180  13.488  0.1220 -0.1135 -0.1789
  541MPD2    C5 8083   0.540   3.073  13.557 -0.7097 -0.3634  0.9447
  541MPD2     H 8084   0.709   3.029  13.219  2.4384 -4.2927  0.8814
  541MPD2    H1 8085   0.565   3.275  13.536 -0.5309 -1.0585  1.3635
  541MPD2    H2 8086   0.506   2.865  13.566  1.3702 -0.6338  0.5666
  541MPD2    H3 8087   0.482   3.082  13.648 -0.4161  0.7540  1.0251
  541MPD2     N 8088   0.703   3.280  13.311 -0.0684  0.2624  0.0427
  541MPD2    H5 8089   0.656   3.366  13.338 -1.7394 -0.2457 -1.2602
  541MPD2    N1 8090   0.633   2.793  13.338  0.3447  0.1861 -0.3842
  541MPD2    H7 8091   0.586   2.723  13.395  1.3246  1.7753  2.3796
  542TMC3    C1 8092   0.738   3.381  13.105 -0.3440 -0.5288  0.3209
  542TMC3    C2 8093   0.770   3.360  12.975  0.7732 -0.5413 -0.3730
  542TMC3    C3 8094   0.711   3.439  12.875  0.1075  0.4837  0.5477
  542TMC3    C4 8095   0.642   3.470  13.143  0.2054  0.1106  0.4550
  542TMC3    C5 8096   0.587   3.551  13.043  0.5588  0.0167 -0.1281
  542TMC3    C6 8097   0.617   3.534  12.911  0.2246 -0.1737  0.9872
  542TMC3     C 8098   0.779   3.275  13.197  0.7006 -0.3881  0.2330
  542TMC3     O 8099   0.867   3.199  13.162  0.4622  0.6487  0.0861
  542TMC3     H 8100   0.829   3.271  12.956  0.8983 -0.4096 -0.6059
  542TMC3    H1 8101   0.600   3.490  13.241  1.1233 -0.4459  0.9645
  542TMC3    H2 8102   0.558   3.583  12.836  4.0208 -0.2245 -2.0483
  542TMC3    C7 8103   0.499   3.652  13.088 -0.1780  0.9485 -0.3256
  542TMC3    C8 8104   0.725   3.397  12.731  0.0699 -0.4932 -0.5599
  542TMC3    O1 8105   0.459   3.660  13.203  0.3805  0.9762  0.5906
  542TMC3    O2 8106   0.654   3.450  12.651 -0.0173  0.5697 -0.0803
  543TMC3    C1 8107   0.061   0.172  17.445  0.7251 -0.3527  0.3249
  543TMC3    C2 8108   0.116   0.062  17.504  0.1819  0.5829 -0.5424
  543TMC3    C3 8109   0.068   0.029  17.633 -0.1538 -0.1621 -0.2086
  543TMC3    C4 8110   4.707   0.247  17.517  0.5914 -0.5626  0.6020
  543TMC3    C5 8111   4.667   0.214  17.643 -0.1004 -0.2974 -0.2038
  543TMC3    C6 8112   4.723   0.109  17.710  0.3682 -0.3153 -0.5222
  543TMC3     C 8113   0.070   0.181  17.301  0.3321 -0.0978 -0.1972
  543TMC3     O 8114   0.137   0.097  17.247 -0.3060  0.4081  0.1416
  543TMC3     H 8115   0.199   0.007  17.461  0.1546 -1.3997  1.9048
  543TMC3    H1 8116   4.657   0.327  17.463 -0.7984 -0.7487  1.5968
  543TMC3    H2 8117   4.713   0.093   0.089  0.4880  1.8113 -0.2037
  543TMC3    C7 8118   4.591   0.309   0.001  0.6175  0.0239 -0.2850
  543TMC3    C8 8119   0.108   4.625  17.676 -0.2410 -0.8445  0.0326
  543TMC3    O1 8120   4.541   0.263   0.105  0.1734  0.4190  0.3109
  543TMC3    O2 8121   0.190   4.561  17.604  0.2858 -0.1616  0.1642
  544MPD2     C 8122   4.716   4.180   0.185 -0.7356  0.2367 -0.1570
  544MPD2    C1 8123   0.064   4.204   0.074 -0.0765  0.5535  0.6920
  544MPD2    C2 8124   0.075   4.332   0.029  0.1685  0.3153 -0.0235
  544MPD2    C3 8125   0.019   4.442   0.096  0.5710  0.0668 -0.4546
  544MPD2    C4 8126   4.668   4.417   0.207 -0.0168 -0.2146 -1.1471
  544MPD2    C5 8127   4.648   4.281   0.245 -0.2384 -0.0494 -0.3572
  544MPD2     H 8128   0.144   4.358  17.677  1.0406  0.8441  0.9088
  544MPD2    H1 8129   4.629   4.497   0.269 -1.3029 -1.5468 -0.2262
  544MPD2    H2 8130   4.711   4.077   0.220 -3.3648  0.6890  0.7693
  544MPD2    H3 8131   4.599   4.262   0.340  0.6849 -0.7694 -0.0219
  544MPD2     N 8132   0.035   4.578   0.048  0.4647 -0.3402 -0.2792
  544MPD2    H5 8133   4.703   4.638   0.099  0.6686 -0.5601  0.2310
  544MPD2    N1 8134   0.126   4.098   0.008 -0.1107  0.5553 -0.0887
  544MPD2    H7 8135   0.111   4.003   0.040 -1.4935  0.5265 -0.8385
  545TMC3    C1 8136   0.185   3.982  17.532  0.7122  0.3074  0.4928
  545TMC3    C2 8137   0.176   3.989  17.394 -0.3576  0.1965 -0.1088
  545TMC3    C3 8138   0.168   3.875  17.318  0.3170 -0.6173 -0.6972
  545TMC3    C4 8139   0.159   3.863  17.591  0.5211  0.4683 -0.7649
  545TMC3    C5 8140   0.127   3.757  17.504 -0.3216 -0.0948 -0.2666
  545TMC3    C6 8141   0.140   3.751  17.363  0.0043 -0.4439  0.2986
  545TMC3     C 8142   0.162   4.110  17.602 -0.1171  0.7576 -0.8385
  545TMC3     O 8143   0.168   4.210  17.530  0.0254  0.2774  0.1458
  545TMC3     H 8144   0.191   4.081  17.339  0.2806  0.4707  0.5294
  545TMC3    H1 8145   0.150   3.857  17.699 -1.1443 -0.7964 -0.9833
  545TMC3    H2 8146   0.136   3.665  17.298  1.9479 -1.0947  1.0575
  545TMC3    C7 8147   0.111   3.630  17.574  0.5828 -0.1423 -0.0278
  545TMC3    C8 8148   0.161   3.890  17.173 -0.6769  0.2006 -0.0494
  545TMC3    O1 8149   0.164   3.625  17.683  0.1729 -0.3054 -0.8060
  545TMC3    O2 8150   0.218   3.982  17.120  0.3408 -0.3895  0.5327
  546MPD2     C 8151   1.477   4.545  17.504  0.0715 -0.6842  0.3222
  546MPD2    C1 8152   1.386   4.595  17.414 -0.8719  0.1668  0.0691
  546MPD2    C2 8153   1.403   4.720  17.357 -0.0094  0.1278 -0.2378
  546MPD2    C3 8154   1.513   0.067  17.398 -0.2489 -0.0884 -0.2144
  546MPD2    C4 8155   1.599   0.016  17.492  0.4279 -0.2989  0.0184
  546MPD2    C5 8156   1.588   4.622  17.544 -0.4471  0.1603  0.1918
  546MPD2     H 8157   1.342   0.027  17.276 -1.0330 -1.0096 -0.0101
  546MPD2    H1 8158   1.680   0.077  17.531 -0.4111  2.2652 -2.2145
  546MPD2    H2 8159   1.471   4.440  17.534 -1.6235 -0.2851  1.3761
  546MPD2    H3 8160   1.658   4.595  17.623  0.1881  0.1609 -0.3701
  546MPD2     N 8161   1.535   0.198  17.355  0.3010  0.4899 -0.4737
  546MPD2    H5 8162   1.621   0.241  17.388  0.6170 -0.7822  0.4074
  546MPD2    N1 8163   1.278   4.515  17.384 -0.0371  0.1117 -0.4633
  546MPD2    H7 8164   1.276   4.428  17.437  1.7070  0.6076  0.4241
  547TMC3    C1 8165   1.066   4.435  17.306 -0.0986  0.2424  0.4357
  547TMC3    C2 8166   0.973   4.429  17.208  0.5296  0.1665 -0.3377
  547TMC3    C3 8167   0.896   4.321  17.194  0.4526  0.1359  0.6590
  547TMC3    C4 8168   1.084   4.322  17.384 -0.0919  0.6146  0.0999
  547TMC3    C5 8169   1.012   4.210  17.361 -0.2506  0.4853 -0.1890
  547TMC3    C6 8170   0.915   4.203  17.269  0.3031  0.0380 -0.1205
  547TMC3     C 8171   1.159   4.544  17.319  0.5040  0.9686 -0.1718
  547TMC3     O 8172   1.116   4.646  17.275 -0.3444 -0.4749 -0.4012
  547TMC3     H 8173   0.963   4.513  17.141 -4.3017  0.8812  1.2848
  547TMC3    H1 8174   1.149   4.323  17.471 -1.1141  0.1907  0.8876
  547TMC3    H2 8175   0.848   4.119  17.258 -0.6288  0.8856 -0.9255
  547TMC3    C7 8176   1.035   4.100  17.457 -0.0743 -0.3335 -0.4833
  547TMC3    C8 8177   0.776   4.341  17.110 -0.7574  0.6009  0.1143
  547TMC3    O1 8178   1.062   4.125  17.573  0.0530  0.4699  0.5368
  547TMC3    O2 8179   0.747   4.455  17.087 -0.6733  0.6421 -0.6929
  548MPD2     C 8180   0.697   0.414  12.375  0.4330  0.3961 -0.6413
  548MPD2    C1 8181   0.651   0.286  12.416 -0.4329 -0.1143 -0.2827
  548MPD2    C2 8182   0.749   0.202  12.467 -0.1281 -0.3228  0.6892
  548MPD2    C3 8183   0.882   0.234  12.470 -0.6153  0.4358  0.0057
  548MPD2    C4 8184   0.921   0.350  12.408  0.4339  1.4788  0.0805
  548MPD2    C5 8185   0.829   0.442  12.367  0.0404 -0.6580 -0.1534
  548MPD2     H 8186   0.724   0.107  12.512 -0.3971 -0.7011 -0.2591
  548MPD2    H1 8187   1.027   0.366  12.392 -0.2341  2.9287 -2.7037
  548MPD2    H2 8188   0.629   0.491  12.340  1.4701  1.0086 -1.3020
  548MPD2    H3 8189   0.853   0.535  12.316 -0.7126 -0.1076  0.4981
  548MPD2     N 8190   0.966   0.148  12.535 -0.4146 -0.2910  0.0447
  548MPD2    H5 8191   0.921   0.058  12.547  0.0590 -0.5752 -0.2489
  548MPD2    N1 8192   0.517   0.254  12.411  0.6677  0.5094  0.5982
  548MPD2    H7 8193   0.452   0.331  12.407  0.8737  0.6378 -0.2543
  549TMC3    C1 8194   0.326   0.105  12.410  0.2985  0.7243  0.1567
  549TMC3    C2 8195   0.240   0.207  12.432 -0.1684 -0.5181  0.0400
  549TMC3    C3 8196   0.102   0.185  12.424  0.6140 -0.1309  0.0642
  549TMC3    C4 8197   0.282   4.708  12.398  0.1595 -0.8396  0.8926
  549TMC3    C5 8198   0.149   4.687  12.389 -0.8580  0.5272 -0.1698
  549TMC3    C6 8199   0.053   0.059  12.390 -0.4168  0.3812  0.1392
  549TMC3     C 8200   0.472   0.124  12.418  0.4937 -0.0556 -0.8242
  549TMC3     O 8201   0.534   0.026  12.384  0.0256  0.0778  0.3194
  549TMC3     H 8202   0.275   0.309  12.422 -0.0058 -0.7501 -1.7676
  549TMC3    H1 8203   0.358   4.636  12.370 -0.2816 -0.8496 -0.3058
  549TMC3    H2 8204   4.682   0.034  12.370 -0.5390 -0.3981  1.6964
  549TMC3    C7 8205   0.109   4.567  12.315  0.5276  0.4499  0.1417
  549TMC3    C8 8206   0.010   0.300  12.432  0.3267 -0.0731  0.2693
  549TMC3    O1 8207   0.062   4.576  12.205 -0.5033 -0.3295  0.1917
  549TMC3    O2 8208   4.630   0.295  12.379 -0.4004  0.0963  0.0777
  550TMC3    C1 8209   0.071   3.388  12.587  0.7338 -0.6139 -0.0998
  550TMC3    C2 8210   4.689   3.426  12.661 -0.0184 -0.5232  0.6230
  550TMC3    C3 8211   4.658   3.561  12.668  0.6662 -0.1301 -0.1751
  550TMC3    C4 8212   0.140   3.485  12.512  0.1443 -0.1785 -0.3275
  550TMC3    C5 8213   0.089   3.608  12.499  0.2423  0.0322  0.1530
  550TMC3    C6 8214   4.716   3.646  12.577  0.0157 -0.2466  0.8717
  550TMC3     C 8215   0.051   3.261  12.527  0.0806 -0.3515  0.3336
  550TMC3     O 8216   0.002   3.170  12.598 -0.5637  0.1611 -0.8705
  550TMC3     H 8217   4.647   3.349  12.725  3.8428 -2.6959  0.5544
  550TMC3    H1 8218   0.217   3.451  12.445  1.7763 -2.2215  2.6210
  550TMC3    H2 8219   4.697   3.752  12.579  2.6342  0.2136  0.5512
  550TMC3    C7 8220   0.088   3.653  12.361  0.3018 -0.8139  0.4999
  550TMC3    C8 8221   4.523   3.603  12.720 -0.2077 -0.6513 -0.9742
  550TMC3    O1 8222   0.176   3.605  12.289  0.7009  0.2807 -0.4560
  550TMC3    O2 8223   4.480   3.700  12.660 -0.2029 -0.2933 -0.4983
  551TMC3    C1 8224   2.082   1.038  13.354 -0.9421  0.1045 -0.0002
  551TMC3    C2 8225   2.201   1.067  13.283 -0.1958 -0.1699 -0.8839
  551TMC3    C3 8226   2.307   1.117  13.353 -0.3985  0.2536 -0.2436
  551TMC3    C4 8227   2.070   1.076  13.485  0.2521 -0.1395 -0.2532
  551TMC3    C5 8228   2.180   1.135  13.547  0.7714 -0.6624 -0.3426
  551TMC3    C6 8229   2.302   1.162  13.486  0.0846  0.4972 -0.2875
  551TMC3     C 8230   1.957   1.037  13.281 -0.1255 -0.0107 -0.3026
  551TMC3     O 8231   1.864   0.985  13.344  0.0449  0.6906 -0.4413
  551TMC3     H 8232   2.207   1.025  13.183 -0.4218 -2.0783 -0.1019
  551TMC3    H1 8233   1.978   1.067  13.541  1.4253  2.4490  2.1057
  551TMC3    H2 8234   2.395   1.197  13.527  0.4896  1.0993 -1.7285
  551TMC3    C7 8235   2.139   1.205  13.661  0.0350  0.2639 -0.0394
  551TMC3    C8 8236   2.425   1.146  13.272 -0.7273 -0.2199  0.0102
  551TMC3    O1 8237   2.022   1.233  13.677 -0.9584 -0.5707 -0.3599
  551TMC3    O2 8238   2.454   1.068  13.184 -0.2665 -0.5922 -0.2015
  552MPD2     C 8239   4.018   2.685  13.946 -0.8556 -0.2826 -0.6702
  552MPD2    C1 8240   4.157   2.696  13.930 -0.1334 -0.1936  0.4985
  552MPD2    C2 8241   4.224   2.791  14.002  0.3273 -0.5396 -0.3427
  552MPD2    C3 8242   4.164   2.882  14.086  0.3537 -0.3504 -0.2964
  552MPD2    C4 8243   4.028   2.871  14.107 -0.2164  0.4412  0.4972
  552MPD2    C5 8244   3.958   2.770  14.043 -0.1892  0.1880  0.0791
  552MPD2     H 8245   4.331   2.794  13.985  0.4644  0.7343  0.7288
  552MPD2    H1 8246   3.972   2.940  14.168 -2.0058  0.3226 -0.9889
  552MPD2    H2 8247   3.959   2.611  13.894 -2.2583  0.6787 -0.4802
  552MPD2    H3 8248   3.849   2.776  14.050 -0.2419 -1.8990  1.0255
  552MPD2     N 8249   4.231   2.990  14.142 -0.5066  0.2327  0.5351
  552MPD2    H5 8250   4.181   3.044  14.212  0.7903  0.8606  0.9778
  552MPD2    N1 8251   4.229   2.609  13.843  0.4374  0.2037 -0.0279
  552MPD2    H7 8252   4.324   2.640  13.825 -0.1869  1.5960 -0.9246
  553TMC3    C1 8253   4.272   2.447  13.685 -0.1382  0.2036  0.4889
  553TMC3    C2 8254   4.243   2.402  13.563 -0.1604  0.6503 -0.7041
  553TMC3    C3 8255   4.348   2.340  13.490  0.2891  0.1836  0.9309
  553TMC3    C4 8256   4.392   2.434  13.743 -0.5538  0.9086 -0.0990
  553TMC3    C5 8257   4.481   2.344  13.683  1.1515  0.0674 -0.5451
  553TMC3    C6 8258   4.462   2.299  13.553 -0.3631 -0.1359 -0.3785
  553TMC3     C 8259   4.175   2.519  13.755  0.3521  0.7769  0.4643
  553TMC3     O 8260   4.055   2.484  13.740 -0.5992 -0.1891  0.6072
  553TMC3     H 8261   4.155   2.441  13.514 -1.3153 -3.0451 -1.5147
  553TMC3    H1 8262   4.423   2.470  13.840 -2.3510  0.8454  0.5031
  553TMC3    H2 8263   4.538   2.245  13.497  0.4960  0.8621 -0.1657
  553TMC3    C7 8264   4.564   2.270  13.770  0.2301 -1.2694  0.1972
  553TMC3    C8 8265   4.345   2.324  13.346 -0.2973 -0.2255 -0.2787
  553TMC3    O1 8266   4.572   2.306  13.885 -0.6662 -0.4051 -0.2197
  553TMC3    O2 8267   4.448   2.307  13.283  0.0400  0.1409  0.5544
  554TMC3    C1 8268   1.326   2.274  11.592  0.1847  0.5090  0.4207
  554TMC3    C2 8269   1.304   2.195  11.488  0.0137  0.3850 -0.3110
  554TMC3    C3 8270   1.330   2.234  11.359  0.9778 -0.1382 -0.5915
  554TMC3    C4 8271   1.377   2.399  11.572  0.7669 -0.0917 -0.5268
  554TMC3    C5 8272   1.399   2.442  11.444  0.1217 -0.4626  0.4908
  554TMC3    C6 8273   1.378   2.354  11.339  0.9120 -0.0878 -0.0576
  554TMC3     C 8274   1.319   2.229  11.731 -0.3009  0.3320  0.4806
  554TMC3     O 8275   1.373   2.299  11.814  0.3520 -0.4632 -0.4566
  554TMC3     H 8276   1.269   2.095  11.512  1.6511 -0.3210 -0.8735
  554TMC3    H1 8277   1.377   2.468  11.655  0.9425 -1.7143  0.8203
  554TMC3    H2 8278   1.382   2.392  11.238  3.4953 -0.3442 -0.0298
  554TMC3    C7 8279   1.409   2.588  11.412 -0.2343 -1.1954 -0.4992
  554TMC3    C8 8280   1.252   2.184  11.250 -0.1978  0.3975  0.3656
  554TMC3    O1 8281   1.401   2.603  11.291  0.2688 -0.4526  0.4700
  554TMC3    O2 8282   1.257   2.241  11.140 -0.0050 -0.6570  0.2054
  555TMC3    C1 8283   0.074   1.469  14.765  0.6846  0.2632 -0.2147
  555TMC3    C2 8284   0.013   1.565  14.841  0.3567  0.3792 -0.1034
  555TMC3    C3 8285   0.007   1.541  14.973  0.2984 -0.9270  0.5141
  555TMC3    C4 8286   0.122   1.351  14.820  0.2401  0.0104  0.0327
  555TMC3    C5 8287   0.119   1.336  14.958  0.7013 -0.0302  0.0967
  555TMC3    C6 8288   0.052   1.426  15.037  0.1112  0.5369 -0.0361
  555TMC3     C 8289   0.079   1.493  14.627  0.2657  0.0645 -0.1309
  555TMC3     O 8290   0.174   1.463  14.557 -0.2779 -0.5477  0.1681
  555TMC3     H 8291   4.712   1.656  14.790 -0.8431 -0.5728 -1.0319
  555TMC3    H1 8292   0.154   1.277  14.748  0.7204 -1.1246  1.4213
  555TMC3    H2 8293   0.057   1.417  15.145  1.3426  0.0857 -0.1306
  555TMC3    C7 8294   0.139   1.210  15.029 -0.4196  0.4842  0.2397
  555TMC3    C8 8295   4.660   1.622  15.059 -0.4154 -0.3658  0.3065
  555TMC3    O1 8296   0.085   1.199  15.139 -0.3452  0.0853 -0.7092
  555TMC3    O2 8297   4.640   1.573  15.171 -0.1797  0.5628  0.0005
  556MPD2     C 8298   3.154   3.831  10.520  0.0456  0.5682 -0.4215
  556MPD2    C1 8299   3.062   3.741  10.567 -0.3261  0.0601  0.1647
  556MPD2    C2 8300   2.995   3.657  10.484 -0.8390 -0.0017 -0.4949
  556MPD2    C3 8301   3.019   3.668  10.350  0.4121 -0.3150 -0.7501
  556MPD2    C4 8302   3.105   3.762  10.301  0.0797  1.0914  0.0244
  556MPD2    C5 8303   3.165   3.837  10.386 -0.2963 -0.3450 -0.2227
  556MPD2     H 8304   2.929   3.580  10.522  1.7718 -2.3281 -0.6772
  556MPD2    H1 8305   3.104   3.795  10.198 -0.0612 -2.4986 -1.1420
  556MPD2    H2 8306   3.191   3.918  10.571 -0.3828  0.9166 -0.7049
  556MPD2    H3 8307   3.238   3.910  10.354 -1.3476  0.8147 -0.0107
  556MPD2     N 8308   2.962   3.567  10.272 -0.1644  0.0192  0.3561
  556MPD2    H5 8309   2.907   3.501  10.326 -1.8265  0.0922 -1.2363
  556MPD2    N1 8310   3.030   3.729  10.704 -0.1331 -0.6491  0.3262
  556MPD2    H7 8311   2.961   3.660  10.731 -2.0013  0.5533 -1.4347
  557TMC3    C1 8312   2.904   3.423  10.092  0.8534 -0.7683 -0.0448
  557TMC3    C2 8313   2.886   3.401   9.957 -0.1006  0.9075  0.5670
  557TMC3    C3 8314   2.822   3.288   9.914  0.8040  0.9435  0.4101
  557TMC3    C4 8315   2.852   3.337  10.185 -0.2395 -0.0794 -0.3250
  557TMC3    C5 8316   2.800   3.221  10.137 -0.5133 -0.6660  0.1436
  557TMC3    C6 8317   2.785   3.192  10.002  0.8122 -0.0153  0.1503
  557TMC3     C 8318   2.977   3.539  10.135 -0.8797 -0.0136 -0.2212
  557TMC3     O 8319   3.021   3.618  10.059 -0.4317 -0.2598 -0.2181
  557TMC3     H 8320   2.928   3.476   9.892 -0.7219  1.8616  1.2794
  557TMC3    H1 8321   2.868   3.340  10.292  0.7802  4.2445 -0.5903
  557TMC3    H2 8322   2.743   3.098   9.967 -0.1533  0.5405 -0.1690
  557TMC3    C7 8323   2.747   3.122  10.233  0.2461  0.0399 -0.1225
  557TMC3    C8 8324   2.826   3.265   9.771  0.1823  0.3101 -0.2808
  557TMC3    O1 8325   2.716   3.161  10.344  0.3845  0.2822 -0.1020
  557TMC3    O2 8326   2.828   3.365   9.700  0.0394 -0.4517 -0.0352
  558TMC3    C1 8327   0.447   1.052  10.276  0.2635  0.2587  0.0122
  558TMC3    C2 8328   0.320   1.015  10.308  0.3386  0.0802 -0.2955
  558TMC3    C3 8329   0.226   1.053  10.222  0.6769  0.1823  0.1956
  558TMC3    C4 8330   0.475   1.141  10.175 -0.4982  0.0164  0.3809
  558TMC3    C5 8331   0.372   1.188  10.095  0.6036 -0.0489  0.2263
  558TMC3    C6 8332   0.243   1.143  10.122  0.3029  0.0503  0.3761
  558TMC3     C 8333   0.549   1.061  10.392  0.2250  0.2535 -0.2528
  558TMC3     O 8334   0.661   1.108  10.375 -0.3078 -0.1233  0.0086
  558TMC3     H 8335   0.294   0.948  10.390 -1.0922 -0.4402 -1.1811
  558TMC3    H1 8336   0.577   1.176  10.171 -0.5360  0.1756  0.7588
  558TMC3    H2 8337   0.158   1.169  10.061  0.1760  0.6149  0.7920
  558TMC3    C7 8338   0.395   1.294  10.001  0.3545  0.7346 -0.0702
  558TMC3    C8 8339   0.100   1.082  10.293 -0.3267 -0.1105  0.4601
  558TMC3    O1 8340   0.293   1.357   9.968  0.0817  0.1439  0.5186
  558TMC3    O2 8341   0.022   0.988  10.287  0.2110 -0.9436 -0.0074
  559MPD2     C 8342   0.667   2.215  10.288  0.6505  0.1547  0.7449
  559MPD2    C1 8343   0.635   2.105  10.366  0.1504 -0.2449  0.3616
  559MPD2    C2 8344   0.730   2.062  10.463  0.0722 -0.5950 -0.6922
  559MPD2    C3 8345   0.853   2.124  10.470  0.1589  0.1514 -0.6468
  559MPD2    C4 8346   0.876   2.239  10.401  0.0753 -0.2077  0.6926
  559MPD2    C5 8347   0.782   2.280  10.307  0.2107 -0.7717  0.2563
  559MPD2     H 8348   0.710   1.982  10.533  1.5450 -1.5588 -1.3795
  559MPD2    H1 8349   0.969   2.295  10.409  0.8693 -1.0534 -2.9485
  559MPD2    H2 8350   0.606   2.253  10.207  0.2129  0.0947  1.0414
  559MPD2    H3 8351   0.795   2.368  10.244  0.9153 -0.5382  0.7278
  559MPD2     N 8352   0.943   2.074  10.556 -0.2040  0.0720 -0.0506
  559MPD2    H5 8353   0.910   1.993  10.606 -0.0577  1.6990  2.7059
  559MPD2    N1 8354   0.507   2.043  10.352 -0.4438 -0.4033  0.0249
  559MPD2    H7 8355   0.437   2.088  10.294 -3.0822 -2.3217  1.7572
  560TMC3    C1 8356   1.108   2.064  10.732 -0.4472 -0.0940  1.0239
  560TMC3    C2 8357   1.033   1.954  10.784 -0.4361 -0.3390 -0.2364
  560TMC3    C3 8358   1.103   1.879  10.882  0.4532  0.5076  0.1172
  560TMC3    C4 8359   1.229   2.101  10.784  0.3243  0.0555  0.1901
  560TMC3    C5 8360   1.291   2.025  10.881  0.3843  0.1421 -0.2283
  560TMC3    C6 8361   1.237   1.895  10.911  0.1665  0.4533 -0.2646
  560TMC3     C 8362   1.052   2.139  10.616 -0.0266 -0.1487  0.1305
  560TMC3     O 8363   1.083   2.259  10.599 -0.7522 -0.3307  0.5342
  560TMC3     H 8364   0.930   1.935  10.754 -0.4298  1.3350 -1.3207
  560TMC3    H1 8365   1.267   2.198  10.753  2.5750 -0.7934  0.3253
  560TMC3    H2 8366   1.279   1.822  10.979  1.7880  1.7078  0.0724
  560TMC3    C7 8367   1.436   2.050  10.903  1.4241  0.2960 -0.4657
  560TMC3    C8 8368   1.025   1.777  10.948 -0.3127 -0.4769  0.0512
  560TMC3    O1 8369   1.478   2.141  10.831 -0.0229 -0.2657  0.0976
  560TMC3    O2 8370   0.927   1.741  10.885 -0.1237 -0.0918 -0.1534
  561TMC3    C1 8371   3.154   1.115  11.162  0.1405  0.1624  1.1028
  561TMC3    C2 8372   3.101   1.005  11.231 -0.1701 -0.5402  0.2243
  561TMC3    C3 8373   3.132   0.989  11.370 -0.2223  0.1121 -0.6017
  561TMC3    C4 8374   3.229   1.204  11.233  0.2812  0.0036  0.5047
  561TMC3    C5 8375   3.266   1.180  11.364 -0.3619  0.0173 -0.1156
  561TMC3    C6 8376   3.218   1.070  11.434  0.1046 -0.3370  0.0879
  561TMC3     C 8377   3.095   1.138  11.030  0.5291  0.3545  0.5659
  561TMC3     O 8378   3.040   1.039  10.989 -0.2233  0.3082  0.2588
  561TMC3     H 8379   3.053   0.923  11.179  0.6925 -1.8747  1.5264
  561TMC3    H1 8380   3.269   1.290  11.180  1.7983 -1.0804 -0.1358
  561TMC3    H2 8381   3.246   1.054  11.538  0.1542 -1.0607 -0.0346
  561TMC3    C7 8382   3.305   1.295  11.441 -0.1906  0.4013  0.1239
  561TMC3    C8 8383   3.047   0.895  11.439 -0.2488  0.8032 -0.5745
  561TMC3    O1 8384   3.253   1.305  11.551 -0.2417  0.3752  0.2280
  561TMC3    O2 8385   2.993   0.808  11.376  0.2710  0.1100  0.1705
  562TMC3    C1 8386   0.526   2.037  14.965 -0.2918  0.3104  0.0692
  562TMC3    C2 8387   0.522   2.160  15.022 -0.4232 -1.2294 -1.3234
  562TMC3    C3 8388   0.550   2.270  14.942  0.0159  0.4965  0.0455
  562TMC3    C4 8389   0.562   2.020  14.840  0.8780 -0.1599  0.2781
  562TMC3    C5 8390   0.585   2.126  14.764  0.7026  1.3115  0.8377
  562TMC3    C6 8391   0.585   2.256  14.811  0.2179 -0.5088 -0.2822
  562TMC3     C 8392   0.476   1.924  15.043 -0.5341  0.0042  0.1654
  562TMC3     O 8393   0.505   1.813  15.003 -0.0644 -1.0379 -0.1299
  562TMC3     H 8394   0.502   2.172  15.128  0.2160  0.9942 -1.4638
  562TMC3    H1 8395   0.571   1.918  14.804  0.5789  0.2636 -1.0049
  562TMC3    H2 8396   0.625   2.342  14.759  0.9019 -2.1039 -2.3857
  562TMC3    C7 8397   0.582   2.099  14.618  0.5092 -0.4581 -0.0246
  562TMC3    C8 8398   0.536   2.402  15.006 -0.1913  0.1824  0.5206
  562TMC3    O1 8399   0.596   1.984  14.580  0.4260  0.0567  0.0560
  562TMC3    O2 8400   0.604   2.493  14.962  0.0530  0.0389 -0.1732
  563MPD2     C 8401   2.250   3.512  15.787 -0.5450  0.5418 -0.5898
  563MPD2    C1 8402   2.287   3.501  15.917  0.5999 -0.5120  0.6590
  563MPD2    C2 8403   2.420   3.470  15.947 -0.4757  0.0012  0.2248
  563MPD2    C3 8404   2.502   3.432  15.841  0.2809  0.2930  0.7084
  563MPD2    C4 8405   2.457   3.418  15.715 -0.1081 -0.5696  0.6337
  563MPD2    C5 8406   2.331   3.463  15.687  0.5417 -0.7821  0.0353
  563MPD2     H 8407   2.464   3.469  16.046 -0.1651  1.2142  0.0945
  563MPD2    H1 8408   2.517   3.401  15.627  0.1020 -1.3774  0.9344
  563MPD2    H2 8409   2.152   3.547  15.756 -0.2769  2.0361  0.2646
  563MPD2    H3 8410   2.299   3.461  15.584 -1.5544  1.1876  0.6741
  563MPD2     N 8411   2.634   3.400  15.882 -0.0618 -0.6416 -0.5701
  563MPD2    H5 8412   2.658   3.418  15.979 -0.8550  0.1793 -0.5284
  563MPD2    N1 8413   2.193   3.528  16.010 -0.1333  0.0648  0.3332
  563MPD2    H7 8414   2.102   3.549  15.971  0.2394  1.3664  0.1823
  564TMC3    C1 8415   2.092   3.526  16.231 -0.3059  0.1671 -0.6167
  564TMC3    C2 8416   1.978   3.472  16.179  0.3679  0.5263  0.5602
  564TMC3    C3 8417   1.895   3.425  16.276 -0.4782 -0.1857 -0.2366
  564TMC3    C4 8418   2.117   3.531  16.363  0.2597 -0.0263  0.0048
  564TMC3    C5 8419   2.032   3.472  16.448 -0.1677 -1.0199  0.0016
  564TMC3    C6 8420   1.913   3.430  16.411 -0.1591 -0.2849  1.0242
  564TMC3     C 8421   2.212   3.550  16.146 -0.0012  0.5481 -0.2175
  564TMC3     O 8422   2.319   3.555  16.206 -0.1553  0.0861 -0.4965
  564TMC3     H 8423   1.956   3.461  16.073  0.7178 -2.4074  0.7863
  564TMC3    H1 8424   2.212   3.576  16.391 -1.0437  2.5494  0.2495
  564TMC3    H2 8425   1.844   3.406  16.491 -1.1995  1.1324  0.5668
  564TMC3    C7 8426   2.101   3.362  16.506  0.8941  0.3655  0.1203
  564TMC3    C8 8427   1.800   3.326  16.245 -1.0817 -0.1050  0.2022
  564TMC3    O1 8428   2.223   3.380  16.503  0.1983 -0.0522 -0.5799
  564TMC3    O2 8429   1.728   3.284  16.332  0.8278  0.4093  0.3147
  565TMC3    C1 8430   2.802   3.892  10.022 -0.0578  0.9156 -0.1397
  565TMC3    C2 8431   2.818   3.935  10.154 -0.5211 -0.0028  0.0641
  565TMC3    C3 8432   2.757   3.858  10.249  0.2423 -0.1441 -0.0414
  565TMC3    C4 8433   2.741   3.780   9.984  0.2456 -0.9022  0.2785
  565TMC3    C5 8434   2.679   3.714  10.092 -0.3851  0.4934 -0.2623
  565TMC3    C6 8435   2.676   3.749  10.221 -0.5330 -0.1631  0.2184
  565TMC3     C 8436   2.850   3.984   9.919  0.2395 -0.2220 -0.1637
  565TMC3     O 8437   2.899   4.089   9.953  0.3038 -0.1169  0.7068
  565TMC3     H 8438   2.866   4.031  10.172 -0.5957 -0.0563  0.5657
  565TMC3    H1 8439   2.753   3.742   9.883 -0.8975  0.1960 -0.2659
  565TMC3    H2 8440   2.646   3.672  10.291 -1.0719 -0.4177 -0.2934
  565TMC3    C7 8441   2.601   3.596  10.072  0.1012 -0.4535  0.7917
  565TMC3    C8 8442   2.764   3.898  10.387  0.5754  0.0694 -0.2188
  565TMC3    O1 8443   2.611   3.513  10.156  0.0428 -0.2016 -0.2454
  565TMC3    O2 8444   2.696   3.834  10.465  0.3829  0.0912 -0.3532
  566MPD2     C 8445   3.918   1.039  14.408  0.0354  0.2672  0.5838
  566MPD2    C1 8446   3.936   1.120  14.300 -0.5998  0.6064 -0.0354
  566MPD2    C2 8447   3.831   1.135  14.211 -0.8069  0.1608  0.1405
  566MPD2    C3 8448   3.722   1.060  14.215 -0.7272 -0.6723 -0.2440
  566MPD2    C4 8449   3.703   0.975  14.320 -0.0606  0.4662 -0.3874
  566MPD2    C5 8450   3.798   0.972  14.422  0.3196 -0.0233  0.4172
  566MPD2     H 8451   3.847   1.197  14.124 -1.1514  0.0686  0.0134
  566MPD2    H1 8452   3.607   0.925  14.331  0.0656  0.8554  2.4627
  566MPD2    H2 8453   3.989   1.031  14.489 -0.5347 -1.0009  0.9538
  566MPD2    H3 8454   3.775   0.929  14.519 -1.9654 -1.3340 -0.6983
  566MPD2     N 8455   3.629   1.084  14.112 -0.3729  0.2639 -0.2867
  566MPD2    H5 8456   3.662   1.152  14.045  0.5367  0.4312  0.3327
  566MPD2    N1 8457   4.066   1.190  14.289  0.3690  0.3395  0.2899
  566MPD2    H7 8458   4.132   1.153  14.357  1.0472  0.1103 -0.4986
  567TMC3    C1 8459   4.242   1.295  14.174  0.2805 -0.0380 -0.1918
  567TMC3    C2 8460   4.280   1.360  14.053  0.4023 -0.0202 -0.2343
  567TMC3    C3 8461   4.411   1.360  14.023 -0.1152  0.3295  1.3462
  567TMC3    C4 8462   4.335   1.231  14.250 -0.3249  1.4029 -0.5886
  567TMC3    C5 8463   4.468   1.237  14.218 -0.1987 -0.1931  0.0070
  567TMC3    C6 8464   4.504   1.289  14.096 -0.5052  0.4014 -0.5272
  567TMC3     C 8465   4.101   1.271  14.185 -0.3315  0.3434  0.3160
  567TMC3     O 8466   4.028   1.321  14.101 -0.4056  0.4141 -0.3532
  567TMC3     H 8467   4.212   1.412  13.987  1.1558  1.1896 -0.0622
  567TMC3    H1 8468   4.309   1.162  14.329  1.1333  0.7534 -0.6755
  567TMC3    H2 8469   4.611   1.291  14.080 -0.4116  3.1064  0.3183
  567TMC3    C7 8470   4.576   1.212  14.317 -0.2055  0.2320 -0.2499
  567TMC3    C8 8471   4.439   1.427  13.899  0.0460 -0.1788  0.7211
  567TMC3    O1 8472   4.680   1.161  14.280 -0.2652 -0.1852  0.2418
  567TMC3    O2 8473   4.366   1.523  13.874 -0.0139  0.0172  0.5573
  568MPD2     C 8474   1.431   1.821  16.473 -0.5886 -0.7503  0.0268
  568MPD2    C1 8475   1.481   1.882  16.587 -0.4348  0.1041  0.7828
  568MPD2    C2 8476   1.509   2.015  16.572  0.0925  0.2598  0.3215
  568MPD2    C3 8477   1.476   2.086  16.458 -0.2935  0.2133 -0.7318
  568MPD2    C4 8478   1.416   2.025  16.352  0.4714  0.2408 -0.1905
  568MPD2    C5 8479   1.394   1.892  16.358 -0.2711 -0.6871 -0.1327
  568MPD2     H 8480   1.546   2.075  16.654  2.6778  0.5472 -1.0472
  568MPD2    H1 8481   1.383   2.072  16.260 -0.0734 -1.8886 -1.0938
  568MPD2    H2 8482   1.408   1.715  16.465 -2.9661 -0.1683 -0.9454
  568MPD2    H3 8483   1.364   1.842  16.267 -0.2698 -1.4825  0.3063
  568MPD2     N 8484   1.506   2.222  16.457  0.2994 -0.1301  0.1172
  568MPD2    H5 8485   1.521   2.265  16.548  2.8670 -1.3946  0.3066
  568MPD2    N1 8486   1.517   1.812  16.702  0.0940 -0.4815 -0.7561
  568MPD2    H7 8487   1.490   1.714  16.703  0.2498 -0.5257 -0.9561
  569TMC3    C1 8488   1.503   2.435  16.358 -0.3640 -0.3982 -0.2818
  569TMC3    C2 8489   1.456   2.484  16.474  0.3665  0.3051  0.0116
  569TMC3    C3 8490   1.442   2.616  16.473 -0.1741 -0.1250 -0.5633
  569TMC3    C4 8491   1.526   2.518  16.245  0.0223  0.2958 -0.5267
  569TMC3    C5 8492   1.505   2.651  16.257 -0.2634 -0.2059  0.6572
  569TMC3    C6 8493   1.470   2.702  16.376  0.2933 -0.3354  0.3525
  569TMC3     C 8494   1.512   2.292  16.340 -0.0312  0.2127  0.2470
  569TMC3     O 8495   1.534   2.252  16.228  0.6152  0.0014 -0.5746
  569TMC3     H 8496   1.399   2.429  16.549  0.9195 -0.1020  0.1309
  569TMC3    H1 8497   1.570   2.477  16.155  0.8706 -1.9938  0.9260
  569TMC3    H2 8498   1.454   2.809  16.380  0.7193 -0.2190 -0.9049
  569TMC3    C7 8499   1.549   2.734  16.145  0.1952 -0.1771 -0.3332
  569TMC3    C8 8500   1.466   2.682  16.602 -0.0659 -0.2161 -0.1053
  569TMC3    O1 8501   1.571   2.683  16.035 -0.0805 -0.0999  0.2410
  569TMC3    O2 8502   1.376   2.761  16.634  0.5953  0.2883 -0.4280
  570TMC3    C1 8503   1.363   0.749  16.288 -1.0896 -0.3989  0.2451
  570TMC3    C2 8504   1.462   0.774  16.203 -0.2469 -0.3059 -0.3298
  570TMC3    C3 8505   1.488   0.896  16.150  0.2313  0.0534  0.0007
  570TMC3    C4 8506   1.287   0.850  16.322  0.2097  0.2343  0.1850
  570TMC3    C5 8507   1.307   0.976  16.264 -0.5041 -0.2089 -0.0066
  570TMC3    C6 8508   1.406   1.005  16.178  0.6945 -0.1300  0.3600
  570TMC3     C 8509   1.339   0.614  16.330  0.2846  0.3632  0.0799
  570TMC3     O 8510   1.396   0.529  16.260  0.3688  0.5619 -0.3178
  570TMC3     H 8511   1.524   0.690  16.174  0.0827  0.6098 -2.3249
  570TMC3    H1 8512   1.198   0.828  16.380 -1.6119 -0.4200 -2.8785
  570TMC3    H2 8513   1.411   1.102  16.130  1.9984 -0.2378  0.2659
  570TMC3    C7 8514   1.237   1.083  16.326  0.1231  0.6557 -0.0593
  570TMC3    C8 8515   1.618   0.933  16.102 -0.1445 -0.1570  0.2892
  570TMC3    O1 8516   1.227   1.095  16.446  0.2424 -0.4347  0.3218
  570TMC3    O2 8517   1.657   1.046  16.115 -0.0730  0.5612  0.2628
  571MPD2     C 8518   4.043   2.697   0.035 -0.0836 -0.3433  0.7332
  571MPD2    C1 8519   4.034   2.647   0.163  0.2981  0.1061 -0.2555
  571MPD2    C2 8520   4.023   2.735   0.271 -0.3974  0.2453 -0.2195
  571MPD2    C3 8521   4.027   2.870   0.246  0.4155  0.4002 -0.2095
  571MPD2    C4 8522   4.052   2.914   0.117 -0.2734 -0.5307 -0.4607
  571MPD2    C5 8523   4.062   2.829   0.013 -0.3949  0.2800  0.1236
  571MPD2     H 8524   4.007   2.698   0.372 -0.9614  0.3476 -0.2723
  571MPD2    H1 8525   4.062   3.020   0.097  1.7132 -0.3725  1.2515
  571MPD2    H2 8526   4.021   2.639  17.674 -1.4437  0.1941  0.7159
  571MPD2    H3 8527   4.093   2.861  17.642  1.3386 -0.4583  0.4286
  571MPD2     N 8528   4.005   2.968   0.345 -0.1743  0.1917 -0.2370
  571MPD2    H5 8529   4.022   3.066   0.321  1.2184  0.5360  2.1899
  571MPD2    N1 8530   4.014   2.503   0.177  0.4038 -0.0925 -0.5227
  571MPD2    H7 8531   4.016   2.437   0.101  0.6328 -1.4212  0.6299
  572TMC3    C1 8532   4.008   3.054   0.566 -0.1669  0.4208 -0.0465
  572TMC3    C2 8533   3.965   3.045   0.696 -0.0408 -0.9334 -0.2600
  572TMC3    C3 8534   4.026   3.128   0.778  0.5394  0.6099  0.4259
  572TMC3    C4 8535   4.111   3.133   0.527 -0.2558  0.4487 -0.4600
  572TMC3    C5 8536   4.158   3.223   0.619  0.2197 -0.8356 -0.0486
  572TMC3    C6 8537   4.114   3.220   0.745  0.1252  0.9513  0.1200
  572TMC3     C 8538   3.974   2.942   0.471  0.4298  0.1705  0.3131
  572TMC3     O 8539   3.921   2.843   0.519 -0.6596  0.7714 -0.6834
  572TMC3     H 8540   3.925   2.950   0.729 -0.1928 -0.0379  2.0827
  572TMC3    H1 8541   4.159   3.127   0.430  0.0624 -0.6106 -0.2450
  572TMC3    H2 8542   4.152   3.288   0.821  0.5531 -0.6198  1.3129
  572TMC3    C7 8543   4.213   3.337   0.555 -0.4536 -0.4586  0.2826
  572TMC3    C8 8544   4.027   3.095   0.919 -0.0939  0.1278  0.2166
  572TMC3    O1 8545   4.175   3.362   0.441 -0.9177  0.1341  0.0122
  572TMC3    O2 8546   4.125   3.104   0.988  0.3524  0.5650  0.2867
  573MPD2     C 8547   0.514   2.820   1.018  0.1601 -0.0179 -0.0329
  573MPD2    C1 8548   0.439   2.921   0.970 -0.0669 -0.2091 -0.1011
  573MPD2    C2 8549   0.391   2.913   0.844 -0.1389 -0.4512 -0.2482
  573MPD2    C3 8550   0.423   2.807   0.754 -0.5828  0.1490  0.1083
  573MPD2    C4 8551   0.506   2.707   0.805 -0.4890 -0.3922  0.4407
  573MPD2    C5 8552   0.544   2.715   0.936  0.1434 -0.4664 -0.3807
  573MPD2     H 8553   0.339   2.999   0.803  0.6928 -0.0316 -0.4295
  573MPD2    H1 8554   0.559   2.633   0.746  0.1333 -2.3380  3.4188
  573MPD2    H2 8555   0.542   2.814   1.122  2.3143 -0.7498 -0.6637
  573MPD2    H3 8556   0.616   2.645   0.976 -0.7344  0.0791  2.1480
  573MPD2     N 8557   0.392   2.799   0.618 -0.7349 -0.5650 -0.6230
  573MPD2    H5 8558   0.457   2.737   0.570 -1.4580 -0.7580 -1.3495
  573MPD2    N1 8559   0.417   3.052   1.032 -0.0127  0.1697  0.2103
  573MPD2    H7 8560   0.364   3.118   0.975 -0.4939 -0.6669 -0.3091
  574TMC3    C1 8561   0.299   2.894   0.416 -0.1436 -0.1613  0.2835
  574TMC3    C2 8562   0.194   2.957   0.351  0.1119 -0.0782  0.1010
  574TMC3    C3 8563   0.228   3.044   0.254  0.3770 -0.2210 -0.3649
  574TMC3    C4 8564   0.423   2.894   0.360  0.0994 -0.0063 -0.0761
  574TMC3    C5 8565   0.457   2.976   0.259  0.4157  0.1170 -0.5229
  574TMC3    C6 8566   0.353   3.050   0.198  0.3329 -0.8014 -0.1406
  574TMC3     C 8567   0.287   2.862   0.561  0.7098 -0.4929  0.1597
  574TMC3     O 8568   0.199   2.917   0.626  0.2047 -0.2353 -0.1434
  574TMC3     H 8569   0.094   2.958   0.394 -0.0519 -0.9587 -0.2824
  574TMC3    H1 8570   0.501   2.827   0.393 -0.1151 -0.8943 -1.3557
  574TMC3    H2 8571   0.374   3.108   0.109  0.2605 -2.9842 -1.6022
  574TMC3    C7 8572   0.579   2.952   0.178  0.0082 -0.2935  0.1615
  574TMC3    C8 8573   0.120   3.073   0.169  0.2325 -0.8736  0.1309
  574TMC3    O1 8574   0.616   2.838   0.164 -0.4736  0.0958 -0.2676
  574TMC3    O2 8575   0.030   2.990   0.166 -0.4070 -0.2328 -0.0439
  575TMC3    C1 8576   2.688   4.082  11.298  0.0093 -0.2337  0.0281
  575TMC3    C2 8577   2.605   3.982  11.342 -0.2752  1.0766  0.1650
  575TMC3    C3 8578   2.582   3.871  11.259 -0.3471 -0.7897 -0.4836
  575TMC3    C4 8579   2.743   4.072  11.171 -0.7201 -0.6163 -0.1347
  575TMC3    C5 8580   2.705   3.968  11.089 -0.1279 -0.2940  0.1530
  575TMC3    C6 8581   2.624   3.869  11.132 -0.5898 -0.0260  0.0633
  575TMC3     C 8582   2.718   4.180  11.393  0.0628 -0.5125  0.0727
  575TMC3     O 8583   2.665   4.168  11.503  0.3730 -0.4411  0.3060
  575TMC3     H 8584   2.586   3.970  11.448 -0.5918 -1.9597 -0.2436
  575TMC3    H1 8585   2.799   4.156  11.132 -1.2375 -0.4773 -0.5692
  575TMC3    H2 8586   2.599   3.798  11.053  0.6640 -0.4425  0.0399
  575TMC3    C7 8587   2.750   3.963  10.944 -0.1988  0.6924 -0.1946
  575TMC3    C8 8588   2.508   3.754  11.305  0.3792 -0.5930  0.3448
  575TMC3    O1 8589   2.711   3.865  10.881 -0.0491  0.6032  0.5197
  575TMC3    O2 8590   2.520   3.665  11.226 -0.4937 -0.3492 -0.1671
  576MPD2     C 8591   2.345   1.098  12.734  0.2896 -0.2795 -0.0824
  576MPD2    C1 8592   2.391   1.220  12.684  1.7636  0.8063 -0.3022
  576MPD2    C2 8593   2.375   1.338  12.757 -0.1956  0.3965  0.2577
  576MPD2    C3 8594   2.312   1.330  12.883  0.0892 -0.2572 -0.1051
  576MPD2    C4 8595   2.284   1.205  12.937 -0.2365  0.6257 -0.0362
  576MPD2    C5 8596   2.288   1.091  12.863  0.1109 -0.6160  0.5437
  576MPD2     H 8597   2.405   1.433  12.715 -2.0411  0.9613  0.2184
  576MPD2    H1 8598   2.229   1.202  13.030 -1.0894  2.1796 -0.4887
  576MPD2    H2 8599   2.354   1.004  12.681  2.2486  1.9144 -3.5736
  576MPD2    H3 8600   2.254   0.993  12.893 -1.1949 -0.3901 -0.2144
  576MPD2     N 8601   2.291   1.450  12.958 -0.2327 -0.2853  0.6752
  576MPD2    H5 8602   2.333   1.537  12.927 -1.6293 -0.1188 -0.7416
  576MPD2    N1 8603   2.457   1.234  12.556  0.3355 -0.2716 -0.0024
  576MPD2    H7 8604   2.488   1.328  12.532 -2.9417  1.1025  1.0675
  577TMC3    C1 8605   2.538   1.175  12.340  0.5274 -0.7650 -0.2845
  577TMC3    C2 8606   2.555   1.079  12.247  0.2122 -0.7468 -0.3785
  577TMC3    C3 8607   2.629   1.104  12.136  0.2625 -0.1990  0.6301
  577TMC3    C4 8608   2.604   1.296  12.333  0.0633 -0.0142 -0.4637
  577TMC3    C5 8609   2.671   1.318  12.218  0.6742 -0.1921  0.4609
  577TMC3    C6 8610   2.695   1.219  12.119 -0.1368  0.6387  0.0937
  577TMC3     C 8611   2.472   1.133  12.465 -0.5799  0.1776  0.4615
  577TMC3     O 8612   2.434   1.020  12.467  0.6644 -0.2806  0.2188
  577TMC3     H 8613   2.517   0.979  12.262 -2.4016  0.5673  1.8071
  577TMC3    H1 8614   2.590   1.372  12.409 -0.1700 -0.4242 -0.0957
  577TMC3    H2 8615   2.758   1.247  12.036  2.9310 -0.4976  2.0257
  577TMC3    C7 8616   2.720   1.454  12.185 -0.7123  0.3500 -0.1137
  577TMC3    C8 8617   2.632   0.999  12.037  0.0491  0.6556  0.0835
  577TMC3    O1 8618   2.783   1.530  12.266  0.0854 -0.1045 -0.0942
  577TMC3    O2 8619   2.544   0.912  12.048 -0.0360  0.0754 -0.0535
  578MPD2     C 8620   0.143   1.301   0.849  0.4299  0.2827 -0.2849
  578MPD2    C1 8621   0.192   1.215   0.751 -0.2801 -1.3401 -0.4396
  578MPD2    C2 8622   0.330   1.176   0.776  0.1385  0.7243 -0.2843
  578MPD2    C3 8623   0.402   1.216   0.887  0.6204  0.1434 -0.4370
  578MPD2    C4 8624   0.339   1.298   0.981  0.1972  0.3917 -0.4173
  578MPD2    C5 8625   0.211   1.338   0.961  0.7393  0.1088  0.1581
  578MPD2     H 8626   0.379   1.134   0.689 -0.3790  1.0152 -0.7160
  578MPD2    H1 8627   0.396   1.327   1.068  2.4378  2.6005 -2.6051
  578MPD2    H2 8628   0.036   1.315   0.854  0.4391  0.0957  0.5086
  578MPD2    H3 8629   0.164   1.385   1.046  1.4948 -1.2416  1.3107
  578MPD2     N 8630   0.542   1.180   0.884  0.2380  0.1507  0.0037
  578MPD2    H5 8631   0.568   1.108   0.817 -0.6032 -0.2305  0.0826
  578MPD2    N1 8632   0.112   1.165   0.641  0.5743  0.2811 -0.5899
  578MPD2    H7 8633   0.014   1.190   0.635  0.7296  0.4755 -2.5507
  579TMC3    C1 8634   0.767   1.170   0.951 -0.3977 -0.3955 -1.1764
  579TMC3    C2 8635   0.864   1.185   1.046  0.1500  0.3259  0.0057
  579TMC3    C3 8636   0.987   1.131   1.024 -0.6058 -0.2598  0.4032
  579TMC3    C4 8637   0.782   1.091   0.842  0.1420 -0.1439  0.5841
  579TMC3    C5 8638   0.905   1.030   0.827 -0.0523 -0.2952  0.2048
  579TMC3    C6 8639   1.012   1.057   0.910  0.0223 -0.5604  0.9160
  579TMC3     C 8640   0.638   1.223   0.980  0.6152  0.1294 -0.9734
  579TMC3     O 8641   0.628   1.302   1.072  0.4575 -0.1194  0.0580
  579TMC3     H 8642   0.858   1.239   1.140  0.9094  0.2919  0.0710
  579TMC3    H1 8643   0.706   1.071   0.768  1.5042 -0.9606 -0.5866
  579TMC3    H2 8644   1.101   1.007   0.876 -1.0237 -1.0711 -1.0911
  579TMC3    C7 8645   0.933   0.950   0.706 -0.7174 -0.1437 -0.2610
  579TMC3    C8 8646   1.102   1.189   1.098  0.1141  0.2095 -0.4895
  579TMC3    O1 8647   1.043   0.974   0.655  0.5203 -0.7037 -0.0488
  579TMC3    O2 8648   1.090   1.287   1.172 -0.3141 -0.9836 -0.0150
  580TMC3    C1 8649   0.626   0.196  12.019 -0.6269  0.4723 -0.2655
  580TMC3    C2 8650   0.730   0.266  11.974  0.6332 -0.4748 -0.2507
  580TMC3    C3 8651   0.849   0.208  11.951  0.3336 -0.4824  0.3858
  580TMC3    C4 8652   0.630   0.058  12.027 -0.2175 -0.4318  0.5569
  580TMC3    C5 8653   0.749   0.002  11.995  0.2294 -0.0185 -0.0181
  580TMC3    C6 8654   0.857   0.070  11.946  0.4010  0.9559 -0.1518
  580TMC3     C 8655   0.491   0.269  12.022 -0.1486  0.3319 -0.0604
  580TMC3     O 8656   0.502   0.387  11.989 -0.2216 -0.5696  0.1490
  580TMC3     H 8657   0.717   0.368  11.942 -2.4952 -1.6297 -2.6308
  580TMC3    H1 8658   0.548   4.726  12.057 -0.6371  0.8911  2.2327
  580TMC3    H2 8659   0.958   0.031  11.949 -0.5567 -1.5469  0.1025
  580TMC3    C7 8660   0.762   4.594  12.026  0.1963  0.0687 -0.6072
  580TMC3    C8 8661   0.954   0.289  11.910 -0.7328  0.7634  0.2951
  580TMC3    O1 8662   0.678   4.551  12.099  0.1392 -0.3387  0.0193
  580TMC3    O2 8663   1.047   0.254  11.838  0.3529  0.1317 -0.2126
  581MPD2     C 8664   2.971   4.615  14.662  0.2352  0.1444 -0.1183
  581MPD2    C1 8665   2.963   4.662  14.792  0.6191 -0.6860  0.2606
  581MPD2    C2 8666   2.844   4.720  14.838  0.0917  0.6738  0.1541
  581MPD2    C3 8667   2.732   4.725  14.755  0.4208  0.2564 -0.8118
  581MPD2    C4 8668   2.745   4.681  14.623 -0.5131 -0.9416 -0.3879
  581MPD2    C5 8669   2.865   4.629  14.580  0.6482 -0.1685  0.0472
  581MPD2     H 8670   2.822   0.010  14.942  1.9715 -2.7204  1.2561
  581MPD2    H1 8671   2.662   4.698  14.555 -1.2008 -0.1534  0.6438
  581MPD2    H2 8672   3.067   4.577  14.628 -0.2484  0.7210 -2.1343
  581MPD2    H3 8673   2.877   4.610  14.474 -0.8253  2.4951 -0.6084
  581MPD2     N 8674   2.615   0.054  14.810  0.2743  0.8619 -0.1640
  581MPD2    H5 8675   2.627   0.088  14.905 -0.6859 -1.2421  0.7097
  581MPD2    N1 8676   3.071   4.629  14.876  0.6649 -0.1612  0.2876
  581MPD2    H7 8677   3.152   4.585  14.834  1.2001  0.7018  0.4128
  582TMC3    C1 8678   3.169   4.588  15.086  0.4674  0.4615  0.2900
  582TMC3    C2 8679   3.238   4.649  15.189  0.0079 -0.9075  0.6493
  582TMC3    C3 8680   3.306   4.568  15.269  0.2758  0.0269 -0.6607
  582TMC3    C4 8681   3.153   4.454  15.065 -0.3957 -0.1736  0.9746
  582TMC3    C5 8682   3.207   4.373  15.158 -0.4365  0.5835  0.0358
  582TMC3    C6 8683   3.293   4.432  15.257  0.3328 -0.0985  0.1845
  582TMC3     C 8684   3.084   4.674  15.006  0.3842 -0.1497  0.5378
  582TMC3     O 8685   3.071   0.059  15.048 -0.2623 -0.1353  0.5431
  582TMC3     H 8686   3.254   0.024  15.187 -0.8182 -0.8268 -1.5137
  582TMC3    H1 8687   3.069   4.419  15.006  0.2161 -0.5627  0.3400
  582TMC3    H2 8688   3.344   4.359  15.319 -0.0808 -0.8532 -0.3579
  582TMC3    C7 8689   3.110   4.295  15.231 -0.2228 -0.1261  0.2082
  582TMC3    C8 8690   3.364   4.615  15.392 -0.3767 -0.8960 -0.0360
  582TMC3    O1 8691   3.041   4.219  15.167  0.4472 -0.3880  0.3014
  582TMC3    O2 8692   3.316   4.719  15.438 -0.3993  0.4361 -0.2742
  583MPD2     C 8693   3.228   1.342  16.828  0.3435  0.4950  0.0170
  583MPD2    C1 8694   3.246   1.474  16.798 -0.5299 -0.6489  0.0093
  583MPD2    C2 8695   3.153   1.568  16.842  0.1506  0.2963 -0.3652
  583MPD2    C3 8696   3.056   1.528  16.935 -0.3816  0.0085  0.2353
  583MPD2    C4 8697   3.054   1.393  16.972 -0.7043  0.2867  0.1908
  583MPD2    C5 8698   3.143   1.305  16.924  0.2864 -0.0708 -0.1853
  583MPD2     H 8699   3.173   1.674  16.827  2.1551 -0.1719 -1.0097
  583MPD2    H1 8700   2.987   1.361  17.050 -1.2355  2.4818  0.6517
  583MPD2    H2 8701   3.295   1.260  16.804  0.3231  0.4915 -0.0277
  583MPD2    H3 8702   3.133   1.202  16.957 -1.2949 -0.1250 -0.8265
  583MPD2     N 8703   2.954   1.625  16.964  0.4938 -0.5322 -0.1688
  583MPD2    H5 8704   2.959   1.719  16.926  0.2260 -0.1905  0.6288
  583MPD2    N1 8705   3.358   1.524  16.725 -0.4001 -0.2545 -0.5118
  583MPD2    H7 8706   3.354   1.613  16.677  0.0903  0.8744  1.5198
  584TMC3    C1 8707   2.780   1.710  17.104 -0.0181 -0.3850 -0.1563
  584TMC3    C2 8708   2.825   1.835  17.070 -0.1607 -0.2648  0.0236
  584TMC3    C3 8709   2.818   1.931  17.172  0.3423 -0.9447 -0.4172
  584TMC3    C4 8710   2.710   1.687  17.220 -0.5662 -0.1467 -0.6584
  584TMC3    C5 8711   2.701   1.792  17.323  0.6156 -0.5854 -0.3241
  584TMC3    C6 8712   2.771   1.911  17.299 -0.2705 -0.3805  0.7752
  584TMC3     C 8713   2.852   1.595  17.053 -0.7424  0.6614 -0.2928
  584TMC3     O 8714   2.811   1.483  17.076 -0.6299 -0.2472  0.3407
  584TMC3     H 8715   2.857   1.863  16.970  0.6371  1.2055  0.6918
  584TMC3    H1 8716   2.674   1.586  17.235 -0.7996  0.3236  1.9087
  584TMC3    H2 8717   2.749   1.991  17.369  0.2876  0.3831  0.0773
  584TMC3    C7 8718   2.644   1.763  17.454  0.1983  0.1776  0.1684
  584TMC3    C8 8719   2.834   2.068  17.120 -0.4016  0.8169 -0.5244
  584TMC3    O1 8720   2.669   1.847  17.548 -0.0091  0.2102  0.5426
  584TMC3    O2 8721   2.807   2.094  17.001  0.0057 -0.1810  0.0818
  585MPD2     C 8722   2.398   0.381   0.377  0.4977  0.1628 -0.0886
  585MPD2    C1 8723   2.457   0.478   0.300  0.0952  0.6848 -0.4709
  585MPD2    C2 8724   2.459   0.472   0.165  0.7882 -0.5584  0.1281
  585MPD2    C3 8725   2.402   0.368   0.103 -0.4891  0.4409 -0.1583
  585MPD2    C4 8726   2.346   0.269   0.185 -0.3595 -0.2336  0.0700
  585MPD2    C5 8727   2.340   0.268   0.322  0.1912  0.2815 -0.0914
  585MPD2     H 8728   2.496   0.556   0.108 -0.2468 -0.8756 -1.0059
  585MPD2    H1 8729   2.301   0.179   0.145 -0.5756  0.1040 -0.4615
  585MPD2    H2 8730   2.403   0.385   0.485  0.4836 -0.0836 -0.0780
  585MPD2    H3 8731   2.298   0.202   0.397 -0.7644  0.3910 -0.5364
  585MPD2     N 8732   2.401   0.344  17.692 -0.0491  0.5007 -0.0019
  585MPD2    H5 8733   2.347   0.264  17.660  0.6343  0.1006 -0.1485
  585MPD2    N1 8734   2.508   0.588   0.375  0.3538  0.9778 -0.1357
  585MPD2    H7 8735   2.491   0.589   0.475  0.3782  1.0723 -0.1318
  586TMC3    C1 8736   2.430   0.365  17.456  0.2867  0.1608  0.1922
  586TMC3    C2 8737   2.523   0.366  17.356  0.6434 -0.5782  0.2552
  586TMC3    C3 8738   2.482   0.351  17.225  0.3326  0.1363  0.5676
  586TMC3    C4 8739   2.301   0.335  17.437  0.0442  0.3755  1.2584
  586TMC3    C5 8740   2.263   0.320  17.304 -0.0288 -0.3198  0.7082
  586TMC3    C6 8741   2.349   0.332  17.199 -0.3753  0.2683  0.3951
  586TMC3     C 8742   2.464   0.416  17.591 -0.6438 -0.5535 -0.2647
  586TMC3     O 8743   2.543   0.509  17.599  0.0483  0.5715  0.4402
  586TMC3     H 8744   2.624   0.394  17.381  1.1560 -1.7988 -0.4664
  586TMC3    H1 8745   2.221   0.333  17.510 -1.4592  1.8109 -0.3700
  586TMC3    H2 8746   2.323   0.326  17.094 -0.1449  0.0507  0.3519
  586TMC3    C7 8747   2.165   0.221  17.280  0.9873 -0.5341  0.2114
  586TMC3    C8 8748   2.550   0.247  17.163  0.0024 -0.7097  0.0958
  586TMC3    O1 8749   2.061   0.227  17.342  0.0181  0.3925 -0.0662
  586TMC3    O2 8750   2.479   0.147  17.157 -0.3203 -0.3982  0.5309
  587TMC3    C1 8751   4.597   4.175  16.318 -0.5018  0.1572  0.1484
  587TMC3    C2 8752   4.723   4.204  16.358 -0.9869 -0.2764 -0.1436
  587TMC3    C3 8753   0.046   4.327  16.348 -0.0978 -0.5445  0.2271
  587TMC3    C4 8754   4.518   4.259  16.248 -0.2564  0.1948  0.5064
  587TMC3    C5 8755   4.581   4.378  16.215 -0.2443 -0.1809 -0.4150
  587TMC3    C6 8756   4.708   4.411  16.267  0.1049 -0.1149  0.2193
  587TMC3     C 8757   4.541   4.050  16.366  0.7099 -0.0761  0.8899
  587TMC3     O 8758   4.616   3.957  16.391 -0.5185  0.2853 -0.4862
  587TMC3     H 8759   0.041   4.137  16.427  0.0177 -0.7493 -1.3189
  587TMC3    H1 8760   4.414   4.252  16.221  0.1552 -0.0206 -1.0342
  587TMC3    H2 8761   0.012   4.512  16.247 -0.4757  0.6052  2.7961
  587TMC3    C7 8762   4.504   4.479  16.144  0.0979  0.1145  0.3062
  587TMC3    C8 8763   0.096   4.379  16.479  0.0978 -0.4604  0.1395
  587TMC3    O1 8764   4.383   4.481  16.163 -0.1030  0.1998  0.1160
  587TMC3    O2 8765   0.176   4.308  16.545 -0.2889  0.0825 -0.6520
  588TMC3    C1 8766   2.124   1.408  10.136  0.7912 -0.5564 -0.6768
  588TMC3    C2 8767   2.037   1.358  10.228  0.0167 -0.1142 -0.1182
  588TMC3    C3 8768   2.082   1.320  10.355 -0.1808  0.5500 -0.2403
  588TMC3    C4 8769   2.259   1.405  10.158  0.4444 -0.3913  0.7255
  588TMC3    C5 8770   2.300   1.378  10.285  0.0335 -0.2270  0.4573
  588TMC3    C6 8771   2.212   1.333  10.384 -0.6960  0.4473 -0.3746
  588TMC3     C 8772   2.083   1.520  10.052  0.3577 -0.1349 -0.0344
  588TMC3     O 8773   2.173   1.586  10.004  0.0090  0.2291  0.4676
  588TMC3     H 8774   1.933   1.335  10.209  0.3882 -2.3014  0.4798
  588TMC3    H1 8775   2.329   1.433  10.080  1.0867 -0.6856  1.1955
  588TMC3    H2 8776   2.251   1.342  10.485  0.6134  0.1998 -0.8510
  588TMC3    C7 8777   2.388   1.480  10.337 -0.3402  0.2791 -0.1477
  588TMC3    C8 8778   1.992   1.277  10.458  0.2609 -0.4268 -0.2021
  588TMC3    O1 8779   2.419   1.479  10.457  0.4725  0.5491 -0.3315
  588TMC3    O2 8780   1.875   1.301  10.443  0.5100 -0.1985 -0.1958
  589TMC3    C1 8781   1.162   3.741   0.896 -0.4515 -0.0164 -0.0399
  589TMC3    C2 8782   1.238   3.791   0.990 -0.0644  0.9469  0.7377
  589TMC3    C3 8783   1.365   3.749   0.991 -0.1701 -0.0653 -1.0686
  589TMC3    C4 8784   1.207   3.642   0.809  0.1537  0.0131  0.7298
  589TMC3    C5 8785   1.334   3.596   0.818  0.6060 -0.3373  0.3162
  589TMC3    C6 8786   1.417   3.655   0.909  0.2797 -1.0189  0.0228
  589TMC3     C 8787   1.049   3.827   0.857 -0.1867  0.5979  0.2619
  589TMC3     O 8788   1.024   3.849   0.736  0.2423  0.1967  0.5705
  589TMC3     H 8789   1.207   3.884   1.037 -0.9629  0.2202  1.5919
  589TMC3    H1 8790   1.137   3.598   0.738 -0.1765  0.6671  0.6530
  589TMC3    H2 8791   1.519   3.620   0.923  0.4535 -0.5626 -0.0955
  589TMC3    C7 8792   1.374   3.485   0.738 -0.7284  0.6886  0.0524
  589TMC3    C8 8793   1.450   3.821   1.090  0.3274 -0.4317 -1.0894
  589TMC3    O1 8794   1.285   3.413   0.699 -0.1736  0.5512 -1.0831
  589TMC3    O2 8795   1.384   3.868   1.185  0.0974  0.2693  0.1097
  590MPD2     C 8796   0.526   2.072  17.059  0.9412  0.1053  0.1604
  590MPD2    C1 8797   0.466   2.117  16.945 -0.3260 -0.1901 -0.5681
  590MPD2    C2 8798   0.545   2.186  16.854 -0.6261 -0.6149  0.1994
  590MPD2    C3 8799   0.680   2.214  16.874 -0.0693  0.0508  0.0948
  590MPD2    C4 8800   0.741   2.158  16.981 -1.1054 -0.2282 -0.1398
  590MPD2    C5 8801   0.658   2.093  17.072 -0.3706  0.1052 -0.4520
  590MPD2     H 8802   0.501   2.239  16.771  1.7805  0.4992 -0.3715
  590MPD2    H1 8803   0.846   2.172  17.005 -0.8458 -2.1136 -0.2308
  590MPD2    H2 8804   0.478   2.012  17.135  1.2197 -0.8692 -0.4308
  590MPD2    H3 8805   0.709   2.050  17.158 -1.0695 -0.0878 -0.1314
  590MPD2     N 8806   0.748   2.297  16.780 -0.4384  0.2050  0.4828
  590MPD2    H5 8807   0.694   2.343  16.707  1.0042  0.4438 -0.4299
  590MPD2    N1 8808   0.325   2.096  16.925  0.5231 -0.3399 -0.2220
  590MPD2    H7 8809   0.271   2.085  17.010  1.5732 -0.4793  0.4290
  591TMC3    C1 8810   0.930   2.407  16.683 -0.5337 -0.4419  0.2229
  591TMC3    C2 8811   1.021   2.376  16.592 -0.3706 -0.3131 -0.3017
  591TMC3    C3 8812   1.038   2.457  16.482 -0.3602  0.1368 -0.0003
  591TMC3    C4 8813   0.850   2.519  16.678 -0.0776 -0.6202 -0.2273
  591TMC3    C5 8814   0.868   2.598  16.571  0.2698 -0.2481 -0.5535
  591TMC3    C6 8815   0.960   2.570  16.471  0.3696  0.0701 -0.1743
  591TMC3     C 8816   0.889   2.300  16.773  0.1708  0.2272 -0.2560
  591TMC3     O 8817   0.980   2.230  16.816 -0.0800  0.7941  0.3062
  591TMC3     H 8818   1.078   2.285  16.605  0.3738  0.0972 -0.6953
  591TMC3    H1 8819   0.782   2.546  16.758 -1.4023 -2.0034 -0.8792
  591TMC3    H2 8820   0.966   2.639  16.388  2.2325  0.3579  0.1954
  591TMC3    C7 8821   0.782   2.714  16.554  0.0921  0.1212 -0.0935
  591TMC3    C8 8822   1.118   2.415  16.378 -0.2397  0.0809 -0.3152
  591TMC3    O1 8823   0.675   2.713  16.611 -0.3190 -0.5461 -0.0299
  591TMC3    O2 8824   1.185   2.311  16.379  0.3979 -0.3299 -0.7708
  592MPD2     C 8825   1.675   4.418  12.003  0.0846  0.2771  0.1073
  592MPD2    C1 8826   1.637   4.412  12.134 -0.2339 -0.4895  0.3735
  592MPD2    C2 8827   1.567   4.303  12.188 -0.1701  0.3872  0.4430
  592MPD2    C3 8828   1.543   4.192  12.098  0.3281 -0.9697 -0.3801
  592MPD2    C4 8829   1.593   4.194  11.971 -0.5115 -0.0798  0.2232
  592MPD2    C5 8830   1.653   4.309  11.930  0.0533  0.2815 -0.1512
  592MPD2     H 8831   1.531   4.299  12.290  3.0456  0.9940  1.5892
  592MPD2    H1 8832   1.593   4.108  11.904 -0.9837  0.3044 -0.2681
  592MPD2    H2 8833   1.734   4.497  11.960  0.9623 -0.4253  0.0299
  592MPD2    H3 8834   1.678   4.312  11.825  0.8545 -1.2753 -0.0012
  592MPD2     N 8835   1.472   4.082  12.150  0.2480 -0.1162  0.2489
  592MPD2    H5 8836   1.435   4.095  12.244 -2.9380  2.1706 -1.3258
  592MPD2    N1 8837   1.669   4.532  12.203 -0.2065  0.6055  0.2477
  592MPD2    H7 8838   1.726   4.593  12.146  1.6476  0.2640  1.7476
  593TMC3    C1 8839   1.707   4.687  12.379  0.1980 -0.0070  0.2290
  593TMC3    C2 8840   1.768   4.699  12.494  0.0419  0.0723 -0.4140
  593TMC3    C3 8841   1.802   0.088  12.543 -0.5376  0.3841  0.5285
  593TMC3    C4 8842   1.676   0.066  12.304 -0.5060  0.8051  0.2764
  593TMC3    C5 8843   1.702   0.188  12.358 -0.0379 -0.5077 -0.2295
  593TMC3    C6 8844   1.757   0.203  12.483 -0.2691 -0.5803  0.2783
  593TMC3     C 8845   1.657   4.555  12.338  0.1372  1.2797  0.5013
  593TMC3     O 8846   1.613   4.474  12.412 -0.9277 -0.2290 -0.2651
  593TMC3     H 8847   1.795   4.611  12.551 -0.8673 -0.8996 -1.5002
  593TMC3    H1 8848   1.609   0.050  12.220 -0.0381 -1.1483  0.2634
  593TMC3    H2 8849   1.763   0.298  12.534  1.8738 -0.9034  0.6091
  593TMC3    C7 8850   1.700   0.307  12.269  1.2565  0.1357 -0.4014
  593TMC3    C8 8851   1.921   0.090  12.622 -0.1390 -0.5274  0.0279
  593TMC3    O1 8852   1.740   0.415  12.315  0.0138  0.0259 -0.4101
  593TMC3    O2 8853   1.952   4.714  12.669  0.0307  0.3414 -0.0006
  594MPD2     C 8854   0.221   3.205  13.921  0.1154  0.3664  0.4508
  594MPD2    C1 8855   0.182   3.254  14.038 -0.6674  0.7636 -0.1070
  594MPD2    C2 8856   0.256   3.354  14.091  0.7107 -0.0589 -0.5710
  594MPD2    C3 8857   0.376   3.395  14.037  0.2293  0.0734 -0.5188
  594MPD2    C4 8858   0.422   3.339  13.922 -0.1250 -0.4293  0.2306
  594MPD2    C5 8859   0.337   3.245  13.857  0.5729 -0.3277 -0.1951
  594MPD2     H 8860   0.225   3.401  14.183  0.5208 -1.0847 -0.1046
  594MPD2    H1 8861   0.520   3.362  13.881 -0.5380  0.4690 -0.2595
  594MPD2    H2 8862   0.168   3.116  13.888 -0.3411  1.5611 -1.9733
  594MPD2    H3 8863   0.358   3.188  13.768  0.2792 -0.2738 -0.3012
  594MPD2     N 8864   0.445   3.501  14.105 -0.3289  0.5787 -0.2131
  594MPD2    H5 8865   0.412   3.531  14.196 -1.0787  1.1200 -0.6579
  594MPD2    N1 8866   0.065   3.200  14.100  0.4790 -0.2334  0.5823
  594MPD2    H7 8867   4.725   3.146  14.053 -1.0601  1.8440  0.5016
  595TMC3    C1 8868   0.787   3.733  14.277 -0.6810 -0.1826 -0.2747
  595TMC3    C2 8869   0.743   3.648  14.179 -0.3054  0.8381 -0.9052
  595TMC3    C3 8870   0.606   3.652  14.150  0.2902  0.1209 -0.2857
  595TMC3    C4 8871   0.699   3.821  14.342  0.0780 -0.1972 -0.7257
  595TMC3    C5 8872   0.574   3.834  14.296  0.6504  0.2641 -0.4034
  595TMC3    C6 8873   0.520   3.744  14.211 -0.6559  0.0829  0.4821
  595TMC3     C 8874   0.922   3.718  14.332  1.2008  0.0713 -0.7452
  595TMC3     O 8875   0.950   3.797  14.422 -0.3088 -0.4638 -0.3156
  595TMC3     H 8876   0.806   3.571  14.137 -0.1886  1.0154 -1.0548
  595TMC3    H1 8877   0.742   3.890  14.413  1.8790 -1.7683 -0.2779
  595TMC3    H2 8878   0.423   3.766  14.169  0.6245  3.0218 -0.9106
  595TMC3    C7 8879   0.486   3.869  14.402  0.1977  0.4851 -0.5007
  595TMC3    C8 8880   0.561   3.556  14.061 -0.1699 -0.0386  0.3470
  595TMC3    O1 8881   0.393   3.939  14.369  0.0908  0.2391  0.3765
  595TMC3    O2 8882   0.643   3.514  13.982  0.1332  0.1310 -0.1727
  596MPD2     C 8883   4.451   2.005  16.718 -0.0068 -0.4023  0.6186
  596MPD2    C1 8884   4.369   2.037  16.611 -0.6638  0.4338 -0.0568
  596MPD2    C2 8885   4.366   1.959  16.501 -0.6517  0.3024  0.2995
  596MPD2    C3 8886   4.424   1.833  16.490  0.0538 -1.2972 -0.2227
  596MPD2    C4 8887   4.506   1.801  16.596 -0.7669  0.0129  0.4949
  596MPD2    C5 8888   4.517   1.889  16.702  0.1856  0.4494 -0.1908
  596MPD2     H 8889   4.320   2.004  16.414 -2.0880 -0.0757  0.8668
  596MPD2    H1 8890   4.548   1.701  16.607  0.9963  0.9106  2.0548
  596MPD2    H2 8891   4.453   2.062  16.810  2.0120 -0.2336  0.4550
  596MPD2    H3 8892   4.582   1.860  16.784 -1.7045 -0.8929  0.8288
  596MPD2     N 8893   4.406   1.744  16.381 -0.3054  0.7019 -0.6692
  596MPD2    H5 8894   4.464   1.661  16.379 -3.5944 -1.5761 -2.6089
  596MPD2    N1 8895   4.270   2.134  16.619  0.6376 -0.0994  0.0215
  596MPD2    H7 8896   4.197   2.125  16.548 -0.7540 -0.0671  1.4491
  597TMC3    C1 8897   4.149   2.313  16.694 -0.2155 -0.0388  0.6927
  597TMC3    C2 8898   4.168   2.445  16.668  0.0403  0.4230  0.1072
  597TMC3    C3 8899   4.052   2.524  16.669 -0.3689  0.2905 -0.0450
  597TMC3    C4 8900   4.032   2.258  16.725  0.0305 -0.6224  0.0614
  597TMC3    C5 8901   3.926   2.339  16.732  0.3722 -0.1969 -0.1931
  597TMC3    C6 8902   3.933   2.478  16.711  0.5361  0.4494 -0.1595
  597TMC3     C 8903   4.262   2.229  16.716  0.1966 -0.1198  0.2326
  597TMC3     O 8904   4.335   2.246  16.814 -0.2058  0.3963  0.4511
  597TMC3     H 8905   4.265   2.476  16.629  0.5008 -2.3345 -0.9267
  597TMC3    H1 8906   4.021   2.152  16.742 -3.1885 -0.7047 -2.3641
  597TMC3    H2 8907   3.842   2.535  16.696  0.6339  1.3978  2.9315
  597TMC3    C7 8908   3.823   2.299  16.826 -0.2122  0.1489  0.1320
  597TMC3    C8 8909   4.045   2.664  16.623  0.8482  0.3742  0.3565
  597TMC3    O1 8910   3.859   2.202  16.893 -0.1076  0.6035  1.1082
  597TMC3    O2 8911   3.937   2.710  16.594 -0.1584 -0.2882  0.0731
  598TMC3    C1 8912   1.969   3.044  15.564  0.6942 -0.0937 -0.2798
  598TMC3    C2 8913   1.880   2.939  15.575  0.2668 -0.1550 -0.4632
  598TMC3    C3 8914   1.845   2.878  15.456 -0.1047  0.2728  0.0103
  598TMC3    C4 8915   2.024   3.086  15.445 -0.1366  0.4634  0.3773
  598TMC3    C5 8916   1.980   3.024  15.327  0.6780  0.0101  0.6292
  598TMC3    C6 8917   1.891   2.916  15.330 -0.1549  0.1488 -0.1434
  598TMC3     C 8918   2.025   3.110  15.679 -0.2205 -0.6503 -0.0981
  598TMC3     O 8919   2.084   3.214  15.658  0.4044  0.0593 -0.7055
  598TMC3     H 8920   1.840   2.906  15.670 -1.1274 -2.7017 -1.9494
  598TMC3    H1 8921   2.091   3.172  15.443  0.0992  0.3131  1.7595
  598TMC3    H2 8922   1.853   2.863  15.244  2.1170  2.4171 -2.5486
  598TMC3    C7 8923   2.038   3.050  15.199 -0.0713 -0.6943 -0.5264
  598TMC3    C8 8924   1.790   2.743  15.465  0.1286  0.6494  0.7080
  598TMC3    O1 8925   2.015   2.971  15.104  0.4347 -0.3996 -0.4962
  598TMC3    O2 8926   1.721   2.720  15.563 -0.0671 -0.6440 -0.5659
  599MPD2     C 8927   2.448   0.810  16.134  0.7983 -0.1534 -0.1848
  599MPD2    C1 8928   2.399   0.683  16.098  0.0594 -0.3940  0.8440
  599MPD2    C2 8929   2.265   0.649  16.123 -0.0203 -0.6438 -0.2126
  599MPD2    C3 8930   2.191   0.744  16.189  0.0008 -0.7814 -0.0181
  599MPD2    C4 8931   2.235   0.872  16.214 -0.3490  0.8819  0.7050
  599MPD2    C5 8932   2.365   0.901  16.190 -0.3146  0.0998 -0.2235
  599MPD2     H 8933   2.223   0.552  16.101  1.8635 -1.8880  1.6478
  599MPD2    H1 8934   2.191   0.957  16.265  0.3154  0.1339  2.5404
  599MPD2    H2 8935   2.554   0.832  16.124  0.6715 -0.1250 -1.4039
  599MPD2    H3 8936   2.410   0.995  16.218 -0.3111 -0.0322  0.2118
  599MPD2     N 8937   2.055   0.726  16.233  0.3544  0.5937 -0.0556
  599MPD2    H5 8938   2.021   0.802  16.291 -2.3138  0.2141 -1.1197
  599MPD2    N1 8939   2.489   0.587  16.051 -0.3415 -0.3876  0.4129
  599MPD2    H7 8940   2.584   0.615  16.077  0.0487 -1.8745  0.5852
  600TMC3    C1 8941   1.841   0.619  16.265 -0.1272  0.3792 -0.6045
  600TMC3    C2 8942   1.787   0.502  16.303 -0.7215 -0.2049  0.2443
  600TMC3    C3 8943   1.699   0.504  16.408  0.3386  0.0256 -0.1851
  600TMC3    C4 8944   1.804   0.738  16.319 -0.5547  0.3319 -0.4085
  600TMC3    C5 8945   1.717   0.731  16.422  0.5641 -0.4147  0.7363
  600TMC3    C6 8946   1.665   0.616  16.471  0.1330  1.0058  0.6273
  600TMC3     C 8947   1.972   0.620  16.201  0.5397  0.4747  0.0733
  600TMC3     O 8948   1.999   0.519  16.142  0.1288 -0.1578 -0.1213
  600TMC3     H 8949   1.828   0.409  16.266  1.3351  0.3352  1.1631
  600TMC3    H1 8950   1.828   0.828  16.264 -1.4773 -0.3825 -1.9656
  600TMC3    H2 8951   1.588   0.608  16.547 -1.0605  0.1340 -0.6597
  600TMC3    C7 8952   1.646   0.848  16.476 -0.5608 -0.6292  0.7494
  600TMC3    C8 8953   1.693   0.391  16.485 -0.0171 -0.2595  0.6520
  600TMC3    O1 8954   1.541   0.844  16.539  0.1369  0.1938  0.6414
  600TMC3    O2 8955   1.710   0.414  16.606  0.2405  0.8895  0.1520
  601MPD2     C 8956   4.490   3.763   0.565  0.1907 -0.1109  0.4894
  601MPD2    C1 8957   4.399   3.718   0.470 -0.0590  0.0057 -0.4425
  601MPD2    C2 8958   4.336   3.599   0.499  0.5339 -0.0771  0.1853
  601MPD2    C3 8959   4.352   3.539   0.618 -0.1829  0.1590  0.4639
  601MPD2    C4 8960   4.430   3.584   0.715 -0.1178 -0.2310  0.0130
  601MPD2    C5 8961   4.495   3.703   0.692  0.0546  0.0145  0.0737
  601MPD2     H 8962   4.246   3.566   0.447  1.9638 -1.4402 -1.4150
  601MPD2    H1 8963   4.442   3.532   0.809  0.7236 -0.5546 -0.2748
  601MPD2    H2 8964   4.549   3.853   0.550  0.0035 -0.0178  0.2956
  601MPD2    H3 8965   4.557   3.744   0.771 -0.4447  1.3894 -0.2477
  601MPD2     N 8966   4.280   3.414   0.644  0.0291  0.0043 -0.2906
  601MPD2    H5 8967   4.302   3.364   0.730 -0.6803 -0.1118 -0.1732
  601MPD2    N1 8968   4.369   3.785   0.350 -0.1987  0.6581  0.1932
  601MPD2    H7 8969   4.300   3.739   0.291 -0.5197  2.3836 -0.7646
  602TMC3    C1 8970   4.340   3.965   0.199 -0.3252  0.0802 -0.0694
  602TMC3    C2 8971   4.320   4.097   0.179 -0.0724  0.3746  0.0306
  602TMC3    C3 8972   4.243   4.129   0.069 -0.2876  0.4263 -0.3526
  602TMC3    C4 8973   4.302   3.873   0.105 -0.6760 -0.2868  0.7941
  602TMC3    C5 8974   4.233   3.910  17.724 -0.7881  0.2829 -0.1390
  602TMC3    C6 8975   4.196   4.040  17.701  0.6875  0.2658  0.6821
  602TMC3     C 8976   4.396   3.916   0.328 -0.0319 -0.5149  0.3052
  602TMC3     O 8977   4.435   3.995   0.403  0.3978 -0.1216 -0.5446
  602TMC3     H 8978   4.337   4.182   0.245 -0.2959 -0.6706  1.4486
  602TMC3    H1 8979   4.342   3.774   0.119  3.0044  1.3116  1.4619
  602TMC3    H2 8980   4.163   4.076  17.605 -1.2375 -2.1021  0.4605
  602TMC3    C7 8981   4.156   3.804  17.650 -0.2559 -0.2115  0.2422
  602TMC3    C8 8982   4.180   4.257   0.064  0.1907 -0.1055 -0.8640
  602TMC3    O1 8983   4.204   3.694  17.650  0.5108  0.0106  0.2545
  602TMC3    O2 8984   4.220   4.353   0.128  0.5181 -0.4443 -0.1985
  603TMC3    C1 8985   1.908   4.343  11.621 -0.1429 -0.2486 -0.4121
  603TMC3    C2 8986   1.984   4.242  11.670 -0.3834 -0.1634 -0.1522
  603TMC3    C3 8987   2.098   4.279  11.735 -0.1443 -0.1962  0.2366
  603TMC3    C4 8988   1.929   4.471  11.643 -0.0906  0.2394  0.0876
  603TMC3    C5 8989   2.045   4.502  11.711  0.4372 -0.7390  0.2782
  603TMC3    C6 8990   2.132   4.411  11.765 -0.7774  0.6727  0.4835
  603TMC3     C 8991   1.790   4.312  11.542  0.2722 -0.4015 -0.0159
  603TMC3     O 8992   1.703   4.398  11.538 -0.4886 -0.3967  0.1139
  603TMC3     H 8993   1.971   4.137  11.647 -0.8320  0.1712 -1.4312
  603TMC3    H1 8994   1.862   4.549  11.607 -0.9560 -0.2104  0.7222
  603TMC3    H2 8995   2.236   4.432  11.785 -0.7161 -0.1290  1.0385
  603TMC3    C7 8996   2.098   4.632  11.686 -0.7853  0.2658  0.9398
  603TMC3    C8 8997   2.183   4.166  11.780 -0.1519  0.1311 -0.5055
  603TMC3    O1 8998   2.164   4.686  11.772  0.1540 -0.4726  0.2242
  603TMC3    O2 8999   2.156   4.061  11.725  0.1230  0.1692 -0.4510
  604MPD2     C 9000   2.552   2.552  16.083 -0.4743  0.0826  0.2797
  604MPD2    C1 9001   2.635   2.660  16.105 -0.4732  0.5673  0.0887
  604MPD2    C2 9002   2.716   2.688  15.999  0.7139 -0.2295  0.2911
  604MPD2    C3 9003   2.723   2.610  15.886  0.0150 -0.5238 -0.4038
  604MPD2    C4 9004   2.652   2.497  15.875 -0.1646  0.3315 -0.4311
  604MPD2    C5 9005   2.559   2.475  15.974  0.8201  0.2965  0.0672
  604MPD2     H 9006   2.780   2.775  16.001  0.0205  0.2566  1.1808
  604MPD2    H1 9007   2.656   2.434  15.787  1.1548 -0.1121 -0.0464
  604MPD2    H2 9008   2.477   2.535  16.159 -0.9021 -1.7618 -0.5655
  604MPD2    H3 9009   2.482   2.398  15.969  1.1723  0.0845 -2.1975
  604MPD2     N 9010   2.819   2.647  15.787  0.3938  0.1453 -0.2902
  604MPD2    H5 9011   2.878   2.729  15.800 -0.0514  0.4829 -0.3935
  604MPD2    N1 9012   2.636   2.723  16.229  0.1145 -0.3750  0.1437
  604MPD2    H7 9013   2.585   2.679  16.304  0.3782  0.4437  0.8092
  605TMC3    C1 9014   2.705   2.871  16.395 -0.3565  0.5373  0.4687
  605TMC3    C2 9015   2.819   2.931  16.442  0.9086 -0.7171 -0.3853
  605TMC3    C3 9016   2.817   2.973  16.570 -0.1277  0.5673 -0.0566
  605TMC3    C4 9017   2.592   2.880  16.464  0.0706 -0.0430  0.4821
  605TMC3    C5 9018   2.597   2.924  16.594 -0.0893 -1.2522  0.4381
  605TMC3    C6 9019   2.709   2.970  16.656 -0.1099 -0.7091 -0.2466
  605TMC3     C 9020   2.706   2.839  16.256  0.0996 -0.4319  0.0545
  605TMC3     O 9021   2.771   2.910  16.179 -0.0779 -0.5042 -0.0372
  605TMC3     H 9022   2.896   2.941  16.366  0.5594  0.4020 -0.5845
  605TMC3    H1 9023   2.507   2.843  16.408  0.0302  0.7963 -0.0139
  605TMC3    H2 9024   2.707   3.014  16.755 -1.7353 -2.8323  0.6665
  605TMC3    C7 9025   2.471   2.988  16.633 -0.4444 -0.4767 -0.5037
  605TMC3    C8 9026   2.943   3.039  16.616 -0.8707 -0.1619 -0.4170
  605TMC3    O1 9027   2.470   3.105  16.665 -0.4354  0.0643 -0.6162
  605TMC3    O2 9028   3.018   3.082  16.531  0.4678  0.3249 -0.4527
  606TMC3    C1 9029   3.592   1.440   0.514 -0.0745 -0.2485 -0.3179
  606TMC3    C2 9030   3.530   1.321   0.539 -0.5117 -0.2161 -0.0144
  606TMC3    C3 9031   3.465   1.259   0.435 -0.3568  0.5125  0.3616
  606TMC3    C4 9032   3.608   1.487   0.386  0.3307  0.5755  0.2566
  606TMC3    C5 9033   3.541   1.421   0.286 -0.1630 -0.0730  0.4105
  606TMC3    C6 9034   3.467   1.306   0.312  0.0175  0.4618 -0.2831
  606TMC3     C 9035   3.657   1.511   0.625  0.4747  0.2172 -0.1729
  606TMC3     O 9036   3.648   1.465   0.736  0.3290 -0.5567 -0.0244
  606TMC3     H 9037   3.528   1.279   0.639 -1.1828 -0.1048  0.0183
  606TMC3    H1 9038   3.662   1.576   0.358  1.8687 -1.1789 -2.4165
  606TMC3    H2 9039   3.407   1.258   0.234 -1.6377  1.3159  0.4619
  606TMC3    C7 9040   3.600   1.432   0.155  0.7710 -0.2360 -0.0058
  606TMC3    C8 9041   3.469   1.116   0.436 -0.4941 -0.0720  0.0467
  606TMC3    O1 9042   3.656   1.539   0.124 -0.1308 -0.0489  0.2492
  606TMC3    O2 9043   3.406   1.059   0.350 -0.2047  0.6391 -0.1139
  607MPD2     C 9044   1.601   3.761  11.917 -0.6097 -0.2321  0.0261
  607MPD2    C1 9045   1.687   3.720  12.017 -0.4812  0.3254  0.2312
  607MPD2    C2 9046   1.661   3.597  12.080  0.3048 -1.0282  1.0078
  607MPD2    C3 9047   1.545   3.523  12.053 -0.2205 -0.0338  0.1641
  607MPD2    C4 9048   1.457   3.569  11.958 -0.5730 -0.1978 -0.0389
  607MPD2    C5 9049   1.493   3.679  11.888 -0.1264 -0.1509 -0.2678
  607MPD2     H 9050   1.725   3.562  12.159  2.1022  1.3629  0.6128
  607MPD2    H1 9051   1.364   3.523  11.927 -1.6770  2.2944 -0.4538
  607MPD2    H2 9052   1.610   3.853  11.860 -2.4849 -0.7986 -1.1863
  607MPD2    H3 9053   1.433   3.708  11.803  0.6676  2.6882  0.1388
  607MPD2     N 9054   1.511   3.414  12.138 -0.2008  1.1090 -0.1175
  607MPD2    H5 9055   1.580   3.381  12.205 -0.4999  1.0026  0.1396
  607MPD2    N1 9056   1.786   3.807  12.067 -0.3918 -0.4778 -0.0769
  607MPD2    H7 9057   1.823   3.785  12.158 -2.0670 -0.8887  0.5090
  608TMC3    C1 9058   1.850   4.012  12.129 -0.1377  0.6753 -0.4870
  608TMC3    C2 9059   1.785   3.990  12.247 -0.1333 -0.0861 -1.3423
  608TMC3    C3 9060   1.817   4.071  12.349  0.0317 -0.6197  0.2616
  608TMC3    C4 9061   1.935   4.119  12.108  0.8859 -0.0644 -0.1381
  608TMC3    C5 9062   1.949   4.207  12.213 -0.1773 -0.0401 -1.0270
  608TMC3    C6 9063   1.890   4.187  12.336 -0.6013 -0.0077 -0.3564
  608TMC3     C 9064   1.799   3.930  12.023 -0.3410 -0.6891 -0.2143
  608TMC3     O 9065   1.831   3.968  11.911 -0.2652 -0.7153  0.4806
  608TMC3     H 9066   1.712   3.910  12.252  0.4253 -0.3722  1.6809
  608TMC3    H1 9067   1.987   4.126  12.013  1.0520 -0.0612 -0.0463
  608TMC3    H2 9068   1.887   4.259  12.417 -2.5653  2.3824 -2.5401
  608TMC3    C7 9069   1.999   4.335  12.176 -0.0605  0.2507  0.3544
  608TMC3    C8 9070   1.762   4.040  12.477 -0.0863  0.5410 -0.3402
  608TMC3    O1 9071   2.017   4.367  12.058 -0.0195 -0.2481  0.1791
  608TMC3    O2 9072   1.725   4.130  12.547 -0.1986  0.5171  0.2649
  609TMC3    C1 9073   0.503   3.303   9.370  0.1040  0.7035  0.3420
  609TMC3    C2 9074   0.452   3.177   9.360  0.2229 -0.4159 -0.7347
  609TMC3    C3 9075   0.532   3.071   9.366 -0.1744 -0.1987 -0.5948
  609TMC3    C4 9076   0.636   3.327   9.384  0.2110  0.1115  0.7426
  609TMC3    C5 9077   0.713   3.220   9.388  0.2891  0.8651 -0.7795
  609TMC3    C6 9078   0.671   3.089   9.370  0.0995  0.2903  0.8896
  609TMC3     C 9079   0.401   3.409   9.362 -0.8906  0.5298  0.2300
  609TMC3     O 9080   0.286   3.392   9.326  0.0871  0.0321 -0.2035
  609TMC3     H 9081   0.346   3.154   9.359  0.3888 -1.1436 -1.5071
  609TMC3    H1 9082   0.687   3.422   9.389  1.6819 -0.6304 -0.0757
  609TMC3    H2 9083   0.743   3.009   9.379 -2.1240 -1.8697 -0.5071
  609TMC3    C7 9084   0.852   3.237   9.428 -0.5303  0.2072 -0.1376
  609TMC3    C8 9085   0.468   2.942   9.367  0.2688 -0.4031 -0.2455
  609TMC3    O1 9086   0.865   3.327   9.513 -0.4305  0.5362  0.2216
  609TMC3    O2 9087   0.354   2.940   9.322  0.0805 -0.1653  0.1117
  610TMC3    C1 9088   1.891   3.465  12.674 -0.3206 -0.5633  0.2542
  610TMC3    C2 9089   1.897   3.603  12.689  0.0236  0.0534 -0.2352
  610TMC3    C3 9090   2.016   3.657  12.641 -0.2294  0.0769 -0.4714
  610TMC3    C4 9091   1.991   3.391  12.612  0.1384 -0.4691  0.3727
  610TMC3    C5 9092   2.111   3.455  12.588  0.2339 -0.3617  0.5228
  610TMC3    C6 9093   2.122   3.591  12.606  0.1818 -0.0671  0.6503
  610TMC3     C 9094   1.837   3.391  12.787  0.0494  0.5603 -0.2072
  610TMC3     O 9095   1.906   3.291  12.820 -0.1659  0.3429 -0.4281
  610TMC3     H 9096   1.824   3.660  12.745  2.4091  1.9144  0.9518
  610TMC3    H1 9097   1.977   3.288  12.583 -1.2773  0.4390 -2.2751
  610TMC3    H2 9098   2.217   3.642  12.601  0.6026 -0.7627  1.5367
  610TMC3    C7 9099   2.230   3.385  12.616 -0.4628  0.4216  1.0217
  610TMC3    C8 9100   2.024   3.796  12.640 -0.2201  0.3269 -0.0439
  610TMC3    O1 9101   2.339   3.413  12.565 -0.0091 -0.4996 -0.3605
  610TMC3    O2 9102   1.960   3.854  12.726 -0.3167  0.2870 -0.5513
  611MPD2     C 9103   1.797   4.280  10.590  0.2360 -0.3072  0.1090
  611MPD2    C1 9104   1.729   4.337  10.700  0.2068  0.3032  0.6017
  611MPD2    C2 9105   1.758   4.468  10.728 -0.3294 -0.2721 -0.5554
  611MPD2    C3 9106   1.831   4.545  10.646  0.5003  0.0564 -0.2960
  611MPD2    C4 9107   1.888   4.492  10.530 -0.5021  0.6431 -0.4184
  611MPD2    C5 9108   1.868   4.361  10.502 -0.0918 -0.0351  0.2043
  611MPD2     H 9109   1.700   4.515  10.806  1.1305 -1.5250  1.3177
  611MPD2    H1 9110   1.937   4.558  10.460  0.7583 -0.4768 -0.5719
  611MPD2    H2 9111   1.798   4.175  10.565  0.0747 -0.1864 -0.3901
  611MPD2    H3 9112   1.905   4.323  10.408 -0.8467  0.0953 -0.1422
  611MPD2     N 9113   1.850   4.680  10.673 -0.4704  0.6346  0.2063
  611MPD2    H5 9114   1.927   4.730  10.628 -1.7555  2.1384 -0.2883
  611MPD2    N1 9115   1.642   4.264  10.782 -0.2286 -0.3124  0.0451
  611MPD2    H7 9116   1.587   4.319  10.848  1.3932  1.3973 -0.0222
  612TMC3    C1 9117   1.863   0.140  10.804  0.0953  0.3698 -0.5690
  612TMC3    C2 9118   1.906   0.166  10.932 -0.4583 -0.0192 -0.3414
  612TMC3    C3 9119   1.995   0.269  10.950 -0.6401  0.0755 -0.3822
  612TMC3    C4 9120   1.908   0.214  10.695  1.0437  0.2715 -0.2040
  612TMC3    C5 9121   1.988   0.327  10.720  0.9985 -0.1859  0.6847
  612TMC3    C6 9122   2.025   0.355  10.846  0.1955 -0.3891  0.4068
  612TMC3     C 9123   1.800   0.012  10.782  0.1977 -0.1543 -0.1511
  612TMC3     O 9124   1.695   4.724  10.847 -0.6896 -0.1221 -0.0436
  612TMC3     H 9125   1.863   0.100  11.006  2.2568 -2.0654 -0.5884
  612TMC3    H1 9126   1.866   0.181  10.601  1.3218 -0.7847  0.0471
  612TMC3    H2 9127   2.100   0.433  10.855  0.1989 -0.2457 -0.8276
  612TMC3    C7 9128   2.036   0.403  10.606 -0.2990  0.2324 -0.2008
  612TMC3    C8 9129   2.053   0.299  11.077 -0.0526  0.2404  0.5133
  612TMC3    O1 9130   2.145   0.454  10.621 -0.1932  0.5926  0.3212
  612TMC3    O2 9131   2.100   0.407  11.095  0.1158  0.3109  0.3309
  613MPD2     C 9132   0.009   2.894  14.685 -0.7503 -0.8420 -0.0293
  613MPD2    C1 9133   4.661   2.789  14.629  0.1590 -0.7253 -0.9445
  613MPD2    C2 9134   4.663   2.775  14.493  0.9554  0.3959 -0.2623
  613MPD2    C3 9135   0.022   2.841  14.415  1.1378  0.4437 -0.4845
  613MPD2    C4 9136   0.117   2.932  14.471  1.5262 -0.1950 -0.3539
  613MPD2    C5 9137   0.103   2.957  14.605 -0.2596 -0.3723 -0.5958
  613MPD2     H 9138   4.590   2.708  14.450  3.1138 -2.0673 -0.1248
  613MPD2    H1 9139   0.179   3.002  14.417 -0.8277  3.2349  1.4550
  613MPD2    H2 9140   4.723   2.918  14.789  1.2214 -1.1899  0.3806
  613MPD2    H3 9141   0.164   3.032  14.653 -2.4311  0.9390  0.1025
  613MPD2     N 9142   0.007   2.818  14.276 -0.3919  0.1411  0.0393
  613MPD2    H5 9143   4.675   2.743  14.251  1.2438 -0.8562 -1.1065
  613MPD2    N1 9144   4.563   2.720  14.705  0.3764 -0.1543 -0.3768
  613MPD2    H7 9145   4.501   2.662  14.649  0.5389 -0.6073 -0.0844
  614TMC3    C1 9146   4.427   2.639  14.879  0.5743  0.2613  0.8832
  614TMC3    C2 9147   4.340   2.620  14.777  0.3603 -0.1145  0.1039
  614TMC3    C3 9148   4.307   2.493  14.749 -0.0170 -0.4614  0.4016
  614TMC3    C4 9149   4.463   2.537  14.963 -0.4769 -0.1171  0.1922
  614TMC3    C5 9150   4.420   2.412  14.934 -0.1046 -0.5301 -0.4000
  614TMC3    C6 9151   4.341   2.381  14.822 -0.4127 -0.5223 -0.2392
  614TMC3     C 9152   4.547   2.724  14.840  0.4882  0.7095  0.2035
  614TMC3     O 9153   4.630   2.756  14.924 -0.3656 -1.0248  0.6791
  614TMC3     H 9154   4.318   2.704  14.713  2.6445  1.1623  0.9859
  614TMC3    H1 9155   4.533   2.547  15.045 -0.4954  0.1589  0.1723
  614TMC3    H2 9156   4.315   2.279  14.797  0.1819 -0.6071 -0.5007
  614TMC3    C7 9157   4.439   2.324  15.045 -0.6916  0.2202 -0.1643
  614TMC3    C8 9158   4.311   2.480  14.610  0.0982 -0.1977 -0.0216
  614TMC3    O1 9159   4.432   2.365  15.162 -0.3441 -0.1964  0.4315
  614TMC3    O2 9160   4.339   2.579  14.545 -0.2174  0.4301 -0.4776
  615MPD2     C 9161   4.378   2.379  15.939  0.4104 -0.1486  0.2145
  615MPD2    C1 9162   4.291   2.487  15.950 -0.0534  0.1382 -0.5996
  615MPD2    C2 9163   4.189   2.502  15.852 -0.6128 -0.0920 -0.1349
  615MPD2    C3 9164   4.179   2.411  15.752 -0.2319 -0.0000  0.0377
  615MPD2    C4 9165   4.269   2.308  15.734  0.2301 -0.1601  0.1665
  615MPD2    C5 9166   4.359   2.286  15.836  0.8500 -0.2679 -0.0355
  615MPD2     H 9167   4.138   2.597  15.854  0.3283  0.4158 -0.3986
  615MPD2    H1 9168   4.268   2.234  15.655  0.1135  0.0028  0.0140
  615MPD2    H2 9169   4.458   2.352  16.007  1.4049 -1.7601 -1.6171
  615MPD2    H3 9170   4.421   2.198  15.821  0.8345 -0.4250  0.8541
  615MPD2     N 9171   4.083   2.430  15.647  0.2192  0.3228 -0.0085
  615MPD2    H5 9172   4.107   2.378  15.562 -0.0127  0.8760 -0.4100
  615MPD2    N1 9173   4.304   2.587  16.049  0.2827 -0.7463 -0.3929
  615MPD2    H7 9174   4.249   2.672  16.041 -1.3039 -1.5496  1.9925
  616TMC3    C1 9175   4.416   2.700  16.226 -0.4232 -1.0006  0.1380
  616TMC3    C2 9176   4.461   2.692  16.354 -1.2027 -0.7280 -0.0670
  616TMC3    C3 9177   4.532   2.790  16.416 -0.0059  0.1705  0.0399
  616TMC3    C4 9178   4.427   2.818  16.161 -0.0215 -0.3137 -0.0781
  616TMC3    C5 9179   4.479   2.922  16.232  0.0413  0.9310  0.0272
  616TMC3    C6 9180   4.540   2.911  16.360  0.1401  1.2990 -0.1151
  616TMC3     C 9181   4.402   2.575  16.152  0.3241 -0.4161  0.3354
  616TMC3     O 9182   4.491   2.497  16.186  0.0595 -0.2247 -0.1650
  616TMC3     H 9183   4.452   2.594  16.399 -0.4476 -1.7727 -2.2403
  616TMC3    H1 9184   4.394   2.815  16.057 -2.5754  1.0907  0.6955
  616TMC3    H2 9185   4.589   2.994  16.409 -1.0138  2.0928 -0.3058
  616TMC3    C7 9186   4.494   3.049  16.162 -0.0793 -0.2868  0.2392
  616TMC3    C8 9187   4.606   2.751  16.539 -0.4497 -0.0485  0.1019
  616TMC3    O1 9188   4.583   3.120  16.203 -0.1332  0.1204 -0.1074
  616TMC3    O2 9189   4.550   2.663  16.604  1.0637  0.0900  0.5446
  617MPD2     C 9190   2.623   0.893  13.395 -0.2316  0.1915  1.3140
  617MPD2    C1 9191   2.599   0.963  13.510 -0.7221  0.0442 -1.0950
  617MPD2    C2 9192   2.502   0.919  13.599 -0.0980  0.4516  0.3483
  617MPD2    C3 9193   2.414   0.813  13.581 -0.2714  0.2602 -0.4871
  617MPD2    C4 9194   2.439   0.744  13.463 -0.3093  0.3981 -0.9613
  617MPD2    C5 9195   2.537   0.780  13.375 -0.3384  0.0895  0.0794
  617MPD2     H 9196   2.487   0.972  13.692  2.2726 -0.8964  1.4964
  617MPD2    H1 9197   2.392   0.648  13.443 -0.6862  0.7842 -1.9680
  617MPD2    H2 9198   2.698   0.916  13.319 -1.1468  0.9712  0.6480
  617MPD2    H3 9199   2.548   0.725  13.282  0.0134  2.2388 -1.1630
  617MPD2     N 9200   2.310   0.773  13.667 -0.0066  0.4782 -0.2251
  617MPD2    H5 9201   2.273   0.682  13.640  0.2682  0.1487  0.5005
  617MPD2    N1 9202   2.665   1.088  13.527  0.4925 -0.0570 -0.1036
  617MPD2    H7 9203   2.740   1.104  13.461  0.5067 -1.1092 -0.3422
  618TMC3    C1 9204   2.766   1.272  13.637 -1.3212  0.3916  0.0313
  618TMC3    C2 9205   2.845   1.272  13.747 -0.0086  0.4980  0.0349
  618TMC3    C3 9206   2.976   1.301  13.721  0.5301  0.3875  0.8104
  618TMC3    C4 9207   2.810   1.308  13.514 -0.8667  0.1201  0.3160
  618TMC3    C5 9208   2.941   1.329  13.491 -0.6527  0.4909  0.5304
  618TMC3    C6 9209   3.023   1.326  13.600  0.8841  0.7933 -0.3879
  618TMC3     C 9210   2.658   1.176  13.634  0.5474  0.3815 -0.1608
  618TMC3     O 9211   2.591   1.161  13.734  0.2640  0.3957 -0.0158
  618TMC3     H 9212   2.813   1.227  13.841 -0.9411  3.8933  1.3375
  618TMC3    H1 9213   2.739   1.324  13.434  1.5389 -3.3543 -2.4954
  618TMC3    H2 9214   3.127   1.355  13.591  0.8033  0.3661 -2.6728
  618TMC3    C7 9215   2.980   1.233  13.394  0.2252  0.3537 -0.0572
  618TMC3    C8 9216   3.060   1.198  13.781  0.1216 -0.3217 -0.3099
  618TMC3    O1 9217   2.891   1.152  13.378  0.5185  0.1290  0.0921
  618TMC3    O2 9218   3.034   1.183  13.898 -0.5673 -0.1429  0.7032
  619MPD2     C 9219   4.486   1.868  13.473  0.1388  0.2516 -0.9193
  619MPD2    C1 9220   4.407   1.952  13.396 -0.0937  0.0888 -0.3942
  619MPD2    C2 9221   4.295   1.998  13.452 -0.5476 -0.6477  0.5909
  619MPD2    C3 9222   4.255   1.952  13.581  0.0306  0.3813 -0.7373
  619MPD2    C4 9223   4.330   1.865  13.652 -0.2446  0.3052 -0.6372
  619MPD2    C5 9224   4.448   1.822  13.597  0.1324 -0.2497  0.0267
  619MPD2     H 9225   4.236   2.063  13.389  0.0445 -0.4855  0.2079
  619MPD2    H1 9226   4.288   1.833  13.747  1.1375  1.1267  0.2493
  619MPD2    H2 9227   4.585   1.835  13.443  0.0901  0.3743 -1.2152
  619MPD2    H3 9228   4.517   1.762  13.655  0.7496  0.2570 -0.1810
  619MPD2     N 9229   4.139   2.003  13.638  0.2693  0.4793  0.3074
  619MPD2    H5 9230   4.115   1.962  13.728  0.0245 -0.1730 -0.0536
  619MPD2    N1 9231   4.449   2.008  13.279  0.0790  0.4353 -0.2854
  619MPD2    H7 9232   4.402   2.090  13.243  0.1613 -0.1076 -1.6204
  620TMC3    C1 9233   4.594   2.076  13.106 -0.2819  0.5440  0.2509
  620TMC3    C2 9234   4.507   2.102  13.001 -0.5274  1.1821 -0.1724
  620TMC3    C3 9235   4.516   2.219  12.939  0.2163 -0.1121 -0.1953
  620TMC3    C4 9236   4.699   2.165  13.122  0.0766 -0.0301  0.2825
  620TMC3    C5 9237   4.707   2.286  13.053  0.4925  0.1375  0.3157
  620TMC3    C6 9238   4.609   2.315  12.965 -0.5749  0.1319  0.1527
  620TMC3     C 9239   4.566   1.979  13.212  0.6424 -0.5938 -0.7827
  620TMC3     O 9240   4.666   1.919  13.250  0.3794  0.6416  0.4840
  620TMC3     H 9241   4.429   2.028  12.991  1.6527 -1.0022 -1.1049
  620TMC3    H1 9242   0.055   2.132  13.177 -0.7173 -1.7872  0.5072
  620TMC3    H2 9243   4.601   2.408  12.911  0.2340  0.4545  0.5915
  620TMC3    C7 9244   4.711   2.402  13.138 -0.4265  0.4622  0.4802
  620TMC3    C8 9245   4.427   2.261  12.832  0.1669  0.2201 -0.4695
  620TMC3    O1 9246   4.691   2.512  13.089  0.4085  0.5403 -0.3633
  620TMC3    O2 9247   4.474   2.323  12.737  0.3397  0.0710 -0.3741
  621MPD2     C 9248   4.401   3.561   9.968 -0.3769 -0.0566  0.2554
  621MPD2    C1 9249   4.479   3.465  10.035 -0.2699 -0.3918 -0.5052
  621MPD2    C2 9250   4.614   3.458   9.993 -0.8112  0.3949  0.4738
  621MPD2    C3 9251   4.660   3.548   9.896 -0.3055  0.1279 -0.7864
  621MPD2    C4 9252   4.581   3.643   9.846  0.6360 -0.1714  0.6248
  621MPD2    C5 9253   4.446   3.648   9.875  0.4725  0.5402  0.1130
  621MPD2     H 9254   4.667   3.379  10.045 -0.6634 -0.2506 -0.6530
  621MPD2    H1 9255   4.615   3.708   9.766  0.2247  0.9408  1.3527
  621MPD2    H2 9256   4.294   3.567   9.979 -0.6475  0.6598 -2.8990
  621MPD2    H3 9257   4.376   3.711   9.822  0.2661  0.3556  0.1650
  621MPD2     N 9258   0.067   3.545   9.867  0.2317 -0.0299 -0.2787
  621MPD2    H5 9259   0.119   3.472   9.915 -2.1489 -2.2053 -1.0023
  621MPD2    N1 9260   4.419   3.392  10.138 -0.4537 -0.1182 -0.0231
  621MPD2    H7 9261   4.329   3.425  10.172 -1.5366 -1.4377 -1.5959
  622TMC3    C1 9262   4.397   3.236  10.320 -0.1885  0.5563  0.7185
  622TMC3    C2 9263   4.333   3.320  10.398  0.4614  0.2345  0.1911
  622TMC3    C3 9264   4.274   3.265  10.509 -0.1711 -0.3268  0.1883
  622TMC3    C4 9265   4.412   3.108  10.351  0.1677 -0.0290  0.3691
  622TMC3    C5 9266   4.352   3.057  10.460 -0.5214  0.2019 -0.2446
  622TMC3    C6 9267   4.290   3.138  10.548 -0.0300 -0.4864  0.5040
  622TMC3     C 9268   4.476   3.293  10.210  0.2151 -0.1600 -1.0413
  622TMC3     O 9269   4.592   3.248  10.210  0.8583  0.0201 -0.9968
  622TMC3     H 9270   4.337   3.426  10.376  1.8151  0.7746  3.0892
  622TMC3    H1 9271   4.479   3.046  10.293  2.3696  1.8515  0.9201
  622TMC3    H2 9272   4.240   3.103  10.637 -2.4564  4.1312  1.0040
  622TMC3    C7 9273   4.289   2.922  10.450  0.0339 -0.4567  0.0728
  622TMC3    C8 9274   4.172   3.348  10.571  0.0644 -0.2397 -1.1205
  622TMC3    O1 9275   4.239   2.875  10.548  0.4236 -0.0889 -0.0042
  622TMC3    O2 9276   4.150   3.317  10.688 -0.7518 -0.1062 -0.1801
  623MPD2     C 9277   3.309   3.670  15.921 -0.1913 -0.3964 -0.4250
  623MPD2    C1 9278   3.301   3.542  15.955 -0.1320  0.5819 -0.4026
  623MPD2    C2 9279   3.371   3.494  16.061  0.1116 -0.9432 -0.2302
  623MPD2    C3 9280   3.441   3.585  16.138  0.4989  0.0770  0.1439
  623MPD2    C4 9281   3.455   3.715  16.094 -0.2895 -0.7473 -0.3362
  623MPD2    C5 9282   3.388   3.758  15.983  0.4827 -0.7750 -0.0819
  623MPD2     H 9283   3.356   3.395  16.102 -1.3301 -1.4526 -1.9616
  623MPD2    H1 9284   3.511   3.792  16.145 -1.8239 -0.1998  0.5237
  623MPD2    H2 9285   3.251   3.713  15.840  2.5299  0.9334 -1.6776
  623MPD2    H3 9286   3.394   3.863  15.956 -2.4012 -0.2653  1.2458
  623MPD2     N 9287   3.498   3.533  16.258 -0.6838 -0.3286  0.4500
  623MPD2    H5 9288   3.478   3.438  16.286 -1.9157  0.0872  1.0035
  623MPD2    N1 9289   3.196   3.469  15.904 -0.1189 -0.3404 -0.2137
  623MPD2    H7 9290   3.124   3.510  15.845  0.7354 -0.2781 -1.2264
  624TMC3    C1 9291   3.706   3.461  16.638  0.1109  0.2457 -0.1505
  624TMC3    C2 9292   3.592   3.423  16.701  0.8824  0.0284  0.2280
  624TMC3    C3 9293   3.474   3.435  16.632  0.0499  0.1749  0.0291
  624TMC3    C4 9294   3.708   3.518  16.513 -0.5009  0.1555  0.0812
  624TMC3    C5 9295   3.588   3.539  16.457 -0.1263  0.4071 -0.0285
  624TMC3    C6 9296   3.465   3.494  16.508 -0.1648  0.3644 -0.3436
  624TMC3     C 9297   3.828   3.430  16.711 -0.5577  0.0213 -0.1786
  624TMC3     O 9298   3.816   3.386  16.823  0.1948  0.3724  0.1780
  624TMC3     H 9299   3.587   3.391  16.804  0.2660 -1.0423 -0.1307
  624TMC3    H1 9300   3.800   3.557  16.473  0.2839 -0.0141  1.7288
  624TMC3    H2 9301   3.374   3.515  16.453 -0.0769  1.2049 -0.1673
  624TMC3    C7 9302   3.583   3.608  16.335  0.3126 -0.4351 -0.7861
  624TMC3    C8 9303   3.355   3.370  16.676 -0.0432 -0.7208  0.2259
  624TMC3    O1 9304   3.658   3.700  16.304  0.0538  1.1634 -0.2794
  624TMC3    O2 9305   3.258   3.386  16.605 -0.2052 -0.0020  0.4259
  625MPD2     C 9306   3.570   4.042   0.516 -0.2874  0.6047 -0.1468
  625MPD2    C1 9307   3.592   4.142   0.603  0.1844  0.1982 -0.0952
  625MPD2    C2 9308   3.698   4.137   0.696  0.5069  0.3157 -0.2408
  625MPD2    C3 9309   3.783   4.029   0.697 -0.2950  0.6754  0.6325
  625MPD2    C4 9310   3.764   3.926   0.606  0.2508  0.9248 -0.0732
  625MPD2    C5 9311   3.650   3.929   0.524 -0.3858  0.0737  0.2845
  625MPD2     H 9312   3.719   4.212   0.771 -1.6828 -1.4906  2.1473
  625MPD2    H1 9313   3.832   3.842   0.614  1.0468  1.4833 -0.8968
  625MPD2    H2 9314   3.495   4.041   0.438 -2.4056  0.0104  1.9097
  625MPD2    H3 9315   3.638   3.847   0.454  0.3073  1.2834 -1.2619
  625MPD2     N 9316   3.893   4.046   0.787 -0.1211 -0.0701  0.5349
  625MPD2    H5 9317   3.901   4.134   0.836 -0.0679 -0.1097  0.5969
  625MPD2    N1 9318   3.527   4.260   0.597 -0.6616 -0.5262 -0.6578
  625MPD2    H7 9319   3.578   4.338   0.637  0.7046 -1.4827 -0.5403
  626TMC3    C1 9320   3.389   4.435   0.532  0.0905  0.2277 -0.2834
  626TMC3    C2 9321   3.292   4.480   0.439  0.2711 -0.7581 -0.1422
  626TMC3    C3 9322   3.278   4.617   0.434  0.0257 -0.3129 -0.1853
  626TMC3    C4 9323   3.462   4.522   0.607 -0.2079 -0.0487  0.3486
  626TMC3    C5 9324   3.437   4.656   0.600  0.2728 -0.2303  0.4237
  626TMC3    C6 9325   3.350   4.703   0.510  0.2022  0.1325 -0.8355
  626TMC3     C 9326   3.413   4.288   0.542  0.8320  0.1841 -0.6210
  626TMC3     O 9327   3.325   4.218   0.496 -0.1550 -0.2799  0.0343
  626TMC3     H 9328   3.241   4.413   0.371  0.9287 -1.2386 -0.1711
  626TMC3    H1 9329   3.524   4.489   0.690  0.6442 -0.4100 -0.4217
  626TMC3    H2 9330   3.344   0.079   0.501 -1.8542  0.2262  1.5958
  626TMC3    C7 9331   3.493   0.006   0.704  0.4776  0.2246 -0.5606
  626TMC3    C8 9332   3.227   4.683   0.317  0.2482  0.6433  0.8843
  626TMC3    O1 9333   3.595   4.696   0.766 -1.1721 -0.0166  0.1318
  626TMC3    O2 9334   3.261   0.070   0.300  0.3573  0.2571 -0.6812
  627MPD2     C 9335   1.812   4.715  14.573  0.0008 -0.7082 -0.2087
  627MPD2    C1 9336   1.887   4.672  14.679 -0.2902 -0.3202  0.8977
  627MPD2    C2 9337   1.865   4.541  14.726  0.3112 -0.2723 -0.6332
  627MPD2    C3 9338   1.764   4.459  14.670  0.9548 -0.4115 -0.6079
  627MPD2    C4 9339   1.690   4.513  14.562  0.2685 -0.4888  0.2062
  627MPD2    C5 9340   1.713   4.640  14.510  0.0839  0.3921  0.1769
  627MPD2     H 9341   1.925   4.496  14.805  2.5118  1.2630 -1.4385
  627MPD2    H1 9342   1.607   4.466  14.509  1.2322  0.4772 -2.1597
  627MPD2    H2 9343   1.825   0.086  14.540 -0.3466 -0.1152  1.4593
  627MPD2    H3 9344   1.654   4.674  14.426  0.0644 -3.0826 -1.1796
  627MPD2     N 9345   1.748   4.327  14.725  0.3681 -0.1675 -0.3297
  627MPD2    H5 9346   1.798   4.297  14.808  0.3599  1.1562  0.1449
  627MPD2    N1 9347   2.000   0.007  14.729 -0.3310 -0.7599 -0.4875
  627MPD2    H7 9348   2.056   4.704  14.806  2.3764 -0.9180 -2.5237
  628TMC3    C1 9349   2.164   0.165  14.749  0.2498  0.2201  0.1607
  628TMC3    C2 9350   2.257   0.062  14.767 -0.2748  0.1471  0.2668
  628TMC3    C3 9351   2.382   0.106  14.812 -0.4590  0.7013  0.1689
  628TMC3    C4 9352   2.195   0.298  14.770 -0.6636  0.0737 -0.3353
  628TMC3    C5 9353   2.323   0.330  14.810  1.1108 -0.2305  0.2821
  628TMC3    C6 9354   2.411   0.234  14.849  0.3792  0.1725  0.4849
  628TMC3     C 9355   2.038   0.131  14.691  0.2291  0.0682  0.0138
  628TMC3     O 9356   1.970   0.215  14.628 -0.7052  0.2657  0.6407
  628TMC3     H 9357   2.233   4.690  14.752  1.3016 -0.1434 -0.2068
  628TMC3    H1 9358   2.111   0.366  14.772  0.6744  1.6763  1.7501
  628TMC3    H2 9359   2.510   0.269  14.878  0.9977  0.3249 -1.8149
  628TMC3    C7 9360   2.379   0.449  14.754 -0.3552  0.1170 -0.2371
  628TMC3    C8 9361   2.493   0.023  14.763  0.5950  0.4093  0.6526
  628TMC3    O1 9362   2.500   0.455  14.760 -0.0782 -0.0208  0.6118
  628TMC3    O2 9363   2.461   4.679  14.670 -0.5753 -0.3835 -0.2023
  629MPD2     C 9364   0.234   2.812  16.907 -0.3075 -0.4502 -0.0307
  629MPD2    C1 9365   0.244   2.918  16.822 -0.3576  0.4538 -0.3268
  629MPD2    C2 9366   0.159   2.925  16.712 -0.1441 -0.8203 -0.4158
  629MPD2    C3 9367   0.058   2.833  16.691 -0.1194 -0.3543 -1.5248
  629MPD2    C4 9368   0.042   2.732  16.788  0.0310 -0.2642  0.4052
  629MPD2    C5 9369   0.126   2.728  16.898 -0.6977  0.2124 -0.6447
  629MPD2     H 9370   0.172   3.006  16.641  1.1691  0.0145  0.7807
  629MPD2    H1 9371   4.699   2.654  16.784  0.1516 -0.4084  1.1183
  629MPD2    H2 9372   0.297   2.797  16.994  0.1582  0.4716 -0.2173
  629MPD2    H3 9373   0.107   2.646  16.967 -0.0070  1.1926  0.7027
  629MPD2     N 9374   4.707   2.837  16.576 -0.0117  1.0566  0.1000
  629MPD2    H5 9375   0.009   2.892  16.498  0.5152 -1.8121 -1.6838
  629MPD2    N1 9376   0.354   3.004  16.845  0.0796  0.7294  0.4510
  629MPD2    H7 9377   0.420   2.978  16.918  1.8121  0.0550 -1.3558
  630TMC3    C1 9378   0.496   3.186  16.813  0.4066 -0.5078 -0.1071
  630TMC3    C2 9379   0.574   3.242  16.717 -0.3679 -0.8879  0.3870
  630TMC3    C3 9380   0.693   3.307  16.749 -0.0589 -0.0279  0.1569
  630TMC3    C4 9381   0.534   3.170  16.949 -0.3672  0.1146 -0.0874
  630TMC3    C5 9382   0.641   3.252  16.976 -0.3654 -0.1078 -0.3269
  630TMC3    C6 9383   0.720   3.318  16.884 -0.1345  0.5317 -0.2842
  630TMC3     C 9384   0.388   3.104  16.754 -0.4072 -0.3871 -0.1761
  630TMC3     O 9385   0.351   3.130  16.637 -0.6269  0.2211  0.4603
  630TMC3     H 9386   0.557   3.230  16.610 -0.0609  0.9939  0.1286
  630TMC3    H1 9387   0.457   3.163  17.024 -1.3242 -1.3682 -1.2026
  630TMC3    H2 9388   0.808   3.370  16.920  0.3420 -0.0227 -0.6643
  630TMC3    C7 9389   0.666   3.282  17.115  0.4291  0.4639 -0.6855
  630TMC3    C8 9390   0.794   3.340  16.659  0.2542  0.1482 -0.8340
  630TMC3    O1 9391   0.589   3.227  17.190  0.0060  0.1811 -0.3907
  630TMC3    O2 9392   0.907   3.333  16.702  0.4202  0.6058  0.7739
  631MPD2     C 9393   3.437   3.214  15.531  0.4111 -0.6982 -0.0351
  631MPD2    C1 9394   3.524   3.207  15.423 -0.0342  0.1429 -0.3301
  631MPD2    C2 9395   3.587   3.081  15.400  0.7204  0.5216 -0.2289
  631MPD2    C3 9396   3.558   2.972  15.484 -0.7158  0.0142 -0.2808
  631MPD2    C4 9397   3.501   2.988  15.603 -0.2520 -0.5470 -1.0366
  631MPD2    C5 9398   3.441   3.112  15.622  0.1759 -0.0538  0.1125
  631MPD2     H 9399   3.643   3.064  15.308 -1.5356 -1.3277 -1.2527
  631MPD2    H1 9400   3.489   2.910  15.677 -0.2508  0.3314 -0.1028
  631MPD2    H2 9401   3.392   3.307  15.565  1.1636  0.2762 -1.7099
  631MPD2    H3 9402   3.373   3.134  15.704 -0.8204 -0.8746 -0.4985
  631MPD2     N 9403   3.624   2.851  15.452  0.2689  0.0059 -0.3396
  631MPD2    H5 9404   3.656   2.849  15.355  1.0532  0.6552 -0.0961
  631MPD2    N1 9405   3.539   3.323  15.348  0.0462 -0.0531  0.4751
  631MPD2    H7 9406   3.477   3.402  15.356  0.0722 -0.2443  2.4767
  632TMC3    C1 9407   3.642   3.481  15.206  1.0031 -0.3039 -0.0685
  632TMC3    C2 9408   3.528   3.558  15.200  0.0184  0.2688  0.6521
  632TMC3    C3 9409   3.543   3.688  15.167 -0.1986 -0.8423  0.5620
  632TMC3    C4 9410   3.765   3.522  15.150 -0.0945  0.2294  0.1593
  632TMC3    C5 9411   3.767   3.652  15.107  0.3527  0.6191  0.3680
  632TMC3    C6 9412   3.666   3.742  15.127  0.7323  0.5617 -0.1171
  632TMC3     C 9413   3.645   3.350  15.271 -0.1277  0.4061 -0.0490
  632TMC3     O 9414   3.746   3.278  15.250 -0.3111 -0.5232  0.3175
  632TMC3     H 9415   3.428   3.525  15.225  0.7028 -1.2660  1.3338
  632TMC3    H1 9416   3.846   3.451  15.138 -1.8096 -1.6362 -0.4706
  632TMC3    H2 9417   3.674   3.842  15.087  0.2241  0.7114  0.1461
  632TMC3    C7 9418   3.869   3.691  15.008 -0.0287  0.1654 -0.2412
  632TMC3    C8 9419   3.448   3.778  15.226 -0.8385 -0.3645 -0.0001
  632TMC3    O1 9420   3.823   3.750  14.911 -0.2579  0.0667  0.1359
  632TMC3    O2 9421   3.332   3.745  15.241 -0.7194  0.0170 -0.2468
  633MPD2     C 9422   3.269   1.392  17.399 -1.3480 -0.3158 -0.5117
  633MPD2    C1 9423   3.308   1.337  17.282  0.4498  0.4316  0.1991
  633MPD2    C2 9424   3.301   1.204  17.258  0.1640  0.3385 -0.5164
  633MPD2    C3 9425   3.249   1.120  17.358 -0.1228 -0.4688  0.4939
  633MPD2    C4 9426   3.204   1.177  17.477 -0.8830 -0.2455 -0.0448
  633MPD2    C5 9427   3.223   1.313  17.499  1.0551  0.2832 -0.1207
  633MPD2     H 9428   3.349   1.162  17.170 -0.2444 -1.0908 -0.0591
  633MPD2    H1 9429   3.175   1.124  17.567  0.5036  0.3130  0.7288
  633MPD2    H2 9430   3.290   1.495  17.426 -0.1711 -0.8786  0.6945
  633MPD2    H3 9431   3.185   1.348  17.594  2.3885 -2.1058  1.2796
  633MPD2     N 9432   3.257   0.982  17.360  1.0074  0.2204 -0.2483
  633MPD2    H5 9433   3.250   0.939  17.451  2.0815  0.2101 -0.1718
  633MPD2    N1 9434   3.361   1.414  17.171 -0.0688 -0.2452 -0.6068
  633MPD2    H7 9435   3.402   1.359  17.097  0.3077 -0.1614 -0.4572
  634TMC3    C1 9436   3.430   1.616  17.068  0.7359  0.5408  0.3248
  634TMC3    C2 9437   3.552   1.564  17.043  0.4807 -0.6348 -0.5351
  634TMC3    C3 9438   3.647   1.646  16.977 -0.0853  0.2149  0.9552
  634TMC3    C4 9439   3.390   1.742  17.016  0.6863  0.4539  0.2977
  634TMC3    C5 9440   3.475   1.809  16.934 -0.2237  0.4926 -1.1937
  634TMC3    C6 9441   3.604   1.763  16.916  0.5650 -0.1404 -0.0103
  634TMC3     C 9442   3.345   1.551  17.160 -0.0080 -0.1905  0.2020
  634TMC3     O 9443   3.266   1.624  17.225  0.0153  0.0384 -0.0039
  634TMC3     H 9444   3.578   1.460  17.062 -1.1701 -1.1223 -0.8941
  634TMC3    H1 9445   3.288   1.777  17.029  0.1751 -1.0409  0.3040
  634TMC3    H2 9446   3.663   1.808  16.837  0.2897 -1.2247 -0.8409
  634TMC3    C7 9447   3.424   1.905  16.835 -0.0238  0.4071 -0.5266
  634TMC3    C8 9448   3.753   1.572  16.921  0.2556  0.2305 -0.3450
  634TMC3    O1 9449   3.490   1.916  16.730 -0.3179  0.3208  0.4567
  634TMC3    O2 9450   3.752   1.448  16.913 -0.2830 -0.0799 -0.1923
  635TMC3    C1 9451   3.969   2.309   0.264 -0.8992 -0.5779  0.1612
  635TMC3    C2 9452   3.988   2.245   0.141  0.2474  0.1420 -0.0320
  635TMC3    C3 9453   3.907   2.144   0.096  0.4708 -0.1844 -0.5054
  635TMC3    C4 9454   3.860   2.263   0.342 -0.0216  0.2184 -0.2976
  635TMC3    C5 9455   3.778   2.168   0.290 -0.1159 -0.6968 -0.0683
  635TMC3    C6 9456   3.793   2.109   0.172 -1.0235  0.2379  1.1375
  635TMC3     C 9457   4.004   2.441   0.300  0.7722  0.1554 -0.7050
  635TMC3     O 9458   3.975   2.478   0.413 -0.4719  0.4727 -0.1869
  635TMC3     H 9459   4.061   2.281   0.071 -0.2707  2.0320  0.3932
  635TMC3    H1 9460   3.837   2.315   0.434 -0.8515 -0.6793 -0.0022
  635TMC3    H2 9461   3.732   2.024   0.144 -0.1160  0.0300 -0.2377
  635TMC3    C7 9462   3.659   2.147   0.367 -0.0622 -0.3393  0.7169
  635TMC3    C8 9463   3.925   2.103  17.686 -0.6714  0.8260  0.6948
  635TMC3    O1 9464   3.653   2.209   0.470  0.5709 -0.2451  0.3867
  635TMC3    O2 9465   3.951   2.188  17.602 -0.2068 -0.4731  0.1892
  636MPD2     C 9466   0.586   2.110  14.320 -0.8968 -0.3192 -0.4943
  636MPD2    C1 9467   0.525   2.203  14.403  0.4592 -0.0338  0.5625
  636MPD2    C2 9468   0.451   2.306  14.349  0.1280  0.2783  0.4034
  636MPD2    C3 9469   0.416   2.305  14.216 -0.6273 -1.1636  0.8548
  636MPD2    C4 9470   0.469   2.208  14.134  0.1351  0.2968  0.5720
  636MPD2    C5 9471   0.556   2.115  14.189  0.7400 -0.3540 -0.3719
  636MPD2     H 9472   0.411   2.390  14.406 -0.0102 -0.3005  1.1568
  636MPD2    H1 9473   0.456   2.213  14.026 -2.3760 -2.4373  0.7410
  636MPD2    H2 9474   0.645   2.031  14.366  0.2407  0.5303 -0.4934
  636MPD2    H3 9475   0.606   2.044  14.123  0.1210 -0.9192 -0.2323
  636MPD2     N 9476   0.342   2.417  14.159  0.2045 -0.0411  0.0717
  636MPD2    H5 9477   0.332   2.502  14.212  2.2556  0.6474 -0.6549
  636MPD2    N1 9478   0.539   2.206  14.543 -0.5266  0.4602 -0.4263
  636MPD2    H7 9479   0.497   2.279  14.599 -1.0322 -0.3434  0.2287
  637TMC3    C1 9480   0.160   2.512  14.043 -0.0551  0.3382  0.2757
  637TMC3    C2 9481   0.195   2.641  14.073 -0.3024  0.5772 -0.0613
  637TMC3    C3 9482   0.097   2.745  14.077  0.9629 -0.2684 -0.9045
  637TMC3    C4 9483   0.033   2.475  14.019 -0.3518  0.4220  0.4001
  637TMC3    C5 9484   4.670   2.572  14.044  0.1680 -0.4916 -0.2386
  637TMC3    C6 9485   4.702   2.703  14.072  0.5872 -0.4329  0.5418
  637TMC3     C 9486   0.255   2.405  14.052 -0.5864  0.2619  0.5819
  637TMC3     O 9487   0.254   2.316  13.975 -0.2023  0.5125  0.4048
  637TMC3     H 9488   0.300   2.665  14.083 -0.4632  1.2526 -0.0480
  637TMC3    H1 9489   0.017   2.368  14.006 -1.2952  0.9335 -2.7595
  637TMC3    H2 9490   4.623   2.774  14.048  1.5795 -0.1464 -1.8356
  637TMC3    C7 9491   4.567   2.526  14.136  0.3802  0.5851  0.3860
  637TMC3    C8 9492   0.111   2.841  14.185  0.5150 -0.1452  0.2305
  637TMC3    O1 9493   4.537   2.612  14.215 -0.0643 -0.2304  0.0664
  637TMC3    O2 9494   0.224   2.882  14.206 -0.4814  0.1300  0.5511
  638MPD2     C 9495   0.069   0.417  14.935  0.8615  0.8499 -0.1330
  638MPD2    C1 9496   4.724   0.323  14.864  0.6812  0.2270  0.1795
  638MPD2    C2 9497   4.657   0.219  14.930  0.4439 -0.3836  0.7436
  638MPD2    C3 9498   4.669   0.212  15.061  0.4238 -0.0207 -0.1518
  638MPD2    C4 9499   0.025   0.289  15.126  0.3501 -0.1310 -0.3786
  638MPD2    C5 9500   0.086   0.397  15.069  0.4218  1.0070  0.2343
  638MPD2     H 9501   4.601   0.144  14.876 -0.1493  0.9737 -0.5175
  638MPD2    H1 9502   0.038   0.266  15.231 -2.2030 -1.8585 -0.4289
  638MPD2    H2 9503   0.132   0.491  14.885  1.4832 -0.6986 -1.6563
  638MPD2    H3 9504   0.155   0.459  15.125 -2.5160  2.3407  2.3729
  638MPD2     N 9505   4.605   0.107  15.135 -0.0607  0.2503 -0.3133
  638MPD2    H5 9506   4.646   0.072  15.221 -1.6525 -0.4126  0.1725
  638MPD2    N1 9507   4.725   0.332  14.721  0.6174  0.2696 -0.4952
  638MPD2    H7 9508   0.036   0.415  14.681 -1.3851  2.2978  1.5355
  639TMC3    C1 9509   4.447   4.681  15.189  0.0821 -0.3130 -0.2141
  639TMC3    C2 9510   4.334   4.615  15.149  0.1489  0.4978  0.1804
  639TMC3    C3 9511   4.315   4.492  15.196  0.0662  0.5157 -0.3151
  639TMC3    C4 9512   4.540   4.624  15.272  0.2588  0.2357 -0.1264
  639TMC3    C5 9513   4.513   4.501  15.323  0.4852  0.0551 -0.2735
  639TMC3    C6 9514   4.403   4.427  15.281  0.0362  0.4665 -0.4886
  639TMC3     C 9515   4.482   0.056  15.103 -0.6607 -0.2721 -0.6132
  639TMC3     O 9516   4.399   0.110  15.034 -0.3843  0.2257  0.3092
  639TMC3     H 9517   4.261   4.654  15.079 -0.5086  1.0639  1.1841
  639TMC3    H1 9518   4.620   4.682  15.316  0.6008 -1.3045  1.2737
  639TMC3    H2 9519   4.375   4.333  15.328 -1.2589  1.6179  1.0424
  639TMC3    C7 9520   4.628   4.420  15.355  0.1933  0.2186  0.7103
  639TMC3    C8 9521   4.276   4.405  15.084  0.7733 -0.3091  0.6899
  639TMC3    O1 9522   4.627   4.344  15.448  0.2975 -0.1024 -0.0032
  639TMC3    O2 9523   4.345   4.411  14.981  0.0275 -0.0092  0.0355
  640MPD2     C 9524   0.852   4.416  10.378  0.7497 -0.7222  0.1466
  640MPD2    C1 9525   0.779   4.410  10.257 -0.4753 -0.0627 -1.0934
  640MPD2    C2 9526   0.703   4.519  10.224 -0.0729 -0.2750 -0.3202
  640MPD2    C3 9527   0.680   4.619  10.312 -0.6388  0.3301 -0.2082
  640MPD2    C4 9528   0.744   4.624  10.435  0.4161 -0.1182 -0.4673
  640MPD2    C5 9529   0.832   4.521  10.463 -0.4561  0.5607 -0.3361
  640MPD2     H 9530   0.653   4.523  10.128  1.3147  0.5829 -0.9969
  640MPD2    H1 9531   0.735   4.707  10.503  0.4901 -0.1269 -0.4471
  640MPD2    H2 9532   0.912   4.330  10.406  1.3236 -0.3885 -0.0571
  640MPD2    H3 9533   0.880   4.523  10.560  0.1563  2.2470 -0.6683
  640MPD2     N 9534   0.595   4.725  10.288  0.1525  0.0191  0.1470
  640MPD2    H5 9535   0.571   0.064  10.356 -1.0204  0.8554 -1.1498
  640MPD2    N1 9536   0.797   4.304  10.168  0.0275  0.4847  0.1373
  640MPD2    H7 9537   0.879   4.249  10.193 -0.3300 -0.4155 -0.6389
  641TMC3    C1 9538   0.777   4.198   9.953  0.7880  0.5440  0.2116
  641TMC3    C2 9539   0.896   4.139   9.985 -1.1082 -0.1628  0.1182
  641TMC3    C3 9540   0.949   4.053   9.891 -0.5844 -0.2613  0.4131
  641TMC3    C4 9541   0.706   4.181   9.840 -0.6424 -0.6154 -0.6633
  641TMC3    C5 9542   0.772   4.101   9.743 -0.2759 -0.2138  0.7476
  641TMC3    C6 9543   0.888   4.033   9.769  0.0278 -0.0354  0.2691
  641TMC3     C 9544   0.713   4.278  10.062  0.0177  0.3811  0.1754
  641TMC3     O 9545   0.595   4.308  10.063  0.1600  0.5343  0.1149
  641TMC3     H 9546   0.935   4.138  10.086  0.4189  0.4373 -0.4539
  641TMC3    H1 9547   0.616   4.241   9.825 -0.4868 -0.0686  0.6267
  641TMC3    H2 9548   0.917   3.958   9.698 -0.0965  0.6448 -0.4994
  641TMC3    C7 9549   0.702   4.076   9.624  0.1626 -0.5096 -0.1888
  641TMC3    C8 9550   1.053   3.961   9.933  0.0238  0.4680  0.4886
  641TMC3    O1 9551   0.599   4.136   9.606  0.0757 -0.1622 -0.8504
  641TMC3    O2 9552   1.052   3.852   9.872  0.9124  0.0527 -0.2335
  642TMC3    C1 9553   1.156   0.061  12.647  0.3251  0.5164 -0.4093
  642TMC3    C2 9554   1.204   0.095  12.768 -0.2937  0.1690  0.2133
  642TMC3    C3 9555   1.208   4.731  12.861  0.4105  0.3241 -0.5277
  642TMC3    C4 9556   1.126   4.666  12.616 -0.1251  0.1682  0.7397
  642TMC3    C5 9557   1.137   4.565  12.708  0.8995 -0.0131 -0.6431
  642TMC3    C6 9558   1.175   4.597  12.834 -0.3854  0.0141  0.3458
  642TMC3     C 9559   1.103   0.173  12.563  0.2861  0.2079  0.8647
  642TMC3     O 9560   1.164   0.277  12.542 -0.9988 -0.1349 -0.1248
  642TMC3     H 9561   1.229   0.199  12.781 -0.8106  0.4070 -0.6682
  642TMC3    H1 9562   1.073   4.654  12.522 -0.2000  3.8971  0.2854
  642TMC3    H2 9563   1.175   4.523  12.913 -2.7370  0.7742  1.0436
  642TMC3    C7 9564   1.119   4.432  12.661 -0.2197 -0.0699 -0.4469
  642TMC3    C8 9565   1.234   0.030  12.998 -0.2519 -0.2544  0.1230
  642TMC3    O1 9566   1.170   4.409  12.549  0.2781 -0.2191  0.7115
  642TMC3    O2 9567   1.273   4.668  13.067  0.1313 -0.1266 -0.6439
  643TMC3    C1 9568   0.902   3.871   0.420  0.2140 -0.2575 -0.1395
  643TMC3    C2 9569   0.777   3.828   0.382  0.3876  0.4523  0.2494
  643TMC3    C3 9570   0.765   3.722   0.297  0.5253  0.0838 -0.0462
  643TMC3    C4 9571   1.019   3.807   0.374 -0.5720 -0.3285 -0.5939
  643TMC3    C5 9572   1.002   3.715   0.277  0.6384 -0.2051  0.0036
  643TMC3    C6 9573   0.877   3.661   0.252  0.2807 -0.0822 -0.0502
  643TMC3     C 9574   0.917   4.020   0.448 -0.4190 -0.3013 -0.0573
  643TMC3     O 9575   0.829   4.092   0.404  0.4462  0.4284 -0.7028
  643TMC3     H 9576   0.692   3.871   0.433  0.1820 -1.2762  1.3720
  643TMC3    H1 9577   1.119   3.840   0.398 -0.0348  0.0112 -3.2866
  643TMC3    H2 9578   0.874   3.594   0.167 -1.8899 -1.2450  0.9364
  643TMC3    C7 9579   1.048   3.776   0.152  0.3399 -0.5018  0.0786
  643TMC3    C8 9580   0.666   3.755   0.185 -0.0302 -0.6906 -0.0376
  643TMC3    O1 9581   1.040   3.901   0.147 -0.0203 -0.5808 -0.0884
  643TMC3    O2 9582   0.626   3.664   0.115  0.1144 -0.3675  0.2237
  644MPD2     C 9583   1.081   0.648   9.803 -0.3384  0.5936  0.3953
  644MPD2    C1 9584   0.945   0.626   9.791 -0.3985  0.6736  0.2858
  644MPD2    C2 9585   0.865   0.736   9.760 -0.1688  0.2049  0.7062
  644MPD2    C3 9586   0.915   0.862   9.733  0.1453 -0.1896  0.1445
  644MPD2    C4 9587   1.053   0.874   9.746  0.1604 -0.4033  0.1549
  644MPD2    C5 9588   1.137   0.772   9.785 -0.0041 -0.0405  0.2978
  644MPD2     H 9589   0.758   0.724   9.771 -0.3819  2.4961  1.1366
  644MPD2    H1 9590   1.099   0.972   9.745  1.5863 -1.0746  0.3454
  644MPD2    H2 9591   1.145   0.565   9.828  1.3797  1.7739 -0.0574
  644MPD2    H3 9592   1.238   0.801   9.812 -0.1346 -0.1610  0.9356
  644MPD2     N 9593   0.832   0.969   9.697 -0.3162  0.2139  0.4835
  644MPD2    H5 9594   0.736   0.936   9.690 -0.5512  1.5240 -2.3168
  644MPD2    N1 9595   0.895   0.492   9.814 -0.2907  0.7264  0.3695
  644MPD2    H7 9596   0.968   0.424   9.827  2.1100  3.3822  0.7865
  645TMC3    C1 9597   0.754   1.190   9.627  0.3030 -0.8108  0.4961
  645TMC3    C2 9598   0.793   1.314   9.582 -0.2041 -0.3746 -0.4525
  645TMC3    C3 9599   0.706   1.384   9.499 -0.0761 -0.0327  0.1163
  645TMC3    C4 9600   0.627   1.149   9.609 -0.0366  0.2729 -0.0965
  645TMC3    C5 9601   0.540   1.220   9.526  0.2422  0.3864 -0.6264
  645TMC3    C6 9602   0.579   1.340   9.469 -0.5035  0.4887  0.0854
  645TMC3     C 9603   0.867   1.096   9.656  0.2524  0.0521 -0.2522
  645TMC3     O 9604   0.979   1.146   9.655  0.0908  0.0137 -0.1967
  645TMC3     H 9605   0.895   1.352   9.590  0.9712 -3.7728  0.7063
  645TMC3    H1 9606   0.579   1.065   9.658 -0.4531 -0.2039 -1.3266
  645TMC3    H2 9607   0.512   1.404   9.412 -2.7204  1.1938  3.4571
  645TMC3    C7 9608   0.412   1.165   9.476 -0.2591  0.2789  0.2489
  645TMC3    C8 9609   0.767   1.486   9.412  0.6120  0.1329 -0.0685
  645TMC3    O1 9610   0.344   1.236   9.405 -0.3887 -0.0660  0.3369
  645TMC3    O2 9611   0.885   1.506   9.428 -0.2081  0.0444  0.0122
  646MPD2     C 9612   0.064   3.714  14.646  0.0017  0.1903  0.2273
  646MPD2    C1 9613   4.699   3.742  14.736 -0.1815 -0.2552  0.7002
  646MPD2    C2 9614   4.581   3.801  14.696 -0.2071  0.7265 -0.0911
  646MPD2    C3 9615   4.561   3.825  14.562  0.2535  0.1851  0.4233
  646MPD2    C4 9616   4.663   3.804  14.469 -0.4133 -0.4980  0.5191
  646MPD2    C5 9617   0.051   3.745  14.510 -0.0825 -0.3121 -0.5307
  646MPD2     H 9618   4.503   3.828  14.765 -0.0544 -0.4577  0.5400
  646MPD2    H1 9619   4.657   3.810  14.361  1.6182  1.9289  0.5584
  646MPD2    H2 9620   0.150   3.661  14.683  0.2475  1.0726  0.9278
  646MPD2    H3 9621   0.132   3.730  14.440  2.2257 -0.9604  2.2655
  646MPD2     N 9622   4.437   3.874  14.520 -0.4184 -0.3421 -0.2429
  646MPD2    H5 9623   4.372   3.912  14.589 -0.0353 -0.2631  0.0760
  646MPD2    N1 9624   4.729   3.704  14.872  0.2135 -0.2994  0.6122
  646MPD2    H7 9625   0.080   3.651  14.896  0.0394 -1.4761 -1.4053
  647TMC3    C1 9626   4.686   3.642  15.108  0.0473  0.3540  0.7441
  647TMC3    C2 9627   4.589   3.578  15.184  0.9955 -0.4924  0.3044
  647TMC3    C3 9628   4.618   3.488  15.274 -0.5257 -0.2671 -0.3017
  647TMC3    C4 9629   0.087   3.614  15.124 -0.7333 -0.1200 -0.6909
  647TMC3    C5 9630   0.115   3.521  15.222 -0.0419  0.0143  0.3919
  647TMC3    C6 9631   0.019   3.453  15.294  0.1690  0.2004  0.0788
  647TMC3     C 9632   4.634   3.701  14.978 -0.5112 -0.2382 -0.0048
  647TMC3     O 9633   4.515   3.726  14.974 -0.0938 -0.3167 -0.3230
  647TMC3     H 9634   4.484   3.600  15.169  1.5995  2.3817  0.4197
  647TMC3    H1 9635   0.155   3.663  15.056 -3.2057  1.4243 -2.0552
  647TMC3    H2 9636   0.054   3.388  15.374  0.5683  2.0899  1.4203
  647TMC3    C7 9637   0.245   3.457  15.233 -0.1625  1.0597  0.0624
  647TMC3    C8 9638   4.505   3.404  15.325 -0.0779 -0.0581 -0.2021
  647TMC3    O1 9639   0.274   3.389  15.330  0.1526  0.0256 -0.1381
  647TMC3    O2 9640   4.401   3.425  15.267 -0.2017  1.0178 -0.0006
  648TMC3    C1 9641   4.323   1.680  16.158  0.2722 -0.1373 -0.6109
  648TMC3    C2 9642   4.389   1.565  16.160  0.2350  0.1972 -0.2180
  648TMC3    C3 9643   4.349   1.458  16.081 -0.3775  0.4139  0.7194
  648TMC3    C4 9644   4.205   1.698  16.084 -0.1877  0.4654  0.2223
  648TMC3    C5 9645   4.191   1.602  15.983 -0.9899  0.0882  0.0678
  648TMC3    C6 9646   4.249   1.484  15.984 -0.0793  0.5715  0.4939
  648TMC3     C 9647   4.335   1.783  16.265  0.1874  0.3400  0.0406
  648TMC3     O 9648   4.279   1.887  16.235  0.2209 -0.0901  0.4169
  648TMC3     H 9649   4.474   1.552  16.227  0.6353  1.6653 -0.4429
  648TMC3    H1 9650   4.162   1.797  16.070  3.7935  1.9694 -1.3599
  648TMC3    H2 9651   4.238   1.404  15.912 -0.5390  0.1672  1.0155
  648TMC3    C7 9652   4.064   1.592  15.917 -1.0940  0.6401  0.6474
  648TMC3    C8 9653   4.415   1.330  16.109  0.2169 -1.3332  0.0515
  648TMC3    O1 9654   4.071   1.543  15.803 -0.1182  0.4317  0.1530
  648TMC3    O2 9655   4.491   1.314  16.210  0.0751  0.5180  0.7274
  649TMC3    C1 9656   3.311   2.546  13.173 -0.1614 -0.0237 -0.0611
  649TMC3    C2 9657   3.417   2.632  13.199  0.4334  0.1898  0.0122
  649TMC3    C3 9658   3.490   2.621  13.318 -0.0294  0.1427 -0.7439
  649TMC3    C4 9659   3.279   2.447  13.263  0.2664  0.5148  1.4030
  649TMC3    C5 9660   3.344   2.444  13.380  0.9367 -0.1256 -0.0796
  649TMC3    C6 9661   3.447   2.526  13.417  0.3498 -0.0195  0.3786
  649TMC3     C 9662   3.224   2.568  13.056 -0.5540  0.5437 -0.4143
  649TMC3     O 9663   3.117   2.511  13.045  0.0874  0.3866  0.3667
  649TMC3     H 9664   3.443   2.711  13.130  2.6255  0.1551  0.8066
  649TMC3    H1 9665   3.194   2.381  13.254  0.3200  0.6191  0.0680
  649TMC3    H2 9666   3.491   2.517  13.516  2.4738 -2.7685 -0.7998
  649TMC3    C7 9667   3.274   2.381  13.494  0.3043 -0.3443 -0.2805
  649TMC3    C8 9668   3.565   2.741  13.344  0.2641 -0.5422 -0.7779
  649TMC3    O1 9669   3.157   2.376  13.493 -0.0861  0.3030 -0.7381
  649TMC3    O2 9670   3.527   2.843  13.297 -0.5091 -0.2659 -0.2015
  650TMC3    C1 9671   0.759   3.840  12.589 -0.1097  0.4960  0.2979
  650TMC3    C2 9672   0.627   3.897  12.578  0.3016 -0.0751 -0.0749
  650TMC3    C3 9673   0.597   3.951  12.452 -0.1836 -0.3530  0.0074
  650TMC3    C4 9674   0.859   3.886  12.509  0.2401  0.3041 -0.1178
  650TMC3    C5 9675   0.821   3.958  12.396 -0.1404  0.0691  0.3512
  650TMC3    C6 9676   0.692   3.985  12.360 -0.5104  0.2706  0.2497
  650TMC3     C 9677   0.798   3.817  12.727  0.1205 -0.1030 -0.1433
  650TMC3     O 9678   0.706   3.835  12.806 -0.0318 -0.0423  0.3835
  650TMC3     H 9679   0.541   3.875  12.640  0.9254 -1.2359  0.4054
  650TMC3    H1 9680   0.967   3.879  12.522 -0.1095 -0.8688  2.1183
  650TMC3    H2 9681   0.667   4.038  12.268 -0.5536 -4.0052 -2.2399
  650TMC3    C7 9682   0.926   4.033  12.327  0.4602  0.4136  0.4058
  650TMC3    C8 9683   0.483   4.040  12.457 -0.3164  0.4624 -0.0507
  650TMC3    O1 9684   1.036   3.976  12.314 -0.3302  0.5450  0.3280
  650TMC3    O2 9685   0.455   4.092  12.563 -0.1810  0.0521  0.6274
  651MPD2     C 9686   4.477   1.462  10.894 -0.3898 -0.2624  0.2576
  651MPD2    C1 9687   4.447   1.594  10.874 -0.2367  0.3222 -0.1844
  651MPD2    C2 9688   4.522   1.661  10.774  0.0985  0.1510 -0.7386
  651MPD2    C3 9689   4.636   1.607  10.720 -0.8604 -0.3726 -0.1353
  651MPD2    C4 9690   4.671   1.475  10.752  0.2627  0.1168  0.5383
  651MPD2    C5 9691   4.585   1.403  10.828  0.4335  0.0625  0.2224
  651MPD2     H 9692   4.493   1.760  10.742  0.1597  0.7890  1.1738
  651MPD2    H1 9693   0.013   1.427  10.688 -1.2363  0.6487 -1.5769
  651MPD2    H2 9694   4.417   1.401  10.961 -1.0310  0.0855 -0.0025
  651MPD2    H3 9695   4.596   1.297  10.850 -2.9882 -0.4670 -0.6795
  651MPD2     N 9696   4.711   1.684  10.630 -0.1976 -0.0846  0.4958
  651MPD2    H5 9697   4.678   1.779  10.624 -1.1141 -0.4486 -0.1693
  651MPD2    N1 9698   4.345   1.657  10.944 -0.0942 -0.6669 -0.1856
  651MPD2    H7 9699   4.315   1.749  10.911 -0.0319 -0.5851 -0.0144
  652TMC3    C1 9700   0.326   1.896  10.405  0.5762 -0.1651 -0.4390
  652TMC3    C2 9701   0.275   1.775  10.469  0.6585  0.3046  0.1233
  652TMC3    C3 9702   0.142   1.777  10.502 -0.1874  0.3425 -0.0468
  652TMC3    C4 9703   0.243   2.003  10.381  0.2309  0.0004  0.7099
  652TMC3    C5 9704   0.111   1.982  10.394  0.4054 -0.5030  0.5147
  652TMC3    C6 9705   0.055   1.869  10.447  0.6639  0.2027 -0.2841
  652TMC3     C 9706   0.472   1.916  10.394 -0.1569 -0.4526  0.7426
  652TMC3     O 9707   0.541   1.826  10.433 -0.6447 -1.0916 -0.2971
  652TMC3     H 9708   0.332   1.688  10.500 -1.3488  0.2330  3.6201
  652TMC3    H1 9709   0.280   2.099  10.347 -2.7646 -0.2876 -3.2161
  652TMC3    H2 9710   4.681   1.862  10.469  0.2058 -0.5886 -2.8032
  652TMC3    C7 9711   0.009   2.085  10.363 -0.4305  0.8075 -0.1083
  652TMC3    C8 9712   0.085   1.651  10.548  0.7973  0.7036  0.1287
  652TMC3    O1 9713   4.650   2.054  10.288  0.4123  0.2673 -0.3826
  652TMC3    O2 9714   0.142   1.541  10.527  0.3651 -1.0607  0.5757
  653MPD2     C 9715   2.961   1.624  17.640  0.6962  0.4677  0.9034
  653MPD2    C1 9716   3.035   1.616  17.526 -0.4087 -0.3959  0.1765
  653MPD2    C2 9717   2.994   1.525  17.427 -1.0000 -0.1293  0.3657
  653MPD2    C3 9718   2.886   1.436  17.442  0.0071  0.2483 -0.2934
  653MPD2    C4 9719   2.820   1.446  17.569  0.0080  0.4366 -0.1409
  653MPD2    C5 9720   2.853   1.544  17.662  0.1923  0.0349 -0.1996
  653MPD2     H 9721   3.045   1.519  17.331 -1.3880  0.7995  0.1018
  653MPD2    H1 9722   2.732   1.384  17.586  0.0035  0.4032 -0.2876
  653MPD2    H2 9723   2.993   1.689  17.721  0.1094 -0.4702  1.8981
  653MPD2    H3 9724   2.795   1.565   0.023 -1.0494 -0.4768 -0.8927
  653MPD2     N 9725   2.839   1.357  17.338  0.4897 -0.2300  0.1245
  653MPD2    H5 9726   2.878   1.359  17.244 -0.5166  0.7408 -0.2705
  653MPD2    N1 9727   3.153   1.687  17.495 -0.1573  0.2515  0.1253
  653MPD2    H7 9728   3.195   1.677  17.403 -2.3661 -0.4518 -0.7880
  654TMC3    C1 9729   2.695   1.217  17.222 -0.3504  0.0900  0.2715
  654TMC3    C2 9730   2.569   1.262  17.191 -0.4614  0.3823  0.2579
  654TMC3    C3 9731   2.530   1.271  17.061 -0.2692  0.3713  0.0027
  654TMC3    C4 9732   2.785   1.176  17.133 -0.2326 -0.7582 -0.0047
  654TMC3    C5 9733   2.747   1.194  17.003  0.3688 -0.2309  0.6409
  654TMC3    C6 9734   2.623   1.238  16.967 -0.1810  0.0411 -0.1525
  654TMC3     C 9735   2.747   1.252  17.346 -0.3408 -0.1568  1.2420
  654TMC3     O 9736   2.681   1.211  17.440 -0.2965 -0.3154 -0.5443
  654TMC3     H 9737   2.505   1.293  17.273  0.4903  1.2651  0.6699
  654TMC3    H1 9738   2.887   1.163  17.168 -0.7760 -0.3772  1.7262
  654TMC3    H2 9739   2.594   1.250  16.863  0.4345  0.0029 -0.3287
  654TMC3    C7 9740   2.816   1.112  16.907 -0.3109  0.1200  0.2032
  654TMC3    C8 9741   2.392   1.313  17.031  0.7689  0.5219  0.0910
  654TMC3    O1 9742   2.820   1.147  16.788 -0.1289  0.6237 -0.2425
  654TMC3    O2 9743   2.342   1.388  17.114  0.3211 -0.3737  0.2815
  655MPD2     C 9744   4.409   1.786  15.693  0.4046 -0.3674  0.2191
  655MPD2    C1 9745   4.281   1.774  15.642  0.3741 -0.5542 -0.1625
  655MPD2    C2 9746   4.268   1.696  15.529  0.5875  0.4252 -0.4811
  655MPD2    C3 9747   4.366   1.615  15.476 -0.0046  0.0258 -0.5203
  655MPD2    C4 9748   4.489   1.626  15.531 -0.1109  0.2126  0.5036
  655MPD2    C5 9749   4.513   1.715  15.637  0.3611  0.6880  0.2357
  655MPD2     H 9750   4.167   1.687  15.492  1.0894  1.3629 -2.0633
  655MPD2    H1 9751   4.574   1.574  15.489 -0.2054 -1.7038  2.6861
  655MPD2    H2 9752   4.441   1.844  15.779  0.4833 -1.2060  0.7590
  655MPD2    H3 9753   4.615   1.728  15.672  0.8596 -0.9572 -0.5838
  655MPD2     N 9754   4.334   1.528  15.371 -0.3943 -0.3467  0.0418
  655MPD2    H5 9755   4.411   1.483  15.324  0.1875  0.1139  0.5522
  655MPD2    N1 9756   4.173   1.854  15.688 -0.2123  0.1759  0.0879
  655MPD2    H7 9757   4.083   1.840  15.643  0.2798  0.3935 -0.9726
  656TMC3    C1 9758   4.055   2.012  15.809 -0.8722 -0.5281 -0.6192
  656TMC3    C2 9759   4.036   2.083  15.925  0.5897 -0.3252 -0.6379
  656TMC3    C3 9760   3.924   2.158  15.940  0.3948  0.6588  0.5497
  656TMC3    C4 9761   3.969   2.030  15.702 -0.3239 -0.2052 -0.2957
  656TMC3    C5 9762   3.857   2.105  15.721 -0.1884  0.1353 -0.0369
  656TMC3    C6 9763   3.829   2.160  15.844  0.0336  0.0835 -0.1974
  656TMC3     C 9764   4.183   1.940  15.790  0.1186 -0.4005 -0.1494
  656TMC3     O 9765   4.270   1.956  15.874  0.6729 -0.2173  0.3307
  656TMC3     H 9766   4.111   2.075  16.003 -0.9284  2.5264  1.0893
  656TMC3    H1 9767   3.986   1.984  15.606 -0.0089  2.1362 -1.3501
  656TMC3    H2 9768   3.737   2.216  15.854 -0.2705 -0.0810 -2.0438
  656TMC3    C7 9769   3.779   2.128  15.599 -0.4428 -0.7016 -0.4452
  656TMC3    C8 9770   3.876   2.121  16.073 -0.5670 -0.0676 -0.4263
  656TMC3    O1 9771   3.841   2.101  15.495 -0.0965 -0.5983  0.1239
  656TMC3    O2 9772   3.929   2.026  16.132 -0.3427 -0.8111 -0.1085
  657TMC3    C1 9773   3.429   0.639  15.310 -0.3999 -0.1025 -0.2280
  657TMC3    C2 9774   3.506   0.632  15.424 -0.8691 -0.0556  0.3793
  657TMC3    C3 9775   3.464   0.707  15.523  0.2404  0.5717  0.4248
  657TMC3    C4 9776   3.314   0.711  15.301  0.1254 -0.4490  0.3189
  657TMC3    C5 9777   3.285   0.791  15.403 -0.4796 -0.5768  0.2005
  657TMC3    C6 9778   3.361   0.798  15.517 -0.1245  0.2121 -0.0417
  657TMC3     C 9779   3.474   0.575  15.188 -0.0708  0.5046  0.4191
  657TMC3     O 9780   3.411   0.580  15.085 -0.2458 -0.0041 -0.0181
  657TMC3     H 9781   3.596   0.572  15.431 -0.9243 -0.1632  0.1676
  657TMC3    H1 9782   3.262   0.719  15.206  0.8710 -1.0503 -0.1387
  657TMC3    H2 9783   3.332   0.869  15.594  0.7857  2.1671 -1.5120
  657TMC3    C7 9784   3.207   0.905  15.367  0.1169 -0.8031  0.3038
  657TMC3    C8 9785   3.541   0.739  15.638 -0.1637 -0.0698 -0.0164
  657TMC3    O1 9786   3.240   1.013  15.414  0.4580  0.4206  0.7064
  657TMC3    O2 9787   3.527   0.846  15.693 -0.2018 -0.0570  0.2837
  658MPD2     C 9788   4.654   1.042  14.795  0.9263 -0.1622  0.1270
  658MPD2    C1 9789   4.567   1.144  14.797 -0.1486  0.6129 -0.4882
  658MPD2    C2 9790   4.542   1.214  14.680 -0.0113  0.3059  0.5826
  658MPD2    C3 9791   4.588   1.174  14.561 -0.5336  0.3673 -0.4420
  658MPD2    C4 9792   4.664   1.056  14.554 -0.1328  0.6748 -0.1478
  658MPD2    C5 9793   4.697   0.997  14.675 -0.2196 -0.0359  0.1788
  658MPD2     H 9794   4.477   1.301  14.688 -0.0878  0.3293 -0.2840
  658MPD2    H1 9795   4.707   1.019  14.462  1.9387 -1.2832  1.6080
  658MPD2    H2 9796   4.684   0.993  14.888 -2.1428 -0.4577  0.9550
  658MPD2    H3 9797   0.050   0.930  14.668  0.3445  0.6444  0.5046
  658MPD2     N 9798   4.532   1.237  14.449  0.3767 -0.1703  0.4997
  658MPD2    H5 9799   4.461   1.308  14.462  0.3087 -0.5760  2.3646
  658MPD2    N1 9800   4.503   1.179  14.921  0.2260 -0.1393  0.3733
  658MPD2    H7 9801   4.512   1.120  15.003  0.1337 -0.7187 -0.0328
  659TMC3    C1 9802   4.339   1.274  15.058  0.6021 -0.1916 -0.0393
  659TMC3    C2 9803   4.343   1.362  15.152 -0.6274  0.0708  0.1700
  659TMC3    C3 9804   4.226   1.402  15.203 -0.4054  0.1005 -0.5208
  659TMC3    C4 9805   4.231   1.201  15.027 -0.4163 -0.1048 -0.0474
  659TMC3    C5 9806   4.114   1.243  15.080  0.0836 -0.3224 -0.2148
  659TMC3    C6 9807   4.110   1.335  15.176  0.0669 -0.3035 -0.3830
  659TMC3     C 9808   4.431   1.293  14.946 -0.0399  0.4712 -0.1997
  659TMC3     O 9809   4.416   1.395  14.881 -0.1454  0.2214  0.0087
  659TMC3     H 9810   4.433   1.422  15.160 -1.5912  1.3843  1.2511
  659TMC3    H1 9811   4.236   1.139  14.938 -0.1384  1.0697 -0.8536
  659TMC3    H2 9812   4.011   1.361  15.211  0.3770  0.2973  0.0526
  659TMC3    C7 9813   3.988   1.186  15.036 -0.3979  0.0688  0.5685
  659TMC3    C8 9814   4.212   1.496  15.311 -0.6108 -0.0337 -0.3835
  659TMC3    O1 9815   3.891   1.228  15.097  0.0788 -0.1915  0.1055
  659TMC3    O2 9816   4.102   1.507  15.366  0.3396  0.6046 -0.8026
  660MPD2     C 9817   3.128   0.180  12.625 -0.1268 -0.3548 -0.0656
  660MPD2    C1 9818   2.996   0.220  12.646  0.5926 -0.5153  0.2337
  660MPD2    C2 9819   2.906   0.141  12.721 -1.0678  0.3847  0.7735
  660MPD2    C3 9820   2.945   0.041  12.806  0.6168 -0.5506  0.0401
  660MPD2    C4 9821   3.088   0.024  12.809 -0.3068  0.6798  0.7068
  660MPD2    C5 9822   3.169   0.080  12.712 -0.2588 -0.7875  0.3730
  660MPD2     H 9823   2.805   0.178  12.733 -0.3200  2.4130  0.8509
  660MPD2    H1 9824   3.137   4.678  12.866 -2.5749 -2.6021 -1.8067
  660MPD2    H2 9825   3.189   0.224  12.548  0.6095 -0.4535  0.4649
  660MPD2    H3 9826   3.276   0.059  12.712 -0.5477 -2.2288  3.2424
  660MPD2     N 9827   2.859   4.697  12.890 -0.7055  0.0427  0.0752
  660MPD2    H5 9828   2.900   4.634  12.957 -1.1936 -0.1396  0.2033
  660MPD2    N1 9829   2.924   0.314  12.579  0.5699  0.4585  0.1116
  660MPD2    H7 9830   2.833   0.335  12.619  1.1216  0.2140  1.4749
  661TMC3    C1 9831   2.872   0.478  12.434  0.2311  0.9977  0.0168
  661TMC3    C2 9832   2.844   0.439  12.305 -0.1696 -0.1090 -0.2047
  661TMC3    C3 9833   2.714   0.416  12.274  0.2136 -0.5708 -0.1724
  661TMC3    C4 9834   2.770   0.490  12.523 -0.1119 -0.6233 -0.0718
  661TMC3    C5 9835   2.640   0.471  12.494 -0.1956  0.0193 -0.9467
  661TMC3    C6 9836   2.617   0.432  12.369 -0.4022  0.0544 -0.4771
  661TMC3     C 9837   2.979   0.401  12.487 -0.1462 -0.1907 -0.2252
  661TMC3     O 9838   3.078   0.399  12.416 -0.4505  0.2211  0.4452
  661TMC3     H 9839   2.926   0.411  12.240  1.0759 -2.0137  2.1842
  661TMC3    H1 9840   2.794   0.514  12.626  0.2154 -3.5772  0.5283
  661TMC3    H2 9841   2.522   0.392  12.336 -0.4348 -0.3463  0.0902
  661TMC3    C7 9842   2.571   0.406  12.604 -0.4461  0.1819 -0.1995
  661TMC3    C8 9843   2.673   0.381  12.139 -1.3485 -0.2330  0.1605
  661TMC3    O1 9844   2.636   0.384  12.707 -0.7674  0.0979  0.1295
  661TMC3    O2 9845   2.740   0.309  12.070 -0.0745  0.0975 -0.0634
  662MPD2     C 9846   2.957   0.024  16.960 -0.2951  0.2056 -0.7095
  662MPD2    C1 9847   2.837   4.701  17.002 -1.0837  0.3085  1.2733
  662MPD2    C2 9848   2.732   0.058  17.038 -0.3143 -0.1535  0.6964
  662MPD2    C3 9849   2.760   0.196  17.052  0.0679  0.3742 -0.2333
  662MPD2    C4 9850   2.876   0.250  17.001 -0.1391  0.2251 -0.7033
  662MPD2    C5 9851   2.971   0.157  16.956  0.3935 -0.2819 -0.3437
  662MPD2     H 9852   2.634   0.016  17.052 -1.1714  1.7946  0.6241
  662MPD2    H1 9853   2.899   0.356  16.999 -0.4482  0.2924 -0.6719
  662MPD2    H2 9854   3.034   4.690  16.924 -0.0131 -0.8195  1.7694
  662MPD2    H3 9855   3.055   0.202  16.903 -0.7668  0.1012 -1.8696
  662MPD2     N 9856   2.670   0.285  17.113 -0.2516  0.7585 -1.1125
  662MPD2    H5 9857   2.699   0.381  17.134  0.9050  0.0956  0.3131
  662MPD2    N1 9858   2.816   4.560  17.004  0.5987 -0.0732  0.3378
  662MPD2    H7 9859   2.718   4.539  17.023  0.5013  1.3222  1.3612
  663TMC3    C1 9860   2.871   4.329  17.018  0.6091  0.6658  0.3741
  663TMC3    C2 9861   2.739   4.305  17.002  0.1076  0.6478 -0.1911
  663TMC3    C3 9862   2.696   4.170  17.013  0.5042 -0.1871  0.4333
  663TMC3    C4 9863   2.952   4.233  17.055  0.0049  0.1903 -0.3647
  663TMC3    C5 9864   2.910   4.106  17.076  0.8755 -0.0542 -0.0346
  663TMC3    C6 9865   2.780   4.071  17.062  0.7195 -0.3851  0.2286
  663TMC3     C 9866   2.915   4.465  17.006  0.8771  0.3126 -0.1424
  663TMC3     O 9867   3.036   4.481  17.001  0.2844  0.1584  0.0558
  663TMC3     H 9868   2.683   4.384  16.954 -1.2813  0.6614  1.4359
  663TMC3    H1 9869   3.051   4.264  17.085 -0.5800  1.0868  0.6528
  663TMC3    H2 9870   2.760   3.974  17.018  0.9210  0.4618 -1.7422
  663TMC3    C7 9871   2.998   4.008  17.140  0.1035  0.6050  0.1435
  663TMC3    C8 9872   2.575   4.159  17.095  0.7102 -0.3171 -0.1011
  663TMC3    O1 9873   3.118   4.012  17.121 -0.2136 -0.1360 -0.2845
  663TMC3    O2 9874   2.592   4.090  17.195  0.2650  0.5211 -0.3980
  664MPD2     C 9875   0.311   2.756  17.422  0.0374 -0.1832 -0.6450
  664MPD2    C1 9876   0.404   2.851  17.468  0.8320  0.6780 -0.7870
  664MPD2    C2 9877   0.499   2.800  17.550  0.1612  0.0340  0.0692
  664MPD2    C3 9878   0.518   2.665  17.571 -0.3646  0.1443  0.1728
  664MPD2    C4 9879   0.426   2.573  17.515  0.2637 -0.3003  0.3306
  664MPD2    C5 9880   0.321   2.623  17.440 -0.4412 -0.1516 -0.0620
  664MPD2     H 9881   0.565   2.866  17.605 -1.5796 -0.8197  3.1643
  664MPD2    H1 9882   0.430   2.467  17.537 -2.1484 -0.3462  0.4592
  664MPD2    H2 9883   0.221   2.784  17.369  1.2827  1.6517 -1.7909
  664MPD2    H3 9884   0.250   2.557  17.392  0.0957  0.5744 -1.8531
  664MPD2     N 9885   0.622   2.634  17.664 -0.4073 -0.4125  0.4446
  664MPD2    H5 9886   0.658   2.711  17.720  2.1824  0.0756 -1.8930
  664MPD2    N1 9887   0.394   2.989  17.448  0.1114  0.3766  0.2061
  664MPD2    H7 9888   0.471   3.037  17.494  0.1242 -0.9930  1.6302
  665TMC3    C1 9889   0.745   2.510   0.093  0.6390 -0.3717 -0.3927
  665TMC3    C2 9890   0.666   2.487   0.206 -0.2733  0.4489 -0.0049
  665TMC3    C3 9891   0.703   2.537   0.328 -0.3534 -0.2644 -0.6316
  665TMC3    C4 9892   0.848   2.603   0.113  0.0055  0.6933 -0.5063
  665TMC3    C5 9893   0.876   2.655   0.238 -0.5466  0.2101 -0.5358
  665TMC3    C6 9894   0.812   2.610   0.344  0.4377  0.1200 -0.6206
  665TMC3     C 9895   0.666   2.515  17.703 -0.1751 -0.0045 -0.9104
  665TMC3     O 9896   0.620   2.407  17.670  0.4287  0.4866  0.5040
  665TMC3     H 9897   0.578   2.425   0.192  1.9319 -2.5507 -0.8684
  665TMC3    H1 9898   0.900   2.643   0.027 -0.4109  0.3168 -0.9249
  665TMC3    H2 9899   0.835   2.634   0.447  1.4430 -2.9128 -0.1418
  665TMC3    C7 9900   0.985   2.751   0.240 -0.1425 -0.0489 -0.6983
  665TMC3    C8 9901   0.607   2.523   0.435 -0.6891 -0.7328 -0.4310
  665TMC3    O1 9902   1.043   2.771   0.132  0.2615  0.1852 -0.3664
  665TMC3    O2 9903   0.583   2.620   0.506  0.3266 -0.2173 -0.6765
  666TMC3    C1 9904   0.274   3.599   9.781  0.2758  0.4059  0.0675
  666TMC3    C2 9905   0.308   3.472   9.812 -0.4987 -0.0642 -0.2739
  666TMC3    C3 9906   0.433   3.434   9.854  0.7310 -0.1588  0.4890
  666TMC3    C4 9907   0.367   3.697   9.807 -0.2472 -0.5642  0.1530
  666TMC3    C5 9908   0.488   3.667   9.858  0.4687  0.0298 -0.4449
  666TMC3    C6 9909   0.523   3.538   9.885 -0.2608 -1.2539 -0.2518
  666TMC3     C 9910   0.142   3.642   9.800  0.0610  0.2851  0.1610
  666TMC3     O 9911   0.123   3.763   9.793  0.2892 -0.5794  0.7474
  666TMC3     H 9912   0.246   3.393   9.773  0.5991 -0.8285 -0.4766
  666TMC3    H1 9913   0.332   3.800   9.801 -1.6990 -1.0418  0.3552
  666TMC3    H2 9914   0.619   3.518   9.931  0.0331  1.1473  0.2045
  666TMC3    C7 9915   0.543   3.784   9.927 -0.2895 -0.0875  0.1202
  666TMC3    C8 9916   0.429   3.321   9.943 -0.0188 -0.3155 -0.1527
  666TMC3    O1 9917   0.501   3.895   9.901  0.6949  0.9354  0.3948
  666TMC3    O2 9918   0.323   3.266   9.971 -0.3943 -0.0986 -0.1079
  667MPD2     C 9919   2.079   2.861  14.705  0.5990  0.0544  0.0241
  667MPD2    C1 9920   1.944   2.889  14.735 -0.8057  0.2654 -0.1894
  667MPD2    C2 9921   1.853   2.789  14.729  0.7729 -0.2320 -0.5957
  667MPD2    C3 9922   1.884   2.662  14.685  0.5293 -0.3892  0.2379
  667MPD2    C4 9923   2.012   2.636  14.643  0.2971  0.4407  0.1492
  667MPD2    C5 9924   2.105   2.735  14.658  0.3741 -0.2507  0.0013
  667MPD2     H 9925   1.748   2.813  14.740  0.5301 -1.8684  0.5361
  667MPD2    H1 9926   2.044   2.540  14.604 -0.3241 -0.0531  0.8388
  667MPD2    H2 9927   2.152   2.940  14.714 -1.7251  2.0223  1.7005
  667MPD2    H3 9928   2.208   2.727  14.623  0.5861 -0.2038  0.6061
  667MPD2     N 9929   1.797   2.554  14.685 -0.0253 -0.2866 -0.1151
  667MPD2    H5 9930   1.833   2.459  14.685  1.5460  0.3124 -0.8165
  667MPD2    N1 9931   1.889   3.019  14.774  0.0240 -0.2340 -0.3239
  667MPD2    H7 9932   1.799   3.025  14.819 -1.0742  3.2740 -2.9663
  668TMC3    C1 9933   1.907   3.225  14.888  0.8358  0.6720 -0.3212
  668TMC3    C2 9934   1.946   3.354  14.873 -0.4940 -0.1867 -0.3000
  668TMC3    C3 9935   1.904   3.441  14.980 -0.0199  0.0925  0.0494
  668TMC3    C4 9936   1.821   3.187  14.994 -0.1534 -0.3621 -0.5725
  668TMC3    C5 9937   1.784   3.281  15.093 -0.1293  0.2555  0.1958
  668TMC3    C6 9938   1.825   3.411  15.082 -0.4512 -0.3007  0.0562
  668TMC3     C 9939   1.968   3.133  14.786 -0.2000  0.7731 -1.4816
  668TMC3     O 9940   2.062   3.159  14.712 -0.0606  0.6530  0.0067
  668TMC3     H 9941   2.006   3.385  14.788  0.5739  2.8854  1.5603
  668TMC3    H1 9942   1.804   3.082  15.014 -1.0250 -0.3996 -1.5793
  668TMC3    H2 9943   1.810   3.492  15.152  0.5369 -0.6442  0.6634
  668TMC3    C7 9944   1.722   3.239  15.218 -0.1509 -0.8317 -0.4058
  668TMC3    C8 9945   1.979   3.566  14.996 -0.4079  0.1680  0.7698
  668TMC3    O1 9946   1.717   3.316  15.316 -0.4832  0.0349  0.5363
  668TMC3    O2 9947   1.945   3.645  15.087  0.1913 -0.1547 -0.4970
  669TMC3    C1 9948   4.474   3.113  14.431 -0.1556  0.0123 -0.4015
  669TMC3    C2 9949   4.385   3.084  14.334 -0.3077  0.6417  0.0743
  669TMC3    C3 9950   4.416   3.114  14.204  0.1238 -0.0762  0.1876
  669TMC3    C4 9951   4.599   3.173  14.408  0.0618  0.4515 -0.7653
  669TMC3    C5 9952   4.629   3.188  14.270 -0.1169  0.0814 -1.0900
  669TMC3    C6 9953   4.542   3.157  14.163 -0.6277 -0.9445 -0.5957
  669TMC3     C 9954   4.429   3.115  14.569  0.1004  0.3328 -0.0181
  669TMC3     O 9955   4.358   3.027  14.615 -0.6028 -0.0073  0.0726
  669TMC3     H 9956   4.283   3.060  14.364  0.2951 -0.1360  1.5220
  669TMC3    H1 9957   4.678   3.182  14.482 -1.1578  2.3704  0.2942
  669TMC3    H2 9958   4.567   3.196  14.065  0.8398 -0.2149  0.0802
  669TMC3    C7 9959   0.037   3.217  14.233  0.9385 -0.1597  0.3615
  669TMC3    C8 9960   4.363   3.019  14.113 -0.1433  0.3520  0.0471
  669TMC3    O1 9961   0.115   3.260  14.317  0.6183 -0.2181  0.3418
  669TMC3    O2 9962   4.434   2.996  14.013 -0.4016  0.4432  0.3809
  670MPD2     C 9963   2.409   0.412  13.584  0.0773 -0.1256  0.5881
  670MPD2    C1 9964   2.536   0.459  13.629  0.1562  0.5306 -0.6687
  670MPD2    C2 9965   2.557   0.471  13.766 -0.3889  0.0643 -0.2751
  670MPD2    C3 9966   2.453   0.450  13.856  0.5592  0.4105 -0.0779
  670MPD2    C4 9967   2.332   0.406  13.808  0.7792 -0.1792 -0.7179
  670MPD2    C5 9968   2.308   0.390  13.674 -0.6649 -0.0831  1.1037
  670MPD2     H 9969   2.656   0.499  13.800 -0.6462 -0.0376  0.5528
  670MPD2    H1 9970   2.257   0.375  13.879 -0.3748 -1.7495 -2.6078
  670MPD2    H2 9971   2.381   0.397  13.481  2.5328 -1.2854  0.0873
  670MPD2    H3 9972   2.217   0.361  13.623 -0.2742  1.7684 -0.6662
  670MPD2     N 9973   2.484   0.489  13.986 -0.4790 -0.3869  0.1058
  670MPD2    H5 9974   2.575   0.534  13.989 -1.4247  1.5739 -0.5632
  670MPD2    N1 9975   2.643   0.482  13.542 -1.0596  0.3903  0.0667
  670MPD2    H7 9976   2.728   0.513  13.588 -0.6074  0.0218 -0.5228
  671TMC3    C1 9977   2.483   0.461  14.219 -0.0677  0.1420 -0.5705
  671TMC3    C2 9978   2.618   0.446  14.227  0.0700 -0.3515 -0.6347
  671TMC3    C3 9979   2.670   0.361  14.316  0.2305  0.1765  0.7876
  671TMC3    C4 9980   2.398   0.414  14.318  0.7298 -0.8033 -0.0443
  671TMC3    C5 9981   2.455   0.320  14.400 -0.2853  0.4347 -0.4993
  671TMC3    C6 9982   2.590   0.291  14.395 -0.3456  0.0925  0.3944
  671TMC3     C 9983   2.411   0.456  14.096  0.0394 -0.1410  0.0803
  671TMC3     O 9984   2.297   0.413  14.100  0.5023 -0.0621 -0.1455
  671TMC3     H 9985   2.680   0.472  14.141  0.3183  0.2943 -0.2642
  671TMC3    H1 9986   2.290   0.409  14.306  0.8970 -0.0775 -1.8552
  671TMC3    H2 9987   2.621   0.199  14.443  0.2883 -0.4599 -1.0733
  671TMC3    C7 9988   2.364   0.216  14.428 -0.3270  0.2146 -0.0784
  671TMC3    C8 9989   2.806   0.322  14.298 -0.5990  0.4908 -0.0563
  671TMC3    O1 9990   2.249   0.250  14.462 -0.4025 -0.3994  0.5205
  671TMC3    O2 9991   2.863   0.349  14.190  0.7275  0.5390  0.5760
  672MPD2     C 9992   3.130   1.283   0.458  0.5052  0.2574 -0.9174
  672MPD2    C1 9993   3.149   1.221   0.578  0.2667  0.0148  0.0039
  672MPD2    C2 9994   3.189   1.298   0.686 -0.2617  0.1033  0.5217
  672MPD2    C3 9995   3.229   1.432   0.675 -0.1775 -0.5711  0.6045
  672MPD2    C4 9996   3.205   1.494   0.552  0.3929 -0.1238  0.1125
  672MPD2    C5 9997   3.154   1.419   0.450 -0.2844 -0.0444  0.1575
  672MPD2     H 9998   3.210   1.238   0.774 -0.2682 -1.5361 -0.6133
  672MPD2    H1 9999   3.227   1.597   0.529  2.5110 -0.6556 -0.2010
  672MPD2    H210000   3.099   1.225   0.372  0.6732 -0.2996 -0.6005
  672MPD2    H310001   3.155   1.477   0.359  3.6221 -0.8952 -0.3336
  672MPD2     N10002   3.291   1.500   0.780 -0.3813 -0.5516 -0.1914
  672MPD2    H510003   3.335   1.589   0.759  3.7290 -2.6697 -0.5697
  672MPD2    N110004   3.122   1.085   0.598 -0.3505  0.2613 -0.6515
  672MPD2    H710005   3.132   1.055   0.694  0.8887  0.9924 -0.5435
  673TMC3    C110006   3.063   0.865   0.565  0.7611 -0.4561 -0.3393
  673TMC3    C210007   3.075   0.764   0.467  0.2233 -0.4891 -0.5621
  673TMC3    C310008   3.008   0.648   0.483  1.0659  0.6849 -0.2332
  673TMC3    C410009   2.961   0.858   0.655 -0.3805  0.1823 -0.0399
  673TMC3    C510010   2.889   0.748   0.662 -0.3020  0.5601 -0.7652
  673TMC3    C610011   2.907   0.642   0.578  0.1408  0.0858 -0.3615
  673TMC3     C10012   3.098   0.990   0.507  0.5120 -0.0791  0.3348
  673TMC3     O10013   3.062   0.992   0.390 -0.6263 -0.0706  0.2733
  673TMC3     H10014   3.156   0.768   0.396 -1.8510  1.9801 -2.7909
  673TMC3    H110015   2.949   0.935   0.730  1.1794  0.9253 -0.5463
  673TMC3    H210016   2.839   0.558   0.581  2.8414 -2.0617 -0.3095
  673TMC3    C710017   2.742   0.761   0.702  0.1059 -0.4318 -0.4228
  673TMC3    C810018   3.095   0.537   0.463  0.0540 -0.1891  0.0984
  673TMC3    O110019   2.662   0.666   0.698  0.2346  0.2746 -0.0894
  673TMC3    O210020   3.057   0.436   0.410  0.5830 -0.5018  0.4442
  674MPD2     C10021   2.912   0.873  17.454  0.9083 -1.2741  0.6631
  674MPD2    C110022   2.874   0.764  17.532 -0.2687 -0.0880 -0.8736
  674MPD2    C210023   2.827   0.798  17.658  0.4288  0.2507 -0.0732
  674MPD2    C310024   2.831   0.922  17.714 -0.6502 -0.0697  0.9072
  674MPD2    C410025   2.871   1.026  17.634 -0.0797 -0.5714  0.3235
  674MPD2    C510026   2.913   0.997  17.505  0.2252  0.1215  0.7490
  674MPD2     H10027   2.779   0.726  17.723  0.0080  0.9190  0.3493
  674MPD2    H110028   2.882   1.124  17.679 -1.1763 -0.4959  0.4097
  674MPD2    H210029   2.943   0.856  17.351 -0.3069  0.3015  0.0334
  674MPD2    H310030   2.940   1.074  17.434  0.0966  0.7398  1.3791
  674MPD2     N10031   2.783   0.928   0.120 -0.6304  0.3306 -0.1750
  674MPD2    H510032   2.741   0.842   0.154 -0.2824  0.2018 -0.0786
  674MPD2    N110033   2.862   0.636  17.477 -0.3154 -0.3182 -0.2654
  674MPD2    H710034   2.873   0.626  17.377  1.0250  0.2698 -0.1778
  675TMC3    C110035   2.875   0.496  17.686  0.1347 -0.1806 -0.1136
  675TMC3    C210036   2.810   0.389   0.013 -0.1248 -0.4397 -0.5240
  675TMC3    C310037   2.879   0.328   0.111  0.1712 -0.3724 -0.0991
  675TMC3    C410038   3.010   0.527  17.715  0.3634 -0.4073  0.0861
  675TMC3    C510039   3.078   0.434   0.064 -0.2859  0.2976 -0.2042
  675TMC3    C610040   3.015   0.333   0.126  0.2674 -0.4211  0.4276
  675TMC3     C10041   2.847   0.511  17.541 -0.4841 -0.6979  0.3972
  675TMC3     O10042   2.828   0.403  17.489 -0.6366  0.5321  0.2953
  675TMC3     H10043   2.708   0.365  17.712  0.0251 -0.2072 -1.2657
  675TMC3    H110044   3.065   0.599  17.656 -1.0027  0.4793 -0.0979
  675TMC3    H210045   3.069   0.257   0.181  1.2867  0.1346  0.2055
  675TMC3    C710046   3.216   0.431   0.033 -0.2250  0.2601  0.5472
  675TMC3    C810047   2.807   0.234   0.198 -0.3006 -0.3620  0.4791
  675TMC3    O110048   3.275   0.325   0.014 -0.1021 -0.3606 -0.3670
  675TMC3    O210049   2.711   0.179   0.145 -0.2111 -0.1381 -0.7771
  676MPD2     C10050   1.208   4.109  11.215  0.3683  0.4190 -0.8841
  676MPD2    C110051   1.080   4.085  11.265 -0.5771 -0.3401 -0.9056
  676MPD2    C210052   1.037   3.952  11.276 -0.1864 -0.4158  0.6722
  676MPD2    C310053   1.124   3.846  11.269  0.0245  0.6379 -0.7937
  676MPD2    C410054   1.240   3.873  11.205 -0.0316  0.1458  0.0650
  676MPD2    C510055   1.284   3.997  11.175 -0.1333 -0.8179 -0.0675
  676MPD2     H10056   0.935   3.941  11.312 -0.8213 -0.5021 -1.1702
  676MPD2    H110057   1.303   3.788  11.181 -0.0384  0.2125 -0.1845
  676MPD2    H210058   1.246   4.209  11.193 -0.0744  0.6766 -0.4790
  676MPD2    H310059   1.380   4.015  11.126 -1.4458  1.0886 -1.9677
  676MPD2     N10060   1.088   3.716  11.311 -0.4007 -0.1621  0.5652
  676MPD2    H510061   1.163   3.649  11.310 -0.1416  0.1203  1.3338
  676MPD2    N110062   0.981   4.179  11.295  0.0956 -0.4827 -0.2927
  676MPD2    H710063   0.886   4.147  11.313  0.1905 -1.3202 -1.2950
  677TMC3    C110064   0.912   4.376  11.404 -0.2107  0.1729 -0.1556
  677TMC3    C210065   0.836   4.290  11.488 -0.2228  0.0762  0.6173
  677TMC3    C310066   0.771   4.351  11.597 -0.0481  0.4367 -0.4502
  677TMC3    C410067   0.929   4.509  11.434 -0.0067 -0.2799  0.1039
  677TMC3    C510068   0.863   4.564  11.538  0.7410  0.0291 -0.7157
  677TMC3    C610069   0.784   4.483  11.614  0.4359  0.5495 -0.4268
  677TMC3     C10070   1.003   4.317  11.304  0.0326 -0.9383  0.6486
  677TMC3     O10071   1.093   4.388  11.261  0.2947  0.4095 -0.6386
  677TMC3     H10072   0.819   4.186  11.463  0.1753  0.1712 -0.0388
  677TMC3    H110073   0.995   4.563  11.367  0.7686 -1.3848 -0.0329
  677TMC3    H210074   0.731   4.538  11.691 -1.5006  0.5484 -1.7460
  677TMC3    C710075   0.964   4.633  11.614  0.0546 -0.3422  0.3059
  677TMC3    C810076   0.722   4.271  11.710 -1.1907 -0.1275 -0.0319
  677TMC3    O110077   0.981   4.608  11.729 -0.5562 -0.7447  0.4374
  677TMC3    O210078   0.619   4.302  11.772 -0.2694  0.5390 -0.1343
  678MPD2     C10079   1.885   3.975   1.284  0.3092  0.0999  0.7447
  678MPD2    C110080   1.913   3.876   1.190  0.5789  0.2292  0.2354
  678MPD2    C210081   1.807   3.814   1.125  0.5484  0.4910 -0.0630
  678MPD2    C310082   1.682   3.857   1.157  0.1587  0.3396  0.4604
  678MPD2    C410083   1.651   3.942   1.260 -0.1752 -0.2614  0.4339
  678MPD2    C510084   1.752   4.007   1.316 -0.7907 -0.0249 -0.3048
  678MPD2     H10085   1.831   3.738   1.052  0.1346 -1.1345  1.4964
  678MPD2    H110086   1.552   3.967   1.297 -0.7868  0.5294 -1.7160
  678MPD2    H210087   1.967   4.029   1.330 -0.9594  1.8590  0.9673
  678MPD2    H310088   1.721   4.090   1.379  2.0195 -0.1434  1.2638
  678MPD2     N10089   1.584   3.795   1.084 -0.3359  0.6126 -0.5919
  678MPD2    H510090   1.619   3.737   1.008 -0.8088 -0.0390 -0.3134
  678MPD2    N110091   2.043   3.833   1.154  0.7469 -0.4086 -0.5103
  678MPD2    H710092   2.051   3.766   1.078 -1.3349  0.0713 -1.1474
  679TMC3    C110093   2.336   3.671   0.969 -0.8707  0.0975  0.1273
  679TMC3    C210094   2.284   3.723   1.090 -0.6106  0.4107  0.3036
  679TMC3    C310095   2.261   3.852   1.098  0.7044 -0.3936 -0.7207
  679TMC3    C410096   2.361   3.755   0.866  0.3139 -0.0634  0.4139
  679TMC3    C510097   2.333   3.885   0.888 -0.4400  0.0989  0.4065
  679TMC3    C610098   2.290   3.942   1.001 -0.1408 -0.3826  0.1762
  679TMC3     C10099   2.419   3.549   0.970 -0.0798 -0.6011  0.4623
  679TMC3     O10100   2.530   3.555   0.907 -0.1916 -0.2100 -0.0176
  679TMC3     H10101   2.266   3.663   1.178 -0.8330 -1.9649 -1.3503
  679TMC3    H110102   2.392   3.710   0.772 -0.4165 -0.1504  0.2133
  679TMC3    H210103   2.280   4.049   1.014 -0.5611 -0.5966  1.6179
  679TMC3    C710104   2.370   3.977   0.781 -0.0771  0.0486  0.1252
  679TMC3    C810105   2.161   3.898   1.183  0.3099  0.1989  0.9069
  679TMC3    O110106   2.332   4.092   0.779 -0.5334 -0.2951 -0.1929
  679TMC3    O210107   2.178   4.010   1.230  0.3181  0.0625  0.0086
  680MPD2     C10108   2.471   2.612  14.013 -0.5129  0.0656 -0.2279
  680MPD2    C110109   2.605   2.564  13.993 -0.1180 -0.3770  0.5029
  680MPD2    C210110   2.694   2.654  13.941  0.2973  0.2320 -0.5466
  680MPD2    C310111   2.669   2.785  13.917  0.2326 -0.5663 -0.2430
  680MPD2    C410112   2.543   2.826  13.924 -0.3904 -0.3005  0.2994
  680MPD2    C510113   2.448   2.739  13.956 -0.0195  0.2390  0.0593
  680MPD2     H10114   2.797   2.626  13.919  0.5754  0.0626  0.9470
  680MPD2    H110115   2.515   2.928  13.897 -0.7628  0.0117  1.8751
  680MPD2    H210116   2.387   2.552  14.046  0.6380 -1.1728  0.4063
  680MPD2    H310117   2.351   2.786  13.952  0.1749  0.3935 -3.0691
  680MPD2     N10118   2.780   2.869  13.891  0.1876 -0.5495 -0.3958
  680MPD2    H510119   2.873   2.828  13.899 -0.5968 -2.0697  0.7975
  680MPD2    N110120   2.632   2.430  14.026 -0.2938  0.5251  0.3214
  680MPD2    H710121   2.550   2.371  14.041 -0.5361  0.6104 -0.6942
  681TMC3    C110122   2.766   2.230  14.040 -0.1997 -0.4430 -0.1593
  681TMC3    C210123   2.661   2.149  14.087 -0.3238 -0.5971  0.5539
  681TMC3    C310124   2.687   2.017  14.106 -0.4446 -0.1948 -0.7076
  681TMC3    C410125   2.894   2.179  14.019  0.1105 -0.4121 -0.2221
  681TMC3    C510126   2.906   2.047  14.035 -0.6688 -0.2458 -0.2875
  681TMC3    C610127   2.812   1.961  14.078  0.0829 -0.3225 -0.1120
  681TMC3     C10128   2.763   2.379  14.037  0.1292  0.3970 -0.0038
  681TMC3     O10129   2.867   2.445  14.041 -0.8098 -0.5327  0.3090
  681TMC3     H10130   2.564   2.197  14.098  1.1302  2.0725  1.7771
  681TMC3    H110131   2.978   2.243  13.994  3.1512 -3.2564  2.7803
  681TMC3    H210132   2.812   1.853  14.067 -0.7685 -0.3023 -0.3594
  681TMC3    C710133   3.011   1.989  13.953 -0.3478 -0.8307 -0.7530
  681TMC3    C810134   2.586   1.951  14.188  0.1802 -0.3148 -0.2932
  681TMC3    O110135   3.070   1.891  14.002  0.3723  0.2892 -0.0127
  681TMC3    O210136   2.627   1.899  14.291  0.3690 -0.3387 -1.0295
  682MPD2     C10137   0.331   4.647  10.934 -0.0018  0.9788 -0.2503
  682MPD2    C110138   0.253   4.555  10.864  0.1632 -0.2207  0.1409
  682MPD2    C210139   0.148   4.488  10.922 -0.7181  0.3444  0.0482
  682MPD2    C310140   0.112   4.513  11.052  0.7481  0.6151  0.2688
  682MPD2    C410141   0.194   4.604  11.122 -0.5125 -0.0577  0.2354
  682MPD2    C510142   0.297   4.669  11.061  0.1340  0.7246 -0.4516
  682MPD2     H10143   0.091   4.420  10.860 -0.1186 -1.2241  1.2073
  682MPD2    H110144   0.170   4.623  11.226 -0.0908 -3.5180  0.9830
  682MPD2    H210145   0.424   4.691  10.899  0.7255  1.3410  2.0803
  682MPD2    H310146   0.351   0.013  11.116  0.8396 -0.1775  0.1127
  682MPD2     N10147   4.729   4.462  11.108  0.1269 -0.3157 -0.1896
  682MPD2    H510148   4.726   4.469  11.210  0.0725  0.1502 -0.2227
  682MPD2    N110149   0.285   4.516  10.729  0.0874  0.8139 -0.4408
  682MPD2    H710150   0.221   4.446  10.691 -0.0753  1.3058 -1.0640
  683TMC3    C110151   4.508   4.265  11.343 -0.1120 -0.4608  0.1204
  683TMC3    C210152   4.451   4.145  11.301  0.1797  0.4546  0.2654
  683TMC3    C310153   4.434   4.140  11.167 -0.0024  0.1096 -0.4486
  683TMC3    C410154   4.544   4.367  11.262 -0.2504  0.5711  0.3343
  683TMC3    C510155   4.524   4.350  11.124 -0.5187  0.4966 -0.7198
  683TMC3    C610156   4.476   4.231  11.074 -0.3085  0.8761 -1.0557
  683TMC3     C10157   4.512   4.289  11.481 -0.7349  0.3375  0.5528
  683TMC3     O10158   4.482   4.404  11.518 -0.0307  0.4196 -0.2105
  683TMC3     H10159   4.424   4.062  11.365  1.2763  1.0289  1.4768
  683TMC3    H110160   4.564   4.468  11.296 -0.6026  0.8199 -0.1972
  683TMC3    H210161   4.463   4.211  10.968 -0.9383 -0.4599 -0.7302
  683TMC3    C710162   4.618   4.419  11.036 -0.7614  0.0008  0.2118
  683TMC3    C810163   4.400   4.011  11.114 -0.5297 -0.7438  0.6428
  683TMC3    O110164   4.598   4.411  10.914  0.0786 -0.2810 -0.6349
  683TMC3    O210165   4.365   4.010  10.999 -0.0862  0.6211 -0.1537
  684MPD2     C10166   2.655   3.310  16.491  0.5640  0.1608 -0.0698
  684MPD2    C110167   2.730   3.361  16.386  0.3412  0.3409 -0.2181
  684MPD2    C210168   2.760   3.496  16.382 -1.1762 -0.3100 -0.1174
  684MPD2    C310169   2.728   3.578  16.486 -0.2415  0.0046 -0.2436
  684MPD2    C410170   2.666   3.523  16.595  0.2246 -0.4711 -0.3831
  684MPD2    C510171   2.632   3.390  16.602 -0.0915 -0.6422  0.1419
  684MPD2     H10172   2.814   3.537  16.298 -1.2704  2.2550  1.0858
  684MPD2    H110173   2.660   3.583  16.686 -0.0504  0.9677 -1.3518
  684MPD2    H210174   2.626   3.207  16.508  1.2718  0.1487  1.0662
  684MPD2    H310175   2.581   3.350  16.689  0.6028  0.3698  1.0204
  684MPD2     N10176   2.752   3.716  16.485 -0.3064  0.0293 -0.1804
  684MPD2    H510177   2.749   3.761  16.576 -2.5685  1.4090 -0.9333
  684MPD2    N110178   2.769   3.276  16.279  0.2648 -0.1418  0.2950
  684MPD2    H710179   2.719   3.190  16.257 -2.2402  1.3130  0.2788
  685TMC3    C110180   2.912   3.225  16.083  0.2954  1.1158  0.4212
  685TMC3    C210181   2.814   3.255  15.998  0.7693 -0.1696 -0.1783
  685TMC3    C310182   2.842   3.300  15.871  0.1937  0.3085 -0.0473
  685TMC3    C410183   3.041   3.235  16.043 -0.2084  0.1681 -0.4480
  685TMC3    C510184   3.071   3.288  15.924 -0.1067 -0.1692 -0.4267
  685TMC3    C610185   2.970   3.328  15.838  0.0233 -0.2899 -0.0975
  685TMC3     C10186   2.889   3.284  16.214  0.5192 -0.4915 -0.6475
  685TMC3     O10187   2.985   3.352  16.248  0.2198  0.0060  0.3453
  685TMC3     H10188   2.713   3.234  16.032  1.0559  0.7868  1.2906
  685TMC3    H110189   3.120   3.200  16.110 -0.0874  2.1853  0.4554
  685TMC3    H210190   2.997   3.377  15.745  1.7693  0.6017  0.8665
  685TMC3    C710191   3.203   3.331  15.900  0.5265 -0.0537  0.5211
  685TMC3    C810192   2.732   3.361  15.800 -0.1645 -0.2778  0.3193
  685TMC3    O110193   3.289   3.252  15.936 -0.1200 -0.0599 -0.2859
  685TMC3    O210194   2.745   3.388  15.683 -0.1133 -0.1468 -0.1558
  686MPD2     C10195   3.895   3.015  15.077 -0.3317  0.1244  0.3063
  686MPD2    C110196   3.924   2.961  15.200  0.5696 -0.1358  0.1383
  686MPD2    C210197   3.926   2.826  15.200 -0.3071  0.1020 -0.4675
  686MPD2    C310198   3.890   2.744  15.093 -0.3333  0.5018  1.0307
  686MPD2    C410199   3.858   2.801  14.973  0.4372 -0.0360 -0.2788
  686MPD2    C510200   3.877   2.936  14.964 -0.4241 -0.7069  0.7791
  686MPD2     H10201   3.972   2.771  15.282 -0.9819 -1.0369 -0.8534
  686MPD2    H110202   3.842   2.740  14.885  0.5656  0.9219 -0.9663
  686MPD2    H210203   3.901   3.122  15.063  3.5748 -0.1952 -0.4070
  686MPD2    H310204   3.847   2.989  14.874 -1.0347 -1.7829  0.3535
  686MPD2     N10205   3.898   2.601  15.093  0.1226 -1.1429  0.1790
  686MPD2    H510206   3.901   2.567  14.998 -0.3647  0.7837 -0.5108
  686MPD2    N110207   3.922   3.037  15.317  0.7102 -0.6999 -0.4599
  686MPD2    H710208   3.891   3.133  15.310  0.2795 -0.7302  0.9339
  687TMC3    C110209   3.851   2.554  15.337  0.5747  0.1223  0.0282
  687TMC3    C210210   3.740   2.626  15.351  0.0804 -0.3666  0.3840
  687TMC3    C310211   3.692   2.624  15.474 -0.2431 -0.4330  0.1208
  687TMC3    C410212   3.923   2.485  15.429 -0.6574 -0.5631 -0.1427
  687TMC3    C510213   3.880   2.501  15.559 -0.1142  0.0346 -0.3333
  687TMC3    C610214   3.754   2.560  15.580  0.8754 -0.0041  0.5188
  687TMC3     C10215   3.904   2.516  15.204  0.1830  0.7638  0.4946
  687TMC3     O10216   3.922   2.396  15.192  0.1158 -0.3844 -1.1624
  687TMC3     H10217   3.698   2.676  15.264  1.2592 -1.2747 -0.7066
  687TMC3    H110218   4.016   2.434  15.409  1.6082  3.7575 -0.6227
  687TMC3    H210219   3.710   2.582  15.676 -0.3761  0.5065 -0.1608
  687TMC3    C710220   3.959   2.483  15.674  0.5171  0.2250  0.1046
  687TMC3    C810221   3.611   2.733  15.522  0.2273  0.6559  0.6819
  687TMC3    O110222   3.907   2.503  15.786  0.0356 -0.1319  0.5104
  687TMC3    O210223   3.526   2.701  15.607 -0.4956 -0.6809  0.1687
  688MPD2     C10224   3.355   2.262  17.004  0.7456  0.3102 -1.0483
  688MPD2    C110225   3.468   2.199  17.047 -0.2982  0.7172 -0.3466
  688MPD2    C210226   3.584   2.224  16.977 -0.3075  0.3046  0.0079
  688MPD2    C310227   3.589   2.317  16.875 -0.1256 -0.5175  0.8030
  688MPD2    C410228   3.472   2.369  16.822  0.2041  0.3002  0.2404
  688MPD2    C510229   3.355   2.341  16.888 -0.0014 -0.4612 -0.5879
  688MPD2     H10230   3.670   2.167  17.010 -0.1840  1.1080  1.0581
  688MPD2    H110231   3.472   2.434  16.735  1.4234 -2.2513 -1.6730
  688MPD2    H210232   3.255   2.248  17.044  2.0190 -0.1717  1.9464
  688MPD2    H310233   3.253   2.369  16.862  1.0434  2.8953 -1.0845
  688MPD2     N10234   3.703   2.352  16.805 -0.1555 -0.2164 -0.1705
  688MPD2    H510235   3.697   2.433  16.745 -1.7150 -1.2930 -1.4781
  688MPD2    N110236   3.465   2.107  17.154  0.3967 -0.5371  0.0987
  688MPD2    H710237   3.558   2.078  17.185  1.4658  0.7135 -1.9574
  689TMC3    C110238   3.376   1.990  17.337  0.2160 -0.4805 -0.2644
  689TMC3    C210239   3.475   2.041  17.417  0.4097 -0.1599 -0.2929
  689TMC3    C310240   3.500   1.984  17.537  0.0749  0.8822  1.0016
  689TMC3    C410241   3.291   1.900  17.388  0.2705 -0.4413 -0.4278
  689TMC3    C510242   3.318   1.844  17.513 -0.1839  0.5477  0.3961
  689TMC3    C610243   3.419   1.887  17.591 -0.5660  0.3950 -0.5536
  689TMC3     C10244   3.356   2.045  17.205  0.5686 -0.0760 -0.3448
  689TMC3     O10245   3.261   2.007  17.144  0.0771  0.0813  0.5766
  689TMC3     H10246   3.546   2.114  17.379  0.9157  0.2483  1.4571
  689TMC3    H110247   3.209   1.864  17.328  0.9677  0.2872 -1.8043
  689TMC3    H210248   3.428   1.856  17.695  1.6128 -2.8063 -1.6686
  689TMC3    C710249   3.215   1.768  17.580  0.5066 -0.1961 -0.2255
  689TMC3    C810250   3.533   2.093  17.633  0.0722 -0.6455 -0.6250
  689TMC3    O110251   3.193   1.790  17.699  0.1611  0.0429 -0.2112
  689TMC3    O210252   3.510   2.073   0.024  0.2637 -0.3716  0.0776
  690MPD2     C10253   0.550   3.932  15.499  0.0486  0.4367 -0.2990
  690MPD2    C110254   0.642   3.884  15.600 -0.6410  0.8543  1.2074
  690MPD2    C210255   0.779   3.891  15.582 -0.9325  0.1082 -0.0489
  690MPD2    C310256   0.817   3.944  15.464  0.0481  0.0039 -0.1505
  690MPD2    C410257   0.734   3.988  15.362  0.7188  0.6562 -0.1948
  690MPD2    C510258   0.600   3.989  15.383  0.1223 -0.4659 -0.1384
  690MPD2     H10259   0.843   3.844  15.655 -0.2089  0.2818 -0.5761
  690MPD2    H110260   0.780   4.027  15.272  2.5321 -0.1598  0.3778
  690MPD2    H210261   0.444   3.914  15.513  0.3932 -1.1221  0.2810
  690MPD2    H310262   0.539   4.004  15.296 -0.9972 -3.9504  0.0393
  690MPD2     N10263   0.954   3.948  15.430  0.4512 -0.4322  0.9934
  690MPD2    H510264   0.963   3.959  15.330 -1.3916 -3.1837  0.5253
  690MPD2    N110265   0.601   3.825  15.717  0.1873 -0.3082  1.4358
  690MPD2    H710266   0.674   3.781  15.772  1.1128  1.1515  1.3862
  691TMC3    C110267   0.453   3.749  15.896  0.2857  0.9492  0.9071
  691TMC3    C210268   0.328   3.759  15.953 -0.1655  0.0609 -0.3080
  691TMC3    C310269   0.273   3.652  16.020  0.0463 -0.7366 -0.4607
  691TMC3    C410270   0.517   3.632  15.914 -0.1859 -0.2230  0.2319
  691TMC3    C510271   0.463   3.530  15.985 -0.7420 -0.3796  0.2993
  691TMC3    C610272   0.334   3.533  16.028 -0.0129  0.5372  0.2588
  691TMC3     C10273   0.470   3.822  15.769 -0.0075 -0.1692  0.2896
  691TMC3     O10274   0.372   3.876  15.724 -0.7189 -0.2332 -0.3302
  691TMC3     H10275   0.287   3.859  15.954  2.2183  1.0311 -1.6002
  691TMC3    H110276   0.595   3.613  15.841 -0.1963 -1.6874  0.5985
  691TMC3    H210277   0.300   3.461  16.102 -0.2415 -0.3502 -0.7223
  691TMC3    C710278   0.528   3.402  15.974  0.5923  0.3432 -0.8463
  691TMC3    C810279   0.132   3.654  16.065 -0.5672  0.2200 -0.1258
  691TMC3    O110280   0.643   3.386  16.010 -0.1532  0.0708  0.6793
  691TMC3    O210281   0.084   3.546  16.095  0.3033 -0.0410  0.0038
  692TMC3    C110282   2.571   0.370  15.995  0.0280  0.5513  0.1193
  692TMC3    C210283   2.694   0.395  16.055 -0.3286  0.7034  0.4504
  692TMC3    C310284   2.805   0.311  16.045 -0.0203 -0.4534 -0.1348
  692TMC3    C410285   2.552   0.249  15.936  0.6028  0.4690 -0.2669
  692TMC3    C510286   2.657   0.162  15.946  0.0702 -0.4928  1.1701
  692TMC3    C610287   2.781   0.184  16.003  0.8198  0.2900 -0.1836
  692TMC3     C10288   2.459   0.471  15.988 -0.3771  0.7933  0.5181
  692TMC3     O10289   2.355   0.425  15.941 -0.0177  0.5415 -0.4386
  692TMC3     H10290   2.711   0.500  16.076  1.4037  0.9227 -1.9622
  692TMC3    H110291   2.457   0.207  15.904 -0.0509 -0.4364  2.8439
  692TMC3    H210292   2.869   0.122  15.986  1.1916  0.8310 -0.2223
  692TMC3    C710293   2.635   0.028  15.895 -0.5182 -0.1735  0.3725
  692TMC3    C810294   2.886   0.321  16.166 -0.3860 -0.1491  0.1602
  692TMC3    O110295   2.559   0.019  15.801 -0.1843 -0.0590 -0.3091
  692TMC3    O210296   2.960   0.221  16.183  0.0160  0.0091 -0.0901
  693MPD2     C10297   1.938   3.186  10.561  1.1165 -0.0320 -0.2371
  693MPD2    C110298   1.916   3.147  10.692  0.5842 -0.0964 -0.8508
  693MPD2    C210299   2.028   3.092  10.760  0.0985  0.2865  0.1217
  693MPD2    C310300   2.146   3.063  10.699 -0.0164 -0.0584 -0.7911
  693MPD2    C410301   2.159   3.098  10.569  0.1389 -0.1534 -0.2147
  693MPD2    C510302   2.057   3.160  10.505  0.4292 -0.8752  0.4445
  693MPD2     H10303   2.008   3.074  10.865 -0.7017 -0.0284 -0.0874
  693MPD2    H110304   2.249   3.075  10.514  1.0848 -0.4784  1.4719
  693MPD2    H210305   1.857   3.223  10.500  0.3660 -0.4453  0.5072
  693MPD2    H310306   2.079   3.167  10.399 -3.3455  2.5022 -0.1278
  693MPD2     N10307   2.255   2.989  10.755 -0.0489 -0.3892  0.4186
  693MPD2    H510308   2.336   2.986  10.693 -0.5516  0.2307 -0.2774
  693MPD2    N110309   1.789   3.174  10.742  0.3988 -0.5651 -0.4283
  693MPD2    H710310   1.717   3.216  10.684 -0.2631 -0.8215  0.1999
  694TMC3    C110311   1.615   3.163  10.897 -0.4176 -0.2267 -0.0724
  694TMC3    C210312   1.526   3.102  10.809 -0.5318  0.2830  0.0450
  694TMC3    C310313   1.395   3.107  10.848 -0.3337  0.5936 -0.5888
  694TMC3    C410314   1.581   3.197  11.032 -0.1838 -0.7414 -0.1094
  694TMC3    C510315   1.450   3.201  11.052  0.8821 -0.6564  0.3546
  694TMC3    C610316   1.349   3.160  10.964 -0.2712  0.4104  0.1988
  694TMC3     C10317   1.754   3.152  10.878  0.6428 -0.4625 -0.5399
  694TMC3     O10318   1.826   3.116  10.976 -0.8927 -0.4826 -0.0029
  694TMC3     H10319   1.557   3.069  10.711 -0.6899 -0.3989  0.2302
  694TMC3    H110320   1.657   3.229  11.103 -1.3555  2.0871 -0.1376
  694TMC3    H210321   1.247   3.152  10.998 -0.0362  0.0073  0.8163
  694TMC3    C710322   1.409   3.190  11.186  0.6307 -0.2598  1.0375
  694TMC3    C810323   1.302   3.003  10.786  0.9607  1.0246 -0.1599
  694TMC3    O110324   1.338   3.277  11.236 -0.3509 -0.0525  0.4516
  694TMC3    O210325   1.182   3.012  10.802  0.1215 -0.4006  0.2441
  695MPD2     C10326   3.042   4.478  13.477  0.1222 -0.2838 -0.2691
  695MPD2    C110327   3.007   4.517  13.605  0.3112 -0.0745 -0.2572
  695MPD2    C210328   2.882   4.497  13.654  0.2537  0.2616 -0.1544
  695MPD2    C310329   2.792   4.443  13.569  0.3402 -0.0816  0.3670
  695MPD2    C410330   2.823   4.414  13.439  0.3802 -0.2263 -0.3052
  695MPD2    C510331   2.946   4.439  13.385  0.3447 -0.3906  0.5280
  695MPD2     H10332   2.861   4.521  13.757  1.1888 -2.5613  0.6960
  695MPD2    H110333   2.746   4.382  13.370  0.4027 -0.6225 -0.1468
  695MPD2    H210334   3.137   4.484  13.426  0.7270 -2.2251  0.6540
  695MPD2    H310335   2.968   4.420  13.280  0.8270  1.9554  0.1835
  695MPD2     N10336   2.661   4.437  13.621 -0.3981  0.1351 -0.3430
  695MPD2    H510337   2.645   4.490  13.706 -0.1132  0.0983 -0.2651
  695MPD2    N110338   3.100   4.567  13.697 -0.4611  0.7460  0.2689
  695MPD2    H710339   3.063   4.575  13.791 -0.6229 -0.7159  0.3387
  696TMC3    C110340   2.432   4.403  13.635 -1.0467  0.2066  0.4991
  696TMC3    C210341   2.442   4.390  13.771  0.4444 -0.2079  0.0694
  696TMC3    C310342   2.328   4.421  13.846 -0.1908 -0.1703 -0.9965
  696TMC3    C410343   2.325   4.448  13.567  0.1012 -0.2971  0.3011
  696TMC3    C510344   2.222   4.483  13.646 -0.4618  0.2027  0.6370
  696TMC3    C610345   2.214   4.468  13.780 -0.5367  0.2207  0.2176
  696TMC3     C10346   2.548   4.386  13.556 -0.5831  0.2657  0.2811
  696TMC3     O10347   2.537   4.337  13.443  0.4069  0.1326  0.2105
  696TMC3     H10348   2.531   4.362  13.825  0.2676 -0.8259  0.0375
  696TMC3    H110349   2.331   4.468  13.461 -2.3215  1.1162  0.4472
  696TMC3    H210350   2.126   4.509  13.829  1.0712  2.0084  1.6384
  696TMC3    C710351   2.115   4.563  13.589 -0.0493 -0.0508  0.3878
  696TMC3    C810352   2.357   4.478  13.976 -0.0415  0.2154  0.5212
  696TMC3    O110353   2.089   4.534  13.471 -0.3179  0.2935 -0.3529
  696TMC3    O210354   2.471   4.487  14.014 -0.4139  0.2833 -0.4482
  697MPD2     C10355   2.125   1.937  15.925  0.0636 -0.1454  0.8370
  697MPD2    C110356   2.168   1.894  15.802 -0.5070  0.1391 -0.4582
  697MPD2    C210357   2.236   1.982  15.714 -0.0110 -0.0351 -0.1032
  697MPD2    C310358   2.249   2.119  15.746 -0.0594 -0.5778 -0.5789
  697MPD2    C410359   2.205   2.165  15.873 -0.2783  0.2181  0.4444
  697MPD2    C510360   2.136   2.068  15.955 -0.0661  0.8320  0.1654
  697MPD2     H10361   2.260   1.946  15.614 -0.8475 -2.2070  0.4656
  697MPD2    H110362   2.217   2.267  15.907 -0.7989  1.2207 -2.3703
  697MPD2    H210363   2.076   1.878  16.000 -1.1646  1.3839  1.2429
  697MPD2    H310364   2.096   2.114  16.045 -0.1354 -0.0408  0.5736
  697MPD2     N10365   2.291   2.198  15.638 -0.0179  0.4642  0.1771
  697MPD2    H510366   2.310   2.143  15.554  1.1294  3.4229 -1.5264
  697MPD2    N110367   2.153   1.763  15.756  0.1160  0.4506  0.3798
  697MPD2    H710368   2.213   1.738  15.679 -0.3658  0.3899  0.0284
  698TMC3    C110369   2.347   2.387  15.509 -0.5617 -0.4550 -0.4777
  698TMC3    C210370   2.464   2.473  15.514  0.2311 -0.0413 -0.1635
  698TMC3    C310371   2.544   2.484  15.399 -0.6864 -0.1837 -0.5913
  698TMC3    C410372   2.310   2.324  15.391  0.1588 -0.3796  0.4063
  698TMC3    C510373   2.389   2.342  15.282 -0.3848  0.8920  0.2156
  698TMC3    C610374   2.507   2.419  15.284 -0.2253  0.1857 -0.1803
  698TMC3     C10375   2.314   2.330  15.639  0.4466 -0.4561  0.6811
  698TMC3     O10376   2.318   2.407  15.731  0.4733  0.2188  0.2837
  698TMC3     H10377   2.503   2.521  15.603 -0.0722 -2.0667  1.0767
  698TMC3    H110378   2.227   2.256  15.379 -0.2640  0.1476  0.3131
  698TMC3    H210379   2.550   2.450  15.190  1.8530 -1.1340  0.3363
  698TMC3    C710380   2.346   2.276  15.152 -0.3219 -0.3332  0.6166
  698TMC3    C810381   2.623   2.605  15.392 -0.2442 -0.5342 -0.0712
  698TMC3    O110382   2.228   2.228  15.150 -0.7611  0.7018  0.2698
  698TMC3    O210383   2.617   2.683  15.487 -0.2251  0.1557  0.0182
  699TMC3    C110384   2.669   4.600  12.985 -0.1184 -0.2724 -1.1890
  699TMC3    C210385   2.723   4.484  13.019  0.1929  0.4338  0.3096
  699TMC3    C310386   2.657   4.398  13.101  0.2001  0.3369 -0.3884
  699TMC3    C410387   2.545   4.631  13.031  0.0722  0.3402 -1.0574
  699TMC3    C510388   2.473   4.547  13.114 -0.3060  0.2808 -0.3578
  699TMC3    C610389   2.529   4.421  13.149 -0.3091 -0.0620  0.4844
  699TMC3     C10390   2.722   4.704  12.893 -0.1944  0.3694  0.2799
  699TMC3     O10391   2.649   0.040  12.823  0.2393 -0.6904 -0.6601
  699TMC3     H10392   2.825   4.462  12.990 -0.0174  0.0142 -0.1057
  699TMC3    H110393   2.522   0.004  13.016 -1.0643  0.1332 -0.7915
  699TMC3    H210394   2.471   4.355  13.212  1.5643  0.5225  2.8282
  699TMC3    C710395   2.337   4.575  13.162 -0.2333  0.1996  1.2742
  699TMC3    C810396   2.731   4.279  13.138  0.6433  0.3625 -0.0561
  699TMC3    O110397   2.285   4.474  13.212 -0.0900 -0.0177  0.0061
  699TMC3    O210398   2.851   4.285  13.111 -0.0116 -0.4883  0.4412
  700TMC3    C110399   1.197   2.498  17.638  0.0790  0.4368 -0.1490
  700TMC3    C210400   1.272   2.397  17.577  0.4243 -0.3391 -0.9370
  700TMC3    C310401   1.406   2.418  17.577  0.4323 -0.1364 -0.7142
  700TMC3    C410402   1.256   2.594  17.710  0.5571  0.3839 -0.0011
  700TMC3    C510403   1.391   2.604  17.711 -0.4757  0.1016 -0.1903
  700TMC3    C610404   1.479   2.512  17.648  1.1498 -0.2093 -0.4259
  700TMC3     C10405   1.098   2.556  17.557 -0.2164  0.3630 -0.5198
  700TMC3     O10406   0.994   2.494  17.530 -0.5645  0.4256  0.0720
  700TMC3     H10407   1.232   2.320  17.511  0.8484 -1.0043 -0.4144
  700TMC3    H110408   1.181   2.666   0.015  0.0089 -0.4325  0.5787
  700TMC3    H210409   1.587   2.512  17.638  1.1863  1.4577  0.0185
  700TMC3    C710410   1.449   2.728  17.725 -0.0904  0.2607 -0.2028
  700TMC3    C810411   1.476   2.316  17.496 -0.3881  0.4463 -0.3158
  700TMC3    O110412   1.569   2.726  17.721 -0.1024 -0.1297  0.1312
  700TMC3    O210413   1.428   2.277  17.390  0.8043 -0.1552  0.0791
  701TMC3    C110414   1.402   1.084  15.741 -0.1908  0.0374  0.6445
  701TMC3    C210415   1.361   1.133  15.618 -0.0879  0.4040  0.0544
  701TMC3    C310416   1.463   1.182  15.539  0.1781 -0.4002  1.0395
  701TMC3    C410417   1.531   1.097  15.786  0.0429  0.5651 -0.1543
  701TMC3    C510418   1.625   1.160  15.715 -0.2349  0.6005 -0.6322
  701TMC3    C610419   1.593   1.194  15.582 -0.2135  0.5139  0.1118
  701TMC3     C10420   1.307   1.008  15.822  0.6765  0.5969 -0.6025
  701TMC3     O10421   1.342   0.901  15.863  0.2709  0.2145 -0.0474
  701TMC3     H10422   1.255   1.123  15.595 -0.1939  0.3201  0.5723
  701TMC3    H110423   1.556   1.055  15.883 -0.7316  2.0907  0.7156
  701TMC3    H210424   1.652   1.256  15.515  0.5429  0.0278  0.3315
  701TMC3    C710425   1.681   1.277  15.781  0.1462  0.0993 -0.1612
  701TMC3    C810426   1.424   1.223  15.408  0.5387  0.0816 -0.2749
  701TMC3    O110427   1.715   1.367  15.706  0.2899 -0.1516 -0.4901
  701TMC3    O210428   1.488   1.318  15.364 -0.1790  0.0591  0.5679
  702MPD2     C10429   1.035   3.374  10.865 -0.3935 -0.0034  0.3438
  702MPD2    C110430   1.117   3.416  10.962 -0.1192  0.2206  0.7268
  702MPD2    C210431   1.214   3.511  10.939 -0.3031 -0.2772 -0.0338
  702MPD2    C310432   1.221   3.568  10.812 -0.4735  0.0993 -0.8994
  702MPD2    C410433   1.141   3.522  10.707  0.2781 -0.1645 -0.1411
  702MPD2    C510434   1.052   3.423  10.737 -0.0321  0.0589  0.6090
  702MPD2     H10435   1.272   3.549  11.023 -0.2057  0.1748 -0.3034
  702MPD2    H110436   1.134   3.569  10.610  3.0059 -0.0187 -0.2606
  702MPD2    H210437   0.960   3.297  10.879 -0.9783  0.6454  0.7571
  702MPD2    H310438   0.989   3.400  10.652  0.0592 -0.8575  0.7816
  702MPD2     N10439   1.290   3.685  10.778 -0.0376 -0.3800 -0.8886
  702MPD2    H510440   1.260   3.744  10.701 -1.9073 -0.8273 -0.4949
  702MPD2    N110441   1.102   3.384  11.097 -0.3135 -0.1520  0.7869
  702MPD2    H710442   1.170   3.434  11.153  1.0499  1.4146 -2.2356
  703TMC3    C110443   1.394   3.880  10.843 -0.3137  0.2808 -0.8100
  703TMC3    C210444   1.272   3.951  10.839 -0.3129  0.0203 -1.1630
  703TMC3    C310445   1.277   4.089  10.861  0.5449  0.1519  0.1297
  703TMC3    C410446   1.513   3.948  10.850 -0.0545 -0.1184  0.6013
  703TMC3    C510447   1.521   4.082  10.854  0.3815  0.0367 -0.2055
  703TMC3    C610448   1.399   4.151  10.855  0.5162 -0.2671 -0.3931
  703TMC3     C10449   1.385   3.741  10.857  0.3325 -0.3663 -0.3308
  703TMC3     O10450   1.461   3.688  10.940 -0.0514 -0.4579  0.3203
  703TMC3     H10451   1.177   3.900  10.832  0.0961 -0.4351 -3.3836
  703TMC3    H110452   1.596   3.879  10.848  0.4528  0.5047  0.2974
  703TMC3    H210453   1.393   4.259  10.846 -0.8226 -0.3088 -0.0356
  703TMC3    C710454   1.617   4.129  10.764  0.0440 -0.1799 -0.1484
  703TMC3    C810455   1.164   4.162  10.822  0.0749 -1.0082 -0.5100
  703TMC3    O110456   1.682   4.044  10.704 -0.0574  0.7527  0.1217
  703TMC3    O210457   1.178   4.260  10.746  0.1930 -0.0570  0.3422
  704TMC3    C110458   3.428   1.809  12.562 -0.4785  0.8354 -0.0626
  704TMC3    C210459   3.510   1.751  12.471  0.1777 -0.6699 -0.1350
  704TMC3    C310460   3.608   1.668  12.513  0.0583  0.4596  0.2259
  704TMC3    C410461   3.436   1.782  12.697 -0.0641 -0.2168  0.5335
  704TMC3    C510462   3.536   1.694  12.739 -0.0809  0.4643 -0.2377
  704TMC3    C610463   3.625   1.637  12.645 -0.1675  0.0668 -0.4712
  704TMC3     C10464   3.317   1.895  12.524  0.3537 -0.7556  0.7892
  704TMC3     O10465   3.213   1.882  12.586 -0.3147 -0.0163 -0.6102
  704TMC3     H10466   3.505   1.760  12.364  0.7562 -0.4456 -0.1405
  704TMC3    H110467   3.371   1.830  12.769  1.0860  0.9013  0.8446
  704TMC3    H210468   3.702   1.568  12.678  0.7578  0.1187 -2.5196
  704TMC3    C710469   3.519   1.621  12.858 -0.0155 -0.4373 -0.0373
  704TMC3    C810470   3.668   1.580  12.415 -0.0491 -0.3107  0.0264
  704TMC3    O110471   3.589   1.526  12.882  0.5744  0.4209  0.1241
  704TMC3    O210472   3.624   1.599  12.303 -0.4427 -0.2569  0.0089
  705MPD2     C10473   2.982   4.501  16.585 -0.1603  0.5170  0.4180
  705MPD2    C110474   2.971   4.630  16.542  0.1613 -0.4261  0.3983
  705MPD2    C210475   2.859   4.710  16.580 -0.0319  0.0226 -0.4882
  705MPD2    C310476   2.754   4.659  16.652  0.3283 -0.2232  0.1235
  705MPD2    C410477   2.753   4.514  16.666  0.1837 -0.1241 -0.0462
  705MPD2    C510478   2.867   4.443  16.631 -0.1862  0.2489 -0.2563
  705MPD2     H10479   2.872   0.083  16.558 -4.7463  0.3754 -1.5636
  705MPD2    H110480   2.690   4.468  16.741 -0.3471 -1.1858 -1.1450
  705MPD2    H210481   3.070   4.439  16.576 -1.4518 -1.6712  2.8325
  705MPD2    H310482   2.876   4.337  16.651  2.8116  0.4582 -0.5397
  705MPD2     N10483   2.632   0.002  16.686 -1.0212  0.1519 -0.3693
  705MPD2    H510484   2.567   4.689  16.749  0.2198 -0.9703  0.1039
  705MPD2    N110485   3.080   4.688  16.468  0.1113  0.3901 -1.2409
  705MPD2    H710486   3.070   0.051  16.434  2.3367  1.4246  1.0138
  706TMC3    C110487   3.351   4.713  16.104 -0.6836  0.0343  0.4196
  706TMC3    C210488   3.344   0.115  16.109 -0.0678 -0.1445 -0.7048
  706TMC3    C310489   3.289   0.175  16.213 -0.1466  0.2233  0.4508
  706TMC3    C410490   3.319   4.638  16.215 -0.4053  0.2877 -0.0700
  706TMC3    C510491   3.262   4.696  16.317  0.2163 -0.8652 -0.0138
  706TMC3    C610492   3.251   0.104  16.318  0.1659  0.0781  0.8436
  706TMC3     C10493   3.453   4.647  16.024  0.9942 -0.3228 -1.0071
  706TMC3     O10494   3.514   4.554  16.069 -0.3743  0.1295 -0.1461
  706TMC3     H10495   3.369   0.173  16.020 -0.1530  0.9454 -0.0170
  706TMC3    H110496   3.336   4.531  16.221  0.1587  0.3343 -0.8553
  706TMC3    H210497   3.225   0.153  16.411 -0.6368  0.9747  0.1553
  706TMC3    C710498   3.185   4.616  16.413 -0.4468 -0.2025  0.3609
  706TMC3    C810499   3.267   0.316  16.211  0.4316  0.2245  0.0676
  706TMC3    O110500   3.221   4.499  16.427 -0.4769 -0.8252  0.4100
  706TMC3    O210501   3.252   0.359  16.095 -0.3275 -0.3745 -0.4484
  707TMC3    C110502   4.718   3.588   0.404  0.3071 -0.2807  0.2132
  707TMC3    C210503   4.646   3.478   0.398  0.4260 -0.7597 -0.0461
  707TMC3    C310504   4.573   3.453   0.287 -0.5288 -0.5829 -0.0296
  707TMC3    C410505   4.716   3.679   0.302  0.0206 -0.1510 -1.1841
  707TMC3    C510506   4.633   3.657   0.194  0.1867  0.1800 -0.4679
  707TMC3    C610507   4.567   3.539   0.180  0.8470  0.3354 -0.0603
  707TMC3     C10508   0.074   3.605   0.516  0.2170 -0.0457  0.9761
  707TMC3     O10509   0.035   3.575   0.627 -0.4066  0.4259 -0.8462
  707TMC3     H10510   4.630   3.424   0.491 -2.5846  0.7951  0.3578
  707TMC3    H110511   0.048   3.767   0.302 -2.0322  1.3478 -2.4014
  707TMC3    H210512   4.488   3.525   0.106  0.2411 -0.9926  0.8297
  707TMC3    C710513   4.624   3.770   0.104 -0.9739 -0.5754  1.1224
  707TMC3    C810514   4.487   3.338   0.285 -0.2723 -0.6258  0.2063
  707TMC3    O110515   4.690   3.872   0.136  0.6463  0.3932 -0.4038
  707TMC3    O210516   4.409   3.324   0.197 -0.2734 -0.6326  0.7579
  708MPD2     C10517   1.167   3.242  13.880 -0.2184  0.1250  0.3688
  708MPD2    C110518   1.121   3.116  13.906  0.8451 -0.0081  0.2437
  708MPD2    C210519   1.171   3.034  14.007  0.4242 -0.1336 -0.0739
  708MPD2    C310520   1.264   3.086  14.094 -1.0607  0.2667  0.5661
  708MPD2    C410521   1.295   3.225  14.075 -0.5592  0.8496 -0.1761
  708MPD2    C510522   1.253   3.298  13.972 -0.2233  0.8758  0.1551
  708MPD2     H10523   1.139   2.932  14.024  2.4226 -0.5786  1.0617
  708MPD2    H110524   1.355   3.273  14.151 -0.9580  0.0029  0.6643
  708MPD2    H210525   1.125   3.304  13.802 -2.2079 -0.7878  0.7297
  708MPD2    H310526   1.262   3.406  13.968  1.3368  0.7370 -0.0021
  708MPD2     N10527   1.318   3.008  14.203  0.3486 -0.1614 -0.5748
  708MPD2    H510528   1.390   3.060  14.253  0.0630  0.9204 -1.2979
  708MPD2    N110529   1.020   3.066  13.815 -0.5304 -0.6153  0.0155
  708MPD2    H710530   0.994   3.129  13.740 -2.7487  0.9584  2.0870
  709TMC3    C110531   0.843   2.933  13.759  0.5338  0.4311  0.3379
  709TMC3    C210532   0.893   2.866  13.653  0.4886 -0.1128 -0.3907
  709TMC3    C310533   0.833   2.747  13.627  0.4563 -0.5361 -0.3146
  709TMC3    C410534   0.741   2.878  13.830  0.0404  0.4420  0.8340
  709TMC3    C510535   0.687   2.756  13.804  0.2306  0.1687 -0.3760
  709TMC3    C610536   0.728   2.692  13.691 -0.4025 -0.1962  0.2423
  709TMC3     C10537   0.939   2.968  13.857 -0.4371 -0.3874  0.7699
  709TMC3     O10538   0.921   2.913  13.966  0.4336 -0.2804  0.0769
  709TMC3     H10539   0.985   2.910  13.616  3.0020 -3.5318  1.8129
  709TMC3    H110540   0.710   2.923  13.923  0.1272  3.7719 -0.7202
  709TMC3    H210541   0.684   2.596  13.666  0.3169 -0.8660  1.5382
  709TMC3    C710542   0.659   2.682  13.927  0.3798  0.1785 -0.7374
  709TMC3    C810543   0.889   2.667  13.521  0.0232 -0.5344  0.0862
  709TMC3    O110544   0.562   2.608  13.936  0.7230  0.0829  0.2638
  709TMC3    O210545   0.846   2.550  13.510  0.1628  0.6175  0.1285
  710TMC3    C110546   2.067   4.379   0.069  0.0139  0.5332 -0.6531
  710TMC3    C210547   2.117   4.375  17.676  0.2427  0.5054 -0.0333
  710TMC3    C310548   2.230   4.297  17.668 -0.0883 -0.3258  0.2221
  710TMC3    C410549   2.102   4.302   0.172  0.1786 -0.2254  0.6194
  710TMC3    C510550   2.223   4.232   0.165  0.0934  0.3260  0.1222
  710TMC3    C610551   2.292   4.229   0.047 -0.8594  0.1318  0.8107
  710TMC3     C10552   1.960   4.484   0.093  0.0797 -0.2743  0.0659
  710TMC3     O10553   1.918   4.552   0.000 -0.5447  0.8170  0.1577
  710TMC3     H10554   2.073   4.432  17.595  1.4147  0.9917 -0.3282
  710TMC3    H110555   2.050   4.310   0.266  0.2215 -0.9014  0.6975
  710TMC3    H210556   2.385   4.176   0.030 -0.5885  0.7000  0.5200
  710TMC3    C710557   2.273   4.156   0.279  0.0304 -0.4313  0.5077
  710TMC3    C810558   2.291   4.278  17.538  0.5150  0.0688  0.1816
  710TMC3    O110559   2.194   4.140   0.373  0.0519  0.2542 -0.2914
  710TMC3    O210560   2.409   4.243  17.524  0.5811 -0.0340  0.3397
  711TMC3    C110561   1.999   1.000  15.127  0.7419  1.2821 -0.5081
  711TMC3    C210562   2.014   1.045  15.258  0.3062 -0.0139 -0.1281
  711TMC3    C310563   2.140   1.079  15.305  0.3798 -0.3246  0.3577
  711TMC3    C410564   2.109   0.996  15.041  0.2128 -0.0638  0.6340
  711TMC3    C510565   2.231   1.008  15.104  0.2661  0.1065  0.6348
  711TMC3    C610566   2.244   1.073  15.221  0.0314 -0.2586 -0.9480
  711TMC3     C10567   1.919   0.875  15.116  0.6562 -0.4216 -0.2910
  711TMC3     O10568   1.920   0.827  15.004  0.0433  0.1905 -0.0735
  711TMC3     H10569   1.928   1.079  15.314  2.0789  0.8802  2.0650
  711TMC3    H110570   2.115   0.979  14.934  0.4585  3.3651  0.0945
  711TMC3    H210571   2.343   1.102  15.255 -0.0680  0.1152 -0.9781
  711TMC3    C710572   2.308   0.885  15.109 -0.5988  0.6801  0.3032
  711TMC3    C810573   2.155   1.008  15.429  0.1347  0.3377  0.0122
  711TMC3    O110574   2.404   0.885  15.185 -0.2264 -0.0333  0.6581
  711TMC3    O210575   2.071   0.923  15.458  0.6262 -0.1815  0.1407
  712MPD2     C10576   3.606   1.501  14.065  0.1825  0.6446  0.7293
  712MPD2    C110577   3.519   1.605  14.053 -0.1358  0.3185  0.4181
  712MPD2    C210578   3.566   1.723  14.005 -0.4116 -0.0038  0.2437
  712MPD2    C310579   3.697   1.743  13.964  0.2236  0.1708  0.2449
  712MPD2    C410580   3.782   1.634  13.991 -0.2420  0.3161 -0.3357
  712MPD2    C510581   3.742   1.514  14.033  0.2100  0.2519  0.4295
  712MPD2     H10582   3.495   1.800  13.980  0.8258  0.3558 -2.1485
  712MPD2    H110583   3.886   1.645  13.965 -0.1435 -0.4708 -0.2653
  712MPD2    H210584   3.560   1.404  14.079 -2.4426  1.4418 -2.6356
  712MPD2    H310585   3.818   1.436  14.037  0.3093  0.3138 -0.3399
  712MPD2     N10586   3.757   1.858  13.908  0.3078  0.1664 -0.0611
  712MPD2    H510587   3.851   1.851  13.870  0.6992  1.2484  0.7133
  712MPD2    N110588   3.379   1.601  14.077  0.1297 -0.3710  0.3389
  712MPD2    H710589   3.332   1.689  14.064  1.6772  0.0631 -2.4795
  713TMC3    C110590   3.770   2.078  13.818 -0.9194  0.0390 -0.3833
  713TMC3    C210591   3.873   2.032  13.734 -0.6063 -0.0810  0.0682
  713TMC3    C310592   3.935   2.128  13.660  0.0438 -0.7553  0.0254
  713TMC3    C410593   3.724   2.204  13.827 -0.6012  0.5564  0.7205
  713TMC3    C510594   3.785   2.291  13.734  0.1336  0.3033  0.2031
  713TMC3    C610595   3.885   2.251  13.646 -0.7077  0.5727  0.7159
  713TMC3     C10596   3.691   1.981  13.895 -0.0284 -1.0993  0.2499
  713TMC3     O10597   3.591   2.021  13.952 -1.3904 -0.2041  0.2236
  713TMC3     H10598   3.884   1.928  13.706  0.9223 -0.4803  2.1522
  713TMC3    H110599   3.664   2.227  13.913  1.3443 -0.8742  2.4646
  713TMC3    H210600   3.945   2.321  13.589 -1.3733  0.4086 -0.1883
  713TMC3    C710601   3.723   2.421  13.720  0.1893  0.5992  0.1460
  713TMC3    C810602   4.055   2.101  13.585 -0.6737  0.9356 -0.1369
  713TMC3    O110603   3.765   2.490  13.628 -0.0841  0.2114  0.0061
  713TMC3    O210604   4.068   2.164  13.481 -0.3009 -0.3182  0.1977
  714MPD2     C10605   1.179   1.023   1.442 -0.5576 -0.3177  0.3772
  714MPD2    C110606   1.151   0.905   1.358  0.2020 -0.5799 -0.5076
  714MPD2    C210607   1.016   0.881   1.325 -0.4939  0.0734  0.3474
  714MPD2    C310608   0.917   0.967   1.357 -0.3850  0.1008  0.4826
  714MPD2    C410609   0.945   1.073   1.442  0.2742 -0.1362  0.3646
  714MPD2    C510610   1.075   1.106   1.468 -0.1409 -0.2488  0.5590
  714MPD2     H10611   0.997   0.793   1.264  0.8421 -0.8056  1.1802
  714MPD2    H110612   0.862   1.137   1.471  1.3101  1.2881  0.1699
  714MPD2    H210613   1.281   1.059   1.453 -1.2789  1.5075  1.2371
  714MPD2    H310614   1.093   1.202   1.516 -1.1703  1.1110 -1.7790
  714MPD2     N10615   0.794   0.932   1.306  0.0471 -0.0114 -0.5874
  714MPD2    H510616   0.791   0.846   1.253 -1.6874  0.3347 -1.0608
  714MPD2    N110617   1.257   0.815   1.325 -0.4987 -0.0656  0.5184
  714MPD2    H710618   1.350   0.839   1.359 -0.3007 -0.3068  0.1405
  715TMC3    C110619   1.375   0.619   1.266  0.7249  0.0344 -0.1656
  715TMC3    C210620   1.363   0.482   1.277 -0.8491  0.2222 -0.6518
  715TMC3    C310621   1.475   0.408   1.320 -0.7633 -0.5917 -0.3458
  715TMC3    C410622   1.501   0.684   1.291 -0.3458  0.2713  0.3831
  715TMC3    C510623   1.604   0.599   1.333 -0.1271  0.1742  0.4386
  715TMC3    C610624   1.596   0.464   1.355 -0.6832 -0.7216 -0.2946
  715TMC3     C10625   1.247   0.692   1.261 -0.0990 -0.4844  0.1619
  715TMC3     O10626   1.143   0.647   1.208  0.2919  0.3265  0.3354
  715TMC3     H10627   1.268   0.430   1.280 -0.5311 -0.3179  0.1383
  715TMC3    H110628   1.520   0.789   1.274  0.9436 -0.1518 -0.8279
  715TMC3    H210629   1.688   0.408   1.365  0.8502  1.4368 -2.3384
  715TMC3    C710630   1.733   0.654   1.362 -0.0437  0.5925  0.0399
  715TMC3    C810631   1.482   0.270   1.289  0.1483 -0.1840  0.0023
  715TMC3    O110632   1.829   0.579   1.345  0.4802 -0.2950 -0.5448
  715TMC3    O210633   1.430   0.237   1.185 -0.1796 -0.4365  0.8013
  716MPD2     C10634   1.331   3.998  10.164 -0.0251 -0.5408 -0.6337
  716MPD2    C110635   1.249   3.933  10.079 -0.2823 -0.2225  0.1199
  716MPD2    C210636   1.257   3.792  10.076  0.0050 -0.3330 -0.0083
  716MPD2    C310637   1.352   3.723  10.146 -0.4082  0.2011 -0.1611
  716MPD2    C410638   1.445   3.793  10.222  0.2374  0.8573 -0.1542
  716MPD2    C510639   1.423   3.929  10.230 -0.5759 -0.1975 -0.4865
  716MPD2     H10640   1.189   3.735  10.015  0.3444  0.2468 -0.9301
  716MPD2    H110641   1.529   3.750  10.275 -0.3560  0.8971  0.8133
  716MPD2    H210642   1.328   4.104  10.185 -0.6905 -0.6114 -0.3661
  716MPD2    H310643   1.497   3.982  10.290  0.0770  0.4085 -1.8168
  716MPD2     N10644   1.363   3.588  10.124 -0.7174  0.4414  0.5435
  716MPD2    H510645   1.292   3.548  10.063  0.8504 -1.7603  0.1880
  716MPD2    N110646   1.139   4.014  10.024 -0.3073 -0.0254  0.1946
  716MPD2    H710647   1.131   4.111  10.050 -2.0723 -0.0829 -0.1738
  717TMC3    C110648   1.468   3.381  10.073 -0.5115 -0.1029  0.0820
  717TMC3    C210649   1.379   3.386   9.961  0.8331  0.2221 -0.8186
  717TMC3    C310650   1.353   3.268   9.901 -0.3981  0.9060 -0.0027
  717TMC3    C410651   1.520   3.267  10.126 -0.7317  0.3448  0.6490
  717TMC3    C510652   1.487   3.148  10.059 -0.1443 -0.2030 -0.6237
  717TMC3    C610653   1.401   3.151   9.953 -0.4764  0.4553  0.5087
  717TMC3     C10654   1.474   3.503  10.154 -0.3812 -0.2535 -0.2850
  717TMC3     O10655   1.560   3.521  10.238 -0.0062  0.4401  0.0352
  717TMC3     H10656   1.368   3.477   9.903  0.1557  0.3656 -0.4630
  717TMC3    H110657   1.571   3.272  10.221 -1.0240 -2.0009  0.9099
  717TMC3    H210658   1.362   3.065   9.899 -1.5562  0.9166  0.5709
  717TMC3    C710659   1.515   3.010  10.115  1.1137  0.0958 -0.0128
  717TMC3    C810660   1.272   3.279   9.772  0.2290  0.1920  0.0315
  717TMC3    O110661   1.478   2.914  10.049  0.1473  0.6122 -0.1416
  717TMC3    O210662   1.172   3.348   9.766 -0.4401 -0.4530 -0.7858
  718MPD2     C10663   0.306   1.690  12.667 -0.3808 -0.0097 -0.0357
  718MPD2    C110664   0.228   1.719  12.557 -0.5801  0.2896 -0.0508
  718MPD2    C210665   0.093   1.682  12.552  0.2257  0.2173  0.3270
  718MPD2    C310666   0.033   1.638  12.661 -0.1463  0.2696  0.1169
  718MPD2    C410667   0.104   1.609  12.770  0.0311 -0.0806 -0.4437
  718MPD2    C510668   0.240   1.637  12.772 -0.5303 -0.1916 -0.7748
  718MPD2     H10669   0.034   1.702  12.464 -1.4490 -0.6263  1.2601
  718MPD2    H110670   0.057   1.566  12.858 -0.6779 -2.3000 -1.8908
  718MPD2    H210671   0.408   1.725  12.668 -0.2353 -0.4349  1.1498
  718MPD2    H310672   0.284   1.624  12.870 -0.6885 -0.1473 -0.6972
  718MPD2     N10673   4.626   1.616  12.636 -0.0240 -0.3850  0.5382
  718MPD2    H510674   4.603   1.632  12.539 -0.7373 -1.1479  0.5808
  718MPD2    N110675   0.271   1.782  12.439 -0.3280 -0.0415 -0.3761
  718MPD2    H710676   0.199   1.792  12.368 -0.4770  2.8440  0.1611
  719TMC3    C110677   0.402   1.871  12.285 -0.4199 -0.4994  1.0745
  719TMC3    C210678   0.297   1.832  12.216  0.6517 -0.2612 -0.0522
  719TMC3    C310679   0.213   1.921  12.152  0.2923 -0.0102  0.6520
  719TMC3    C410680   0.434   1.997  12.277  0.2414 -0.0318  0.3803
  719TMC3    C510681   0.354   2.096  12.228  0.0616 -0.0283 -0.3240
  719TMC3    C610682   0.243   2.056  12.157 -0.1238  0.0556 -0.0210
  719TMC3     C10683   0.401   1.815  12.416 -0.3791 -0.1167 -0.0237
  719TMC3     O10684   0.492   1.842  12.492 -0.2530 -0.3178 -0.6006
  719TMC3     H10685   0.293   1.726  12.194  1.5994 -0.1010 -1.0285
  719TMC3    H110686   0.530   2.020  12.323  0.2070 -1.3188  1.0856
  719TMC3    H210687   0.189   2.124  12.092 -0.7535 -0.9803 -0.5924
  719TMC3    C710688   0.432   2.213  12.186 -0.2418  1.0746 -0.2868
  719TMC3    C810689   0.074   1.894  12.173  0.4749  0.1740 -1.2798
  719TMC3    O110690   0.549   2.195  12.153 -0.0191 -0.3372 -0.1027
  719TMC3    O210691   0.067   1.790  12.235 -0.7206 -0.4363 -1.0861
  720MPD2     C10692   3.705   3.206  13.742  0.3994  0.7690 -0.4169
  720MPD2    C110693   3.663   3.334  13.738 -0.0038 -0.0252  0.2490
  720MPD2    C210694   3.724   3.425  13.824  0.2624  0.1320  0.7992
  720MPD2    C310695   3.811   3.384  13.920  0.5521 -0.1269 -0.5441
  720MPD2    C410696   3.844   3.250  13.927  0.3475  0.8106 -0.4192
  720MPD2    C510697   3.787   3.159  13.842  0.5008 -0.3935  0.3207
  720MPD2     H10698   3.686   3.527  13.821 -2.1559 -0.7603  1.3825
  720MPD2    H110699   3.914   3.206  13.997 -0.5542  1.0612  0.6362
  720MPD2    H210700   3.671   3.132  13.671  3.7450 -1.7986  0.6718
  720MPD2    H310701   3.810   3.053  13.852  1.5450 -0.2757 -0.8027
  720MPD2     N10702   3.857   3.472  14.018  0.1775  0.7265 -0.4867
  720MPD2    H510703   3.844   3.571  14.001  1.8614  1.5537  3.2673
  720MPD2    N110704   3.565   3.382  13.644  0.2647  0.3397 -0.3210
  720MPD2    H710705   3.544   3.481  13.655 -1.9649 -0.1080 -0.3680
  721TMC3    C110706   3.988   3.546  14.193 -0.4486 -0.0270 -1.0318
  721TMC3    C210707   4.045   3.524  14.320 -0.0736  0.0317  0.0804
  721TMC3    C310708   4.175   3.561  14.339  0.3410 -0.0804 -0.0712
  721TMC3    C410709   4.067   3.598  14.089  0.3130 -0.3582  0.2950
  721TMC3    C510710   4.193   3.646  14.117  0.1759 -0.1554 -0.3825
  721TMC3    C610711   4.249   3.623  14.237 -0.2016 -0.8038  0.6163
  721TMC3     C10712   3.900   3.445  14.148 -0.4199  0.7154  0.6895
  721TMC3     O10713   3.884   3.349  14.221  0.7726 -0.1110  0.4614
  721TMC3     H10714   3.990   3.462  14.389  0.4752 -0.5366  0.0019
  721TMC3    H110715   4.028   3.631  13.993  0.2305 -0.8419  0.1608
  721TMC3    H210716   4.354   3.648  14.249  0.1286 -1.8485 -0.0499
  721TMC3    C710717   4.264   3.684  13.994 -0.4253  0.5392 -0.4567
  721TMC3    C810718   4.235   3.564  14.469  0.0607 -0.3511 -0.6503
  721TMC3    O110719   4.216   3.671  13.889 -0.6251  0.3221  0.0076
  721TMC3    O210720   4.358   3.553  14.477 -0.3290 -0.3636  0.1353
  722MPD2     C10721   2.643   2.058  13.773  0.1425 -0.3573 -0.4424
  722MPD2    C110722   2.580   2.170  13.720  0.4793 -0.4783  0.4451
  722MPD2    C210723   2.442   2.170  13.701 -0.0613 -0.3274  0.1557
  722MPD2    C310724   2.357   2.078  13.749 -0.2500  0.3365 -0.1051
  722MPD2    C410725   2.423   1.967  13.805 -0.0652 -0.0587 -0.1094
  722MPD2    C510726   2.558   1.964  13.812  0.0849  0.4518 -1.1792
  722MPD2     H10727   2.402   2.247  13.636  1.7551  0.8108  0.3982
  722MPD2    H110728   2.376   1.871  13.826  0.3779 -0.3172 -0.3041
  722MPD2    H210729   2.750   2.047  13.787 -0.4181 -1.1792  3.1059
  722MPD2    H310730   2.594   1.870  13.854 -3.9044 -0.5519 -0.0475
  722MPD2     N10731   2.217   2.076  13.730  0.6077 -0.0461  0.0752
  722MPD2    H510732   2.175   2.152  13.678  1.1745  0.8583  0.9430
  722MPD2    N110733   2.647   2.285  13.673  0.4058 -0.1180  0.6572
  722MPD2    H710734   2.593   2.361  13.633 -2.7467 -3.0542 -0.6656
  723TMC3    C110735   2.002   2.020  13.728  0.4894 -0.5082  0.2844
  723TMC3    C210736   2.005   2.004  13.596 -0.2127 -0.2040  0.1750
  723TMC3    C310737   1.887   1.994  13.528 -0.2054 -0.0777  0.1196
  723TMC3    C410738   1.883   2.018  13.791 -0.0164  0.5260 -0.5068
  723TMC3    C510739   1.759   2.013  13.718  0.3779  0.5342 -0.1371
  723TMC3    C610740   1.761   1.994  13.580 -0.0532 -0.2174 -0.6005
  723TMC3     C10741   2.126   1.992  13.788  1.0479  0.2969  0.1970
  723TMC3     O10742   2.134   1.904  13.874  0.0028  0.3123  0.2379
  723TMC3     H10743   2.092   2.011  13.533 -1.2908  0.8545 -1.2008
  723TMC3    H110744   1.883   2.044  13.896 -0.3146 -0.3270 -0.2964
  723TMC3    H210745   1.671   1.994  13.519 -0.0308 -0.8334 -0.6362
  723TMC3    C710746   1.637   2.075  13.769  0.2158 -1.4324 -0.8390
  723TMC3    C810747   1.899   2.008  13.388 -0.0163  0.1581 -0.2023
  723TMC3    O110748   1.531   2.034  13.732 -0.3929  0.0609  0.0986
  723TMC3    O210749   1.974   2.105  13.366 -0.3471  0.0469 -0.6204
  724TMC3    C110750   2.072   0.817  10.521 -0.4754 -0.3586 -0.4282
  724TMC3    C210751   2.054   0.879  10.399  0.5679 -0.6553 -0.2965
  724TMC3    C310752   2.170   0.887  10.329  0.5896 -0.7530 -0.5718
  724TMC3    C410753   2.189   0.769  10.575 -0.1904 -0.4615 -0.2849
  724TMC3    C510754   2.300   0.786  10.498 -0.7501  0.0913  0.2439
  724TMC3    C610755   2.290   0.852  10.379 -0.4022  0.4893  0.3023
  724TMC3     C10756   1.941   0.793  10.587  0.4597 -0.0237 -0.0121
  724TMC3     O10757   1.837   0.810  10.529 -0.2487  1.0346  0.0511
  724TMC3     H10758   1.962   0.896  10.344  1.1806  1.4141 -0.6850
  724TMC3    H110759   2.190   0.717  10.670 -0.1591 -0.8256 -0.4810
  724TMC3    H210760   2.377   0.851  10.315 -0.9353  1.0415 -0.4341
  724TMC3    C710761   2.415   0.704  10.513 -0.5641 -0.4869 -0.0122
  724TMC3    C810762   2.164   0.969  10.206 -0.3594 -0.1003 -0.2403
  724TMC3    O110763   2.511   0.744  10.453  0.4947  0.1280  0.0279
  724TMC3    O210764   2.056   0.972  10.144 -0.3661 -0.0706  0.1030
  725TMC3    C110765   3.809   4.072  12.810  0.1313 -0.2994 -0.4232
  725TMC3    C210766   3.794   4.100  12.677  0.4307  0.0510  0.5278
  725TMC3    C310767   3.833   4.014  12.575  0.1497  0.5761  0.0150
  725TMC3    C410768   3.868   3.950  12.841 -0.5241 -0.3171  0.0322
  725TMC3    C510769   3.909   3.865  12.744 -0.3680 -0.2682  0.2976
  725TMC3    C610770   3.896   3.898  12.613 -0.7280 -0.3760 -0.5526
  725TMC3     C10771   3.845   4.179  12.892  0.4115  0.1533 -0.2078
  725TMC3     O10772   3.857   4.281  12.830 -0.0766  0.3527  0.2373
  725TMC3     H10773   3.757   4.196  12.645 -0.5577 -1.0336 -1.5368
  725TMC3    H110774   3.897   3.931  12.944 -2.6262  0.7351  0.8303
  725TMC3    H210775   3.930   3.833  12.533 -0.1051 -1.0538  0.2659
  725TMC3    C710776   4.009   3.760  12.764  0.1695  0.3036  0.8947
  725TMC3    C810777   3.865   4.078  12.443  0.6715  0.4948 -0.1472
  725TMC3    O110778   4.059   3.721  12.658 -0.0299  0.3253 -0.4228
  725TMC3    O210779   3.785   4.155  12.397  0.1916  0.4496 -0.3818
  726MPD2     C10780   1.107   1.720  10.153  0.7803  0.2292 -0.2008
  726MPD2    C110781   1.239   1.741  10.180 -0.5891 -0.4760  0.6216
  726MPD2    C210782   1.317   1.637  10.222 -0.4610  0.1872 -0.6695
  726MPD2    C310783   1.265   1.509  10.246  0.1203  0.3464 -0.0198
  726MPD2    C410784   1.136   1.489  10.224 -0.4506 -0.1954  0.6395
  726MPD2    C510785   1.051   1.594  10.188 -0.3218 -0.1189  0.3547
  726MPD2     H10786   1.424   1.648  10.234 -0.4707  0.3589 -0.7294
  726MPD2    H110787   1.092   1.394  10.253  0.9539 -0.6675  1.2237
  726MPD2    H210788   1.037   1.795  10.119 -0.8059 -1.4738 -0.6790
  726MPD2    H310789   0.947   1.568  10.173 -0.0560 -1.8070  1.4788
  726MPD2     N10790   1.336   1.402  10.303  0.5455 -0.4077  0.3996
  726MPD2    H510791   1.283   1.333  10.354  0.0418  0.4690  1.0710
  726MPD2    N110792   1.292   1.872  10.165 -0.4212  0.1078 -0.8172
  726MPD2    H710793   1.389   1.883  10.190 -1.4337  1.7469  2.3482
  727TMC3    C110794   1.289   2.115  10.137 -0.0309  0.3641 -0.1225
  727TMC3    C210795   1.426   2.114  10.126  0.4310 -0.0787 -0.0925
  727TMC3    C310796   1.492   2.230  10.151 -0.0168 -0.6892 -0.3519
  727TMC3    C410797   1.222   2.231  10.167 -0.5222  0.1986 -0.7357
  727TMC3    C510798   1.292   2.349  10.163  0.1747  0.1803  0.0380
  727TMC3    C610799   1.424   2.345  10.174 -0.3053  0.2378  0.9086
  727TMC3     C10800   1.221   1.983  10.125 -0.3620 -0.1679 -0.1103
  727TMC3     O10801   1.106   2.008  10.089  0.4465  0.3995 -0.7751
  727TMC3     H10802   1.485   2.026  10.104 -2.8842 -1.8357 -1.9455
  727TMC3    H110803   1.114   2.232  10.181 -0.0792  2.0816  2.3350
  727TMC3    H210804   1.472   2.442  10.186 -1.2823  1.0651 -1.8787
  727TMC3    C710805   1.222   2.477  10.180  0.6536  0.0928 -0.0320
  727TMC3    C810806   1.634   2.215  10.195  0.6591  0.3119 -0.1686
  727TMC3    O110807   1.277   2.574  10.235 -0.4716 -0.2853 -0.1340
  727TMC3    O210808   1.655   2.105  10.246  0.3315 -0.3107 -0.3590
  728TMC3    C110809   1.182   3.950  15.451 -0.0405 -0.9454 -0.2376
  728TMC3    C210810   1.302   3.905  15.510 -0.7885  0.0638 -0.0381
  728TMC3    C310811   1.424   3.921  15.443 -0.6321  0.3307  0.0142
  728TMC3    C410812   1.195   4.019  15.330 -0.5431  0.4183  1.0140
  728TMC3    C510813   1.310   4.030  15.262 -0.4204  0.1298 -0.0519
  728TMC3    C610814   1.427   3.973  15.315 -0.0881 -0.1763 -0.0097
  728TMC3     C10815   1.057   3.926  15.510 -0.9607 -0.6155  0.7818
  728TMC3     O10816   1.068   3.905  15.630  0.1690  0.2730 -0.0764
  728TMC3     H10817   1.295   3.859  15.608  1.6139 -1.9196 -0.7965
  728TMC3    H110818   1.111   4.049  15.269 -0.1048 -0.6076 -0.1243
  728TMC3    H210819   1.524   3.969  15.266  1.0757 -1.2634  2.3413
  728TMC3    C710820   1.301   4.043  15.120 -0.3787 -0.2106  0.1773
  728TMC3    C810821   1.536   3.920  15.534 -0.2841 -0.5378 -0.1258
  728TMC3    O110822   1.208   3.992  15.063 -0.3700 -0.6474 -0.4410
  728TMC3    O210823   1.503   3.887  15.644 -0.2715  0.2272 -0.0065
  729MPD2     C10824   3.452   1.051  16.548  0.8786  0.7853 -0.6360
  729MPD2    C110825   3.556   0.964  16.580  0.2262 -0.3332 -0.1079
  729MPD2    C210826   3.561   0.895  16.702 -0.0361 -0.4660 -0.6274
  729MPD2    C310827   3.458   0.922  16.798  0.0074  0.7908  0.4215
  729MPD2    C410828   3.348   0.998  16.754  0.9989 -0.5331  0.7687
  729MPD2    C510829   3.348   1.064  16.631  0.3651  0.2417  0.0526
  729MPD2     H10830   3.654   0.845  16.726 -0.1514 -0.1632  0.4210
  729MPD2    H110831   3.265   1.017  16.821 -0.6042 -2.5692 -0.6387
  729MPD2    H210832   3.439   1.096  16.450  1.2468  0.3608 -0.8797
  729MPD2    H310833   3.264   1.127  16.606  1.1751  1.1262 -0.4482
  729MPD2     N10834   3.469   0.875  16.936  0.3223 -0.2914 -0.5614
  729MPD2    H510835   3.391   0.902  16.996 -0.6194 -3.4740 -0.3516
  729MPD2    N110836   3.672   0.979  16.498  0.1421  0.3017 -0.6986
  729MPD2    H710837   3.660   1.053  16.429 -1.6164 -0.7629 -1.5339
  730TMC3    C110838   3.544   0.747  17.114  0.2094  0.3008 -0.4752
  730TMC3    C210839   3.636   0.752  17.208  0.4450  0.2704 -0.0151
  730TMC3    C310840   3.592   0.802  17.330 -0.4244  0.1981  0.5563
  730TMC3    C410841   3.414   0.740  17.142 -0.8015  0.1242  0.0862
  730TMC3    C510842   3.365   0.779  17.266 -0.7046 -0.2348 -0.7706
  730TMC3    C610843   3.459   0.798  17.367 -0.3149 -0.4065  0.1787
  730TMC3     C10844   3.577   0.794  16.984  0.2016 -0.2314  0.0717
  730TMC3     O10845   3.692   0.781  16.952  0.1465  0.1767 -0.0899
  730TMC3     H10846   3.738   0.770  17.176 -0.1972  2.5497 -0.7710
  730TMC3    H110847   3.350   0.720  17.057  0.0724  0.8681 -0.7521
  730TMC3    H210848   3.418   0.826  17.463 -0.0953 -1.0133  0.4474
  730TMC3    C710849   3.292   0.911  17.248 -0.5180  0.8118 -0.1942
  730TMC3    C810850   3.665   0.915  17.375  0.5313  0.0051  0.4855
  730TMC3    O110851   3.291   0.940  17.131  0.3634 -0.2414  0.0194
  730TMC3    O210852   3.768   0.942  17.315 -0.2611  0.1577 -0.6127
  731MPD2     C10853   3.567   3.797  12.439 -0.2183 -0.1826  0.3565
  731MPD2    C110854   3.673   3.716  12.407 -0.0751 -0.4599 -0.1697
  731MPD2    C210855   3.718   3.630  12.507  0.0402  0.2955  0.2831
  731MPD2    C310856   3.671   3.633  12.642 -0.2049 -0.0124  0.5181
  731MPD2    C410857   3.567   3.722  12.667 -0.0711  0.1769  0.7266
  731MPD2    C510858   3.513   3.799  12.570 -0.8313 -0.2340  0.5350
  731MPD2     H10859   3.806   3.572  12.483  1.2609  0.9889  3.0214
  731MPD2    H110860   3.513   3.717  12.761  0.9325 -2.5208  1.1632
  731MPD2    H210861   3.532   3.873  12.370 -0.3863  0.5854  1.2830
  731MPD2    H310862   3.429   3.862  12.595 -2.6937 -2.8428  0.8742
  731MPD2     N10863   3.721   3.547  12.744  0.6880 -0.0218  0.7243
  731MPD2    H510864   3.775   3.467  12.713 -0.4052 -0.3660 -0.2930
  731MPD2    N110865   3.732   3.742  12.281 -0.0143  0.3174 -0.2416
  731MPD2    H710866   3.672   3.791  12.215 -1.2872  0.3423  0.9499
  732TMC3    C110867   3.911   3.781  12.126  0.0613  0.6968 -0.4302
  732TMC3    C210868   3.829   3.831  12.033 -0.1803 -0.5704 -0.0803
  732TMC3    C310869   3.880   3.871  11.912 -0.4592 -0.2269 -0.3261
  732TMC3    C410870   4.042   3.761  12.097 -0.3069  0.2851  0.4345
  732TMC3    C510871   4.086   3.775  11.968 -0.7494  0.7046 -0.0207
  732TMC3    C610872   4.003   3.834  11.874 -0.6260  0.4122  0.1540
  732TMC3     C10873   3.860   3.726  12.254 -0.7848 -0.0217 -0.1133
  732TMC3     O10874   3.942   3.667  12.318  0.7491 -0.3059  0.1429
  732TMC3     H10875   3.728   3.852  12.065 -0.6878 -3.4508  0.1362
  732TMC3    H110876   4.107   3.708  12.166  2.3885  3.0546  0.0398
  732TMC3    H210877   4.039   3.851  11.774  2.2511 -2.1706  0.7256
  732TMC3    C710878   4.228   3.754  11.935 -0.2347  0.5043 -0.1293
  732TMC3    C810879   3.791   3.898  11.808 -0.4942  0.4057  0.1991
  732TMC3    O110880   4.271   3.770  11.818  0.5529  0.2464  0.1800
  732TMC3    O210881   3.828   3.965  11.710 -0.1041 -0.8628  0.3511
  733TMC3    C110882   4.173   1.523  12.667 -0.1459  0.2768 -0.4198
  733TMC3    C210883   4.292   1.499  12.719 -0.0017 -0.0837  0.1230
  733TMC3    C310884   4.396   1.571  12.664  0.2841 -0.5795 -0.0553
  733TMC3    C410885   4.153   1.603  12.564  0.6208 -0.7938 -0.1252
  733TMC3    C510886   4.252   1.682  12.523  1.2357  0.0576  0.5346
  733TMC3    C610887   4.374   1.674  12.577 -0.1975  0.5899 -0.0168
  733TMC3     C10888   4.055   1.503  12.751  0.4709 -0.6281 -0.4303
  733TMC3     O10889   3.943   1.527  12.705  0.5271 -0.4407 -0.3749
  733TMC3     H10890   4.321   1.427  12.794  1.9640  0.2948 -0.2638
  733TMC3    H110891   4.052   1.609  12.527  0.7616  0.7200 -0.2578
  733TMC3    H210892   4.445   1.754  12.555  0.0074  0.5638  0.5386
  733TMC3    C710893   4.232   1.753  12.400 -0.9915  0.1383 -0.2446
  733TMC3    C810894   4.528   1.566  12.724 -0.5298  0.0601  0.2448
  733TMC3    O110895   4.118   1.770  12.357 -0.2472 -0.5475  0.4642
  733TMC3    O210896   4.522   1.528  12.837  0.7008  0.1619  0.0097
  734MPD2     C10897   1.448   3.700  12.727  0.2428 -0.0556  1.0564
  734MPD2    C110898   1.519   3.640  12.623 -0.3033  0.5216  0.7034
  734MPD2    C210899   1.623   3.707  12.554 -0.5763 -0.4955  0.1513
  734MPD2    C310900   1.640   3.842  12.571 -0.2654  0.2196 -1.1281
  734MPD2    C410901   1.572   3.906  12.676 -0.5046 -0.0453  0.5435
  734MPD2    C510902   1.486   3.833  12.756 -0.7233  0.1289 -0.2649
  734MPD2     H10903   1.670   3.657  12.470 -1.5571 -0.3137 -0.5043
  734MPD2    H110904   1.571   4.013  12.696  1.3397  0.1965 -0.6422
  734MPD2    H210905   1.363   3.650  12.771 -0.1084  0.6371  1.1620
  734MPD2    H310906   1.418   3.886  12.822 -0.5244 -2.0110  1.6497
  734MPD2     N10907   1.731   3.905  12.486  0.1441 -0.3399 -0.0773
  734MPD2    H510908   1.773   3.847  12.415  1.6334 -0.0599  0.5649
  734MPD2    N110909   1.479   3.508  12.594  0.0858  0.4970  0.4924
  734MPD2    H710910   1.390   3.480  12.633  0.7355 -2.3598 -0.1003
  735TMC3    C110911   1.475   3.301  12.477 -0.3362 -0.2700  0.2066
  735TMC3    C210912   1.371   3.319  12.383 -0.1708  1.1521  0.0620
  735TMC3    C310913   1.390   3.264  12.258  0.1452 -0.0987  0.0407
  735TMC3    C410914   1.569   3.201  12.459  0.7309  0.0828  1.0275
  735TMC3    C510915   1.582   3.156  12.333 -0.5052 -0.4329  0.2802
  735TMC3    C610916   1.501   3.190  12.233  0.1757 -0.4880 -0.0641
  735TMC3     C10917   1.542   3.428  12.503  0.3729  0.8980 -0.1797
  735TMC3     O10918   1.651   3.441  12.444 -0.1426  0.3729  0.1557
  735TMC3     H10919   1.285   3.382  12.401 -1.2313 -0.5183  0.8775
  735TMC3    H110920   1.640   3.192  12.540  0.7993  2.0839  1.1862
  735TMC3    H210921   1.521   3.158  12.132 -0.7837  0.1423 -0.4596
  735TMC3    C710922   1.718   3.146  12.301 -0.1148  0.1127  0.2871
  735TMC3    C810923   1.389   3.368  12.156 -0.3567  0.4331  0.0268
  735TMC3    O110924   1.759   3.231  12.223 -0.6221  1.1184 -0.3398
  735TMC3    O210925   1.278   3.414  12.131  0.3600 -0.4777 -0.4237
  736MPD2     C10926   1.961   2.976  12.502 -0.7744 -0.1687  0.1458
  736MPD2    C110927   1.922   3.044  12.392 -0.3644  0.7064  0.5491
  736MPD2    C210928   2.007   3.118  12.317  0.4431 -0.6146  0.6047
  736MPD2    C310929   2.143   3.132  12.354  0.0629 -0.0088  0.5215
  736MPD2    C410930   2.178   3.065  12.472  0.4401  0.3653 -0.4665
  736MPD2    C510931   2.090   2.983  12.542 -0.1118  0.2512  0.1358
  736MPD2     H10932   1.967   3.165  12.228  1.0100  1.4760  1.4531
  736MPD2    H110933   2.284   3.062  12.494 -0.3644 -0.5242  3.2754
  736MPD2    H210934   1.895   2.923  12.570 -0.8313 -1.0136 -0.5739
  736MPD2    H310935   2.120   2.923  12.627  3.3052 -0.5584 -1.6249
  736MPD2     N10936   2.244   3.175  12.266  0.3866  0.1859  0.4929
  736MPD2    H510937   2.335   3.194  12.305  0.6693 -0.8169  0.2997
  736MPD2    N110938   1.781   3.058  12.386 -0.5336  0.7423  0.1623
  736MPD2    H710939   1.715   2.999  12.436  0.3536 -0.8828 -0.6050
  737TMC3    C110940   2.346   3.258  12.072 -0.2933  0.2049 -0.3864
  737TMC3    C210941   2.353   3.385  12.118 -0.6558  0.6045  0.6938
  737TMC3    C310942   2.375   3.485  12.023 -0.0842  0.1436 -0.0175
  737TMC3    C410943   2.377   3.222  11.949 -0.5180  0.0843  0.5698
  737TMC3    C510944   2.404   3.324  11.854 -0.9350  0.4720  0.1981
  737TMC3    C610945   2.412   3.454  11.897  0.8370  0.0260 -0.1898
  737TMC3     C10946   2.229   3.188  12.130 -1.0398  0.0891 -0.7355
  737TMC3     O10947   2.138   3.163  12.053  0.0757  0.6872  0.1031
  737TMC3     H10948   2.319   3.416  12.216 -0.1932 -0.6153  1.2430
  737TMC3    H110949   2.339   3.126  11.916 -0.8110 -0.0293  1.2513
  737TMC3    H210950   2.432   3.528  11.820 -1.8610  0.4174 -0.5217
  737TMC3    C710951   2.464   3.274  11.730  0.4033 -0.2258 -0.0398
  737TMC3    C810952   2.378   3.620  12.075  0.6998  0.1249 -0.7896
  737TMC3    O110953   2.438   3.159  11.706  0.1949 -0.3409 -0.3038
  737TMC3    O210954   2.399   3.629  12.195  0.1255 -0.2085  0.6667
  738MPD2     C10955   2.748   2.843  15.287 -1.0254  0.6118 -0.2384
  738MPD2    C110956   2.777   2.727  15.234  0.3028 -0.3900 -0.0879
  738MPD2    C210957   2.876   2.722  15.135  0.2878 -0.1956 -0.2596
  738MPD2    C310958   2.962   2.830  15.102  0.5214  0.2379  0.0369
  738MPD2    C410959   2.933   2.949  15.163  0.5388  0.6909 -0.2438
  738MPD2    C510960   2.824   2.954  15.253 -0.3879 -0.1335 -1.2536
  738MPD2     H10961   2.904   2.624  15.097 -3.3532 -1.5676  0.6707
  738MPD2    H110962   2.993   3.035  15.136  1.5278 -0.0200 -0.3006
  738MPD2    H210963   2.664   2.863  15.352  0.1373 -0.5850  1.5979
  738MPD2    H310964   2.792   3.049  15.293  0.2084 -0.3285 -0.2973
  738MPD2     N10965   3.070   2.818  15.009  0.4568 -0.1834 -0.3108
  738MPD2    H510966   3.100   2.724  14.985 -0.0611 -1.0592  2.4600
  738MPD2    N110967   2.709   2.612  15.280  0.1241 -0.6927  0.3533
  738MPD2    H710968   2.717   2.529  15.223 -0.5154 -0.3028 -0.2967
  739TMC3    C110969   3.257   2.877  14.894 -0.6029  0.2415 -0.1235
  739TMC3    C210970   3.276   2.942  14.776 -0.3913  0.3975 -0.2473
  739TMC3    C310971   3.382   2.909  14.700  0.0453  0.3266  0.8893
  739TMC3    C410972   3.337   2.781  14.945  0.1111 -0.2594  0.3601
  739TMC3    C510973   3.445   2.757  14.867 -0.4585 -1.0251  0.2612
  739TMC3    C610974   3.467   2.812  14.746  0.0665 -0.0209 -0.1598
  739TMC3     C10975   3.148   2.923  14.971  0.0959 -0.2183 -0.1718
  739TMC3     O10976   3.129   3.046  14.967 -0.1985  0.3280 -0.6352
  739TMC3     H10977   3.203   3.018  14.749  1.3451  1.9885 -0.4822
  739TMC3    H110978   3.314   2.730  15.038  1.3592 -0.3309  0.6238
  739TMC3    H210979   3.553   2.784  14.685 -0.7116 -0.1838 -1.1895
  739TMC3    C710980   3.538   2.647  14.904 -0.2755  0.0682  0.6413
  739TMC3    C810981   3.373   2.930  14.563  0.0834 -0.4344  0.7880
  739TMC3    O110982   3.543   2.625  15.024  0.1412 -0.3772  0.6598
  739TMC3    O210983   3.260   2.927  14.517  0.2412  0.2160  0.2110
  740TMC3    C110984   3.473   3.873  14.376 -0.4241 -0.6373  0.5704
  740TMC3    C210985   3.523   3.790  14.476 -0.1723 -0.0871 -0.4047
  740TMC3    C310986   3.664   3.755  14.469 -0.4021 -0.0085  0.1823
  740TMC3    C410987   3.554   3.915  14.276  0.5160  0.6281  0.1779
  740TMC3    C510988   3.687   3.869  14.274 -0.2940  0.2290 -0.0281
  740TMC3    C610989   3.751   3.804  14.372 -0.8394  0.9287  0.8395
  740TMC3     C10990   3.366   3.971  14.419 -0.5420 -0.4338 -0.0423
  740TMC3     O10991   3.386   4.079  14.366 -0.1320 -0.3691 -0.4504
  740TMC3     H10992   3.467   3.760  14.564  0.7995  0.1663  0.2987
  740TMC3    H110993   3.518   3.977  14.195 -1.4399  1.7262  1.8626
  740TMC3    H210994   3.850   3.762  14.359 -0.7246  1.3088  0.4723
  740TMC3    C710995   3.755   3.858  14.147  0.5886  0.6602 -0.5977
  740TMC3    C810996   3.727   3.656  14.550 -0.9078 -0.1075  0.8855
  740TMC3    O110997   3.863   3.800  14.150 -0.2314 -0.5622  0.1694
  740TMC3    O210998   3.840   3.625  14.516 -0.1605 -0.2071 -0.1885
  741TMC3    C110999   2.709   3.603  14.110 -1.0658 -0.6917 -0.5228
  741TMC3    C211000   2.634   3.527  14.196  0.5953 -0.0105 -0.0187
  741TMC3    C311001   2.672   3.404  14.241  0.5792  0.5230  0.1022
  741TMC3    C411002   2.835   3.566  14.088 -0.9389 -0.2003 -0.7848
  741TMC3    C511003   2.882   3.456  14.159 -0.0285  0.1970 -0.4819
  741TMC3    C611004   2.804   3.365  14.228  0.5825  0.8391  0.1931
  741TMC3     C11005   2.659   3.736  14.080  0.1106 -0.1021 -0.0257
  741TMC3     O11006   2.564   3.780  14.147 -0.1709 -0.0008  0.4217
  741TMC3     H11007   2.536   3.567  14.217  0.4255  0.4549 -1.6880
  741TMC3    H111008   2.902   3.624  14.026  2.8826  0.7072  4.1923
  741TMC3    H211009   2.846   3.270  14.257 -0.7911  0.1401 -0.0739
  741TMC3    C711010   3.018   3.433  14.139 -0.8305  0.5449 -0.0793
  741TMC3    C811011   2.568   3.313  14.278 -0.7375  0.4768  0.5149
  741TMC3    O111012   3.063   3.461  14.030  0.2718 -0.3248 -0.7192
  741TMC3    O211013   2.466   3.368  14.303  0.2129  0.3064 -0.1956
  742TMC3    C111014   2.650   1.557  15.576 -0.0745  0.6796  0.2066
  742TMC3    C211015   2.623   1.626  15.461  0.1125  0.2408  0.8798
  742TMC3    C311016   2.726   1.618  15.366  0.3675  0.1901 -0.5599
  742TMC3    C411017   2.770   1.518  15.621 -0.0436  0.0144 -0.0686
  742TMC3    C511018   2.875   1.545  15.538 -0.0426 -0.5973 -0.6078
  742TMC3    C611019   2.846   1.580  15.409  0.3821  0.6083  0.3574
  742TMC3     C11020   2.553   1.553  15.683 -0.1945  0.1632 -0.0542
  742TMC3     O11021   2.470   1.640  15.686 -0.2196 -0.1449 -0.2612
  742TMC3     H11022   2.523   1.663  15.441  0.4432  0.9949  0.6083
  742TMC3    H111023   2.794   1.479  15.719 -1.5333  0.5664  0.5173
  742TMC3    H211024   2.923   1.561  15.336  1.8278  3.8978  1.0161
  742TMC3    C711025   2.990   1.459  15.546 -0.9201  0.8525 -0.4008
  742TMC3    C811026   2.696   1.619  15.226  0.1712  0.8328 -0.1953
  742TMC3    O111027   2.984   1.357  15.482  0.1062  0.2862 -0.2265
  742TMC3    O211028   2.767   1.557  15.149  0.1787 -0.3754 -0.4685
  743MPD2     C11029   0.072   3.081   1.380  0.1439  0.1455 -0.2989
  743MPD2    C111030   0.146   2.981   1.327 -0.0471 -0.6544 -0.1973
  743MPD2    C211031   0.269   2.946   1.394 -0.0876 -0.5472  0.0434
  743MPD2    C311032   0.314   3.007   1.511 -0.0361  0.0473  0.3867
  743MPD2    C411033   0.234   3.102   1.569 -0.1962 -0.3145  0.1866
  743MPD2    C511034   0.121   3.144   1.499 -0.0306  0.5160  0.7743
  743MPD2     H11035   0.333   2.870   1.350  0.0680  0.4465 -1.4464
  743MPD2    H111036   0.259   3.146   1.665  2.1275  0.7514 -0.9236
  743MPD2    H211037   4.711   3.104   1.330  0.1584 -1.5985 -1.1313
  743MPD2    H311038   0.052   3.212   1.548  1.7188  1.1828  2.3393
  743MPD2     N11039   0.441   2.972   1.552  0.1909 -0.3139  0.0915
  743MPD2    H511040   0.495   2.924   1.481  0.8905  0.2491  0.2420
  743MPD2    N111041   0.107   2.925   1.203  0.7090 -0.7245  0.1077
  743MPD2    H711042   0.022   2.964   1.164  0.4322  1.7566  3.1651
  744TMC3    C111043   0.094   2.772   1.020 -0.0224  0.3477 -0.2929
  744TMC3    C211044   0.012   2.858   0.949 -0.6492  0.0150  0.0763
  744TMC3    C311045   4.703   2.825   0.820 -0.7986  0.3539 -0.4380
  744TMC3    C411046   0.134   2.652   0.964  0.0601  0.1250  1.0469
  744TMC3    C511047   0.087   2.624   0.838 -0.2017  0.3914  0.0678
  744TMC3    C611048   4.729   2.702   0.767  0.6609 -0.0544  0.4534
  744TMC3     C11049   0.165   2.818   1.140 -0.1141  0.9007  0.2883
  744TMC3     O11050   0.249   2.737   1.180  0.0883 -0.2909 -0.6813
  744TMC3     H11051   0.013   2.964   0.974  1.7707  0.1021 -0.3630
  744TMC3    H111052   0.202   2.585   1.015  0.6991 -0.6678 -0.8659
  744TMC3    H211053   4.697   2.672   0.667  1.8267 -1.3102  0.4594
  744TMC3    C711054   0.177   2.552   0.751  0.2795 -0.2517  0.8508
  744TMC3    C811055   4.641   2.919   0.739 -0.2621  0.0818 -0.1073
  744TMC3    O111056   0.170   2.577   0.628 -0.4514  0.5099  0.0835
  744TMC3    O211057   4.671   3.034   0.761  0.0677  0.2316 -0.1044
  745TMC3    C111058   3.164   1.511  14.105  0.0124 -0.5032  0.3612
  745TMC3    C211059   3.080   1.447  14.198 -0.0775  0.3441  0.1337
  745TMC3    C311060   2.946   1.449  14.166 -0.2039  0.3252  0.5611
  745TMC3    C411061   3.119   1.569  13.990 -0.8974 -0.8048 -0.1991
  745TMC3    C511062   2.991   1.546  13.950  0.5163 -0.1891 -0.4557
  745TMC3    C611063   2.900   1.487  14.037 -0.9901  0.4316  0.6239
  745TMC3     C11064   3.309   1.491  14.115  0.2406 -0.4234 -0.0069
  745TMC3     O11065   3.337   1.382  14.164  0.4620  0.4488 -0.1654
  745TMC3     H11066   3.124   1.423  14.294  2.7682 -1.6603 -1.6588
  745TMC3    H111067   3.180   1.633  13.928 -2.9119 -0.2140 -1.5665
  745TMC3    H211068   2.794   1.481  14.014 -0.4853  0.6184 -1.7727
  745TMC3    C711069   2.929   1.632  13.853  0.6301 -0.0327  0.1140
  745TMC3    C811070   2.858   1.487  14.273  0.2550  0.3085  0.3424
  745TMC3    O111071   2.811   1.658  13.865  0.6082  0.0158  0.1295
  745TMC3    O211072   2.740   1.488  14.238 -0.2411  0.5348  0.3093
  746TMC3    C111073   0.949   3.544  11.389  0.7146 -0.2181 -0.8647
  746TMC3    C211074   1.040   3.449  11.335 -0.6860  0.3102  0.3602
  746TMC3    C311075   0.984   3.332  11.296  0.0247 -0.4548  0.0567
  746TMC3    C411076   0.817   3.517  11.415 -0.0786  0.2315  0.1656
  746TMC3    C511077   0.769   3.388  11.393  0.1299 -0.3329 -0.0425
  746TMC3    C611078   0.851   3.304  11.325 -0.2217 -0.0252 -0.1392
  746TMC3     C11079   0.969   3.683  11.377  0.1099 -0.3434  0.3004
  746TMC3     O11080   0.874   3.758  11.393  0.0748 -0.2652 -0.4473
  746TMC3     H11081   1.147   3.467  11.336 -0.5822 -0.3232  0.4034
  746TMC3    H111082   0.759   3.591  11.469 -0.7672  0.5786 -1.0421
  746TMC3    H211083   0.814   3.209  11.289  2.0080 -1.3946  1.1642
  746TMC3    C711084   0.628   3.366  11.377 -0.2690 -0.1042  0.6188
  746TMC3    C811085   1.001   3.310  11.155 -0.4034  0.8389 -0.3865
  746TMC3    O111086   0.600   3.265  11.312  0.1046  0.8576 -0.1717
  746TMC3    O211087   0.899   3.263  11.104 -0.8873 -0.1708  0.4143
  747TMC3    C111088   3.026   3.777  10.948  0.3938  0.7246 -0.0685
  747TMC3    C211089   2.945   3.675  10.988  0.2780 -0.5431  0.0726
  747TMC3    C311090   2.915   3.661  11.122 -0.3641 -0.6225  0.7219
  747TMC3    C411091   3.075   3.859  11.045  0.4157  0.1674  0.2435
  747TMC3    C511092   3.050   3.829  11.175  0.3534  0.3729 -1.0185
  747TMC3    C611093   2.955   3.742  11.219  0.5180 -0.2081  0.0171
  747TMC3     C11094   3.075   3.809  10.807  0.4979  0.2960 -0.6500
  747TMC3     O11095   3.146   3.906  10.806  0.8563  0.0877 -0.3439
  747TMC3     H11096   2.925   3.600  10.912 -1.7242  1.1213 -1.0471
  747TMC3    H111097   3.140   3.943  11.019  0.8405 -0.4519 -0.7050
  747TMC3    H211098   2.972   3.709  11.321 -1.5836  1.6510  0.9847
  747TMC3    C711099   3.101   3.916  11.279  0.0846  0.8136  0.2265
  747TMC3    C811100   2.851   3.537  11.158  0.0306  0.0280 -0.1040
  747TMC3    O111101   3.022   3.949  11.370  0.5800  0.2413  0.1991
  747TMC3    O211102   2.813   3.461  11.066 -0.6929  0.1458 -0.3711
  748MPD2     C11103   4.132   4.030   1.301  0.0313  0.2162  0.0806
  748MPD2    C111104   4.192   3.913   1.264  0.2676  0.0181  0.1001
  748MPD2    C211105   4.327   3.913   1.241 -0.2956  0.2443  0.7703
  748MPD2    C311106   4.402   4.029   1.245 -0.4221  0.1923 -0.3511
  748MPD2    C411107   4.345   4.146   1.281  0.3111  0.0740 -0.1654
  748MPD2    C511108   4.212   4.146   1.311  0.5638 -0.0634 -0.1515
  748MPD2     H11109   4.372   3.819   1.210  2.2042  1.0125  2.0256
  748MPD2    H111110   4.405   4.236   1.286 -2.2989  1.7785  0.9197
  748MPD2    H211111   4.024   4.039   1.300 -0.0285 -0.9466 -4.0339
  748MPD2    H311112   4.162   4.241   1.326  1.7931  0.8556 -1.9361
  748MPD2     N11113   4.544   4.008   1.217  0.1502 -0.5285  0.4667
  748MPD2    H511114   4.570   3.914   1.188  2.4463  0.4081 -0.5013
  748MPD2    N111115   4.111   3.794   1.273 -0.5970  0.6503 -0.4385
  748MPD2    H711116   4.010   3.803   1.284 -0.7204 -1.9065  0.5484
  749TMC3    C111117   0.025   4.066   1.134  0.1805 -0.4078 -0.0308
  749TMC3    C211118   0.103   3.969   1.196 -0.9095 -0.7462 -0.3296
  749TMC3    C311119   0.230   3.946   1.144  0.4413  0.0589 -0.4993
  749TMC3    C411120   0.083   4.147   1.038  0.3418  0.0454  0.5455
  749TMC3    C511121   0.211   4.124   0.999  0.1352  0.4756  0.4393
  749TMC3    C611122   0.282   4.016   1.036 -0.0170 -0.3097  0.4227
  749TMC3     C11123   4.636   4.109   1.194  0.5876 -0.9125  0.1584
  749TMC3     O11124   4.615   4.229   1.210  0.1830 -0.1149 -0.2017
  749TMC3     H11125   0.064   3.915   1.282  0.7359  0.0188  0.8929
  749TMC3    H111126   0.016   4.218   0.991 -2.7976 -2.1182  1.7637
  749TMC3    H211127   0.385   4.007   1.006 -0.0193 -0.3606  0.4302
  749TMC3    C711128   0.281   4.239   0.943  0.9614 -0.3069 -0.1641
  749TMC3    C811129   0.310   3.859   1.229  0.8895 -0.4813 -0.5059
  749TMC3    O111130   0.232   4.348   0.973 -0.3941 -0.4579 -0.0922
  749TMC3    O211131   0.259   3.807   1.326 -0.8598 -0.5134  0.0488
  750MPD2     C11132   0.434   1.201  11.897 -0.9714  0.1775  0.3585
  750MPD2    C111133   0.398   1.078  11.947 -0.7682 -0.1891 -0.8582
  750MPD2    C211134   0.464   0.966  11.894  0.1939 -0.1270  0.5708
  750MPD2    C311135   0.541   0.975  11.779  0.5220 -0.5316  0.0499
  750MPD2    C411136   0.571   1.099  11.729  0.4832 -1.0209 -0.4647
  750MPD2    C511137   0.511   1.210  11.787  0.2425  0.4400  0.5384
  750MPD2     H11138   0.436   0.867  11.928 -1.9023  1.2024  2.7086
  750MPD2    H111139   0.632   1.101  11.640  1.7942  2.5033  0.4965
  750MPD2    H211140   0.384   1.288  11.937  0.9450  1.0964  0.7459
  750MPD2    H311141   0.521   1.303  11.733  2.3931  0.5676  1.1611
  750MPD2     N11142   0.603   0.863  11.715 -0.2931 -0.7575 -0.0741
  750MPD2    H511143   0.638   0.874  11.621 -1.8975  0.8200 -0.4850
  750MPD2    N111144   0.288   1.071  12.041 -0.6587 -0.0729 -0.5334
  750MPD2    H711145   0.229   1.151  12.061  0.3331  0.8201 -1.1720
  751TMC3    C111146   0.668   0.644  11.677  0.2973 -0.1393 -0.1523
  751TMC3    C211147   0.623   0.519  11.681 -0.5395  0.0721 -0.3674
  751TMC3    C311148   0.684   0.427  11.602 -0.2341  0.0446  0.1915
  751TMC3    C411149   0.794   0.680  11.626  0.1951 -0.1640 -0.7576
  751TMC3    C511150   0.864   0.573  11.574  0.1161 -0.8289 -0.8615
  751TMC3    C611151   0.809   0.444  11.550 -0.3970  0.4192  0.7933
  751TMC3     C11152   0.603   0.736  11.767  0.3999 -0.2889  0.4833
  751TMC3     O11153   0.575   0.693  11.877 -0.1686  0.4904  0.3421
  751TMC3     H11154   0.530   0.506  11.734 -1.2904  0.8119 -1.5043
  751TMC3    H111155   0.837   0.779  11.639  0.1690 -0.1510 -0.7702
  751TMC3    H211156   0.863   0.366  11.498 -1.2755  0.0546  0.4269
  751TMC3    C711157   0.963   0.594  11.470 -0.3479 -0.1470  0.1163
  751TMC3    C811158   0.625   0.294  11.580  0.0119 -0.8858  0.2169
  751TMC3    O111159   1.063   0.518  11.471  0.5386 -0.0971 -0.2788
  751TMC3    O211160   0.675   0.220  11.494  0.1136 -0.3548  0.2485
  752TMC3    C111161   4.307   0.562  17.294  0.0682 -0.6059  0.0744
  752TMC3    C211162   4.359   0.440  17.327 -0.1920 -0.1838 -0.0999
  752TMC3    C311163   4.286   0.371  17.423  0.9249 -0.8255 -1.2531
  752TMC3    C411164   4.194   0.615  17.354 -0.0292  0.0999  0.3895
  752TMC3    C511165   4.127   0.542  17.449 -0.5655 -0.0724  0.7799
  752TMC3    C611166   4.181   0.421  17.492 -0.1279  0.4606  0.4937
  752TMC3     C11167   4.386   0.636  17.203  0.7341 -0.1424 -0.2757
  752TMC3     O11168   4.501   0.651  17.235  0.4297 -0.1470  0.4301
  752TMC3     H11169   4.438   0.392  17.271 -0.1342 -0.6115  0.3452
  752TMC3    H111170   4.164   0.714  17.323 -0.4001  0.2889  1.3587
  752TMC3    H211171   4.137   0.351  17.563 -1.6546  0.5529 -0.3620
  752TMC3    C711172   4.046   0.603  17.557 -0.2942  0.7919 -0.3901
  752TMC3    C811173   4.335   0.237  17.435 -0.3001  0.1992  0.1117
  752TMC3    O111174   4.006   0.521  17.641 -0.0091  0.2017  0.5596
  752TMC3    O211175   4.383   0.184  17.336 -0.0412 -0.0421 -0.7047
  753TMC3    C111176   1.724   1.035  13.739  0.4725 -0.2162 -0.4741
  753TMC3    C211177   1.814   1.077  13.840 -0.0515  0.1225  0.3905
  753TMC3    C311178   1.854   0.991  13.939  0.2733 -0.2905 -0.4042
  753TMC3    C411179   1.680   0.898  13.735  0.4881 -0.5391 -0.3311
  753TMC3    C511180   1.729   0.815  13.838 -0.3001 -0.7088 -0.1635
  753TMC3    C611181   1.815   0.859  13.933  0.3245 -0.2207  0.6260
  753TMC3     C11182   1.668   1.125  13.632 -0.2477  0.0362 -0.3808
  753TMC3     O11183   1.551   1.113  13.599 -0.0615 -0.2471  0.5632
  753TMC3     H11184   1.830   1.184  13.850 -4.6183  0.8369  0.2629
  753TMC3    H111185   1.603   0.865  13.666 -1.5874  0.6397  1.4244
  753TMC3    H211186   1.842   0.793  14.014  0.9046 -0.2005  0.4500
  753TMC3    C711187   1.677   0.678  13.858 -0.6292 -0.1537 -0.3909
  753TMC3    C811188   1.934   1.024  14.056 -0.2154 -0.3711  0.3849
  753TMC3    O111189   1.746   0.610  13.934  0.0113  0.6760 -0.3884
  753TMC3    O211190   1.931   0.941  14.142 -0.0404  0.0506  0.3889
  754MPD2     C11191   0.318   0.195  12.737  0.0010  0.1165  0.7978
  754MPD2    C111192   0.272   0.064  12.735 -0.8313  0.0419 -0.1468
  754MPD2    C211193   0.141   0.038  12.762 -0.0993 -0.5629 -1.0537
  754MPD2    C311194   0.052   0.148  12.775 -0.6237  0.3374 -0.6734
  754MPD2    C411195   0.095   0.281  12.770 -0.3478 -0.2688  0.3247
  754MPD2    C511196   0.230   0.301  12.758  0.1180 -0.0188 -0.1348
  754MPD2     H11197   0.106   4.668  12.776 -0.7047 -0.3331 -0.8812
  754MPD2    H111198   0.034   0.367  12.795 -2.0153 -1.6478  0.9525
  754MPD2    H211199   0.422   0.226  12.734  0.4076 -1.2015  1.8298
  754MPD2    H311200   0.264   0.403  12.748  0.0816 -0.0306 -0.3611
  754MPD2     N11201   4.646   0.129  12.791 -0.1449 -0.3106 -0.1048
  754MPD2    H511202   4.590   0.211  12.810 -0.7992 -0.9874  0.9085
  754MPD2    N111203   0.370   4.701  12.742 -0.2662  0.5508  0.8279
  754MPD2    H711204   0.450   0.003  12.795  0.2083  1.9897 -0.7842
  755MPD2     C11205   4.200   0.772  13.099 -0.5762 -0.2784 -0.3239
  755MPD2    C111206   4.103   0.676  13.106  0.6508 -1.0748 -0.0116
  755MPD2    C211207   4.142   0.546  13.090 -0.0901 -0.3481  0.4815
  755MPD2    C311208   4.278   0.516  13.064  0.0302 -0.0138 -0.2608
  755MPD2    C411209   4.374   0.613  13.059  0.5079  0.2723 -0.1042
  755MPD2    C511210   4.328   0.743  13.070 -0.0220 -0.3021 -0.1670
  755MPD2     H11211   4.066   0.471  13.109  0.3179 -0.8393  0.1804
  755MPD2    H111212   4.476   0.584  13.035  0.5398 -0.0462  0.4187
  755MPD2    H211213   4.169   0.875  13.110 -2.4871 -1.0148  1.1757
  755MPD2    H311214   4.395   0.828  13.061 -2.4095  1.7324  1.2292
  755MPD2     N11215   4.321   0.386  13.045  0.0122  0.2796  0.1896
  755MPD2    H511216   4.421   0.375  13.030  0.6066  0.7513  3.8070
  755MPD2    N111217   3.961   0.703  13.127  0.3468  0.5031  0.1532
  755MPD2    H711218   3.905   0.619  13.137 -1.8083  1.9529  0.1277
  756MPD2     C11219   0.494   1.487   9.782  0.3292 -0.2283  0.5600
  756MPD2    C111220   0.575   1.426   9.883  0.0754 -0.5841  0.4422
  756MPD2    C211221   0.703   1.471   9.890 -0.5605  0.8122 -0.2528
  756MPD2    C311222   0.760   1.568   9.806  0.2441 -0.1044 -0.4488
  756MPD2    C411223   0.678   1.624   9.712 -0.1278  0.0144 -0.3907
  756MPD2    C511224   0.551   1.582   9.698  0.3824 -0.1207 -0.1616
  756MPD2     H11225   0.765   1.440   9.973 -0.4823  0.9507 -0.2605
  756MPD2    H111226   0.713   1.698   9.641 -0.0433  1.3962  1.1220
  756MPD2    H211227   0.392   1.455   9.765  0.1003  0.9481 -0.2445
  756MPD2    H311228   0.484   1.621   9.622 -2.6047 -0.4649  2.2762
  756MPD2     N11229   0.894   1.605   9.815 -0.1428 -1.2963  0.4394
  756MPD2    H511230   0.955   1.538   9.861  0.1799 -1.1755  0.1812
  756MPD2    N111231   0.530   1.325   9.973  0.2912  0.1148 -0.2648
  756MPD2    H711232   0.602   1.278  10.025  0.5010 -1.2505 -1.8000
  757MPD2     C11233   1.363   0.993   9.995 -0.3513  0.5467 -0.1280
  757MPD2    C111234   1.247   1.053  10.038 -0.6072 -0.2861  0.2789
  757MPD2    C211235   1.235   1.194  10.028  0.0651 -0.0852 -0.6151
  757MPD2    C311236   1.322   1.262   9.944 -0.1148  0.0738  0.1239
  757MPD2    C411237   1.421   1.192   9.879  0.1811  0.1961 -0.2600
  757MPD2    C511238   1.450   1.062   9.912  0.9064  0.1080  0.4528
  757MPD2     H11239   1.165   1.254  10.085  2.3387  1.3423  0.6666
  757MPD2    H111240   1.487   1.239   9.807  1.3758  2.1546  2.1190
  757MPD2    H211241   1.364   0.885   9.990  0.4531  0.6727 -2.5111
  757MPD2    H311242   1.533   1.006   9.869  1.4467 -1.4523  3.5369
  757MPD2     N11243   1.303   1.397   9.917 -0.2275 -0.4596 -0.4244
  757MPD2    H511244   1.212   1.425   9.953  2.0994  1.4279  3.9344
  757MPD2    N111245   1.137   0.971  10.078 -0.0950  0.4249 -0.1733
  757MPD2    H711246   1.157   0.872  10.078  1.0190  0.6587 -0.3460
  758MPD2     C11247   0.395   0.064  15.804  0.3388 -0.1917 -0.1595
  758MPD2    C111248   0.398   4.675  15.867 -0.3968 -0.2922 -0.9083
  758MPD2    C211249   0.368   4.663  16.004  0.1999  0.1697 -0.8672
  758MPD2    C311250   0.324   0.036  16.074  0.1490 -0.7100 -0.7870
  758MPD2    C411251   0.323   0.161  16.015  0.8176  0.0261  1.1182
  758MPD2    C511252   0.356   0.174  15.884 -0.5138 -0.3903  0.5580
  758MPD2     H11253   0.375   4.561  16.040 -1.4085  1.3272  2.8016
  758MPD2    H111254   0.294   0.251  16.068  3.2822  0.3266  1.9511
  758MPD2    H211255   0.437   0.073  15.704  0.2486 -0.3505 -0.2103
  758MPD2    H311256   0.358   0.271  15.837  0.0888 -0.5835  0.1754
  758MPD2     N11257   0.317   0.035  16.218  0.3084  0.1472 -1.3097
  758MPD2    H511258   0.305   0.128  16.258  0.8986  0.1044 -1.0319
  758MPD2    N111259   0.455   4.564  15.800  0.1562 -0.5919  0.3848
  758MPD2    H711260   0.511   4.584  15.718 -1.0411 -0.8079 -0.4926
  759MPD2     C11261   3.706   4.033   9.551 -0.5547  0.0114  0.6811
  759MPD2    C111262   3.785   3.966   9.645 -0.3508  0.5408 -0.4477
  759MPD2    C211263   3.924   3.955   9.602  0.4233  0.3170  0.4308
  759MPD2    C311264   3.970   4.004   9.481 -0.6378 -0.3734 -0.0123
  759MPD2    C411265   3.886   4.082   9.406 -0.3091  0.0483 -0.4999
  759MPD2    C511266   3.754   4.100   9.442 -0.6638 -0.5875  0.7468
  759MPD2     H11267   3.996   3.906   9.666 -0.7164 -2.3349 -0.2917
  759MPD2    H111268   3.917   4.129   9.313  0.0734  0.3373 -0.2259
  759MPD2    H211269   3.602   4.059   9.567 -0.3240  0.0661  2.1218
  759MPD2    H311270   3.701   4.176   9.385  2.0233  1.9157  1.5542
  759MPD2     N11271   4.097   3.978   9.428 -0.3761 -0.5733 -0.3997
  759MPD2    H511272   4.116   4.007   9.333 -0.8294  0.1012 -0.2862
  759MPD2    N111273   3.731   3.883   9.747 -0.0268 -0.0537  0.4385
  759MPD2    H711274   3.800   3.846   9.811 -0.1956  0.0575  0.6835
  760MPD2     C11275   3.304   4.642  11.966 -0.4518 -0.7147 -0.4817
  760MPD2    C111276   3.388   4.699  11.872  0.4569 -0.1345 -0.5375
  760MPD2    C211277   3.475   4.617  11.800  0.3040 -0.4115  0.8855
  760MPD2    C311278   3.490   4.482  11.828  0.1732  0.8709  0.2336
  760MPD2    C411279   3.412   4.433  11.931  1.0099 -0.5523  0.1237
  760MPD2    C511280   3.313   4.507  11.987 -0.5198  0.0771  0.3360
  760MPD2     H11281   3.538   4.658  11.723 -1.4843 -2.0593 -1.4443
  760MPD2    H111282   3.400   4.328  11.953  0.3991 -0.3346  0.8101
  760MPD2    H211283   3.221   4.698  12.007 -0.6577 -1.0122 -0.4870
  760MPD2    H311284   3.248   4.457  12.058  0.4352 -0.6850  0.6713
  760MPD2     N11285   3.581   4.397  11.759 -0.0027  0.0161 -1.1901
  760MPD2    H511286   3.605   4.304  11.791  1.3299  0.2930 -1.3440
  760MPD2    N111287   3.377   0.103  11.835 -0.5373 -0.1640  0.0328
  760MPD2    H711288   3.448   0.134  11.769  0.0339  0.9382  1.1692
  761MPD2     C11289   0.209   0.012  11.603 -0.4169  0.2477 -0.1154
  761MPD2    C111290   0.331   4.719  11.557  0.4206  0.7779 -0.3227
  761MPD2    C211291   0.436   0.071  11.561 -0.7021 -0.4455  0.0753
  761MPD2    C311292   0.408   0.184  11.629  0.1391 -0.2061  0.2869
  761MPD2    C411293   0.291   0.217  11.690  0.0477  1.0241  0.7198
  761MPD2    C511294   0.191   0.129  11.674 -0.1884 -0.4399 -0.0043
  761MPD2     H11295   0.535   0.051  11.521 -0.9465 -1.2499 -0.1302
  761MPD2    H111296   0.272   0.298  11.758 -0.7080  0.9208  0.6425
  761MPD2    H211297   0.128   4.674  11.590  2.1354 -2.8977  0.7429
  761MPD2    H311298   0.096   0.154  11.720  1.3847  0.7843  2.5866
  761MPD2     N11299   0.509   0.278  11.654  0.2032  0.2976  0.5765
  761MPD2    H511300   0.480   0.359  11.708 -2.0311 -1.0268  1.3344
  761MPD2    N111301   0.347   4.595  11.490 -0.1696 -0.6548 -0.2696
  761MPD2    H711302   0.274   4.525  11.500 -0.9441  0.1290 -0.4644
  762MPD2     C11303   0.678   4.303  10.864  0.3433 -0.4732  0.5631
  762MPD2    C111304   0.717   4.231  10.976 -0.7761  1.0728  0.2554
  762MPD2    C211305   0.839   4.164  10.982 -0.2182  0.0079  0.2547
  762MPD2    C311306   0.931   4.186  10.882 -0.5834 -0.1069 -0.4916
  762MPD2    C411307   0.894   4.258  10.771 -0.2238  0.6636  0.6292
  762MPD2    C511308   0.770   4.315  10.760  0.0057  0.2910  0.4370
  762MPD2     H11309   0.874   4.113  11.071  2.0645  0.3742 -0.4340
  762MPD2    H111310   0.960   4.273  10.686 -1.1220  0.5882 -0.0734
  762MPD2    H211311   0.581   4.350  10.849 -0.6157 -2.6564 -0.1953
  762MPD2    H311312   0.752   4.373  10.671 -3.3489 -1.2916  0.0770
  762MPD2     N11313   1.052   4.121  10.889  1.0940 -0.0503 -0.4782
  762MPD2    H511314   1.062   4.050  10.960  0.2407  1.8009  1.5093
  762MPD2    N111315   0.618   4.229  11.081 -0.2089 -0.9112  0.1411
  762MPD2    H711316   0.528   4.274  11.065 -0.8866 -1.8151  1.4418
  763MPD2     C11317   2.581   4.658  16.255  0.3960  0.0057  0.0401
  763MPD2    C111318   2.453   4.713  16.227  0.3647  0.0511 -0.4330
  763MPD2    C211319   2.426   0.114  16.265  0.1957 -0.8690  0.5213
  763MPD2    C311320   2.524   0.182  16.329  0.2397 -0.1681 -0.8824
  763MPD2    C411321   2.643   0.126  16.349  0.3935  0.0440  0.3600
  763MPD2    C511322   2.680   0.002  16.311 -0.4004  0.1652  0.1246
  763MPD2     H11323   2.330   0.162  16.252  0.3989 -0.3167  1.0994
  763MPD2    H111324   2.713   0.195  16.395 -0.6037  0.7735  0.7797
  763MPD2    H211325   2.608   4.554  16.243 -0.2650 -0.1775  0.1338
  763MPD2    H311326   2.772   4.680  16.330 -1.5112 -1.3924  1.1473
  763MPD2     N11327   2.515   0.310  16.378  0.8989  0.9389  0.0343
  763MPD2    H511328   2.598   0.354  16.416 -0.3141  1.9271  1.5346
  763MPD2    N111329   2.353   4.646  16.149 -0.4676 -0.2287 -0.2305
  763MPD2    H711330   2.274   4.700  16.116 -1.6310 -0.4652  2.1470
  764MPD2     C11331   4.465   1.249  17.587  0.2827 -0.6602 -0.8262
  764MPD2    C111332   4.574   1.172  17.631 -0.1175 -0.6890 -0.2652
  764MPD2    C211333   4.554   1.080   0.005  0.6772 -0.3895  0.5855
  764MPD2    C311334   4.431   1.082   0.073 -0.0853  0.6194 -0.0616
  764MPD2    C411335   4.319   1.154   0.028  0.4828 -0.4368 -0.7462
  764MPD2    C511336   4.341   1.239  17.648  0.3606 -0.0243  0.5350
  764MPD2     H11337   4.638   1.028   0.050  1.0572 -0.7788 -0.5656
  764MPD2    H111338   4.218   1.148   0.065  0.9709  0.2823  0.7471
  764MPD2    H211339   4.477   1.318  17.505  0.4499  2.0065  1.4415
  764MPD2    H311340   4.263   1.299  17.602  0.0009 -2.0241 -1.4837
  764MPD2     N11341   4.423   1.004   0.192 -0.6763 -0.1932  0.3471
  764MPD2    H511342   4.506   0.946   0.207 -0.0581  0.3713 -0.8312
  764MPD2    N111343   4.704   1.181  17.578  0.2042 -0.1998  0.6143
  764MPD2    H711344   0.046   1.153  17.642 -0.7953  2.4982  2.9609
  765MPD2     C11345   4.394   3.825  16.118 -0.5437 -0.1948  0.0656
  765MPD2    C111346   4.461   3.921  16.046 -0.2468  0.4905 -0.0448
  765MPD2    C211347   4.596   3.905  16.027 -0.2626 -0.7698  0.2093
  765MPD2    C311348   4.657   3.792  16.078 -0.4030  0.3800 -0.3172
  765MPD2    C411349   4.581   3.696  16.142  0.3552 -0.4446  0.3169
  765MPD2    C511350   4.458   3.725  16.176  0.3115 -0.1216  0.2276
  765MPD2     H11351   4.659   3.980  15.981 -0.5644 -1.4481 -1.3215
  765MPD2    H111352   4.632   3.620  16.202 -1.9866 -1.0103  1.5677
  765MPD2    H211353   4.297   3.853  16.157 -0.4822  1.5853 -1.0834
  765MPD2    H311354   4.412   3.673  16.259 -0.8279  0.2346 -0.1892
  765MPD2     N11355   0.066   3.772  16.050  0.3814 -0.0392  0.2145
  765MPD2    H511356   0.119   3.844  16.003 -0.2606  0.1888 -0.1638
  765MPD2    N111357   4.380   4.028  15.998  0.4123  0.5708  0.2503
  765MPD2    H711358   4.286   4.038  16.035 -0.2660 -1.7848 -0.8568
  766MPD2     C11359   4.009   4.044  15.423  0.1851 -0.0687  0.4852
  766MPD2    C111360   4.129   4.095  15.450 -0.3170  0.4730  0.2873
  766MPD2    C211361   4.239   4.081  15.367  0.5264 -0.6288  0.3979
  766MPD2    C311362   4.221   4.019  15.243 -0.1346 -0.4860 -0.5174
  766MPD2    C411363   4.101   3.965  15.210  1.2973 -0.5707 -0.2624
  766MPD2    C511364   3.999   3.978  15.300  0.1667 -0.0074 -0.9946
  766MPD2     H11365   4.327   4.138  15.396  0.2022  0.0444  0.0670
  766MPD2    H111366   4.074   3.925  15.113 -0.6928 -1.4010  0.6421
  766MPD2    H211367   3.923   4.038  15.490  0.6806 -0.2740  1.1033
  766MPD2    H311368   3.898   3.952  15.272 -0.7829  0.0603  2.3315
  766MPD2     N11369   4.326   4.020  15.143  0.7490 -1.0314 -0.6439
  766MPD2    H511370   4.307   3.967  15.059  1.9064 -0.7839 -1.0669
  766MPD2    N111371   4.165   4.169  15.565 -0.2497 -0.4128  0.0136
  766MPD2    H711372   4.264   4.188  15.576 -0.5792  0.9033  0.7302
  767MPD2     C11373   3.956   4.222  15.064  0.0841 -0.4994 -0.2020
  767MPD2    C111374   4.084   4.260  15.026  0.4457 -0.4381 -0.4794
  767MPD2    C211375   4.116   4.225  14.893 -0.4835 -0.2527  0.0778
  767MPD2    C311376   4.033   4.155  14.807 -0.0150 -0.0679  0.3085
  767MPD2    C411377   3.899   4.120  14.850 -0.5412  0.5668  0.2837
  767MPD2    C511378   3.873   4.158  14.978 -0.1627 -0.6287  0.2619
  767MPD2     H11379   4.210   4.253  14.846 -0.0852 -1.7256 -0.0142
  767MPD2    H111380   3.830   4.057  14.796  2.4643 -0.8191 -1.9440
  767MPD2    H211381   3.916   4.255  15.159 -0.6807 -0.2112 -0.6251
  767MPD2    H311382   3.772   4.142  15.014 -0.2000 -2.2594 -0.5653
  767MPD2     N11383   4.072   4.132  14.670 -0.1467 -0.2582  0.7388
  767MPD2    H511384   4.167   4.156  14.646  0.4209 -1.9877  1.3110
  767MPD2    N111385   4.162   4.337  15.115 -0.2990 -0.2916 -1.2522
  767MPD2    H711386   4.133   4.353  15.211  1.3044  2.5394 -1.2295
  768MPD2     C11387   0.726   3.246  10.561  0.7129 -0.3734 -0.1668
  768MPD2    C111388   0.651   3.193  10.670  1.0464  0.0124  0.0531
  768MPD2    C211389   0.713   3.103  10.753  0.1791 -0.4488  0.3847
  768MPD2    C311390   0.839   3.063  10.734  0.8409 -0.7181 -0.5613
  768MPD2    C411391   0.919   3.123  10.634  0.5012 -0.1532  0.8005
  768MPD2    C511392   0.855   3.204  10.548  0.2451  0.6277  0.6529
  768MPD2     H11393   0.661   3.065  10.839 -2.2832 -1.7110 -1.6546
  768MPD2    H111394   1.022   3.095  10.613  0.9408  0.4702  2.0626
  768MPD2    H211395   0.678   3.308  10.486  1.9725  0.5179 -0.2243
  768MPD2    H311396   0.912   3.250  10.468 -0.4614  1.4074  0.5901
  768MPD2     N11397   0.908   2.972  10.817  0.2064 -0.4682  0.1966
  768MPD2    H511398   1.009   2.976  10.816  0.1600  2.0617  3.2476
  768MPD2    N111399   0.514   3.233  10.699  0.6055 -0.1186 -0.0262
  768MPD2    H711400   0.467   3.178  10.770 -0.1035  1.0547  0.4152
  769MPD2     C11401   1.165   1.162  14.966 -0.5861  0.2473  0.2994
  769MPD2    C111402   1.132   1.053  15.045 -0.0089  0.7835  0.0119
  769MPD2    C211403   1.179   1.057  15.177 -0.2019  0.1452  0.3338
  769MPD2    C311404   1.262   1.156  15.229 -0.8848 -0.0120  0.5694
  769MPD2    C411405   1.289   1.264  15.144  0.0141  0.1859  0.5563
  769MPD2    C511406   1.244   1.261  15.014  0.0339  0.0463  0.2858
  769MPD2     H11407   1.162   0.965  15.231  1.1019  0.0558  0.5819
  769MPD2    H111408   1.358   1.343  15.170  1.9785 -1.0404 -0.9191
  769MPD2    H211409   1.135   1.171  14.862  0.1626 -1.6403 -0.0749
  769MPD2    H311410   1.283   1.334  14.944  2.2832 -0.7079  0.7418
  769MPD2     N11411   1.322   1.145  15.353 -0.4565  0.2084  0.0885
  769MPD2    H511412   1.288   1.064  15.403  0.4881 -0.2853 -0.0720
  769MPD2    N111413   1.049   0.948  14.992 -0.1217 -0.2977 -0.0055
  769MPD2    H711414   1.008   0.957  14.900  3.8680  2.7674 -1.5031
  770MPD2     C11415   1.071   4.585  14.846  0.3612 -0.4376  0.0651
  770MPD2    C111416   0.947   4.622  14.807 -0.0988 -0.1580 -0.2551
  770MPD2    C211417   0.911   0.027  14.826  0.2453  0.6492  0.1758
  770MPD2    C311418   0.995   0.120  14.880  0.2836 -0.1397 -0.0627
  770MPD2    C411419   1.123   0.079  14.903  0.0283 -0.0514 -0.4178
  770MPD2    C511420   1.162   4.682  14.892  0.3729 -0.7136  0.0967
  770MPD2     H11421   0.813   0.056  14.790  1.5621  3.2699 -1.3111
  770MPD2    H111422   1.197   0.155  14.927 -0.7139  0.7423 -0.6312
  770MPD2    H211423   1.116   4.492  14.816 -1.4025 -1.0510 -0.6985
  770MPD2    H311424   1.261   4.647  14.917  0.4327 -0.1141  0.7057
  770MPD2     N11425   0.961   0.261  14.869  0.2034  0.2702  0.6030
  770MPD2    H511426   0.876   0.287  14.819  0.3187 -0.6800 -0.0741
  770MPD2    N111427   0.864   4.517  14.751  0.2725  0.6216 -0.1136
  770MPD2    H711428   0.911   4.428  14.762 -1.7766 -0.4813 -0.3779
  771MPD2     C11429   2.315   3.290  14.005 -0.3606 -0.0145  0.3694
  771MPD2    C111430   2.216   3.386  13.986 -0.5703 -0.7998 -1.2024
  771MPD2    C211431   2.083   3.348  13.993 -0.3808  0.3362  0.6123
  771MPD2    C311432   2.049   3.212  14.020  0.4955 -0.2723 -1.0818
  771MPD2    C411433   2.148   3.122  14.042 -0.2388  0.8714  0.0928
  771MPD2    C511434   2.278   3.161  14.026  0.7089 -0.1586 -0.4907
  771MPD2     H11435   2.001   3.410  13.960 -0.1542  1.3847  2.0151
  771MPD2    H111436   2.131   3.018  14.069 -1.5553  0.0346 -4.0013
  771MPD2    H211437   2.422   3.308  14.006 -0.7782  2.5067 -1.9856
  771MPD2    H311438   2.355   3.085  14.016  1.1806  0.5371 -2.1057
  771MPD2     N11439   1.920   3.171  14.022  0.1191 -0.1103 -0.0651
  771MPD2    H511440   1.849   3.244  14.018 -1.0934 -1.3118 -0.2102
  771MPD2    N111441   2.247   3.519  13.943  0.5318  0.1727 -0.4557
  771MPD2    H711442   2.167   3.576  13.918  0.9810  1.4573  0.9794
  772MPD2     C11443   2.186   4.144  14.273  0.3701  0.9438 -0.1539
  772MPD2    C111444   2.122   4.054  14.196  0.8205 -0.3183 -0.1732
  772MPD2    C211445   1.990   4.045  14.206  0.2716 -0.2447 -0.0107
  772MPD2    C311446   1.920   4.129  14.296 -0.0332  0.4290  0.0633
  772MPD2    C411447   1.980   4.221  14.370  0.8048  0.0993  0.3068
  772MPD2    C511448   2.123   4.218  14.362  0.1412  0.4723 -0.1379
  772MPD2     H11449   1.942   3.987  14.129 -1.7719  0.4739  0.7030
  772MPD2    H111450   1.924   4.284  14.439  0.2134 -1.0351  0.8526
  772MPD2    H211451   2.293   4.142  14.286  0.4366  3.0451 -0.4116
  772MPD2    H311452   2.182   4.289  14.418  0.3254  0.0473  0.2009
  772MPD2     N11453   1.779   4.135  14.294  0.1774  0.6589  0.3990
  772MPD2    H511454   1.739   4.200  14.360 -0.6330 -0.2334  0.7861
  772MPD2    N111455   2.189   3.975  14.106  0.1367  0.7636  0.1733
  772MPD2    H711456   2.134   3.903  14.061 -0.6307  0.3431  1.8042
  773MPD2     C11457   1.152   4.648   0.380 -0.4229  0.0192 -0.0519
  773MPD2    C111458   1.159   4.541   0.283 -0.1818 -0.1423  0.6678
  773MPD2    C211459   1.238   4.432   0.301 -0.3162  0.5441 -0.4652
  773MPD2    C311460   1.329   4.443   0.404 -0.4466  0.0441  0.0976
  773MPD2    C411461   1.329   4.542   0.494 -0.3085  0.4457 -0.8330
  773MPD2    C511462   1.242   4.651   0.480  0.1171  0.4462 -0.2966
  773MPD2     H11463   1.241   4.356   0.222  0.6726  0.5754 -0.4527
  773MPD2    H111464   1.394   4.549   0.581 -0.7763 -1.6583 -0.3330
  773MPD2    H211465   1.087   0.001   0.364  0.5179  0.9036  0.8291
  773MPD2    H311466   1.245   0.007   0.543  2.4806 -0.7619  1.2516
  773MPD2     N11467   1.429   4.346   0.412  0.0525  0.2715  0.2940
  773MPD2    H511468   1.424   4.268   0.347  0.1136  0.6743 -0.1892
  773MPD2    N111469   1.086   4.541   0.162  0.0238  0.7833 -0.6356
  773MPD2    H711470   1.107   4.464   0.099  2.0220  0.1207  0.8514
  774MPD2     C11471   0.785   4.410  13.575 -0.4021 -0.6125 -0.1552
  774MPD2    C111472   0.647   4.413  13.593  0.2926 -0.2112  0.9559
  774MPD2    C211473   0.569   4.471  13.497 -0.8506  0.9942 -0.9956
  774MPD2    C311474   0.619   4.528  13.380  0.3358  0.0580  0.0565
  774MPD2    C411475   0.761   4.531  13.366 -0.1418  0.1129  0.2468
  774MPD2    C511476   0.837   4.479  13.465  0.3360 -0.2191  1.2626
  774MPD2     H11477   0.461   4.466  13.504 -0.8789  1.7243 -0.8851
  774MPD2    H111478   0.811   4.577  13.282  1.3697 -1.5920  0.2214
  774MPD2    H211479   0.849   4.382  13.658  1.1766 -0.3740 -1.2988
  774MPD2    H311480   0.944   4.470  13.454  0.5185  0.9074  2.0915
  774MPD2     N11481   0.531   4.569  13.285 -0.4847  0.5033 -0.7564
  774MPD2    H511482   0.434   4.547  13.303 -1.1592  2.4380 -2.0714
  774MPD2    N111483   0.593   4.354  13.708  0.1059  1.0441  0.2963
  774MPD2    H711484   0.650   4.292  13.766  0.7817  1.1744 -0.2375
  775MPD2     C11485   1.832   0.734  15.898 -0.1467 -0.4079 -0.4283
  775MPD2    C111486   1.791   0.847  15.957  0.4839  0.0851 -0.1670
  775MPD2    C211487   1.869   0.958  15.938 -0.1415  0.1493 -0.2890
  775MPD2    C311488   1.984   0.959  15.864  0.1048  0.9910  0.3485
  775MPD2    C411489   2.026   0.843  15.809  0.1762 -0.4187  0.3545
  775MPD2    C511490   1.952   0.733  15.826 -0.5324 -0.4119  0.3031
  775MPD2     H11491   1.827   1.042  15.992 -1.4246  0.0718 -1.1521
  775MPD2    H111492   2.110   0.852  15.742  0.5216 -2.9226  0.4326
  775MPD2    H211493   1.771   0.644  15.892 -0.4194 -0.2223 -0.4444
  775MPD2    H311494   1.988   0.640  15.783  1.2755  0.2442  0.4067
  775MPD2     N11495   2.062   1.074  15.834 -0.2561 -0.0926  0.0422
  775MPD2    H511496   2.133   1.063  15.763  1.2926  1.5033  1.3487
  775MPD2    N111497   1.668   0.835  16.024 -0.3785  0.6062  0.1194
  775MPD2    H711498   1.623   0.745  16.015  2.2267 -0.7842  0.8884
  776MPD2     C11499   4.499   0.977  11.526  0.4647  0.0936 -0.3543
  776MPD2    C111500   4.554   1.056  11.632 -0.2165  0.0824 -0.8731
  776MPD2    C211501   4.577   1.192  11.607 -0.6004 -0.1105  0.0800
  776MPD2    C311502   4.553   1.245  11.479  0.8919 -0.6313  0.0587
  776MPD2    C411503   4.492   1.170  11.384 -0.5827  0.2905 -0.0670
  776MPD2    C511504   4.468   1.036  11.406  0.5286  0.5087 -0.2653
  776MPD2     H11505   4.623   1.244  11.689 -1.0387  2.4547 -1.3156
  776MPD2    H111506   4.476   1.221  11.290 -1.1147 -0.9102 -0.6172
  776MPD2    H211507   4.479   0.871  11.540 -0.4128  0.3590  0.3688
  776MPD2    H311508   4.425   0.967  11.334  2.0932 -1.4283  0.6826
  776MPD2     N11509   4.589   1.372  11.442 -0.3282 -1.2113  0.0028
  776MPD2    H511510   4.556   1.392  11.349  0.7245 -0.9031 -0.3026
  776MPD2    N111511   4.579   0.990  11.754  0.0417  0.4253 -0.1329
  776MPD2    H711512   4.574   0.889  11.746  0.9197  0.4367 -0.8077
  777MPD2     C11513   1.216   3.156   0.426 -0.4651 -0.0599  0.1569
  777MPD2    C111514   1.121   3.116   0.509  0.9640  0.1121 -0.8121
  777MPD2    C211515   1.054   2.998   0.489  0.3752  0.1419 -0.2496
  777MPD2    C311516   1.075   2.931   0.380 -0.6317 -0.0161 -0.0521
  777MPD2    C411517   1.184   2.963   0.297 -0.9285 -0.0876  0.3358
  777MPD2    C511518   1.246   3.083   0.315  0.1947  1.3034 -0.1896
  777MPD2     H11519   0.969   2.976   0.552  0.1926 -1.0486 -0.9010
  777MPD2    H111520   1.221   2.909   0.210 -0.2095  0.5997  0.2090
  777MPD2    H211521   1.270   3.246   0.455 -2.4455  1.1429  0.1228
  777MPD2    H311522   1.330   3.112   0.252 -0.8157  1.8675 -1.2690
  777MPD2     N11523   0.983   2.830   0.351  0.1359  0.1276  0.4222
  777MPD2    H511524   0.898   2.823   0.405 -0.8385 -2.7015 -1.4686
  777MPD2    N111525   1.099   3.202   0.625  0.8768 -0.4688  0.7199
  777MPD2    H711526   1.174   3.260   0.660 -2.0079  1.8814  2.9363
  778MPD2     C11527   2.164   3.798  14.969 -0.1137  0.7219 -0.3501
  778MPD2    C111528   2.169   3.683  14.895 -0.1496 -0.3121  0.1844
  778MPD2    C211529   2.267   3.671  14.795 -0.8304 -0.0735 -0.6517
  778MPD2    C311530   2.369   3.765  14.778  0.1125  0.0693  0.5739
  778MPD2    C411531   2.354   3.884  14.846  0.1964 -0.0586 -0.4495
  778MPD2    C511532   2.258   3.896  14.940  0.5681 -0.4515  0.0503
  778MPD2     H11533   2.278   3.579  14.739 -0.1860 -0.4537  0.1050
  778MPD2    H111534   2.425   3.964  14.830  0.2457  0.0896  0.5268
  778MPD2    H211535   2.089   3.805  15.046 -0.0583  0.7052 -0.2948
  778MPD2    H311536   2.257   3.980  15.008 -0.8733 -0.6363  0.2608
  778MPD2     N11537   2.473   3.734  14.684  0.7592 -0.3691 -0.0849
  778MPD2    H511538   2.453   3.644  14.642 -0.7490  0.5389 -1.3053
  778MPD2    N111539   2.077   3.580  14.904  0.7400  0.0270  0.1655
  778MPD2    H711540   2.085   3.501  14.840  2.0780 -0.2439  0.6783
  779MPD2     C11541   1.637   2.234  14.323 -0.0431 -0.8234  0.1935
  779MPD2    C111542   1.754   2.257  14.389  0.5396 -0.0785  0.1200
  779MPD2    C211543   1.804   2.385  14.399 -0.0586 -0.7778  1.1474
  779MPD2    C311544   1.739   2.489  14.341 -0.5972 -0.2542  0.7066
  779MPD2    C411545   1.627   2.457  14.267 -0.6674  0.3957  0.5119
  779MPD2    C511546   1.569   2.336  14.269  0.3693 -0.0889 -0.4421
  779MPD2     H11547   1.895   2.401  14.457  0.3804  0.5248  0.0702
  779MPD2    H111548   1.572   2.534  14.214  0.3592  0.4890 -0.4193
  779MPD2    H211549   1.583   2.140  14.319 -2.2376  0.5351 -1.1925
  779MPD2    H311550   1.471   2.322  14.225  0.4535  0.8879 -0.9462
  779MPD2     N11551   1.791   2.617  14.352  0.3180 -0.2268  0.3302
  779MPD2    H511552   1.880   2.618  14.400  0.1866 -0.7872  0.5946
  779MPD2    N111553   1.822   2.150  14.441  0.6264  0.3354 -0.0267
  779MPD2    H711554   1.905   2.176  14.493  0.0576 -1.4581  1.7948
  780MPD2     C11555   0.865   2.033   1.347 -0.1716 -0.5831 -0.3241
  780MPD2    C111556   0.799   2.060   1.228  0.1889 -0.3360 -0.3414
  780MPD2    C211557   0.864   2.144   1.139 -0.0553 -0.0381 -0.8133
  780MPD2    C311558   0.985   2.206   1.168 -0.0432 -0.1606 -0.6409
  780MPD2    C411559   1.043   2.182   1.288 -0.2641 -0.7935 -0.1044
  780MPD2    C511560   0.985   2.090   1.371  0.4223  0.3031  0.0769
  780MPD2     H11561   0.829   2.150   1.036  1.0051 -1.5084 -1.2512
  780MPD2    H111562   1.138   2.219   1.325 -0.6908 -0.6887  0.8811
  780MPD2    H211563   0.823   1.963   1.419  0.2559 -0.2818  0.2141
  780MPD2    H311564   1.041   2.054   1.456 -2.0852 -0.5154  1.3815
  780MPD2     N11565   1.058   2.277   1.071 -0.0878 -0.4156  0.3981
  780MPD2    H511566   1.010   2.285   0.982  1.0107 -0.1035 -0.1545
  780MPD2    N111567   0.686   1.979   1.191  0.0277  0.4818  0.1466
  780MPD2    H711568   0.670   1.904   1.258  2.2189 -1.3583 -1.3556
  781MPD2     C11569   2.604   4.280  12.412  0.3177 -0.2490  0.4409
  781MPD2    C111570   2.726   4.225  12.364  0.6673 -0.8867 -0.2828
  781MPD2    C211571   2.794   4.275  12.253 -0.3169  0.2506 -0.2593
  781MPD2    C311572   2.736   4.386  12.190 -0.2205  0.3192 -0.0222
  781MPD2    C411573   2.612   4.436  12.232 -0.4958  0.1550 -0.3560
  781MPD2    C511574   2.548   4.381  12.341  0.2048 -0.2754  0.5607
  781MPD2     H11575   2.889   4.234  12.222  0.9024  3.1335 -0.4032
  781MPD2    H111576   2.568   4.523  12.184  0.6328  3.3723  4.5179
  781MPD2    H211577   2.544   4.234  12.489 -1.0968  1.1874  0.1870
  781MPD2    H311578   2.454   4.419  12.380  0.3299 -1.3528  1.8986
  781MPD2     N11579   2.797   4.448  12.076 -0.0598 -0.0040 -0.1195
  781MPD2    H511580   2.752   4.531  12.040 -1.4605 -0.3190  0.9330
  781MPD2    N111581   2.779   4.106  12.413  0.3066 -0.4851 -0.0016
  781MPD2    H711582   2.871   4.083  12.377  0.1335  0.8250 -1.2913
  782MPD2     C11583   1.464   0.457  10.256 -0.4068  0.6710 -0.8706
  782MPD2    C111584   1.525   0.477  10.376 -0.5922  0.0534 -0.0539
  782MPD2    C211585   1.593   0.596  10.392 -0.4021  0.0468  0.3764
  782MPD2    C311586   1.603   0.688  10.292  0.6875  0.0861  1.4770
  782MPD2    C411587   1.549   0.660  10.169 -0.8700 -0.7854  0.0035
  782MPD2    C511588   1.484   0.539  10.155  0.0176  0.3638  0.1188
  782MPD2     H11589   1.633   0.615  10.491 -1.3814 -2.4061  1.2495
  782MPD2    H111590   1.537   0.730  10.087 -1.2489 -0.0581  0.6769
  782MPD2    H211591   1.402   0.369  10.246  0.0404  0.1653  0.8828
  782MPD2    H311592   1.432   0.520  10.062  1.6142  1.0451 -0.9181
  782MPD2     N11593   1.653   0.819  10.331 -0.4883  0.0242 -0.5628
  782MPD2    H511594   1.681   0.826  10.428  0.6236 -0.3111 -0.8664
  782MPD2    N111595   1.489   0.396  10.487 -0.4153  0.3062  0.0902
  782MPD2    H711596   1.422   0.321  10.472  0.2338 -0.1351 -0.6268
  783MPD2     C11597   0.901   0.794  11.168  0.2984  0.1853 -1.2520
  783MPD2    C111598   0.957   0.690  11.244  0.3686  0.6339 -0.1122
  783MPD2    C211599   1.035   0.592  11.190 -0.9943 -0.0561  0.3848
  783MPD2    C311600   1.047   0.595  11.049  0.5002 -0.2958  0.2263
  783MPD2    C411601   0.985   0.692  10.977 -0.1338  0.2604  0.7132
  783MPD2    C511602   0.921   0.794  11.034 -0.2478  0.1706 -0.7612
  783MPD2     H11603   1.091   0.517  11.246 -1.6848  0.8510  2.2993
  783MPD2    H111604   0.971   0.693  10.870 -0.0685  1.0711  0.7127
  783MPD2    H211605   0.829   0.862  11.212  0.6694  0.5543 -1.2100
  783MPD2    H311606   0.879   0.873  10.973 -0.4458  0.7427  0.1271
  783MPD2     N11607   1.146   0.503  10.991  0.5586 -0.0162 -0.3225
  783MPD2    H511608   1.184   0.434  11.055 -1.7031 -0.4401  0.5849
  783MPD2    N111609   0.920   0.690  11.379  0.0522 -0.3668 -1.0704
  783MPD2    H711610   0.837   0.746  11.400  0.3435  0.8233 -3.1130
  784MPD2     C11611   3.561   0.335   0.527  0.3243 -0.8816  0.1930
  784MPD2    C111612   3.543   0.440   0.616  0.4538  0.1253  0.3020
  784MPD2    C211613   3.426   0.511   0.614  0.9989  0.0049  0.0893
  784MPD2    C311614   3.324   0.481   0.527  0.4847 -0.1090 -0.4567
  784MPD2    C411615   3.342   0.379   0.435  0.3643  0.7189 -0.4354
  784MPD2    C511616   3.457   0.309   0.435 -0.0482  0.0164 -0.5402
  784MPD2     H11617   3.406   0.586   0.690 -0.9249  0.5269 -0.9263
  784MPD2    H111618   3.280   0.358   0.348 -0.7555 -0.3057  0.6183
  784MPD2    H211619   3.650   0.276   0.511 -0.2689 -1.4491 -1.0184
  784MPD2    H311620   3.467   0.235   0.357 -0.4723 -0.3473 -0.2522
  784MPD2     N11621   3.210   0.566   0.527 -0.1919 -0.3767 -0.3559
  784MPD2    H511622   3.201   0.639   0.598  0.4522 -0.6142 -0.0275
  784MPD2    N111623   3.635   0.485   0.710 -0.1478  0.3104 -0.0472
  784MPD2    H711624   3.591   0.547   0.778 -1.2630  0.2950 -0.7494
  785MPD2     C11625   4.231   4.041  10.094 -0.0390  0.2851  0.0561
  785MPD2    C111626   4.173   4.082  10.210 -1.1111  0.6053 -0.0972
  785MPD2    C211627   4.045   4.130  10.195 -0.0182 -0.1266  0.1121
  785MPD2    C311628   3.971   4.118  10.082 -0.5993 -0.8901 -0.0190
  785MPD2    C411629   4.028   4.068   9.964 -0.8201  0.2960 -0.1295
  785MPD2    C511630   4.164   4.042   9.970  0.2683 -0.4279 -0.7017
  785MPD2     H11631   3.996   4.189  10.272 -0.9440 -0.4627 -0.2096
  785MPD2    H111632   3.978   4.076   9.868 -3.3850  0.3103  1.2272
  785MPD2    H211633   4.337   4.018  10.101 -0.4434 -1.1484  1.2274
  785MPD2    H311634   4.225   4.017   9.884  1.9071 -1.9218  0.8789
  785MPD2     N11635   3.844   4.172  10.086  0.3589 -0.5912  0.3676
  785MPD2    H511636   3.822   4.221  10.172 -1.3708 -0.7609  0.0114
  785MPD2    N111637   4.238   4.103  10.329  0.3499  0.4883  0.3207
  785MPD2    H711638   4.338   4.101  10.310 -0.0956 -1.5442 -1.6889
  786MPD2     C11639   2.332   1.668  14.858  0.1003 -0.5715  0.2260
  786MPD2    C111640   2.442   1.590  14.863  0.1380  0.2377  0.2572
  786MPD2    C211641   2.524   1.597  14.974 -0.0567 -0.3432 -0.8014
  786MPD2    C311642   2.500   1.676  15.081  0.3139  0.0223 -0.5391
  786MPD2    C411643   2.385   1.757  15.074  0.1030  0.5341  0.1275
  786MPD2    C511644   2.312   1.760  14.956  0.1141 -0.0337  0.1770
  786MPD2     H11645   2.613   1.537  14.982  0.7213  0.9852  0.4705
  786MPD2    H111646   2.366   1.827  15.154 -1.7361 -2.5109  2.3408
  786MPD2    H211647   2.265   1.660  14.773 -0.7754  0.6303  0.8091
  786MPD2    H311648   2.228   1.825  14.939 -0.0579 -0.3698 -0.2705
  786MPD2     N11649   2.574   1.682  15.202 -0.1393  0.0078  0.7581
  786MPD2    H511650   2.529   1.718  15.285 -0.4406  2.4271 -0.4445
  786MPD2    N111651   2.475   1.487  14.767  0.1547  0.4018 -0.4397
  786MPD2    H711652   2.558   1.429  14.770  0.1905  0.5288  0.7624
  787MPD2     C11653   2.569   0.876  14.872  0.3409  0.4222 -0.5780
  787MPD2    C111654   2.659   0.901  14.764 -0.5648  0.0668 -0.0500
  787MPD2    C211655   2.763   0.811  14.745  0.3614  0.0880 -0.0003
  787MPD2    C311656   2.783   0.697  14.828  0.0420 -0.5214 -0.3590
  787MPD2    C411657   2.694   0.675  14.927 -0.0817 -0.4431 -0.0872
  787MPD2    C511658   2.596   0.763  14.948  0.2125 -0.3427 -0.0183
  787MPD2     H11659   2.826   0.814  14.657 -1.4693  0.1449 -1.3071
  787MPD2    H111660   2.699   0.590  14.994  2.0161 -1.5877 -1.6738
  787MPD2    H211661   2.479   0.931  14.896  2.0623  2.5849  0.9186
  787MPD2    H311662   2.520   0.749  15.024 -0.9204 -0.6644 -1.2179
  787MPD2     N11663   2.885   0.605  14.802 -0.3272  0.2142 -0.2202
  787MPD2    H511664   2.932   0.615  14.712 -1.3971  1.9785 -0.5680
  787MPD2    N111665   2.618   1.018  14.695  0.2120 -0.3982  0.8565
  787MPD2    H711666   2.523   1.050  14.710  0.1274 -0.5713  0.6811
  788MPD2     C11667   4.169   4.608   1.134 -0.7537 -0.3896 -0.3090
  788MPD2    C111668   4.224   4.568   1.012  0.2109  1.3037  0.4590
  788MPD2    C211669   4.272   4.663   0.918 -0.5908  0.1610  0.7789
  788MPD2    C311670   4.263   0.069   0.948  0.4701 -0.3791  0.0693
  788MPD2    C411671   4.192   0.110   1.061  0.6053  0.7516  0.1090
  788MPD2    C511672   4.163   0.014   1.159 -0.1128  0.5426 -0.0715
  788MPD2     H11673   4.299   4.627   0.819  0.4473 -0.3188  1.2307
  788MPD2    H111674   4.172   0.214   1.085 -0.6847  0.6465 -0.5297
  788MPD2    H211675   4.144   4.537   1.212 -0.4776 -0.3874 -0.2191
  788MPD2    H311676   4.118   0.033   1.256  1.6446 -1.4794  1.1459
  788MPD2     N11677   4.280   0.169   0.856 -0.2409  0.4298 -0.1436
  788MPD2    H511678   4.242   0.260   0.879 -1.7180 -0.2047 -0.0476
  788MPD2    N111679   4.228   4.436   0.971  0.3338  0.6759  0.9327
  788MPD2    H711680   4.291   4.403   0.898  0.2863 -1.1584  1.7231
  789MPD2     C11681   0.059   4.463  16.762  0.0681 -0.5256  0.2240
  789MPD2    C111682   0.011   4.537  16.651 -0.2781  0.1496 -0.6086
  789MPD2    C211683   4.673   4.655  16.676  0.6802 -0.3422  0.4344
  789MPD2    C311684   4.649   4.702  16.810 -0.3222  0.8829  0.2417
  789MPD2    C411685   4.711   4.634  16.907  0.0813  0.4390  0.4031
  789MPD2    C511686   0.056   4.517  16.887 -0.2070  0.1904  0.0689
  789MPD2     H11687   4.632   4.710  16.592  2.5529  1.1252  0.4671
  789MPD2    H111688   4.690   4.661  17.009  0.2432 -1.2789  0.9011
  789MPD2    H211689   0.110   4.369  16.743  0.5272 -0.1581 -0.3491
  789MPD2    H311690   0.096   4.458  16.970 -0.8059 -1.2873 -0.6875
  789MPD2     N11691   4.563   0.071  16.855  0.4003 -0.3832  0.0790
  789MPD2    H511692   4.566   0.080  16.956 -0.0933 -2.0579  0.2531
  789MPD2    N111693   0.022   4.487  16.522  1.0694  0.7467 -0.3814
  789MPD2    H711694   4.698   4.544  16.459 -0.7821  0.5052  1.0334
  790MPD2     C11695   1.108   1.044  13.580 -0.0701 -0.1241  0.4202
  790MPD2    C111696   1.109   1.166  13.520  0.6088  0.6848  0.3292
  790MPD2    C211697   1.019   1.188  13.415 -1.0552  0.3127  1.0290
  790MPD2    C311698   0.925   1.089  13.393  0.0871  0.0584 -0.0569
  790MPD2    C411699   0.929   0.969  13.460 -0.7028  0.0166 -0.5303
  790MPD2    C511700   1.014   0.946  13.558 -0.6193  0.3024 -0.4767
  790MPD2     H11701   1.010   1.280  13.358  2.3411 -0.9496 -1.5310
  790MPD2    H111702   0.857   0.890  13.440 -2.2416  2.1452 -3.3765
  790MPD2    H211703   1.183   1.029  13.658 -0.2105 -0.3416  0.5155
  790MPD2    H311704   1.019   0.854  13.614  2.4902  1.4087  1.0819
  790MPD2     N11705   0.842   1.103  13.280 -0.1143  0.5610 -0.3669
  790MPD2    H511706   0.848   1.173  13.207 -2.7675 -1.1654 -2.2339
  790MPD2    N111707   1.198   1.266  13.565  0.2120  0.0221  0.1728
  790MPD2    H711708   1.267   1.236  13.633 -0.1904 -1.5689 -0.1041
  791MPD2     C11709   0.099   1.234  12.800  0.5891 -0.2010 -0.8909
  791MPD2    C111710   0.127   1.124  12.872 -0.2947  0.1328  0.3185
  791MPD2    C211711   0.038   1.021  12.873 -0.2356 -0.2968  0.0561
  791MPD2    C311712   4.664   1.026  12.780 -0.6600 -0.4225  0.4994
  791MPD2    C411713   4.640   1.143  12.708  0.1191  0.0146 -0.2089
  791MPD2    C511714   4.721   1.250  12.721 -0.3492 -0.1045 -0.5251
  791MPD2     H11715   0.048   0.936  12.940  2.7700 -1.8040 -2.2772
  791MPD2    H111716   4.560   1.162  12.638 -1.0806 -0.9460  0.8901
  791MPD2    H211717   0.160   1.323  12.811  1.9065 -1.1814 -0.3539
  791MPD2    H311718   4.713   1.342  12.664  0.3015  0.0038 -0.4444
  791MPD2     N11719   4.574   0.920  12.788  0.1704  0.0442 -0.7020
  791MPD2    H511720   4.593   0.841  12.850 -2.2238 -0.2253 -0.3112
  791MPD2    N111721   0.252   1.119  12.938 -0.0848  0.3361  0.0404
  791MPD2    H711722   0.312   1.201  12.933  1.1581 -0.6680 -1.5557
  792MPD2     C11723   1.077   1.614  11.268  0.5610  0.3704 -0.7509
  792MPD2    C111724   1.011   1.644  11.152 -0.1834 -0.1204 -0.6355
  792MPD2    C211725   0.890   1.588  11.122  0.1537 -0.6563 -0.1676
  792MPD2    C311726   0.825   1.502  11.218 -0.8569 -0.0509 -0.1606
  792MPD2    C411727   0.895   1.470  11.334 -0.1919  0.1464  0.0363
  792MPD2    C511728   1.014   1.530  11.352 -0.0218  0.3547  0.0008
  792MPD2     H11729   0.838   1.610  11.029  1.0872 -0.8079 -0.7345
  792MPD2    H111730   0.861   1.401  11.411  2.7081 -3.2663 -1.7504
  792MPD2    H211731   1.170   1.661  11.299 -0.7077  1.6522  1.0833
  792MPD2    H311732   1.056   1.517  11.451 -0.5106 -1.7068 -0.0744
  792MPD2     N11733   0.691   1.447  11.209 -0.2130  0.2629  0.1543
  792MPD2    H511734   0.654   1.402  11.292  0.0797  0.3982  0.3592
  792MPD2    N111735   1.079   1.732  11.068  0.1440 -0.1643 -0.0502
  792MPD2    H711736   1.165   1.779  11.096 -0.3817 -0.9944  2.9019
  793MPD2     C11737   4.721   1.062  10.570 -0.4406  0.3917 -0.2678
  793MPD2    C111738   0.093   1.146  10.534 -0.0975  0.0215  0.1734
  793MPD2    C211739   0.164   1.211  10.630  0.1020 -0.8563  0.0166
  793MPD2    C311740   0.133   1.200  10.763 -0.4243 -0.2384 -0.3235
  793MPD2    C411741   0.025   1.122  10.797 -0.9311  0.2000 -0.1389
  793MPD2    C511742   4.691   1.053  10.700 -0.2314 -0.1799  0.2907
  793MPD2     H11743   0.246   1.279  10.609  0.1535 -0.5078  1.3355
  793MPD2    H111744   4.724   1.119  10.900  0.9663 -2.1936  0.4099
  793MPD2    H211745   4.661   1.013  10.493 -0.1950  0.0688 -0.2538
  793MPD2    H311746   4.603   0.998  10.729 -0.5213  0.8541  1.3967
  793MPD2     N11747   0.214   1.268  10.858 -0.6250  0.2183 -0.2801
  793MPD2    H511748   0.283   1.332  10.820 -1.2441 -0.3385 -2.3239
  793MPD2    N111749   0.144   1.157  10.400  0.0191 -0.5044 -0.3278
  793MPD2    H711750   0.215   1.228  10.381 -0.0356 -0.7532 -1.4786
  794MPD2     C11751   0.445   0.227  17.468  0.0627  0.0782 -0.3336
  794MPD2    C111752   0.535   0.174  17.382  0.2201  1.0835  0.7414
  794MPD2    C211753   0.515   0.202  17.249  0.2781  0.0343 -0.3960
  794MPD2    C311754   0.423   0.300  17.220  0.0102 -0.4856 -0.1684
  794MPD2    C411755   0.357   0.376  17.314 -0.0518 -0.0294  0.7718
  794MPD2    C511756   0.355   0.321  17.437  0.3651 -0.1571  0.4269
  794MPD2     H11757   0.568   0.154  17.168 -0.1135 -0.4931 -0.3412
  794MPD2    H111758   0.297   0.462  17.287 -0.8946 -0.2497  1.9408
  794MPD2    H211759   0.441   0.192  17.570  0.6902  1.3427  0.1177
  794MPD2    H311760   0.289   0.363  17.512 -1.1496 -1.8350  0.0318
  794MPD2     N11761   0.417   0.353  17.089 -0.1044  0.0092 -0.0205
  794MPD2    H511762   0.377   0.445  17.073 -0.0092 -0.3738 -2.3353
  794MPD2    N111763   0.640   0.087  17.420 -0.4925 -0.2845 -0.1766
  794MPD2    H711764   0.700   0.042  17.352  0.6101  0.8476  0.0483
  795MPD2     C11765   3.374   2.776  13.721  0.8265  0.2992  0.1579
  795MPD2    C111766   3.317   2.652  13.752 -0.2805  0.3060  0.4631
  795MPD2    C211767   3.399   2.552  13.797  0.2056  0.0024  0.2155
  795MPD2    C311768   3.535   2.556  13.784  0.7175  0.6050  0.1400
  795MPD2    C411769   3.589   2.677  13.757  0.6179  0.3785  1.0797
  795MPD2    C511770   3.506   2.786  13.729  0.6392 -0.2402 -0.0805
  795MPD2     H11771   3.348   2.466  13.840 -0.3249 -0.0599 -0.5354
  795MPD2    H111772   3.695   2.693  13.742  0.3316 -0.0170 -1.2934
  795MPD2    H211773   3.319   2.858  13.676 -0.1867 -0.8046 -0.6025
  795MPD2    H311774   3.563   2.872  13.696 -1.6548  0.7817 -1.4062
  795MPD2     N11775   3.611   2.440  13.793 -0.3745  0.5284 -0.1291
  795MPD2    H511776   3.570   2.359  13.839 -0.9353  0.4057 -0.8415
  795MPD2    N111777   3.180   2.619  13.739  0.2121  0.4586 -0.2226
  795MPD2    H711778   3.156   2.523  13.763  1.3542  0.1972 -0.1223
  796MPD2     C11779   2.696   4.245  15.907 -0.3568 -0.2663  0.2731
  796MPD2    C111780   2.752   4.298  16.017  0.1367 -0.2312 -0.4904
  796MPD2    C211781   2.762   4.438  16.031 -0.1971  0.1966 -0.3637
  796MPD2    C311782   2.714   4.520  15.931 -0.0512  0.0273  0.0751
  796MPD2    C411783   2.671   4.466  15.815 -0.3437  0.4661  0.5305
  796MPD2    C511784   2.673   4.331  15.804  0.5941  0.7275  0.0863
  796MPD2     H11785   2.811   4.483  16.116 -0.9767 -0.9232  0.6729
  796MPD2    H111786   2.638   4.518  15.726  2.0595  0.9049 -0.1094
  796MPD2    H211787   2.694   4.138  15.885  0.1029  0.3818 -2.9673
  796MPD2    H311788   2.646   4.282  15.711  0.4397  2.5009 -0.8095
  796MPD2     N11789   2.709   4.659  15.958 -0.0932 -0.2281  0.2194
  796MPD2    H511790   2.767   4.688  16.037  2.2897 -1.5934 -1.0185
  796MPD2    N111791   2.805   4.210  16.118 -0.8333  0.4228 -0.3658
  796MPD2    H711792   2.790   4.111  16.105 -2.5678  0.2530  2.8772
  797MPD2     C11793   3.919   3.648  17.535  0.1132 -0.0609 -0.1598
  797MPD2    C111794   3.921   3.778  17.571 -0.0928 -0.4182 -0.0336
  797MPD2    C211795   3.804   3.850  17.549  0.2509 -0.1585  0.1794
  797MPD2    C311796   3.694   3.798  17.479 -1.0078 -0.2545 -0.1701
  797MPD2    C411797   3.705   3.669  17.429 -0.7877 -0.3184 -0.0043
  797MPD2    C511798   3.815   3.591  17.466  0.1943 -0.0242  1.0902
  797MPD2     H11799   3.805   3.955  17.575 -0.3569 -0.2180  0.4248
  797MPD2    H111800   3.629   3.616  17.373 -2.4612 -0.2114  2.1384
  797MPD2    H211801   4.010   3.589  17.544  0.1661  0.0701  0.1923
  797MPD2    H311802   3.825   3.492  17.423  1.7631  1.2618 -1.5468
  797MPD2     N11803   3.580   3.879  17.468 -0.6776 -0.2762  0.1323
  797MPD2    H511804   3.583   3.969  17.515 -1.2818 -0.8625  1.3035
  797MPD2    N111805   4.033   3.851  17.616  0.0649  0.2624  0.3426
  797MPD2    H711806   4.016   3.951  17.618 -0.0428  0.2857 -1.3811
  798MPD2     C11807   3.764   4.521  17.634  0.1313 -0.3095  0.5735
  798MPD2    C111808   3.741   4.384  17.617 -0.6528 -0.2757 -0.6495
  798MPD2    C211809   3.837   4.300  17.661 -0.0865 -0.1864 -0.5776
  798MPD2    C311810   3.951   4.337  17.725  0.5759  0.1137  0.2598
  798MPD2    C411811   3.979   4.474   0.013 -0.2056  0.0761  0.2581
  798MPD2    C511812   3.883   4.560  17.691 -0.0804  0.2276  0.3466
  798MPD2     H11813   3.815   4.195  17.645 -2.2994  0.6035 -2.7499
  798MPD2    H111814   4.056   4.509   0.081  1.6391 -2.8735 -0.3083
  798MPD2    H211815   3.687   4.589  17.599  1.2659  1.4557  1.4852
  798MPD2    H311816   3.904   4.664  17.714 -2.2113  0.1427  2.7217
  798MPD2     N11817   4.048   4.238   0.030 -0.7089 -0.1969  0.3600
  798MPD2    H511818   4.019   4.142   0.019 -2.4472  0.0803  2.5394
  798MPD2    N111819   3.615   4.341  17.577 -0.2440  0.2107  0.7883
  798MPD2    H711820   3.553   4.410  17.536  0.0643  1.0986  1.8043
  799MPD2     C11821   2.453   0.682  14.595  0.8040  0.5423  0.7826
  799MPD2    C111822   2.330   0.621  14.586 -0.2776 -0.2076  0.4728
  799MPD2    C211823   2.255   0.646  14.474 -0.5542 -0.1904 -0.2833
  799MPD2    C311824   2.293   0.741  14.374  0.5639  0.0883  0.4430
  799MPD2    C411825   2.410   0.815  14.398  0.1155 -0.4848 -0.3675
  799MPD2    C511826   2.489   0.782  14.506 -0.5707 -0.2098  0.4296
  799MPD2     H11827   2.159   0.598  14.457 -1.3406  0.7373  1.5357
  799MPD2    H111828   2.456   0.878  14.324 -1.2480  1.6025  0.5741
  799MPD2    H211829   2.515   0.664  14.683  1.5618  1.5170  0.4513
  799MPD2    H311830   2.581   0.837  14.521 -1.1337  1.1364 -1.0297
  799MPD2     N11831   2.235   0.752  14.248 -0.7397  0.1828  0.0786
  799MPD2    H511832   2.283   0.807  14.178  1.6716 -1.0176  0.7866
  799MPD2    N111833   2.297   0.514  14.671  1.1397  0.0111 -0.2897
  799MPD2    H711834   2.206   0.474  14.653  0.5943  1.1890 -0.1250
  800MPD2     C11835   2.710   1.742  14.693 -0.0843  0.2656 -0.7532
  800MPD2    C111836   2.838   1.683  14.719  0.1132  0.1174 -0.3503
  800MPD2    C211837   2.906   1.621  14.613  0.2253 -0.4049  0.0237
  800MPD2    C311838   2.834   1.593  14.498 -0.0889  0.3277 -0.4216
  800MPD2    C411839   2.708   1.646  14.481 -0.4043 -0.1034  0.5548
  800MPD2    C511840   2.648   1.723  14.573  0.1053  0.3177 -0.0228
  800MPD2     H11841   3.006   1.581  14.621  0.3599 -0.2472 -0.8421
  800MPD2    H111842   2.648   1.630  14.392 -2.5017  0.7760  1.8056
  800MPD2    H211843   2.655   1.794  14.771 -0.6568 -4.7792  2.2077
  800MPD2    H311844   2.555   1.775  14.553  1.2282  2.5297  0.4205
  800MPD2     N11845   2.909   1.538  14.391  0.0564  0.0310 -0.2335
  800MPD2    H511846   3.009   1.554  14.395  0.3411 -1.0750 -3.1130
  800MPD2    N111847   2.880   1.698  14.852 -0.5943 -0.4257 -0.3337
  800MPD2    H711848   2.823   1.758  14.911  0.1811  1.2587 -1.2679
  801MPD2     C11849   3.040   2.202  14.635  0.3152 -0.3438  0.1412
  801MPD2    C111850   2.981   2.189  14.760 -0.7171  0.2658  0.2404
  801MPD2    C211851   2.885   2.281  14.802 -0.0761 -0.0608 -0.4757
  801MPD2    C311852   2.850   2.380  14.719  0.4229 -0.4119  0.3201
  801MPD2    C411853   2.911   2.396  14.595  0.3380 -0.0350  0.1289
  801MPD2    C511854   2.997   2.303  14.550  0.5182  0.1621  0.2693
  801MPD2     H11855   2.851   2.281  14.905  1.1412  0.3202 -0.0690
  801MPD2    H111856   2.893   2.482  14.532 -2.5748 -0.2790  0.6310
  801MPD2    H211857   3.127   2.144  14.606 -0.6494 -1.2884 -0.8685
  801MPD2    H311858   3.045   2.328  14.455  0.2603  2.5187  0.7527
  801MPD2     N11859   2.751   2.475  14.737 -0.2093 -0.1037  0.6561
  801MPD2    H511860   2.727   2.535  14.658  1.9493 -0.4596 -0.2879
  801MPD2    N111861   3.026   2.081  14.842  0.0796  0.5250  0.6750
  801MPD2    H711862   3.101   2.028  14.800  0.4842  1.3052  0.4057
  802MPD2     C11863   1.782   2.538  17.429  0.1526  0.0707 -0.5369
  802MPD2    C111864   1.879   2.469  17.501 -0.3903  0.1741 -0.2145
  802MPD2    C211865   1.929   2.351  17.458 -0.4185 -1.0163  0.8140
  802MPD2    C311866   1.896   2.300  17.336 -0.0943  0.0817 -0.3435
  802MPD2    C411867   1.813   2.367  17.252  0.1092 -0.2829  0.6149
  802MPD2    C511868   1.757   2.483  17.307  0.1115 -0.0379  0.0854
  802MPD2     H11869   1.999   2.301  17.524 -0.3360 -1.2976  0.5122
  802MPD2    H111870   1.777   2.329  17.157 -2.5307 -0.8794  1.8317
  802MPD2    H211871   1.748   2.638  17.449 -3.9360 -1.8250  1.9153
  802MPD2    H311872   1.684   2.534  17.244  1.3826  0.0860 -1.2981
  802MPD2     N11873   1.965   2.185  17.290 -0.2629 -0.1756 -0.1796
  802MPD2    H511874   2.051   2.156  17.335 -0.0992  0.4871 -0.0725
  802MPD2    N111875   1.944   2.514  17.623 -0.2172  0.3952  0.1679
  802MPD2    H711876   2.011   2.452  17.667  0.6060  0.3085 -1.1840
  803MPD2     C11877   3.122   0.810  12.020  0.2672 -0.5480 -0.1774
  803MPD2    C111878   3.225   0.878  12.070 -0.1574 -0.2584 -0.3068
  803MPD2    C211879   3.239   0.885  12.207  0.6912  0.8753  0.5165
  803MPD2    C311880   3.146   0.843  12.294 -0.1965 -0.3953  0.2852
  803MPD2    C411881   3.043   0.775  12.242  0.2553 -0.0891 -0.1185
  803MPD2    C511882   3.035   0.753  12.107  0.0330  0.0241 -0.4105
  803MPD2     H11883   3.327   0.935  12.246  0.7322  2.3133 -1.4460
  803MPD2    H111884   2.969   0.732  12.309  1.2793 -1.7774 -0.0881
  803MPD2    H211885   3.110   0.804  11.912  0.1449  2.8389 -0.3364
  803MPD2    H311886   2.970   0.682  12.056  1.6557 -0.5839 -1.6197
  803MPD2     N11887   3.167   0.868  12.429  0.0969  0.5586  0.0699
  803MPD2    H511888   3.236   0.939  12.454 -0.3149  0.4245  1.6070
  803MPD2    N111889   3.322   0.950  11.990  0.1223  0.0980 -0.0906
  803MPD2    H711890   3.389   1.004  12.043 -1.6881  2.2461  0.0500
  804MPD2     C11891   2.950   2.341  17.058 -0.0268  0.9664  0.7769
  804MPD2    C111892   2.968   2.273  17.173 -0.0938 -0.4813  0.4856
  804MPD2    C211893   3.058   2.324  17.263  0.1534 -0.1740 -0.4688
  804MPD2    C311894   3.148   2.423  17.224  0.6303 -0.5695 -0.0078
  804MPD2    C411895   3.130   2.485  17.103  0.1123  0.4218 -0.0829
  804MPD2    C511896   3.027   2.443  17.025 -0.0587  0.0136 -0.5748
  804MPD2     H11897   3.070   2.271  17.357 -0.5506 -2.6245 -1.7519
  804MPD2    H111898   3.182   2.574  17.067  1.3282 -0.5749 -0.8094
  804MPD2    H211899   2.878   2.311  16.983  1.1198  0.0253  0.0437
  804MPD2    H311900   3.016   2.498  16.933 -1.3807  1.2617  0.3463
  804MPD2     N11901   3.237   2.455  17.322 -0.5533  0.2095  0.5101
  804MPD2    H511902   3.234   2.400  17.407  0.2351 -0.1303  0.3115
  804MPD2    N111903   2.909   2.146  17.199  0.2575  0.2093  0.7739
  804MPD2    H711904   2.930   2.105  17.289  0.8372 -0.1497  0.4758
  805MPD2     C11905   2.323   0.804  15.603 -0.0991 -0.6710  0.0109
  805MPD2    C111906   2.352   0.944  15.576 -0.0573  0.3051 -0.5812
  805MPD2    C211907   2.468   0.990  15.640  0.2678  0.4526 -0.4539
  805MPD2    C311908   2.541   0.917  15.734 -0.3404  0.3913  1.1746
  805MPD2    C411909   2.503   0.788  15.760  0.2013  0.7922 -0.4781
  805MPD2    C511910   2.389   0.737  15.704 -0.2148  0.0994 -0.1126
  805MPD2     H11911   2.501   1.092  15.625 -0.0715  0.7503  0.8247
  805MPD2    H111912   2.545   0.722  15.835 -1.7766  1.4948  1.2511
  805MPD2    H211913   2.226   0.763  15.577  0.3073 -0.0526 -2.5255
  805MPD2    H311914   2.351   0.637  15.725  0.6767 -0.3835 -0.7987
  805MPD2     N11915   2.658   0.972  15.792  0.7762  0.3341 -0.5850
  805MPD2    H511916   2.693   1.061  15.758  0.0250  0.7425 -0.2824
  805MPD2    N111917   2.278   1.028  15.492 -0.0798 -0.1921  0.6617
  805MPD2    H711918   2.330   1.115  15.484  0.5966 -0.5889  0.7229
  806MPD2     C11919   2.649   0.129   0.685 -0.3033 -0.4274 -0.1322
  806MPD2    C111920   2.748   0.219   0.688 -0.0043 -0.1773 -1.1205
  806MPD2    C211921   2.802   0.263   0.566 -0.4745 -0.6145 -0.1207
  806MPD2    C311922   2.761   0.208   0.446 -0.0827 -0.3181 -0.8222
  806MPD2    C411923   2.656   0.117   0.444 -0.2927 -0.0202 -0.1544
  806MPD2    C511924   2.601   0.078   0.562  0.2345 -0.1118  0.1083
  806MPD2     H11925   2.871   0.346   0.565 -1.1147 -0.1022 -1.8356
  806MPD2    H111926   2.629   0.064   0.353  0.9597 -0.5893 -0.2049
  806MPD2    H211927   2.596   0.101   0.776 -1.5990  1.2925 -0.3653
  806MPD2    H311928   2.509   0.019   0.560  0.3104 -0.2265 -0.0413
  806MPD2     N11929   2.840   0.251   0.332 -0.2075  0.1529  0.4398
  806MPD2    H511930   2.913   0.317   0.356  0.8494 -0.7792 -0.1932
  806MPD2    N111931   2.789   0.269   0.810 -0.4518 -0.0292  0.1418
  806MPD2    H711932   2.755   0.223   0.894  0.1117 -0.8259 -0.0630
  807MPD2     C11933   2.842   0.042   1.468 -0.8241 -0.5185  0.5135
  807MPD2    C111934   2.862   0.030   1.334  0.6785 -0.5282  0.0179
  807MPD2    C211935   2.867   4.640   1.276  0.1612 -0.0967  0.0540
  807MPD2    C311936   2.853   4.526   1.340  0.3107 -0.1431  0.2917
  807MPD2    C411937   2.842   4.537   1.481  0.2590  0.6042 -0.9972
  807MPD2    C511938   2.841   4.661   1.538  0.5410 -0.2146 -0.9935
  807MPD2     H11939   2.884   4.638   1.169 -0.4923 -1.6665 -0.0157
  807MPD2    H111940   2.830   4.458   1.553 -1.9322  3.2610  1.5675
  807MPD2    H211941   2.839   0.136   1.522  0.4593  0.5781 -1.3397
  807MPD2    H311942   2.824   4.677   1.644  0.7378 -0.4371 -0.9263
  807MPD2     N11943   2.849   4.400   1.272  0.3387  0.3963  0.1761
  807MPD2    H511944   2.861   4.399   1.171  1.0506 -0.1994  0.2660
  807MPD2    N111945   2.887   0.148   1.256  0.3823 -0.1753  0.0586
  807MPD2    H711946   2.894   0.138   1.155  1.4585 -2.0895  0.3231
  808MPD2     C11947   2.557   2.128   9.868  0.8933 -0.4114 -0.0219
  808MPD2    C111948   2.682   2.103   9.922 -0.7804 -0.3134  0.1191
  808MPD2    C211949   2.769   2.211   9.926 -0.6312  0.1189  0.1896
  808MPD2    C311950   2.742   2.333   9.870 -0.4272 -0.6719 -0.4389
  808MPD2    C411951   2.615   2.357   9.831  0.8911 -0.9876  0.3680
  808MPD2    C511952   2.521   2.254   9.819  0.0201  0.1943 -0.3163
  808MPD2     H11953   2.869   2.191   9.963 -0.4420  1.6672  0.5005
  808MPD2    H111954   2.582   2.453   9.791  1.8387 -1.4656 -1.5360
  808MPD2    H211955   2.484   2.050   9.850  0.5154  0.2699 -1.4317
  808MPD2    H311956   2.430   2.279   9.766  0.0105  2.0821  0.6006
  808MPD2     N11957   2.835   2.439   9.866 -0.2669 -0.1092  0.0125
  808MPD2    H511958   2.804   2.533   9.842  1.4902  0.8963  1.6408
  808MPD2    N111959   2.721   1.981   9.981 -1.0055  0.0929  0.0081
  808MPD2    H711960   2.809   1.972  10.030 -0.7672  1.3593 -0.1834
  809MPD2     C11961   3.733   2.359   9.463 -0.3285  0.3591 -0.9731
  809MPD2    C111962   3.744   2.469   9.546  0.3130  0.4876 -0.0669
  809MPD2    C211963   3.631   2.534   9.600 -0.0788  0.2419  0.5842
  809MPD2    C311964   3.509   2.477   9.573  0.2796 -0.3715  0.2703
  809MPD2    C411965   3.492   2.364   9.499 -0.6384  0.2559 -0.1704
  809MPD2    C511966   3.608   2.296   9.450 -0.0491 -0.2202  0.1095
  809MPD2     H11967   3.645   2.626   9.656  0.1448  0.7855 -0.3646
  809MPD2    H111968   3.396   2.313   9.488 -0.2169 -0.6121  0.1604
  809MPD2    H211969   3.821   2.306   9.428  0.1982  0.1019  0.7489
  809MPD2    H311970   3.598   2.200   9.399  1.7717 -0.5595  0.3831
  809MPD2     N11971   3.383   2.526   9.626  0.2350  0.0344  0.1070
  809MPD2    H511972   3.300   2.477   9.593  0.2032  0.4280 -0.3932
  809MPD2    N111973   3.875   2.519   9.572 -0.1737  0.6623  0.1401
  809MPD2    H711974   3.874   2.574   9.657 -1.3439  2.5106 -1.0706
  810MPD2     C11975   2.592   1.598  11.198 -0.4873  0.5863  0.6974
  810MPD2    C111976   2.497   1.521  11.139 -0.2865 -0.1191 -0.4386
  810MPD2    C211977   2.431   1.574  11.029  0.4429 -0.4809  0.3261
  810MPD2    C311978   2.468   1.693  10.970  0.4824  0.6609  0.2250
  810MPD2    C411979   2.573   1.766  11.031 -0.1070  0.1720  0.5752
  810MPD2    C511980   2.630   1.718  11.141 -0.6925  0.0087 -0.0106
  810MPD2     H11981   2.365   1.511  10.970 -0.7580  0.5668  0.5415
  810MPD2    H111982   2.614   1.858  10.990 -3.4093  1.7880  0.8847
  810MPD2    H211983   2.646   1.572  11.289 -1.8147  0.3683  1.4218
  810MPD2    H311984   2.711   1.767  11.194 -1.1269 -0.8016  1.4071
  810MPD2     N11985   2.404   1.732  10.852 -0.5818  0.2663  0.0342
  810MPD2    H511986   2.323   1.677  10.825  0.4744 -1.1586 -0.2104
  810MPD2    N111987   2.461   1.388  11.184  0.0033 -0.5266 -0.4230
  810MPD2    H711988   2.408   1.336  11.115 -0.2470 -0.6953 -0.1051
  811MPD2     C11989   1.919   1.021  10.903  0.3374 -0.3332  0.3772
  811MPD2    C111990   2.047   1.075  10.891  0.0997  0.0511  0.0311
  811MPD2    C211991   2.083   1.152  10.786  0.2419  0.4191  0.3567
  811MPD2    C311992   2.003   1.167  10.679 -0.0620  0.2175  0.1390
  811MPD2    C411993   1.872   1.127  10.699  0.0100 -0.6573 -0.3497
  811MPD2    C511994   1.830   1.055  10.804 -0.4911 -0.6517 -1.0012
  811MPD2     H11995   2.182   1.194  10.783  0.8313 -0.9844 -0.0589
  811MPD2    H111996   1.800   1.134  10.619  1.2240  2.3767 -1.1544
  811MPD2    H211997   1.896   0.956  10.987  1.1528  0.0149  0.8761
  811MPD2    H311998   1.728   1.019  10.810 -1.2075  1.3495 -1.3042
  811MPD2     N11999   2.062   1.220  10.558 -0.4327  0.1036 -0.4810
  811MPD2    H512000   2.163   1.210  10.550 -0.4935  0.0065 -1.1777
  811MPD2    N112001   2.129   1.047  10.997  0.2270 -0.3965 -0.4268
  811MPD2    H712002   2.086   0.992  11.070 -1.7727  1.0057 -0.5721
  812MPD2     C12003   0.845   0.953  12.243  0.0285 -0.1964  0.3385
  812MPD2    C112004   0.940   1.048  12.269  0.0461  0.3450 -0.7016
  812MPD2    C212005   0.998   1.051  12.396  0.1886  0.0952  0.2425
  812MPD2    C312006   0.966   0.956  12.500 -0.1202  0.6137  0.2851
  812MPD2    C412007   0.864   0.868  12.474 -0.1267  0.2197 -0.4526
  812MPD2    C512008   0.800   0.869  12.347 -0.0713  0.2323  0.7965
  812MPD2     H12009   1.073   1.127  12.409  0.0171 -0.0206  2.0602
  812MPD2    H112010   0.832   0.787  12.539  1.0947  1.6213  1.8723
  812MPD2    H212011   0.785   0.942  12.153 -1.5357 -1.1204  1.4975
  812MPD2    H312012   0.717   0.803  12.327  0.9270 -1.7616  3.1375
  812MPD2     N12013   1.035   0.976  12.627  0.1112  0.1545 -0.6638
  812MPD2    H512014   1.118   1.033  12.629  1.2051 -1.3871 -1.9243
  812MPD2    N112015   0.964   1.159  12.185  0.6796  0.6137 -0.6895
  812MPD2    H712016   1.043   1.217  12.210 -0.4325  1.0490  1.7311
  813MPD2     C12017   1.149   2.691  12.596 -0.7921 -0.3081 -0.5043
  813MPD2    C112018   1.117   2.769  12.703 -0.3528  0.1408 -0.8807
  813MPD2    C212019   1.017   2.723  12.785  0.1191 -0.1059 -0.0447
  813MPD2    C312020   0.956   2.601  12.768 -0.6257 -0.3048  1.1780
  813MPD2    C412021   0.999   2.517  12.666 -0.0913  0.4665  0.3753
  813MPD2    C512022   1.087   2.569  12.581 -0.0457  0.1266 -0.5567
  813MPD2     H12023   0.992   2.786  12.869  1.4333 -1.7987  1.6278
  813MPD2    H112024   0.938   2.428  12.651  1.7325 -0.6888 -0.1080
  813MPD2    H212025   1.229   2.720  12.530 -0.2487  0.4407  0.4829
  813MPD2    H312026   1.102   2.511  12.490  0.7421 -0.4261 -0.0750
  813MPD2     N12027   0.863   2.568  12.868  0.3395  0.4819 -0.1353
  813MPD2    H512028   0.863   2.630  12.948 -0.7404 -1.1410  1.1168
  813MPD2    N112029   1.188   2.884  12.743 -0.2232  0.0225  0.5446
  813MPD2    H712030   1.154   2.934  12.824 -0.3575  0.2705  0.3358
  814MPD2     C12031   1.160   3.924  12.754  0.3990 -0.4854  0.5605
  814MPD2    C112032   1.166   3.996  12.641 -0.0209  0.0492 -0.1991
  814MPD2    C212033   1.132   4.134  12.636  0.2545 -0.2138  0.4229
  814MPD2    C312034   1.099   4.197  12.753  0.0997  1.3308  0.1494
  814MPD2    C412035   1.095   4.129  12.865 -0.2620  0.5847 -0.4655
  814MPD2    C512036   1.121   3.993  12.869 -0.0543  0.6558  0.1322
  814MPD2     H12037   1.139   4.180  12.539 -3.1927  1.7452  1.1069
  814MPD2    H112038   1.086   4.186  12.956 -0.5400  0.0281 -0.1439
  814MPD2    H212039   1.199   3.824  12.766  2.3376 -0.0272 -1.9002
  814MPD2    H312040   1.112   3.934  12.960 -0.8692 -1.1386 -1.0938
  814MPD2     N12041   1.078   4.343  12.754 -0.4755 -0.3708 -0.5456
  814MPD2    H512042   1.039   4.385  12.837 -0.6052  0.9939 -1.2877
  814MPD2    N112043   1.218   3.940  12.524  0.0904 -0.0451 -0.1456
  814MPD2    H712044   1.221   4.002  12.443 -0.0559 -1.3323 -1.1402
  815MPD2     C12045   1.576   3.112  11.720  0.7076  0.2936  0.0607
  815MPD2    C112046   1.582   2.974  11.696 -0.1150 -1.1858 -0.1431
  815MPD2    C212047   1.503   2.890  11.772  0.2198  0.4472 -0.1485
  815MPD2    C312048   1.423   2.936  11.876  0.4936  0.4480 -0.1000
  815MPD2    C412049   1.433   3.067  11.912 -0.5781  0.1493  0.3150
  815MPD2    C512050   1.511   3.153  11.832 -0.2986  0.0303  0.6788
  815MPD2     H12051   1.494   2.792  11.727 -0.6066  0.0398  0.9010
  815MPD2    H112052   1.391   3.110  12.002 -2.7856 -1.1071 -0.1423
  815MPD2    H212053   1.642   3.184  11.674  0.5177 -0.1477 -0.8935
  815MPD2    H312054   1.516   3.258  11.855  0.8130  0.4985 -1.6502
  815MPD2     N12055   1.335   2.843  11.933 -0.0424  0.3218 -0.6586
  815MPD2    H512056   1.339   2.746  11.904  0.1185 -0.0963  0.7357
  815MPD2    N112057   1.663   2.935  11.589 -0.1279  0.1160  0.0360
  815MPD2    H712058   1.702   3.010  11.533  1.5631 -0.8445 -0.0529
  816MPD2     C12059   1.752   2.103  17.633  0.1117  0.3107 -0.0397
  816MPD2    C112060   1.652   2.139  17.547 -0.4351  0.0920 -0.3386
  816MPD2    C212061   1.624   2.060  17.438  0.5061  0.2328  0.5956
  816MPD2    C312062   1.688   1.936  17.425  0.3025 -0.4869 -0.2618
  816MPD2    C412063   1.780   1.900  17.521  0.3236 -0.3532 -0.4943
  816MPD2    C512064   1.815   1.981  17.622  0.6504 -0.7565 -0.2270
  816MPD2     H12065   1.551   2.083  17.361  0.5286 -0.1412  0.4604
  816MPD2    H112066   1.828   1.803  17.522  0.7479 -0.1375  0.1702
  816MPD2    H212067   1.772   2.177  17.709 -1.5440  0.5575  0.1451
  816MPD2    H312068   1.882   1.945  17.700 -1.4821  0.8249  2.3326
  816MPD2     N12069   1.660   1.867  17.311 -0.0138  0.2646  0.6696
  816MPD2    H512070   1.583   1.907  17.258 -0.5204 -1.2748  0.2330
  816MPD2    N112071   1.574   2.258  17.575 -0.3936  0.2727  0.0310
  816MPD2    H712072   1.590   2.290  17.671  0.2942 -0.2425  0.0899
  817MPD2     C12073   1.270   4.389  10.037  0.4753 -0.1603 -0.1110
  817MPD2    C112074   1.212   4.363   9.914  0.8033  0.0653  0.2833
  817MPD2    C212075   1.105   4.440   9.871 -0.2500  0.1693  0.1567
  817MPD2    C312076   1.064   4.544   9.954 -0.3261  0.2596 -0.5075
  817MPD2    C412077   1.115   4.560  10.076 -0.1189 -0.1535  0.3544
  817MPD2    C512078   1.218   4.491  10.122 -0.8564  0.0996 -0.0104
  817MPD2     H12079   1.052   4.418   9.779 -2.2955  0.3660  1.2895
  817MPD2    H112080   1.078   4.634  10.146 -0.1347 -0.0160  0.2001
  817MPD2    H212081   1.346   4.324  10.079 -1.3771 -1.8868  0.5391
  817MPD2    H312082   1.255   4.494  10.224  0.3526 -0.4088 -0.4172
  817MPD2     N12083   0.960   4.634   9.908  0.4643  1.0701 -1.2476
  817MPD2    H512084   0.909   4.615   9.822 -0.6589  2.8650 -0.9770
  817MPD2    N112085   1.254   4.256   9.826  0.5842  0.1304 -0.0619
  817MPD2    H712086   1.199   4.234   9.743 -1.5766 -0.3532  1.4800
  818MPD2     C12087   0.762   4.007  10.319 -1.1049  0.8263 -0.2975
  818MPD2    C112088   0.631   4.016  10.270 -0.5016  0.9135 -0.0620
  818MPD2    C212089   0.592   3.926  10.168  0.4785 -0.6170  0.4034
  818MPD2    C312090   0.686   3.843  10.111 -0.8553  0.4164  0.4651
  818MPD2    C412091   0.811   3.827  10.170 -0.8299 -0.2753  0.4750
  818MPD2    C512092   0.850   3.918  10.268 -0.3785 -0.3789  0.0298
  818MPD2     H12093   0.487   3.915  10.143  0.1470  0.6362  1.2309
  818MPD2    H112094   0.882   3.756  10.128 -2.0545 -0.9304 -0.5015
  818MPD2    H212095   0.806   4.076  10.390  1.4511  1.0075 -2.0772
  818MPD2    H312096   0.948   3.918  10.313  0.2396 -0.7493 -1.3408
  818MPD2     N12097   0.648   3.753  10.015  0.0406 -0.4422  0.1568
  818MPD2    H512098   0.704   3.674   9.986 -0.4236 -0.1068 -1.6594
  818MPD2    N112099   0.541   4.113  10.324 -0.3927 -0.3009  0.3908
  818MPD2    H712100   0.451   4.117  10.277 -0.5533 -1.1699  0.6185
  819MPD2     C12101   3.032   0.743  15.700  0.3095 -0.2387 -0.2629
  819MPD2    C112102   3.032   0.608  15.718  0.8370 -0.3777  0.4326
  819MPD2    C212103   3.117   0.571  15.816  0.2548 -0.2869  0.1622
  819MPD2    C312104   3.202   0.659  15.873 -0.1277 -0.4572  0.0153
  819MPD2    C412105   3.196   0.791  15.855  0.3478 -0.0111  0.2876
  819MPD2    C512106   3.110   0.834  15.765 -0.1829 -0.6725  0.0073
  819MPD2     H12107   3.118   0.463  15.829  1.0940 -0.3166 -0.1583
  819MPD2    H112108   3.261   0.871  15.887  1.1699 -0.8037  0.5942
  819MPD2    H212109   2.965   0.796  15.634 -1.1421 -1.7012  0.0440
  819MPD2    H312110   3.106   0.940  15.742 -0.5263 -0.3620  1.5488
  819MPD2     N12111   3.311   0.606  15.944  0.1557 -0.1751 -0.8595
  819MPD2    H512112   3.332   0.506  15.947  0.1960 -0.1796 -1.3101
  819MPD2    N112113   2.937   0.532  15.644  0.0978 -0.1724  0.1456
  819MPD2    H712114   2.874   0.586  15.585 -0.6156 -0.4964  0.6231
  820MPD2     C12115   2.151   0.565  15.046 -0.4913 -0.2463 -0.1243
  820MPD2    C112116   2.245   0.652  15.091 -0.3956 -0.1091 -0.3715
  820MPD2    C212117   2.338   0.606  15.185 -0.0035 -0.2203  0.3273
  820MPD2    C312118   2.346   0.471  15.206 -0.2703  0.0413  0.0353
  820MPD2    C412119   2.267   0.380  15.142 -0.2482  0.2267  0.0048
  820MPD2    C512120   2.163   0.428  15.070  0.3879 -0.2126 -0.5297
  820MPD2     H12121   2.406   0.674  15.234  0.1730 -0.9077  1.0459
  820MPD2    H112122   2.284   0.274  15.153 -0.4064  0.3292  1.2037
  820MPD2    H212123   2.068   0.602  14.987 -0.3738 -0.1549 -0.2321
  820MPD2    H312124   2.087   0.361  15.031 -2.8149  1.9694  1.9589
  820MPD2     N12125   2.440   0.410  15.286 -0.7009  0.0622 -0.3147
  820MPD2    H512126   2.439   0.309  15.280 -1.3741  0.0513 -0.0921
  820MPD2    N112127   2.225   0.787  15.062 -0.2264  0.2067 -0.3093
  820MPD2    H712128   2.141   0.808  15.009 -0.8218  2.8963  1.6823
  821MPD2     C12129   2.888   1.852  13.656 -0.2343 -0.1707 -0.5990
  821MPD2    C112130   2.991   1.764  13.652  0.4101 -0.0676 -0.2400
  821MPD2    C212131   3.095   1.778  13.560  0.4426  0.8343 -0.7088
  821MPD2    C312132   3.089   1.874  13.462 -0.2718  0.1290 -0.1581
  821MPD2    C412133   2.973   1.953  13.453  0.0216  0.4125  0.4933
  821MPD2    C512134   2.869   1.943  13.547  0.2297  0.3084  0.7289
  821MPD2     H12135   3.176   1.708  13.574 -0.2518  0.2973  0.6197
  821MPD2    H112136   2.965   2.026  13.374  0.4199 -0.1729 -0.0873
  821MPD2    H212137   2.815   1.854  13.736  0.3283 -0.4301 -0.0839
  821MPD2    H312138   2.785   2.011  13.539 -0.9583 -1.0798  1.4015
  821MPD2     N12139   3.195   1.903  13.370 -0.2707 -1.1328  0.0770
  821MPD2    H512140   3.190   1.982  13.307 -2.1532 -2.1819 -1.0838
  821MPD2    N112141   3.011   1.665  13.747  0.0329  0.0397  0.9121
  821MPD2    H712142   3.100   1.619  13.730  1.2684  2.1215  1.8422
  822MPD2     C12143   3.813   1.686  15.790  0.0416  0.0788 -0.8092
  822MPD2    C112144   3.849   1.721  15.919  0.1265  0.1731  0.4131
  822MPD2    C212145   3.773   1.811  15.989 -0.7811 -0.6938 -0.5678
  822MPD2    C312146   3.657   1.871  15.932 -0.8651  0.1125 -0.2821
  822MPD2    C412147   3.631   1.843  15.801  0.1649 -0.2906  0.1662
  822MPD2    C512148   3.706   1.749  15.731 -0.4092  0.1487  0.3197
  822MPD2     H12149   3.803   1.836  16.090  3.6132 -1.8913 -1.5891
  822MPD2    H112150   3.559   1.892  15.737  2.4952  2.3904 -0.3917
  822MPD2    H212151   3.868   1.611  15.734  1.4862  0.5098  0.0402
  822MPD2    H312152   3.689   1.722  15.627  1.2255 -1.0291  0.3686
  822MPD2     N12153   3.582   1.964  16.008  0.1891 -0.0578  0.3638
  822MPD2    H512154   3.591   1.947  16.108 -0.9512 -0.4571  0.3972
  822MPD2    N112155   3.968   1.674  15.977 -0.2748 -0.4637 -0.6778
  822MPD2    H712156   3.988   1.709  16.070 -2.3188 -0.3047 -0.2893
  823MPD2     C12157   3.042   2.172  16.620 -0.3626  0.5067 -0.0345
  823MPD2    C112158   3.147   2.106  16.564 -0.7587 -0.3657 -0.3908
  823MPD2    C212159   3.235   2.031  16.649 -0.7509 -0.3157 -0.6014
  823MPD2    C312160   3.209   2.028  16.781  0.1791  0.4096 -0.7197
  823MPD2    C412161   3.095   2.091  16.836  0.6992  0.3694  0.7555
  823MPD2    C512162   3.020   2.160  16.748 -0.4286 -0.2036  0.8510
  823MPD2     H12163   3.328   1.993  16.610  0.0106 -0.9217  1.8364
  823MPD2    H112164   3.075   2.089  16.943  0.3084 -2.1285  0.6290
  823MPD2    H212165   2.962   2.230  16.575 -1.4681 -0.9166  0.1022
  823MPD2    H312166   2.930   2.206  16.787  0.5466  1.2768  1.3423
  823MPD2     N12167   3.299   1.958  16.873 -0.0592 -0.2578 -0.0600
  823MPD2    H512168   3.279   1.952  16.972  1.2005 -0.8583  0.1683
  823MPD2    N112169   3.177   2.131  16.423  0.1747 -0.3677 -0.2615
  823MPD2    H712170   3.129   2.208  16.377  0.9372 -0.1418 -0.6801
  824MPD2     C12171   4.461   1.044  16.146 -0.0520 -0.3141 -0.8284
  824MPD2    C112172   4.432   1.099  16.020  0.4236  0.4015 -0.3658
  824MPD2    C212173   4.436   1.021  15.908 -0.2017  1.0525  0.5310
  824MPD2    C312174   4.492   0.894  15.917  0.3185 -0.3990  0.4220
  824MPD2    C412175   4.510   0.839  16.044  0.0455 -0.1382  0.4568
  824MPD2    C512176   4.492   0.911  16.154  0.0018 -0.0706 -0.7676
  824MPD2     H12177   4.418   1.062  15.809 -0.8015 -0.6208 -0.0488
  824MPD2    H112178   4.565   0.747  16.054  3.3290  1.9316  1.4337
  824MPD2    H212179   4.442   1.097  16.238 -0.9875 -0.1041 -1.1451
  824MPD2    H312180   4.513   0.869  16.252 -2.2405 -0.0185 -0.2513
  824MPD2     N12181   4.534   0.824  15.798 -0.8405  0.7367  0.5551
  824MPD2    H512182   4.524   0.874  15.711 -0.8801 -0.2893 -0.0293
  824MPD2    N112183   4.394   1.235  16.006 -0.7856  0.7226 -0.2408
  824MPD2    H712184   4.353   1.273  15.921  1.1574 -0.3519 -1.6709
  825MPD2     C12185   0.285   0.724  15.063  0.0494 -0.4036  0.0828
  825MPD2    C112186   0.189   0.794  15.144  0.3445 -0.4216 -0.2086
  825MPD2    C212187   0.161   0.921  15.098  0.3360 -0.5192 -0.3563
  825MPD2    C312188   0.233   0.975  14.994 -0.0461 -0.6167  0.2581
  825MPD2    C412189   0.320   0.910  14.914  0.0582  0.0471 -0.2773
  825MPD2    C512190   0.348   0.781  14.954 -0.7555 -0.5242 -0.5912
  825MPD2     H12191   0.082   0.975  15.147  0.0442 -0.2130 -1.1630
  825MPD2    H112192   0.371   0.958  14.831 -1.3589 -0.2756 -1.3253
  825MPD2    H212193   0.315   0.623  15.090 -1.7194 -0.9022  0.2158
  825MPD2    H312194   0.418   0.722  14.896  0.6216 -0.6011  1.1285
  825MPD2     N12195   0.213   1.111  14.957  0.0882 -0.3589  0.1980
  825MPD2    H512196   0.280   1.153  14.893 -2.2680  0.4050 -1.7531
  825MPD2    N112197   0.138   0.739  15.259  0.0135  0.1372 -0.4019
  825MPD2    H712198   0.178   0.650  15.286 -0.2247 -0.4946 -2.0810
  826MPD2     C12199   3.937   0.434  13.501 -0.4498  0.3452  0.0587
  826MPD2    C112200   4.018   0.543  13.509  0.0805 -0.6028  0.4073
  826MPD2    C212201   3.964   0.658  13.575 -0.0083 -0.1250  0.0096
  826MPD2    C312202   3.843   0.658  13.637 -0.1978 -0.9719 -0.6929
  826MPD2    C412203   3.768   0.537  13.632  0.4801 -1.0596 -0.5227
  826MPD2    C512204   3.810   0.431  13.556 -0.4232  0.4104 -0.2785
  826MPD2     H12205   4.026   0.747  13.580 -1.3676  0.9435 -2.5597
  826MPD2    H112206   3.670   0.521  13.677 -0.0234  0.6780 -1.0105
  826MPD2    H212207   3.958   0.348  13.439  3.1499  0.1519  1.5463
  826MPD2    H312208   3.752   0.340  13.548 -1.2715  0.9093  0.2173
  826MPD2     N12209   3.785   0.768  13.706 -0.7525  0.5216 -0.5809
  826MPD2    H512210   3.701   0.741  13.758 -1.5603  1.4536 -1.4092
  826MPD2    N112211   4.151   0.532  13.469 -0.1121 -0.3925 -0.8935
  826MPD2    H712212   4.177   0.439  13.437  0.5863  0.3436 -2.4684
  827MPD2     C12213   0.383   2.737  10.330  0.4253 -0.3638 -0.5200
  827MPD2    C112214   0.401   2.606  10.360  0.4677  0.1891 -0.0882
  827MPD2    C212215   0.332   2.512  10.279  0.7574  0.0476  0.4370
  827MPD2    C312216   0.241   2.555  10.180  0.7023 -0.0540  1.4431
  827MPD2    C412217   0.217   2.691  10.166 -0.0380  0.1339 -0.2463
  827MPD2    C512218   0.293   2.782  10.234 -0.4448 -0.1344 -0.5858
  827MPD2     H12219   0.342   2.405  10.286  2.2286 -0.0567 -3.2410
  827MPD2    H112220   0.142   2.739  10.104  0.3503 -0.1362 -0.9268
  827MPD2    H212221   0.443   2.816  10.374 -2.7583  1.6623  0.1820
  827MPD2    H312222   0.276   2.888  10.218 -1.4205 -0.2700 -0.4477
  827MPD2     N12223   0.170   2.461  10.098  0.2215 -0.4151  0.2843
  827MPD2    H512224   0.169   2.362  10.121 -1.3980  0.1235  2.5487
  827MPD2    N112225   0.494   2.562  10.455 -0.2624  1.2354  0.6957
  827MPD2    H712226   0.553   2.631  10.500 -1.1820  1.7403  1.1475
  828MPD2     C12227   3.779   1.990  12.641 -0.3729  0.2538  0.4452
  828MPD2    C112228   3.774   2.111  12.580 -0.7700  0.0743 -0.1536
  828MPD2    C212229   3.887   2.162  12.515  0.2662  1.1513 -0.0529
  828MPD2    C312230   4.008   2.098  12.521  0.0224  0.4547  0.1272
  828MPD2    C412231   4.013   1.976  12.583  0.3901  0.4402  0.5446
  828MPD2    C512232   3.901   1.925  12.645  0.1164  0.8915 -0.1179
  828MPD2     H12233   3.890   2.260  12.468  5.0083  1.3302  0.6154
  828MPD2    H112234   4.103   1.915  12.586  1.2358  1.6147 -0.4715
  828MPD2    H212235   3.692   1.939  12.680 -0.1597  0.6175  1.3913
  828MPD2    H312236   3.917   1.824  12.682  1.1356  0.9264 -0.4651
  828MPD2     N12237   4.119   2.150  12.445  0.0515  0.5241  0.0861
  828MPD2    H512238   4.102   2.227  12.381 -0.3268  1.4752  1.3408
  828MPD2    N112239   3.655   2.183  12.559  0.5509  0.1696  0.0663
  828MPD2    H712240   3.660   2.254  12.487 -2.3985  0.9861  0.6600
  829MPD2     C12241   3.747   2.803  12.118 -0.5168  0.0729 -0.3863
  829MPD2    C112242   3.614   2.780  12.089  0.2509  0.6774 -0.0967
  829MPD2    C212243   3.541   2.705  12.176 -0.2474  0.5907 -0.0263
  829MPD2    C312244   3.591   2.669  12.300 -1.0119 -0.1742  0.5411
  829MPD2    C412245   3.726   2.684  12.321  0.2914  0.0853  0.7393
  829MPD2    C512246   3.811   2.747  12.227 -0.0355  0.8250 -0.5839
  829MPD2     H12247   3.437   2.681  12.155  0.4712 -0.5570 -2.3417
  829MPD2    H112248   3.774   2.633  12.404  1.5504 -0.6451 -0.4465
  829MPD2    H212249   3.809   2.850  12.042  1.4284 -1.1321  0.4327
  829MPD2    H312250   3.919   2.746  12.224 -0.0711  0.2352 -1.8345
  829MPD2     N12251   3.528   2.586  12.396  0.1208  0.0183  0.6742
  829MPD2    H512252   3.585   2.554  12.474  0.9086  0.3056  0.2096
  829MPD2    N112253   3.563   2.813  11.959  0.4290  0.0796  0.5970
  829MPD2    H712254   3.627   2.843  11.886 -0.6921  2.8789  0.7489
  830MPD2     C12255   3.895   0.016  16.026  0.3475  0.3508  0.2378
  830MPD2    C112256   3.838   0.109  15.941  0.2683 -0.1768  0.2185
  830MPD2    C212257   3.887   0.119  15.809 -0.1630 -0.2550  0.3826
  830MPD2    C312258   3.990   0.036  15.762 -0.5596  0.8926  0.3015
  830MPD2    C412259   4.048   4.685  15.857  0.3412 -0.7746 -0.2889
  830MPD2    C512260   4.002   4.673  15.987  0.5072 -0.4672 -0.3766
  830MPD2     H12261   3.832   0.179  15.737  0.2616  1.5539  1.5576
  830MPD2    H112262   4.137   4.632  15.825  0.3773  0.1624 -1.7157
  830MPD2    H212263   3.865   0.014  16.130 -1.5672 -0.1600 -0.3217
  830MPD2    H312264   4.071   4.623  16.054  0.8019 -0.2592 -0.5202
  830MPD2     N12265   4.054   0.041  15.634 -0.5976  0.7677 -0.6656
  830MPD2    H512266   4.142   4.723  15.631 -0.5898  0.5577  2.8163
  830MPD2    N112267   3.723   0.177  15.990  0.5556 -0.7010 -0.4332
  830MPD2    H712268   3.699   0.157  16.086 -2.1482  0.3411 -0.8794
  831MPD2     C12269   3.686   2.300  16.335  0.2345  0.0092  0.4366
  831MPD2    C112270   3.735   2.194  16.264  0.1770  0.0166  0.5329
  831MPD2    C212271   3.712   2.067  16.317 -0.8607  0.3743 -0.8977
  831MPD2    C312272   3.639   2.040  16.432  0.4594 -0.4579 -0.1564
  831MPD2    C412273   3.610   2.147  16.520  0.1699 -0.2691 -0.3850
  831MPD2    C512274   3.627   2.275  16.460  0.3754  0.1654  0.1986
  831MPD2     H12275   3.749   1.984  16.259 -0.0275 -1.2138  1.8860
  831MPD2    H112276   3.565   2.147  16.619  1.6872 -1.8127  0.2983
  831MPD2    H212277   3.712   2.401  16.305  0.4513  0.6352  2.7026
  831MPD2    H312278   3.590   2.364  16.511 -2.1007 -0.9659  0.3384
  831MPD2     N12279   3.618   1.909  16.473  0.0853 -0.2007  0.3111
  831MPD2    H512280   3.574   1.900  16.564 -1.0019 -0.1675 -0.2099
  831MPD2    N112281   3.798   2.212  16.135 -0.0331 -0.4483 -0.0425
  831MPD2    H712282   3.779   2.302  16.092  2.1916 -0.4726 -1.0989
  832MPD2     C12283   2.154   2.829  17.302  0.4449  0.6525 -0.1935
  832MPD2    C112284   2.156   2.968  17.296 -0.6436 -0.2447 -0.4572
  832MPD2    C212285   2.041   3.036  17.275  0.0332 -0.4428 -1.3646
  832MPD2    C312286   1.925   2.964  17.264  0.2344 -0.5544 -0.1608
  832MPD2    C412287   1.926   2.825  17.272  0.5152 -0.1503 -0.4751
  832MPD2    C512288   2.041   2.755  17.287 -0.3486  0.5856 -0.1383
  832MPD2     H12289   2.033   3.142  17.292 -0.4220 -0.4159 -1.7708
  832MPD2    H112290   1.835   2.767  17.259  0.1788  0.0040  1.1080
  832MPD2    H212291   2.246   2.777  17.327 -0.7345 -1.1452  0.3798
  832MPD2    H312292   2.049   2.647  17.279 -0.1337  0.5700  0.3018
  832MPD2     N12293   1.801   3.021  17.273 -0.1098  0.4499  0.8156
  832MPD2    H512294   1.723   2.957  17.273 -0.0626  0.4209 -3.0650
  832MPD2    N112295   2.280   3.032  17.311  0.0496  0.0779  0.0240
  832MPD2    H712296   2.360   2.977  17.341  0.3222  1.4368  1.8154
  833MPD2     C12297   3.916   0.003  12.718 -0.4233 -0.2000 -0.2798
  833MPD2    C112298   3.921   0.072  12.601  0.1247  0.3471  0.5515
  833MPD2    C212299   4.027   0.045  12.515  0.1946 -0.4608 -0.3127
  833MPD2    C312300   4.127   4.691  12.554 -0.2210  0.2258  0.3150
  833MPD2    C412301   4.123   4.632  12.675  0.6302  0.1504 -0.2239
  833MPD2    C512302   4.015   4.648  12.757 -0.8762  0.2374  0.6595
  833MPD2     H12303   4.034   0.091  12.418 -1.2202  1.9073  0.7085
  833MPD2    H112304   4.198   4.562  12.712  1.3823  0.7671 -0.5842
  833MPD2    H212305   3.825   0.012  12.777  1.1716  1.1576  1.9566
  833MPD2    H312306   4.002   4.579  12.839 -0.0015 -1.1833 -0.3852
  833MPD2     N12307   4.248   4.687  12.483 -0.9196 -0.6138  0.0075
  833MPD2    H512308   4.320   4.625  12.520 -1.1329 -1.7917 -1.5607
  833MPD2    N112309   3.800   0.138  12.568 -0.3180 -0.9117 -0.2586
  833MPD2    H712310   3.710   0.126  12.612  0.8370  0.6828  2.5221
  834MPD2     C12311   4.585   4.065  11.765  0.1406 -0.1450 -0.5700
  834MPD2    C112312   4.540   4.179  11.702  0.0741 -0.4666  0.8020
  834MPD2    C212313   4.496   4.285  11.776 -0.3401 -0.1195 -0.5578
  834MPD2    C312314   4.509   4.281  11.916 -0.0341 -0.6980 -0.3005
  834MPD2    C412315   4.579   4.176  11.975 -0.2243 -0.3694  0.1766
  834MPD2    C512316   4.611   4.065  11.901  0.5804 -0.5207  0.5614
  834MPD2     H12317   4.454   4.372  11.727 -2.2647  0.1011  1.5033
  834MPD2    H112318   4.606   4.183  12.080 -0.4379  0.4771  0.1755
  834MPD2    H212319   4.622   3.981  11.708 -0.3897 -0.4280 -0.4944
  834MPD2    H312320   4.647   3.971  11.940  1.9575 -0.2394 -0.0128
  834MPD2     N12321   4.470   4.404  11.976 -0.4063  0.3698 -0.1159
  834MPD2    H512322   4.420   4.472  11.920 -2.4160  0.2985  1.5582
  834MPD2    N112323   4.537   4.181  11.557 -0.3344 -0.1289 -0.1572
  834MPD2    H712324   4.574   4.100  11.509  1.1974  1.6248 -1.9529
  835MPD2     C12325   0.076   2.608  11.099 -0.1943 -0.2692  0.3023
  835MPD2    C112326   0.013   2.683  11.200  0.0705  0.2626 -0.3587
  835MPD2    C212327   0.074   2.696  11.325 -0.2375  0.5305 -0.0987
  835MPD2    C312328   0.188   2.629  11.362  0.5474  0.5825  0.8337
  835MPD2    C412329   0.245   2.542  11.268 -0.3864 -0.0488 -0.5506
  835MPD2    C512330   0.188   2.541  11.137 -0.3214  0.5926  0.3557
  835MPD2     H12331   0.011   2.754  11.392  0.1380  2.0013 -1.0029
  835MPD2    H112332   0.327   2.473  11.285  0.5469  1.1171 -0.3121
  835MPD2    H212333   0.039   2.603  10.997  1.0914 -1.9537 -0.0868
  835MPD2    H312334   0.234   2.480  11.060 -0.8091  0.3246  0.2815
  835MPD2     N12335   0.233   2.627  11.494  0.0082  0.1392  0.0409
  835MPD2    H512336   0.313   2.567  11.509 -0.5240 -0.4161  0.6187
  835MPD2    N112337   4.625   2.756  11.172 -0.3970 -0.2181 -0.3495
  835MPD2    H712338   4.584   2.821  11.239 -3.1707  0.5756 -2.8014
  836MPD2     C12339   4.374   2.665  11.923 -0.0960  0.6755 -0.1069
  836MPD2    C112340   4.479   2.647  12.005  0.3264 -0.5235  0.1115
  836MPD2    C212341   4.451   2.634  12.136 -0.2186 -0.8078  0.3020
  836MPD2    C312342   4.326   2.645  12.192 -0.4570  0.9049 -0.0882
  836MPD2    C412343   4.217   2.667  12.107  0.0641  0.3288 -0.8678
  836MPD2    C512344   4.247   2.682  11.974 -0.2710 -0.0915  0.4329
  836MPD2     H12345   4.527   2.618  12.210 -2.6441 -0.3541  2.8866
  836MPD2    H112346   4.111   2.668  12.131 -0.2595 -1.3385 -2.2004
  836MPD2    H212347   4.380   2.671  11.814  0.3062 -2.1415 -0.2209
  836MPD2    H312348   4.155   2.711  11.925  0.6561 -1.2544 -2.0300
  836MPD2     N12349   4.315   2.633  12.331  0.3338 -0.0351 -0.3218
  836MPD2    H512350   4.404   2.625  12.378  0.5181 -2.4009 -1.0403
  836MPD2    N112351   4.606   2.628  11.937  0.0300  0.3668 -0.0196
  836MPD2    H712352   4.610   2.640  11.837 -0.8273 -0.6471 -0.1813
  837MPD2     C12353   2.533   1.746  10.370  0.7446 -0.3960  0.2226
  837MPD2    C112354   2.446   1.715  10.269  0.3527 -0.0630 -0.0009
  837MPD2    C212355   2.402   1.818  10.193 -0.3091 -0.0771  0.2293
  837MPD2    C312356   2.435   1.949  10.217  0.2288  0.4616 -0.5308
  837MPD2    C412357   2.528   1.984  10.313  0.3722  0.1107  0.2262
  837MPD2    C512358   2.574   1.877  10.391  0.1232 -0.0984  0.1644
  837MPD2     H12359   2.325   1.797  10.120  1.0020 -1.2750 -0.8265
  837MPD2    H112360   2.550   2.085  10.344  0.0037 -0.2378  1.6230
  837MPD2    H212361   2.557   1.663  10.436  1.6654 -0.7177 -0.5172
  837MPD2    H312362   2.635   1.893  10.479 -1.5107  1.8707  0.9397
  837MPD2     N12363   2.368   2.047  10.141  0.1544 -0.8880 -0.6246
  837MPD2    H512364   2.321   2.031  10.052 -1.3891 -3.6878  0.7028
  837MPD2    N112365   2.387   1.585  10.249  0.2874  0.3499  0.0096
  837MPD2    H712366   2.322   1.583  10.171 -1.1587 -0.4055  1.2447
  838MPD2     C12367   1.206   0.734  11.877  0.2778  0.5578  0.4185
  838MPD2    C112368   1.188   0.640  11.778 -0.5327  0.1125 -0.2914
  838MPD2    C212369   1.106   0.534  11.799 -0.5824 -0.4829  0.5888
  838MPD2    C312370   1.033   0.525  11.923 -0.0927  0.8675  0.3637
  838MPD2    C412371   1.032   0.630  12.013  0.0547 -0.1496 -0.4959
  838MPD2    C512372   1.124   0.737  11.989  0.0724  0.7078 -0.7468
  838MPD2     H12373   1.107   0.452  11.728 -2.8185 -1.3179  1.5387
  838MPD2    H112374   0.977   0.625  12.106  1.1289  1.1517  0.2013
  838MPD2    H212375   1.273   0.817  11.861 -1.0543  1.4385 -0.5644
  838MPD2    H312376   1.144   0.816  12.060 -1.8100 -0.2189  0.8139
  838MPD2     N12377   0.957   0.417  11.960 -0.1787 -0.2185  0.0918
  838MPD2    H512378   0.903   0.437  12.044  1.6573 -0.3287  1.2963
  838MPD2    N112379   1.257   0.642  11.655 -0.8949  0.0799 -0.1457
  838MPD2    H712380   1.233   0.574  11.584 -0.3019  0.4592 -0.7076
  839MPD2     C12381   1.240   4.709  11.663 -0.6546 -0.5740  0.4134
  839MPD2    C112382   1.162   0.025  11.561  0.9979 -0.0020  0.0394
  839MPD2    C212383   1.215   0.132  11.485 -0.2485  0.3857 -0.0922
  839MPD2    C312384   1.345   0.184  11.508  0.8416 -0.0851 -0.2433
  839MPD2    C412385   1.422   0.123  11.608 -0.9234  0.6075 -0.4701
  839MPD2    C512386   1.361   0.028  11.689  0.0093 -0.1701 -0.5329
  839MPD2     H12387   1.160   0.181  11.405 -0.0270  1.5398  0.4607
  839MPD2    H112388   1.520   0.162  11.633 -0.8898 -0.8298  1.7086
  839MPD2    H212389   1.210   4.619  11.716  0.4227  0.9523  3.5754
  839MPD2    H312390   1.417   0.000  11.777 -0.7098  0.7244  0.2006
  839MPD2     N12391   1.398   0.298  11.445  0.4008 -0.4646 -1.0475
  839MPD2    H512392   1.485   0.330  11.485 -0.3007  0.3016 -0.1258
  839MPD2    N112393   1.035   4.717  11.536 -0.3009 -0.2756 -0.5278
  839MPD2    H712394   0.984   0.035  11.463 -1.4471 -1.4700 -0.5605
  840MPD2     C12395   1.292   2.529  10.556 -0.2035 -0.2260 -0.3382
  840MPD2    C112396   1.188   2.594  10.617 -0.5802  0.0504  0.4204
  840MPD2    C212397   1.204   2.728  10.658 -0.2825 -1.1401  0.2413
  840MPD2    C312398   1.328   2.783  10.658  0.2421  0.3293 -0.6621
  840MPD2    C412399   1.428   2.722  10.589 -0.1543  0.1981 -0.1638
  840MPD2    C512400   1.410   2.593  10.538 -0.4335  0.0944 -0.1011
  840MPD2     H12401   1.127   2.789  10.705  1.2217 -0.2640  1.5776
  840MPD2    H112402   1.524   2.766  10.563 -0.8423  0.5751 -2.0689
  840MPD2    H212403   1.268   2.430  10.520 -0.7533 -0.3897  0.4694
  840MPD2    H312404   1.486   2.536  10.485  0.7181 -0.9256  2.6446
  840MPD2     N12405   1.374   2.911  10.711  0.1569 -1.0857  0.0405
  840MPD2    H512406   1.467   2.938  10.681  1.3829 -2.7102  2.3440
  840MPD2    N112407   1.062   2.526  10.619 -0.0310 -0.5557  0.1142
  840MPD2    H712408   1.063   2.425  10.613 -0.1799 -0.5620  0.1964
  841MPD2     C12409   0.964   1.961  14.335 -0.7902 -0.2326 -0.0797
  841MPD2    C112410   1.068   1.886  14.374  0.3861  0.8166  0.2905
  841MPD2    C212411   1.179   1.945  14.425  0.3704 -0.0800  0.4397
  841MPD2    C312412   1.189   2.076  14.454  0.2295  0.1350 -0.0769
  841MPD2    C412413   1.080   2.148  14.426  0.2705 -0.0153  0.6158
  841MPD2    C512414   0.962   2.094  14.371  0.2437 -0.0433  0.3763
  841MPD2     H12415   1.259   1.879  14.458  0.8469  0.1488 -0.2600
  841MPD2    H112416   1.077   2.255  14.443  1.3297  0.0277  0.5178
  841MPD2    H212417   0.876   1.913  14.292 -1.8487  0.5853  1.1637
  841MPD2    H312418   0.880   2.159  14.343  0.3949  0.7250  1.6952
  841MPD2     N12419   1.305   2.125  14.517 -0.0585 -0.0151 -0.1509
  841MPD2    H512420   1.377   2.055  14.532 -1.2426 -0.9127  1.3802
  841MPD2    N112421   1.074   1.739  14.364 -0.7098 -0.4589 -0.0567
  841MPD2    H712422   1.159   1.701  14.405  2.2209  2.1214 -3.7579
  842MPD2     C12423   0.790   3.614  17.262 -0.9871  0.8753 -0.2696
  842MPD2    C112424   0.721   3.492  17.256  0.5234 -0.3964 -0.1114
  842MPD2    C212425   0.658   3.447  17.374  0.1299 -0.7829  0.0397
  842MPD2    C312426   0.653   3.532  17.485  0.3238  0.4829 -0.4131
  842MPD2    C412427   0.729   3.649  17.484 -0.7325  0.9428  0.5639
  842MPD2    C512428   0.805   3.686  17.375  0.5339  0.0832  0.4217
  842MPD2     H12429   0.592   3.361  17.378 -0.1739 -0.5402  0.2972
  842MPD2    H112430   0.725   3.707  17.576 -1.4600  2.3343 -0.3541
  842MPD2    H212431   0.837   3.653  17.172  0.2137 -2.0964 -0.9412
  842MPD2    H312432   0.845   3.787  17.373 -0.6421  0.5922  2.3259
  842MPD2     N12433   0.570   3.508  17.602 -0.1897 -0.0722  0.0362
  842MPD2    H512434   0.584   3.568  17.683 -0.1986  1.2046 -0.9085
  842MPD2    N112435   0.725   3.411  17.136 -0.0123  0.4161  0.0969
  842MPD2    H712436   0.758   3.459  17.053  0.7432  0.0104  0.1590
  843MPD2     C12437   3.003   4.227  17.452 -0.1285  0.3092 -0.6724
  843MPD2    C112438   3.065   4.138  17.533 -0.1267  0.4895 -0.1490
  843MPD2    C212439   3.153   4.190  17.629 -0.6527  0.1299  0.3081
  843MPD2    C312440   3.183   4.330  17.640 -0.1622  0.6499  0.0779
  843MPD2    C412441   3.126   4.411  17.552  0.3033  0.0929 -0.5002
  843MPD2    C512442   3.035   4.362  17.462  0.0251 -0.5652  0.7293
  843MPD2     H12443   3.201   4.125  17.701 -2.1606  0.5025  1.6691
  843MPD2    H112444   3.153   4.516  17.549  0.9309  0.0201  2.7535
  843MPD2    H212445   2.924   4.214  17.380  0.6958  1.3848 -1.7698
  843MPD2    H312446   2.995   4.430  17.388  1.5440 -0.0931  0.3428
  843MPD2     N12447   3.278   4.392   0.002 -0.1701 -0.1256 -0.0813
  843MPD2    H512448   3.299   4.489  17.709 -0.4032 -0.2483 -0.9334
  843MPD2    N112449   3.027   4.000  17.516  0.0330  0.6508  0.2901
  843MPD2    H712450   2.952   3.973  17.454  1.2583  0.7205 -1.2396
  844MPD2     C12451   1.591   2.842  16.827 -0.2703 -0.4021  0.8730
  844MPD2    C112452   1.653   2.752  16.742 -0.0647  0.0494  0.3777
  844MPD2    C212453   1.788   2.728  16.772 -0.4247 -0.1031  0.3411
  844MPD2    C312454   1.859   2.805  16.867  0.2069 -0.4354 -0.7323
  844MPD2    C412455   1.794   2.901  16.945  0.1264 -0.1030  0.6421
  844MPD2    C512456   1.663   2.924  16.917 -0.4162 -0.2519  0.0686
  844MPD2     H12457   1.834   2.652  16.710  1.8744  0.8940  0.8354
  844MPD2    H112458   1.842   2.968  17.016 -0.0362 -0.9594  1.5634
  844MPD2    H212459   1.486   2.865  16.818  0.2927  1.4559 -0.9271
  844MPD2    H312460   1.612   2.988  16.987  0.2663 -0.3001  0.6077
  844MPD2     N12461   1.996   2.788  16.889  0.2485 -0.2876 -0.7827
  844MPD2    H512462   2.037   2.705  16.848  0.5123 -0.9852  0.8789
  844MPD2    N112463   1.594   2.669  16.646 -0.1312  0.9240  0.9147
  844MPD2    H712464   1.648   2.604  16.590 -1.6540  1.6508 -1.3869
  845MPD2     C12465   2.804   3.443  16.971  0.2876  0.6240  0.5802
  845MPD2    C112466   2.670   3.466  16.965  0.4807  0.0885  0.0182
  845MPD2    C212467   2.584   3.356  16.981 -0.2827  0.6071  0.5104
  845MPD2    C312468   2.627   3.227  17.007  0.2627 -0.7072  0.0926
  845MPD2    C412469   2.763   3.204  16.995  0.6517 -0.1536  0.4368
  845MPD2    C512470   2.849   3.313  16.984  0.5807 -1.0033  0.0609
  845MPD2     H12471   2.476   3.364  16.970 -0.4558 -0.5541  1.3735
  845MPD2    H112472   2.807   3.106  17.006  4.5242  1.5003 -0.1601
  845MPD2    H212473   2.882   3.516  16.954 -0.2205  0.8001 -0.9837
  845MPD2    H312474   2.956   3.307  16.999  0.4615 -1.7364  0.5606
  845MPD2     N12475   2.529   3.126  17.004 -0.7230  0.3707 -0.0113
  845MPD2    H512476   2.432   3.155  17.006 -0.8342  0.0110 -0.2555
  845MPD2    N112477   2.619   3.598  16.949 -0.5462  0.4649 -0.3215
  845MPD2    H712478   2.690   3.670  16.934 -0.6011  0.7296  0.7203
  846MPD2     C12479   3.817   3.921  13.641  0.4045  0.6005  0.4386
  846MPD2    C112480   3.701   3.977  13.681  0.0328 -0.2014 -0.2546
  846MPD2    C212481   3.666   3.975  13.814 -0.2983 -0.8731  0.0597
  846MPD2    C312482   3.734   3.910  13.912 -0.3595 -0.3682 -0.0094
  846MPD2    C412483   3.842   3.845  13.861  0.0834 -1.4439 -0.2571
  846MPD2    C512484   3.883   3.844  13.731 -0.2767 -0.2908 -0.1745
  846MPD2     H12485   3.577   4.032  13.837  0.0088 -0.0903 -0.7131
  846MPD2    H112486   3.911   3.786  13.921  1.4724  1.2712  0.8189
  846MPD2    H212487   3.854   3.932  13.540  0.5076 -0.7796  0.3211
  846MPD2    H312488   3.973   3.791  13.703  0.8728  0.9814  1.0664
  846MPD2     N12489   3.687   3.908  14.040 -0.4542  0.0894  0.1494
  846MPD2    H512490   3.599   3.957  14.049 -0.5887 -0.1691  0.2231
  846MPD2    N112491   3.613   4.043  13.589 -0.3738 -0.4338  0.1219
  846MPD2    H712492   3.545   4.108  13.627  0.7209  0.3988  0.6579
  847MPD2     C12493   4.061   4.700  14.068  0.1032  0.1438  0.3432
  847MPD2    C112494   4.133   0.061  14.142  0.4031  0.5078 -0.5344
  847MPD2    C212495   4.198   0.022  14.255 -0.5816 -0.7746  0.0696
  847MPD2    C312496   4.182   4.620  14.294  0.5326 -0.7140 -0.3910
  847MPD2    C412497   4.125   4.526  14.215  0.2737 -0.4360  0.1954
  847MPD2    C512498   4.051   4.571  14.111  0.1539  0.2451  0.1095
  847MPD2     H12499   4.229   0.099  14.325 -1.7704 -1.0827  0.9449
  847MPD2    H112500   4.123   4.422  14.246 -0.2863  0.2124  2.2681
  847MPD2    H212501   4.007   4.723  13.976  1.1342  0.8623 -0.0919
  847MPD2    H312502   3.992   4.505  14.049 -0.5836  0.4808  0.5645
  847MPD2     N12503   4.238   4.603  14.423 -0.0363  0.2484 -0.7407
  847MPD2    H512504   4.280   4.682  14.470  0.2166 -0.2742 -0.0882
  847MPD2    N112505   4.123   0.200  14.122  0.8423  0.2717 -0.7636
  847MPD2    H712506   4.184   0.263  14.173  0.5478 -1.0866  1.2739
  848MPD2     C12507   1.449   3.775  17.252 -0.4151 -0.1262 -0.2072
  848MPD2    C112508   1.426   3.676  17.165 -0.2694  0.2332  0.5712
  848MPD2    C212509   1.417   3.703  17.029  0.1173 -0.2703  0.4433
  848MPD2    C312510   1.453   3.831  16.978 -0.0652 -0.6155  0.0918
  848MPD2    C412511   1.468   3.927  17.074 -0.6758  0.5262  0.1290
  848MPD2    C512512   1.461   3.901  17.209 -0.5113 -0.4226  0.6147
  848MPD2     H12513   1.374   3.625  16.968  1.0088 -0.3360 -0.1013
  848MPD2    H112514   1.497   4.027  17.042 -0.4839  0.2367 -0.5938
  848MPD2    H212515   1.440   3.759  17.359  0.8280 -0.2084 -0.1218
  848MPD2    H312516   1.476   3.980  17.281 -1.9100  0.5242 -0.1369
  848MPD2     N12517   1.460   3.858  16.838 -0.1677  0.3086  0.2378
  848MPD2    H512518   1.496   3.942  16.795  2.5593 -0.6398  0.6645
  848MPD2    N112519   1.399   3.540  17.207 -0.3031  1.0278 -0.6411
  848MPD2    H712520   1.381   3.475  17.131 -1.9006  0.7845 -0.0423
  849MPD2     C12521   0.683   2.575  14.215  0.3654 -0.3105  0.2593
  849MPD2    C112522   0.768   2.657  14.148 -0.3778 -0.3774  0.3210
  849MPD2    C212523   0.878   2.693  14.226 -0.1336  0.7533 -0.2281
  849MPD2    C312524   0.912   2.651  14.356 -0.1397  0.4774 -0.2787
  849MPD2    C412525   0.825   2.560  14.415  0.1161  0.2508  0.3772
  849MPD2    C512526   0.712   2.531  14.340  0.1713  0.2701  0.3414
  849MPD2     H12527   0.948   2.759  14.176  3.5270 -1.4665  2.0051
  849MPD2    H112528   0.823   2.540  14.522 -1.1434 -0.2009  0.2643
  849MPD2    H212529   0.585   2.552  14.174  0.2231  0.4913  0.1540
  849MPD2    H312530   0.631   2.485  14.395 -3.3768  1.2694 -4.0506
  849MPD2     N12531   1.034   2.690  14.409 -0.3263  0.2047 -0.3266
  849MPD2    H512532   1.095   2.753  14.356  0.6665  0.0195  0.5954
  849MPD2    N112533   0.760   2.706  14.018  0.0374 -0.3424 -0.3965
  849MPD2    H712534   0.836   2.770  13.996  1.2511 -1.0357  1.7783
  850MPD2     C12535   3.724   0.799  14.840 -0.4034 -0.1243  0.6682
  850MPD2    C112536   3.685   0.893  14.923 -0.0444  0.0027 -0.7059
  850MPD2    C212537   3.771   0.997  14.949 -0.2760  0.2695 -0.6136
  850MPD2    C312538   3.905   0.997  14.903  0.6003  0.0631 -0.6773
  850MPD2    C412539   3.954   0.894  14.817  0.0658 -0.4906 -0.2655
  850MPD2    C512540   3.857   0.798  14.793  0.0771 -0.2503  0.0644
  850MPD2     H12541   3.733   1.073  15.016  2.2222 -0.7478  1.8970
  850MPD2    H112542   4.051   0.878  14.771 -0.6353 -0.2998 -1.7789
  850MPD2    H212543   3.667   0.708  14.824 -0.7149  0.0061  1.0369
  850MPD2    H312544   3.887   0.723  14.721 -0.2488 -0.3906  0.0734
  850MPD2     N12545   4.004   1.086  14.945  0.0563 -0.0059 -0.3646
  850MPD2    H512546   4.096   1.064  14.908  0.8618 -0.5833  1.9922
  850MPD2    N112547   3.554   0.883  14.976 -0.1598  0.2793 -0.9806
  850MPD2    H712548   3.495   0.814  14.928  0.8419 -1.8658  0.8773
  851MPD2     C12549   4.120   0.834  15.602  0.2046 -0.1003 -0.0972
  851MPD2    C112550   4.039   0.771  15.514  0.1957 -0.1824 -0.3237
  851MPD2    C212551   4.061   0.632  15.477 -0.0183 -0.0438  0.5025
  851MPD2    C312552   4.181   0.570  15.525  0.5973 -0.0314 -0.2676
  851MPD2    C412553   4.259   0.639  15.624 -0.1278 -0.6664 -0.2352
  851MPD2    C512554   4.224   0.768  15.662  0.3504 -0.4086  0.2711
  851MPD2     H12555   3.989   0.587  15.410  0.8338 -1.2633  0.4055
  851MPD2    H112556   4.347   0.595  15.669  0.6743 -0.6104 -1.7317
  851MPD2    H212557   4.106   0.936  15.637 -0.2746 -0.2178  0.0459
  851MPD2    H312558   4.277   0.810  15.747  0.9203 -0.4467 -0.0637
  851MPD2     N12559   4.205   0.442  15.478  0.1678 -0.0507 -1.0110
  851MPD2    H512560   4.145   0.415  15.401 -1.9928 -1.2522  1.0940
  851MPD2    N112561   3.929   0.845  15.468  0.1166 -0.4871 -0.0692
  851MPD2    H712562   3.919   0.936  15.512 -2.1915  0.9977 -3.5947
  852MPD2     C12563   3.927   0.162   9.776 -1.2950  0.8978  0.0632
  852MPD2    C112564   3.951   0.103   9.899 -0.5681  0.6527  0.1873
  852MPD2    C212565   4.043   0.161   9.986 -0.5846  0.1454  0.2612
  852MPD2    C312566   4.119   0.269   9.946 -0.6273  1.5588  0.1637
  852MPD2    C412567   4.103   0.318   9.821  0.0348 -0.4571  0.1826
  852MPD2    C512568   4.002   0.272   9.749  0.4337  0.5695  0.5980
  852MPD2     H12569   4.054   0.118  10.084  1.1848  1.2605  0.5725
  852MPD2    H112570   4.161   0.398   9.776 -0.3275  0.6895  1.7670
  852MPD2    H212571   3.857   0.131   9.699 -0.9093  2.8069 -1.0598
  852MPD2    H312572   3.990   0.326   9.656  4.1943  3.1072  1.6027
  852MPD2     N12573   4.209   0.321  10.032 -0.6156 -0.0766 -0.4883
  852MPD2    H512574   4.222   0.270  10.119  2.7200  1.1333 -0.2757
  852MPD2    N112575   3.890   4.718   9.948  0.1927  0.0060 -0.3835
  852MPD2    H712576   3.925   4.683  10.036  0.0926  1.7313  0.3318
  853MPD2     C12577   1.010   3.196  12.606 -0.1289 -0.2264 -0.1476
  853MPD2    C112578   0.903   3.282  12.596 -0.7050  0.2430 -0.4904
  853MPD2    C212579   0.844   3.299  12.468  0.1183 -0.0741  0.2715
  853MPD2    C312580   0.894   3.224  12.357  0.0567  0.9715  0.0840
  853MPD2    C412581   1.003   3.146  12.370 -0.1753  0.7078 -0.5128
  853MPD2    C512582   1.057   3.134  12.497  0.1147 -0.3258 -0.7099
  853MPD2     H12583   0.757   3.363  12.453 -0.3110 -0.8461 -0.4711
  853MPD2    H112584   1.046   3.081  12.294  1.1857  0.0372  0.8134
  853MPD2    H212585   1.040   3.174  12.708 -2.6693  2.4090  1.1502
  853MPD2    H312586   1.140   3.067  12.516 -0.4905 -1.1003 -0.8206
  853MPD2     N12587   0.834   3.225  12.222  0.0659  0.3070  0.4732
  853MPD2    H512588   0.888   3.190  12.144  1.2254 -0.0001  1.4075
  853MPD2    N112589   0.841   3.320  12.714 -0.1431 -0.1785  0.6078
  853MPD2    H712590   0.885   3.293  12.801  0.7725  0.9298  0.4908
  854MPD2     C12591   2.231   3.152  12.896 -0.3401 -0.0388  1.1384
  854MPD2    C112592   2.287   3.222  12.796 -0.2865  0.3385 -0.3536
  854MPD2    C212593   2.428   3.216  12.774  0.6944 -0.1851 -0.0006
  854MPD2    C312594   2.503   3.140  12.863 -0.0780 -0.3397  0.4480
  854MPD2    C412595   2.440   3.073  12.969  0.0377 -0.2872 -0.2891
  854MPD2    C512596   2.310   3.079  12.983  0.4880  0.1183 -0.1521
  854MPD2     H12597   2.475   3.280  12.700 -2.3323  1.7559 -0.2462
  854MPD2    H112598   2.500   3.013  13.036  0.9487 -1.4557 -2.1722
  854MPD2    H212599   2.123   3.157  12.911 -0.3147  2.5381  0.5112
  854MPD2    H312600   2.259   3.029  13.064 -0.0268  2.0432  0.7248
  854MPD2     N12601   2.636   3.120  12.842  0.3207 -0.1056 -0.1898
  854MPD2    H512602   2.686   3.080  12.921 -3.0188 -0.4232  1.7882
  854MPD2    N112603   2.200   3.303  12.724  1.0624 -0.4814 -1.0558
  854MPD2    H712604   2.105   3.306  12.758  0.4483 -1.6988 -2.6815
  855MPD2     C12605   3.025   3.473  13.439 -0.2571 -0.0750 -0.9333
  855MPD2    C112606   3.044   3.335  13.415 -0.2814  0.4239  0.1812
  855MPD2    C212607   3.050   3.282  13.288  0.5786  0.2750  0.2519
  855MPD2    C312608   3.015   3.366  13.180  0.0571  0.1778 -0.0430
  855MPD2    C412609   2.964   3.490  13.208  0.6715  0.6945 -0.1124
  855MPD2    C512610   2.979   3.552  13.331 -0.8996  0.4460 -0.4650
  855MPD2     H12611   3.085   3.181  13.274 -1.9233 -0.3060 -1.7394
  855MPD2    H112612   2.917   3.547  13.129 -1.4569  1.5754  1.7759
  855MPD2    H212613   3.015   3.514  13.539  1.1830 -0.2985 -0.6912
  855MPD2    H312614   2.949   3.655  13.340  0.0211  0.4415  2.6898
  855MPD2     N12615   3.013   3.316  13.044  0.3178  0.2977  0.3213
  855MPD2    H512616   2.960   3.370  12.977 -1.9523 -4.0344 -1.3982
  855MPD2    N112617   3.067   3.242  13.518  0.3420  0.0182 -0.3342
  855MPD2    H712618   3.058   3.144  13.491  1.1038 -0.5988  1.6074
  856MPD2     C12619   4.561   4.220  13.988  0.6948 -0.0204 -0.3810
  856MPD2    C112620   4.625   4.338  13.996 -0.1849 -0.1252 -0.8544
  856MPD2    C212621   4.563   4.455  13.949 -0.1428 -0.2497 -0.2665
  856MPD2    C312622   4.435   4.450  13.889  0.1141  0.1175 -0.2622
  856MPD2    C412623   4.374   4.327  13.888  0.8771 -0.1048 -0.1662
  856MPD2    C512624   4.435   4.214  13.942 -0.6059  0.1605  0.0416
  856MPD2     H12625   4.614   4.546  13.977  1.4817 -1.2762  0.1445
  856MPD2    H112626   4.274   4.320  13.847 -0.2393 -0.3009  2.5817
  856MPD2    H212627   4.614   4.133  14.024 -0.8436  0.5667  3.3103
  856MPD2    H312628   4.390   4.117  13.924 -0.6913  0.7425 -2.9056
  856MPD2     N12629   4.363   4.568  13.845 -0.2700 -0.1770 -0.2359
  856MPD2    H512630   4.268   4.552  13.814  0.1018 -2.8091  0.0368
  856MPD2    N112631   0.015   4.357  14.059  0.0098 -0.2224  0.1299
  856MPD2    H712632   0.065   4.444  14.042 -0.3506 -0.5344 -2.5352
  857MPD2     C12633   1.852   1.944  12.885  0.9030  0.3159  0.3989
  857MPD2    C112634   1.772   1.849  12.948 -0.1705  0.3350  0.8762
  857MPD2    C212635   1.744   1.856  13.085  0.1252  0.3679  0.0713
  857MPD2    C312636   1.806   1.950  13.164  0.8783  1.0467 -0.5053
  857MPD2    C412637   1.879   2.052  13.106 -0.4650  0.1164  0.0916
  857MPD2    C512638   1.890   2.047  12.966  0.0678 -0.0560  0.2473
  857MPD2     H12639   1.690   1.777  13.137  2.6333 -1.9865 -0.9461
  857MPD2    H112640   1.927   2.132  13.160 -0.2686 -0.2194  0.4162
  857MPD2    H212641   1.888   1.938  12.782 -0.5974  1.4767 -0.1828
  857MPD2    H312642   1.949   2.121  12.914 -2.0412  0.9860 -0.6860
  857MPD2     N12643   1.816   1.935  13.308 -0.1279 -0.7922 -0.2962
  857MPD2    H512644   1.748   1.870  13.347 -2.3592  1.5551 -0.2267
  857MPD2    N112645   1.724   1.750  12.857 -0.0533  0.4358 -0.3651
  857MPD2    H712646   1.761   1.753  12.763  1.0056 -0.8302  0.0189
  858MPD2     C12647   1.901   0.675  16.710 -0.1355  0.2097  0.1393
  858MPD2    C112648   2.012   0.746  16.703 -0.1173 -0.4469  0.1969
  858MPD2    C212649   2.044   0.837  16.803 -0.6879  0.2024 -0.1836
  858MPD2    C312650   1.945   0.873  16.895 -0.2471 -0.0727  0.2961
  858MPD2    C412651   1.823   0.809  16.892  0.2642 -0.5024  0.7803
  858MPD2    C512652   1.806   0.704  16.805  0.0586 -0.2657 -0.1253
  858MPD2     H12653   2.140   0.887  16.800 -0.5930  0.0786  0.9575
  858MPD2    H112654   1.750   0.819  16.971 -1.0256  1.3516 -0.6243
  858MPD2    H212655   1.878   0.590  16.647 -2.6086  1.6840 -0.9601
  858MPD2    H312656   1.717   0.642  16.810 -0.5101  0.5263 -0.5487
  858MPD2     N12657   1.985   0.956  16.997 -0.3189  0.0779  0.0491
  858MPD2    H512658   2.082   0.987  17.001  0.1018 -1.0302 -1.2267
  858MPD2    N112659   2.119   0.702  16.615 -0.2669  0.2594 -0.4386
  858MPD2    H712660   2.108   0.610  16.573 -0.6385 -1.0573  2.5210
  859MPD2     C12661   0.678   2.650  15.748  0.4511  0.7131 -0.7008
  859MPD2    C112662   0.811   2.657  15.701  0.1827 -0.1861 -0.3180
  859MPD2    C212663   0.887   2.547  15.712  0.0932  0.3526 -0.5181
  859MPD2    C312664   0.841   2.435  15.769 -0.5143  0.2491 -0.0220
  859MPD2    C412665   0.711   2.429  15.811 -0.3618 -0.0942  0.3053
  859MPD2    C512666   0.633   2.536  15.805  0.5163  0.2210  0.0403
  859MPD2     H12667   0.987   2.559  15.671  0.6075 -0.1040  0.5877
  859MPD2    H112668   0.661   2.339  15.844  2.9019 -1.8245  0.5778
  859MPD2    H212669   0.614   2.737  15.749 -3.9102 -2.5122  1.4778
  859MPD2    H312670   0.531   2.529  15.842  1.0373  1.8836  1.8103
  859MPD2     N12671   0.923   2.315  15.771 -0.3278  0.6613 -0.0556
  859MPD2    H512672   0.872   2.239  15.814  0.1475 -0.4458 -1.4660
  859MPD2    N112673   0.863   2.771  15.638 -0.0423 -0.2841 -0.0309
  859MPD2    H712674   0.964   2.769  15.626 -0.2797  0.2802 -2.0102
  860MPD2     C12675   3.531   3.976  11.671 -0.5172  0.7888  0.4274
  860MPD2    C112676   3.554   3.858  11.742  0.4210  0.0113  0.0042
  860MPD2    C212677   3.448   3.769  11.753  0.3943  0.1561 -0.1526
  860MPD2    C312678   3.323   3.783  11.694 -0.4255 -0.4601  0.3392
  860MPD2    C412679   3.308   3.888  11.605  0.4356  0.3876 -0.1309
  860MPD2    C512680   3.414   3.982  11.598  0.0341  0.3458 -0.3208
  860MPD2     H12681   3.463   3.675  11.805  0.1844  0.6460  0.7943
  860MPD2    H112682   3.218   3.897  11.545  0.3886 -0.3219 -0.1729
  860MPD2    H212683   3.609   4.051  11.662  0.1754  0.0692  0.3836
  860MPD2    H312684   3.407   4.064  11.526 -1.6158  0.7975  0.3559
  860MPD2     N12685   3.229   3.679  11.718 -0.0482 -0.2615 -0.1858
  860MPD2    H512686   3.255   3.608  11.786 -0.4100  0.0720  0.3069
  860MPD2    N112687   3.664   3.846  11.825  0.5512  0.4185  0.3387
  860MPD2    H712688   3.650   3.775  11.896  2.4877  1.3116  1.6098
  861MPD2     C12689   2.024   1.559  11.062 -0.7637 -0.8159 -0.0653
  861MPD2    C112690   2.075   1.686  11.054 -0.2943 -0.1195  0.5385
  861MPD2    C212691   2.037   1.764  10.942  0.9107  0.1711 -0.5351
  861MPD2    C312692   1.928   1.729  10.855 -0.4800 -0.2745  0.1370
  861MPD2    C412693   1.879   1.599  10.877 -0.5853 -0.1875 -0.1736
  861MPD2    C512694   1.923   1.519  10.979  0.3561 -0.2131  0.1146
  861MPD2     H12695   2.091   1.857  10.936 -0.6754  1.0468 -1.0604
  861MPD2    H112696   1.810   1.563  10.802 -1.0329  1.4837 -0.5583
  861MPD2    H212697   2.057   1.487  11.136 -1.8497 -0.9158  0.3195
  861MPD2    H312698   1.882   1.421  11.000  0.5113 -0.0050  1.4109
  861MPD2     N12699   1.871   1.807  10.753  0.2929  0.7831 -0.0125
  861MPD2    H512700   1.790   1.773  10.704  0.5239 -1.0806  0.8936
  861MPD2    N112701   2.177   1.741  11.142 -0.1885  0.6299  0.0370
  861MPD2    H712702   2.223   1.829  11.122 -1.8453  1.1065 -1.6204
  862MPD2     C12703   1.226   1.804  10.485  0.1680  0.0285 -0.0335
  862MPD2    C112704   1.321   1.774  10.570 -0.4624 -0.7427 -0.0730
  862MPD2    C212705   1.294   1.665  10.650 -0.3070 -0.8615  0.2408
  862MPD2    C312706   1.169   1.609  10.666 -0.2683 -0.1881  0.6964
  862MPD2    C412707   1.073   1.645  10.579  0.4028  0.4306  0.4971
  862MPD2    C512708   1.105   1.737  10.482  0.9333 -0.5639  0.1639
  862MPD2     H12709   1.370   1.631  10.720 -0.8913 -1.1047  0.7578
  862MPD2    H112710   0.974   1.600  10.583  1.0579 -1.1682 -1.5965
  862MPD2    H212711   1.243   1.883  10.413 -0.5791 -0.1293 -0.3824
  862MPD2    H312712   1.032   1.760  10.406 -0.4892 -0.4685  1.5671
  862MPD2     N12713   1.138   1.515  10.767  0.0657  0.0718 -0.6287
  862MPD2    H512714   1.046   1.472  10.764  0.1989 -0.0815 -2.0661
  862MPD2    N112715   1.451   1.847  10.582  0.1509 -0.0336 -0.3366
  862MPD2    H712716   1.514   1.810  10.652  1.2569  2.1177 -0.2212
  863MPD2     C12717   0.419   4.172  16.773  0.5001  0.4816 -0.1691
  863MPD2    C112718   0.463   4.299  16.802 -0.5903  0.1807  0.0313
  863MPD2    C212719   0.568   4.319  16.899  0.2918  0.2340  0.2062
  863MPD2    C312720   0.621   4.209  16.965 -0.2890  0.7332 -0.4265
  863MPD2    C412721   0.567   4.086  16.940  0.3638 -0.2678 -0.8352
  863MPD2    C512722   0.478   4.063  16.841 -0.4024 -0.4960 -0.6210
  863MPD2     H12723   0.602   4.421  16.913  0.3546  0.5862 -2.3854
  863MPD2    H112724   0.618   4.000  16.983  0.5401  0.4619  0.4041
  863MPD2    H212725   0.347   4.149  16.696  1.6493  2.5832 -1.8763
  863MPD2    H312726   0.436   3.966  16.817 -2.0620  0.2161 -0.6362
  863MPD2     N12727   0.721   4.224  17.063 -0.0098 -0.5996 -1.2206
  863MPD2    H512728   0.769   4.138  17.088 -1.6811 -1.0817  0.3636
  863MPD2    N112729   0.406   4.404  16.718  0.1950  0.1900  0.1449
  863MPD2    H712730   0.339   4.385  16.645  0.8249 -1.8154  0.0918
  864MPD2     C12731   0.751   0.957  17.291 -0.0701  0.3636 -0.2297
  864MPD2    C112732   0.866   0.916  17.226 -0.4370  0.8177 -0.1541
  864MPD2    C212733   0.928   1.001  17.135 -0.0577 -0.5001  0.0580
  864MPD2    C312734   0.873   1.125  17.105  0.1242  0.2253  0.8018
  864MPD2    C412735   0.760   1.164  17.174  0.2896  0.5751 -0.9520
  864MPD2    C512736   0.696   1.072  17.248  0.1563  0.4649  0.1226
  864MPD2     H12737   1.013   0.966  17.079 -0.0989 -0.9151  0.2559
  864MPD2    H112738   0.701   1.250  17.144 -1.5602 -0.8496 -1.3447
  864MPD2    H212739   0.700   0.895  17.364 -1.4437  0.7495 -0.8730
  864MPD2    H312740   0.598   1.089  17.291  0.3580  1.5075  0.1595
  864MPD2     N12741   0.926   1.207  16.996 -0.4469 -0.0628  0.2035
  864MPD2    H512742   0.884   1.294  16.966 -2.3474 -1.6039 -1.6137
  864MPD2    N112743   0.913   0.784  17.253 -0.2187  0.5431  0.5233
  864MPD2    H712744   0.847   0.720  17.297  0.2686  0.5303  1.2361
  865MPD2     C12745   1.147   1.377  16.126 -1.0776 -0.1652 -0.2732
  865MPD2    C112746   1.150   1.302  16.237  0.0225  0.0506 -0.4526
  865MPD2    C212747   1.102   1.358  16.351 -0.7370 -0.2352 -0.0453
  865MPD2    C312748   1.040   1.485  16.357  0.1379  0.3553  1.1252
  865MPD2    C412749   1.061   1.562  16.251 -0.1049  0.2046  0.6919
  865MPD2    C512750   1.096   1.502  16.129  0.6029  0.2568  0.1622
  865MPD2     H12751   1.106   1.286  16.431 -0.4620  0.2356  0.3675
  865MPD2    H112752   1.036   1.668  16.248  3.7599  1.0837 -0.2090
  865MPD2    H212753   1.179   1.337  16.031  0.4180  0.0326  0.1467
  865MPD2    H312754   1.088   1.570  16.045 -0.6700  0.0351  0.0999
  865MPD2     N12755   0.992   1.531  16.488  0.0318  0.0709  0.4177
  865MPD2    H512756   0.995   1.631  16.503 -0.1146  0.1418 -0.0330
  865MPD2    N112757   1.195   1.169  16.226 -0.1634 -0.6558 -0.3777
  865MPD2    H712758   1.212   1.138  16.131  2.5593 -1.9518  0.5440
  866MPD2     C12759   3.063   2.255  10.778  0.2525  0.3913  0.7784
  866MPD2    C112760   2.999   2.159  10.859  0.3409 -0.8776 -0.1589
  866MPD2    C212761   2.859   2.162  10.865  0.0056  0.1914 -0.2376
  866MPD2    C312762   2.787   2.247  10.782  0.0375  0.3431 -0.2511
  866MPD2    C412763   2.853   2.329  10.693 -0.7364  0.5791  0.5850
  866MPD2    C512764   2.990   2.328  10.688  0.0103  0.1110 -0.3372
  866MPD2     H12765   2.802   2.112  10.941  0.0998 -0.0559 -0.3283
  866MPD2    H112766   2.794   2.397  10.632 -1.5046 -0.8815 -0.3081
  866MPD2    H212767   3.171   2.253  10.765 -0.0061 -0.5590 -1.1835
  866MPD2    H312768   3.040   2.397  10.623  0.6717  0.0788  0.1426
  866MPD2     N12769   2.645   2.254  10.783  0.4126 -0.0948 -0.3174
  866MPD2    H512770   2.597   2.304  10.709 -0.4730  0.8010  0.8411
  866MPD2    N112771   3.072   2.063  10.928  0.0342  0.1809  0.2627
  866MPD2    H712772   3.173   2.067  10.929 -0.0192  1.7786 -0.3500
  867MPD2     C12773   0.611   1.050  16.693 -0.0146 -0.4231 -0.0260
  867MPD2    C112774   0.521   0.973  16.764 -0.7137  0.8421  0.3151
  867MPD2    C212775   0.454   1.032  16.871  0.2849 -0.4855 -0.2130
  867MPD2    C312776   0.477   1.154  16.916 -0.1478  0.4112  0.4699
  867MPD2    C412777   0.584   1.222  16.851 -0.6883 -0.3909  0.0324
  867MPD2    C512778   0.646   1.168  16.742  0.0365  0.0457  0.1635
  867MPD2     H12779   0.372   0.982  16.921 -1.6440  0.8811 -2.0404
  867MPD2    H112780   0.614   1.322  16.880 -1.2489 -0.3555  0.5031
  867MPD2    H212781   0.666   0.999  16.614  0.7341 -1.8856  1.4492
  867MPD2    H312782   0.728   1.226  16.700  2.6953 -2.4941  1.8274
  867MPD2     N12783   0.422   1.206  17.034  0.3840 -0.1276  0.0572
  867MPD2    H512784   0.446   1.302  17.059 -0.1795 -0.2703  1.1240
  867MPD2    N112785   0.520   0.833  16.729  0.4935  0.2236  0.4024
  867MPD2    H712786   0.584   0.802  16.656 -0.4133  1.8929 -1.0907
  868MPD2     C12787   2.130   0.145  13.120 -0.0599 -0.5967 -0.3152
  868MPD2    C112788   2.160   0.013  13.141  0.2209  0.1871  0.1161
  868MPD2    C212789   2.051   4.662  13.161 -0.6334  0.4925 -0.3797
  868MPD2    C312790   1.924   4.706  13.168  0.7160 -0.9132 -0.5904
  868MPD2    C412791   1.896   0.107  13.144  0.3440 -0.4058  0.3828
  868MPD2    C512792   2.002   0.194  13.120 -0.6721 -0.5080 -0.1280
  868MPD2     H12793   2.067   4.556  13.177  0.3772  0.8802  1.1713
  868MPD2    H112794   1.798   0.152  13.142 -0.5887 -2.4779 -0.6834
  868MPD2    H212795   2.207   0.219  13.102 -2.0657  1.2714 -1.2584
  868MPD2    H312796   1.986   0.300  13.104  0.0766 -0.5858 -1.3354
  868MPD2     N12797   1.831   4.610  13.200  0.9907  0.2434 -0.2126
  868MPD2    H512798   1.859   4.518  13.231 -0.2841 -0.5797 -1.4688
  868MPD2    N112799   2.296   4.707  13.140 -0.0309 -0.4721 -0.0218
  868MPD2    H712800   2.363   0.047  13.115 -1.9878  1.3548 -0.0456
  869MPD2     C12801   3.545   2.614   0.955  0.1823 -0.0301  0.2873
  869MPD2    C112802   3.406   2.586   0.958 -0.1591  0.0747 -0.2791
  869MPD2    C212803   3.313   2.678   0.909  0.0196 -0.5749 -0.2262
  869MPD2    C312804   3.356   2.805   0.867  0.1847 -0.0823 -0.3354
  869MPD2    C412805   3.492   2.816   0.836  0.0311  0.3301 -0.0054
  869MPD2    C512806   3.580   2.725   0.885  0.3826  0.5177  0.3649
  869MPD2     H12807   3.209   2.664   0.933 -0.1294 -0.2638 -0.7003
  869MPD2    H112808   3.535   2.907   0.795 -3.3546  3.2788  3.0669
  869MPD2    H212809   3.611   2.544   1.005 -0.7257 -3.1547 -2.9159
  869MPD2    H312810   3.683   2.757   0.883 -0.0696  1.9205 -0.1959
  869MPD2     N12811   3.264   2.900   0.825  0.4522  0.4719 -0.0772
  869MPD2    H512812   3.310   2.970   0.766 -1.7298  1.9700  0.0234
  869MPD2    N112813   3.373   2.464   1.024 -0.5867 -0.2780 -0.6199
  869MPD2    H712814   3.450   2.401   1.044  0.6639  1.8876  1.4308
  870MPD2     C12815   2.837   1.428   1.740 -0.5649  0.1621  0.2898
  870MPD2    C112816   2.764   1.404   1.630 -0.0993  0.0349 -0.2142
  870MPD2    C212817   2.671   1.500   1.596 -0.7772 -0.6146  0.4551
  870MPD2    C312818   2.651   1.614   1.674  0.8691 -0.4898  0.0741
  870MPD2    C412819   2.723   1.632   1.791  0.6574  0.3954  0.3230
  870MPD2    C512820   2.812   1.532   1.825 -0.3757  0.3532 -0.4381
  870MPD2     H12821   2.609   1.489   1.508  0.8722  0.9762 -0.9019
  870MPD2    H112822   2.708   1.719   1.854  0.8891 -0.3261  1.3751
  870MPD2    H212823   2.911   1.359   1.779  0.8902  1.6705  0.2197
  870MPD2    H312824   2.874   1.544   1.914 -0.8320 -0.2282 -0.0389
  870MPD2     N12825   2.552   1.697   1.623 -0.7119 -0.0926 -0.2839
  870MPD2    H512826   2.498   1.674   1.541  0.9661  0.4865 -1.5568
  870MPD2    N112827   2.800   1.298   1.545  0.0224  0.1809 -0.1775
  870MPD2    H712828   2.882   1.241   1.562  1.6309  2.4431 -0.3285
  871MPD2     C12829   4.006   1.728  16.692  0.3418  0.3408  0.3491
  871MPD2    C112830   3.918   1.633  16.748  0.1992 -0.4556 -0.3239
  871MPD2    C212831   3.913   1.514  16.674 -0.1967  0.3538  0.2985
  871MPD2    C312832   3.988   1.480  16.570  1.1993 -0.3977  0.2197
  871MPD2    C412833   4.081   1.570  16.526 -0.4099 -0.2613 -1.3636
  871MPD2    C512834   4.077   1.699  16.578 -0.2323  0.0923 -0.0858
  871MPD2     H12835   3.841   1.435  16.695 -1.2529  1.1246 -0.4061
  871MPD2    H112836   4.146   1.565  16.439  1.5027 -3.1231  0.2399
  871MPD2    H212837   4.018   1.823  16.742  0.3856  0.3483  0.3248
  871MPD2    H312838   4.145   1.770  16.533 -0.1189  1.8717  2.8730
  871MPD2     N12839   3.974   1.354  16.513 -0.4203  0.0595 -0.1461
  871MPD2    H512840   3.914   1.288  16.560 -2.3367  0.4913 -1.9552
  871MPD2    N112841   3.845   1.658  16.868 -0.7848  0.5737  0.3017
  871MPD2    H712842   3.853   1.754  16.902 -1.6863  0.8679 -0.3100
  872MPD2     C12843   4.671   3.868  13.738 -0.1910 -0.2434 -0.5702
  872MPD2    C112844   4.685   3.905  13.869  0.0432 -0.1826 -0.6613
  872MPD2    C212845   4.597   3.847  13.961 -0.2350 -0.4721  0.1449
  872MPD2    C312846   4.493   3.772  13.920  0.4686  0.2014 -0.4935
  872MPD2    C412847   4.479   3.739  13.791  0.2696  0.3945 -0.4067
  872MPD2    C512848   4.562   3.795  13.698 -0.4435 -0.2024  0.2059
  872MPD2     H12849   4.615   3.857  14.068  1.0676 -1.6969  0.0522
  872MPD2    H112850   4.385   3.697  13.755  0.3020  0.6257 -0.7501
  872MPD2    H212851   4.729   3.897  13.652 -0.2886  1.1252 -0.1761
  872MPD2    H312852   4.530   3.784  13.596 -2.0424 -1.6729  0.8631
  872MPD2     N12853   4.391   3.740  14.015  0.0722 -0.2449  0.6853
  872MPD2    H512854   4.416   3.769  14.109 -0.6811 -1.4404  1.2556
  872MPD2    N112855   0.063   3.984  13.912 -0.4449  0.0518 -0.1768
  872MPD2    H712856   0.087   3.974  14.011  2.4294 -0.0462 -0.8756
  873MPD2     C12857   1.706   3.357   0.635  0.0745 -0.1251 -0.7554
  873MPD2    C112858   1.573   3.357   0.677 -0.9485 -0.8846  0.0499
  873MPD2    C212859   1.516   3.229   0.683 -0.1895 -0.4134 -0.5767
  873MPD2    C312860   1.573   3.111   0.639  0.0165  0.1141 -0.0741
  873MPD2    C412861   1.692   3.122   0.563  0.0000 -0.7323  0.2552
  873MPD2    C512862   1.761   3.242   0.573 -0.2139 -0.2321  0.4428
  873MPD2     H12863   1.412   3.226   0.714 -0.2151 -0.1688 -0.6377
  873MPD2    H112864   1.743   3.046   0.505 -2.3769 -2.2250  0.1592
  873MPD2    H212865   1.768   3.445   0.632 -3.7309  2.5592  0.3203
  873MPD2    H312866   1.858   3.260   0.529  0.1573  1.8167  2.0821
  873MPD2     N12867   1.505   2.986   0.638 -0.0290 -0.1218  0.0593
  873MPD2    H512868   1.545   2.918   0.574  1.0882 -0.6305  1.3047
  873MPD2    N112869   1.508   3.476   0.718  0.0680 -0.1686  0.0067
  873MPD2    H712870   1.566   3.557   0.735 -0.7689  0.1225  1.5618
  874MPD2     C12871   0.759   3.475  16.324 -0.7393 -0.1548 -1.0311
  874MPD2    C112872   0.823   3.440  16.437 -0.2826  0.0116 -0.0021
  874MPD2    C212873   0.953   3.482  16.456 -0.1505  0.5911 -0.7134
  874MPD2    C312874   1.015   3.558  16.363 -0.6860  0.7449 -0.1986
  874MPD2    C412875   0.950   3.595  16.245 -0.6321 -0.5556 -0.6909
  874MPD2    C512876   0.828   3.541  16.222  1.5736 -0.8302 -0.5585
  874MPD2     H12877   1.005   3.463  16.549  0.8691  1.3518 -1.1231
  874MPD2    H112878   0.998   3.650  16.164 -0.1472 -1.9333 -1.3275
  874MPD2    H212879   0.653   3.457  16.316 -1.2222  2.0950  0.3102
  874MPD2    H312880   0.789   3.556  16.122  1.6669  1.9353 -0.1649
  874MPD2     N12881   1.146   3.602  16.400 -0.8355 -0.6082  0.4804
  874MPD2    H512882   1.170   3.575  16.495  1.0563  1.6202  0.6343
  874MPD2    N112883   0.750   3.378  16.537  0.8229 -0.0401 -0.7806
  874MPD2    H712884   0.650   3.372  16.519  0.6159 -1.2374  0.6844
  875MPD2     C12885   2.486   2.034  14.711 -0.3710  0.3139 -0.5509
  875MPD2    C112886   2.358   2.047  14.767 -0.0070  0.5587  0.4844
  875MPD2    C212887   2.349   2.127  14.880  0.3378 -0.5915 -0.2955
  875MPD2    C312888   2.459   2.181  14.951 -0.2270 -0.5043  0.5561
  875MPD2    C412889   2.583   2.146  14.896 -0.0911  0.2215  0.3549
  875MPD2    C512890   2.600   2.076  14.777 -0.1216  0.5145  0.7876
  875MPD2     H12891   2.248   2.144  14.915  0.6726 -0.6439  0.6888
  875MPD2    H112892   2.671   2.175  14.951  1.1720 -2.9291  0.0010
  875MPD2    H212893   2.511   1.967  14.629 -0.0335  0.9331 -0.9595
  875MPD2    H312894   2.699   2.052  14.742 -0.6730  1.9543 -1.7587
  875MPD2     N12895   2.456   2.241  15.076 -0.1420 -0.3716  0.6513
  875MPD2    H512896   2.546   2.266  15.115  0.6844  1.0844 -2.2330
  875MPD2    N112897   2.244   2.002  14.692  0.3229  0.0983 -0.0970
  875MPD2    H712898   2.157   2.023  14.740 -0.0391 -0.3870 -0.5397
  876MPD2     C12899   0.644   3.120  16.274  0.5117 -0.5905 -0.4392
  876MPD2    C112900   0.780   3.106  16.266  0.3035  0.0730  0.5271
  876MPD2    C212901   0.835   2.998  16.340  0.1185 -0.2789  0.3930
  876MPD2    C312902   0.759   2.917  16.422 -0.0747  0.4790 -0.7745
  876MPD2    C412903   0.620   2.928  16.427 -0.1556  0.1039  0.0377
  876MPD2    C512904   0.570   3.037  16.349 -0.4948  0.5030  0.1891
  876MPD2     H12905   0.941   2.980  16.332  0.2130  0.8558 -0.8538
  876MPD2    H112906   0.549   2.867  16.480 -1.1069  0.7296 -0.5067
  876MPD2    H212907   0.587   3.201  16.229  1.5218  1.8749  2.6957
  876MPD2    H312908   0.463   3.047  16.355 -0.7693 -2.3534 -0.1973
  876MPD2     N12909   0.834   2.812  16.475  0.2363 -0.4109  0.1758
  876MPD2    H512910   0.932   2.805  16.449 -0.5009 -3.7622 -1.7386
  876MPD2    N112911   0.858   3.199  16.189 -0.4639  0.4987  0.8935
  876MPD2    H712912   0.798   3.271  16.149 -1.3066  0.3553  1.9086
  877MPD2     C12913   0.878   3.572  15.535  0.0244 -0.2766 -0.0937
  877MPD2    C112914   1.015   3.567  15.560 -0.3491 -0.1489 -0.1976
  877MPD2    C212915   1.099   3.580  15.448 -0.5719  0.5634  0.2567
  877MPD2    C312916   1.054   3.621  15.326  0.3149 -0.2431  0.0875
  877MPD2    C412917   0.919   3.640  15.301  0.4648 -0.4417  0.0678
  877MPD2    C512918   0.835   3.605  15.407 -0.1432 -0.0019 -0.3247
  877MPD2     H12919   1.203   3.566  15.477 -0.6268  2.2650  1.2940
  877MPD2    H112920   0.885   3.671  15.203 -2.1724 -0.9279  0.8272
  877MPD2    H212921   0.809   3.542  15.613  0.1262 -0.9799 -0.2741
  877MPD2    H312922   0.728   3.619  15.397  0.0924 -0.2893 -3.4160
  877MPD2     N12923   1.137   3.655  15.217  0.4052 -0.1478 -0.5978
  877MPD2    H512924   1.079   3.695  15.144  1.0689  1.7827 -0.0560
  877MPD2    N112925   1.059   3.517  15.684 -0.0168  0.1668 -0.0237
  877MPD2    H712926   1.157   3.533  15.706 -0.4705 -1.2235  3.0572
  878MPD2     C12927   1.157   2.611  13.094 -0.3495 -0.2415 -0.4474
  878MPD2    C112928   1.159   2.740  13.142  0.3527  0.0008  0.2091
  878MPD2    C212929   1.100   2.782  13.259 -0.4940  0.1404  0.3639
  878MPD2    C312930   1.041   2.686  13.331 -0.6978 -0.1270 -0.2285
  878MPD2    C412931   1.049   2.550  13.297 -0.1512 -0.1675  0.3077
  878MPD2    C512932   1.103   2.513  13.179  0.2661 -0.0914  0.3760
  878MPD2     H12933   1.101   2.884  13.295  3.5034 -0.0496  0.7911
  878MPD2    H112934   0.986   2.474  13.342 -0.6004 -0.4878 -0.8520
  878MPD2    H212935   1.202   2.573  13.003 -2.4548 -1.2637 -1.0641
  878MPD2    H312936   1.111   2.408  13.156  0.4449 -0.2549  1.1654
  878MPD2     N12937   0.970   2.737  13.440  0.9293 -0.3763  0.3525
  878MPD2    H512938   0.982   2.835  13.463  0.2708 -0.9518  3.2176
  878MPD2    N112939   1.238   2.835  13.071  0.4823  0.9912  0.5011
  878MPD2    H712940   1.284   2.816  12.982  0.6869 -1.6374  1.1866
  879MPD2     C12941   1.064   4.525  16.856  0.0419 -0.2936  0.4565
  879MPD2    C112942   1.114   4.403  16.903  0.1871 -0.7492  0.3241
  879MPD2    C212943   1.054   4.285  16.868 -0.0438  0.5996  0.1170
  879MPD2    C312944   0.939   4.286  16.791  0.8279  0.2908  0.4265
  879MPD2    C412945   0.887   4.405  16.753 -0.5064 -1.1001  0.5680
  879MPD2    C512946   0.951   4.525  16.778  0.3589 -0.3552 -0.1879
  879MPD2     H12947   1.084   4.187  16.905  0.2507  0.5404 -0.2839
  879MPD2    H112948   0.797   4.403  16.692 -0.8170 -1.9352  1.0641
  879MPD2    H212949   1.100   4.622  16.889 -0.1250 -0.4924  1.2345
  879MPD2    H312950   0.896   4.615  16.755 -0.4972 -0.9224 -0.3635
  879MPD2     N12951   0.885   4.172  16.729 -0.4281 -0.5204 -0.0328
  879MPD2    H512952   0.823   4.181  16.649  0.0177 -1.2456 -0.4609
  879MPD2    N112953   1.237   4.408  16.982 -0.5289 -0.3879  0.1389
  879MPD2    H712954   1.273   4.500  17.003  0.6585 -1.5429  3.0447
  880MPD2     C12955   2.341   1.093   0.749  0.1747 -0.2392  0.4205
  880MPD2    C112956   2.449   1.148   0.688 -0.0760  0.7763  0.6229
  880MPD2    C212957   2.570   1.077   0.676  0.1976 -0.1652  0.0577
  880MPD2    C312958   2.581   0.944   0.709 -0.2812 -0.2349  0.0748
  880MPD2    C412959   2.468   0.880   0.760  0.2426 -0.0974  0.8512
  880MPD2    C512960   2.354   0.956   0.773 -0.5119  1.2022  0.0742
  880MPD2     H12961   2.650   1.127   0.623 -0.8343 -0.0471 -1.3665
  880MPD2    H112962   2.468   0.775   0.787 -0.1230 -0.0947  0.8565
  880MPD2    H212963   2.244   1.139   0.768 -0.7771 -1.2820 -1.9536
  880MPD2    H312964   2.262   0.904   0.797  1.0164 -0.4865  2.1971
  880MPD2     N12965   2.709   0.890   0.709  0.0978  0.1073  0.5678
  880MPD2    H512966   2.788   0.952   0.697 -0.0138 -0.0897 -1.1977
  880MPD2    N112967   2.432   1.285   0.638  0.3576  0.7199  0.3318
  880MPD2    H712968   2.342   1.327   0.658  1.0159  2.1882  0.2525
  881MPD2     C12969   2.457   1.456  17.518  0.3544 -0.3770  0.2584
  881MPD2    C112970   2.492   1.591  17.547 -0.3228  0.2032 -0.1062
  881MPD2    C212971   2.505   1.631  17.681  0.3080  0.5874 -0.3756
  881MPD2    C312972   2.459   1.542   0.054 -0.7272  0.3532  0.2945
  881MPD2    C412973   2.415   1.414   0.022 -0.3097  0.3841 -0.3369
  881MPD2    C512974   2.414   1.372  17.611 -0.3595 -0.7524 -0.4864
  881MPD2     H12975   2.549   1.728  17.701 -0.9895  1.3835 -1.3880
  881MPD2    H112976   2.378   1.356   0.105 -1.1381 -0.9663 -1.6435
  881MPD2    H212977   2.451   1.423  17.415 -1.6496  0.8132 -0.0153
  881MPD2    H312978   2.378   1.271  17.596 -2.5153 -0.0970  0.1540
  881MPD2     N12979   2.448   1.578   0.190  0.2475 -0.2131 -0.1207
  881MPD2    H512980   2.409   1.508   0.252  0.8717  0.9054  1.5370
  881MPD2    N112981   2.555   1.659  17.445 -0.0344  0.2843 -0.1356
  881MPD2    H712982   2.535   1.617  17.354 -0.5434 -0.6336  0.3996
  882MPD2     C12983   1.269   3.380  14.530  0.1228 -0.0074  0.6186
  882MPD2    C112984   1.229   3.504  14.572 -0.7421 -0.0429 -0.0229
  882MPD2    C212985   1.142   3.581  14.495 -0.0142  0.3916 -0.6790
  882MPD2    C312986   1.079   3.527  14.388  0.6905  0.6611  0.3184
  882MPD2    C412987   1.109   3.402  14.343  0.7696 -0.2722  0.0448
  882MPD2    C512988   1.201   3.332  14.421 -0.5434 -0.4012  0.4080
  882MPD2     H12989   1.127   3.681  14.532  1.1572  0.6592 -0.9048
  882MPD2    H112990   1.062   3.361  14.255 -0.0087 -0.3064  0.4730
  882MPD2    H212991   1.330   3.310  14.585 -1.0670 -1.8033 -0.3502
  882MPD2    H312992   1.212   3.231  14.383  1.3249  0.4754 -1.4166
  882MPD2     N12993   0.979   3.596  14.307 -0.3646  0.3714 -0.6509
  882MPD2    H512994   0.946   3.543  14.227 -2.4918  0.9301 -0.1469
  882MPD2    N112995   1.284   3.549  14.694 -0.1749 -0.3423  0.0702
  882MPD2    H712996   1.363   3.497  14.731 -0.4888  0.2643  1.5764
  883MPD2     C12997   3.053   3.697  16.206 -0.3837  0.0251 -0.0232
  883MPD2    C112998   3.090   3.815  16.162 -0.3405 -0.0742 -0.0895
  883MPD2    C212999   3.186   3.884  16.227  0.1350 -0.6622  0.7389
  883MPD2    C313000   3.233   3.837  16.355  0.5012  0.1494 -0.1306
  883MPD2    C413001   3.175   3.720  16.411 -0.8802  0.1278  0.4449
  883MPD2    C513002   3.090   3.649  16.332  0.1562 -0.2377 -0.1194
  883MPD2     H13003   3.226   3.974  16.182 -0.4340  0.0711  1.7046
  883MPD2    H113004   3.214   3.675  16.502 -0.6571 -0.7464 -0.0792
  883MPD2    H213005   2.988   3.627  16.155 -0.8511 -0.6898  1.5602
  883MPD2    H313006   3.051   3.554  16.366 -1.3682  0.0200 -1.1315
  883MPD2     N13007   3.337   3.907  16.417 -0.0259  0.4131 -0.4200
  883MPD2    H513008   3.377   3.985  16.366  1.7272  0.4096  0.9848
  883MPD2    N113009   3.057   3.852  16.029  0.1211  0.0335 -0.4331
  883MPD2    H713010   3.085   3.942  15.991  1.1901 -0.2682 -0.3492
  884MPD2     C13011   0.341   4.211  15.238  0.2583 -0.1834  0.3384
  884MPD2    C113012   0.304   4.280  15.125  0.4918  0.1451 -0.2400
  884MPD2    C213013   0.188   4.354  15.136  0.3967 -0.6855  0.3532
  884MPD2    C313014   0.108   4.355  15.255 -0.1972 -0.0521  0.2514
  884MPD2    C413015   0.153   4.278  15.364 -0.6747 -0.3047  0.4463
  884MPD2    C513016   0.264   4.206  15.348  0.7369  0.1473 -0.6880
  884MPD2     H13017   0.161   4.421  15.055 -1.5734 -1.6197  0.2371
  884MPD2    H113018   0.098   4.259  15.456 -1.2924 -0.5668  0.0240
  884MPD2    H213019   0.423   4.141  15.225  0.1424 -0.0257 -1.2655
  884MPD2    H313020   0.301   4.145  15.430  1.5232  1.5697  0.0112
  884MPD2     N13021   4.721   4.423  15.250 -0.0107 -0.4214  0.7793
  884MPD2    H513022   4.692   4.466  15.163  0.2752 -3.2545 -0.7068
  884MPD2    N113023   0.372   4.282  14.998 -0.3637 -0.1573 -0.2318
  884MPD2    H713024   0.320   4.332  14.926  1.3257  1.1935 -0.5000
  885MPD2     C13025   2.953   4.583   0.085 -0.1479 -0.1294 -0.2609
  885MPD2    C113026   3.064   4.655   0.125  0.6594 -0.3209 -0.3298
  885MPD2    C213027   3.122   0.015   0.045 -0.1915 -0.0920  0.0835
  885MPD2    C313028   3.064   0.049  17.646  0.1455 -1.2715  0.1302
  885MPD2    C413029   2.946   4.710  17.617  0.1239  0.2578  0.2113
  885MPD2    C513030   2.890   4.616  17.698  0.5042  0.2727 -0.1121
  885MPD2     H13031   3.221   0.052   0.069 -0.7761  0.1886  2.0458
  885MPD2    H113032   2.883   4.732  17.531 -1.4224 -0.2554  1.2233
  885MPD2    H213033   2.911   4.501   0.142  0.7005  0.6087  1.4183
  885MPD2    H313034   2.797   4.568  17.671  1.8041 -2.0560 -0.3912
  885MPD2     N13035   3.132   0.144  17.563 -0.8072  0.6018  0.2089
  885MPD2    H513036   3.208   0.197  17.603  1.4296 -3.9892  1.9735
  885MPD2    N113037   3.124   4.612   0.247  0.1793 -0.3998 -0.8147
  885MPD2    H713038   3.098   4.527   0.296 -1.9151 -0.7511 -2.5012
  886MPD2     C13039   4.374   2.955  15.546 -0.2323  0.1242 -0.2425
  886MPD2    C113040   4.512   2.973  15.560  0.3157  0.2166 -0.1630
  886MPD2    C213041   4.566   3.098  15.523  0.0666  0.0641 -0.2500
  886MPD2    C313042   4.486   3.191  15.452 -0.2902 -0.0022 -0.2510
  886MPD2    C413043   4.361   3.159  15.412  0.5905  0.0668 -0.1302
  886MPD2    C513044   4.303   3.046  15.468  0.7443 -0.5478 -0.2116
  886MPD2     H13045   4.667   3.119  15.557 -0.0809 -1.6917  1.2978
  886MPD2    H113046   4.301   3.222  15.347 -0.9377 -2.1679 -0.9103
  886MPD2    H213047   4.331   2.858  15.567  1.4848 -0.4294  0.6945
  886MPD2    H313048   4.199   3.020  15.453  0.2749  1.5008 -0.5554
  886MPD2     N13049   4.553   3.301  15.405  0.2884  0.3515 -0.0407
  886MPD2    H513050   4.647   3.311  15.442  0.4326  0.3551 -0.4064
  886MPD2    N113051   4.598   2.880  15.627  0.7181  0.1892 -0.1734
  886MPD2    H713052   4.698   2.894  15.640  0.2290  2.2535  1.3688
  887MPD2     C13053   0.482   2.898  15.968 -0.0445 -0.0821 -0.8530
  887MPD2    C113054   0.360   2.954  15.928  0.9656 -0.3343 -0.1142
  887MPD2    C213055   0.356   3.089  15.900 -0.6671 -0.0290 -0.5159
  887MPD2    C313056   0.467   3.166  15.925 -0.5877 -0.3119 -0.0675
  887MPD2    C413057   0.588   3.111  15.953  0.2734 -0.2473  0.5857
  887MPD2    C513058   0.594   2.978  15.967  0.2773  0.3974 -0.0476
  887MPD2     H13059   0.263   3.131  15.865 -1.4546 -1.3587 -0.0045
  887MPD2    H113060   0.682   3.166  15.958  0.7019 -0.6510 -2.5470
  887MPD2    H213061   0.499   2.793  15.987 -0.5612 -0.4321 -2.2988
  887MPD2    H313062   0.690   2.932  15.986 -0.1959 -0.6492 -0.1911
  887MPD2     N13063   0.444   3.307  15.923  0.1003  0.0013 -0.0549
  887MPD2    H513064   0.344   3.323  15.910  0.7297  1.3112 -3.2256
  887MPD2    N113065   0.238   2.881  15.921  0.1038 -0.6928  0.0374
  887MPD2    H713066   0.156   2.931  15.889  0.1505  0.2249  1.3225
  888MPD2     C13067   2.235   3.114  14.977 -0.7582 -0.9135 -1.1456
  888MPD2    C113068   2.216   3.184  15.096 -0.4133  0.0189  0.4261
  888MPD2    C213069   2.283   3.307  15.104 -0.1466  0.1805 -0.2206
  888MPD2    C313070   2.378   3.349  15.012  0.5006 -0.5764 -0.3064
  888MPD2    C413071   2.391   3.278  14.895  0.3573 -0.1864 -0.4214
  888MPD2    C513072   2.313   3.168  14.873 -0.0193 -0.5915 -0.0129
  888MPD2     H13073   2.255   3.378  15.181 -0.4419  0.5519 -0.6741
  888MPD2    H113074   2.461   3.300  14.816 -0.4203 -3.1433 -1.9301
  888MPD2    H213075   2.184   3.022  14.951 -0.6744 -0.6377 -2.3071
  888MPD2    H313076   2.317   3.118  14.776  4.7670 -0.0979 -0.0670
  888MPD2     N13077   2.457   3.465  15.038 -0.1621 -0.2484 -0.1065
  888MPD2    H513078   2.436   3.528  15.115  2.0296  1.5042 -0.9077
  888MPD2    N113079   2.128   3.154  15.199  0.5364 -0.4013  0.3038
  888MPD2    H713080   2.141   3.216  15.278 -1.7679  0.0854  0.2861
  889MPD2     C13081   1.445   2.267  13.905 -0.3665  0.4025 -0.3356
  889MPD2    C113082   1.581   2.294  13.874  0.0813 -0.8727  1.0212
  889MPD2    C213083   1.617   2.425  13.870 -0.5034  0.1221 -0.6412
  889MPD2    C313084   1.534   2.529  13.892  0.3078 -0.1791 -0.2123
  889MPD2    C413085   1.399   2.500  13.919  0.5769  0.0601  0.1295
  889MPD2    C513086   1.362   2.373  13.928  0.7996 -0.3627  0.3105
  889MPD2     H13087   1.721   2.439  13.844 -0.5106  0.9171 -0.2374
  889MPD2    H113088   1.323   2.576  13.925 -2.0800 -2.5178 -1.1169
  889MPD2    H213089   1.400   2.169  13.909  1.3344 -0.4419 -1.7448
  889MPD2    H313090   1.258   2.358  13.955  0.1600  0.1424 -1.9217
  889MPD2     N13091   1.579   2.664  13.884  0.0094 -0.0758  0.0531
  889MPD2    H513092   1.678   2.684  13.873  0.1021 -0.3167  0.4815
  889MPD2    N113093   1.670   2.202  13.817  0.0897 -0.6919 -0.2220
  889MPD2    H713094   1.766   2.235  13.811 -0.5879  0.9606 -1.8356
  890MPD2     C13095   1.346   4.349  14.708 -0.4793  0.5604  0.1235
  890MPD2    C113096   1.425   4.405  14.813 -0.6283 -0.3878 -0.3711
  890MPD2    C213097   1.442   4.325  14.922  0.0641  1.1475  0.6619
  890MPD2    C313098   1.377   4.201  14.943  0.4074  0.6204 -0.3196
  890MPD2    C413099   1.298   4.159  14.839 -0.2571  0.0340  0.1616
  890MPD2    C513100   1.279   4.237  14.726 -0.5797 -0.2693 -0.0617
  890MPD2     H13101   1.518   4.355  14.993 -0.9077 -0.7342  2.4827
  890MPD2    H113102   1.237   4.070  14.837  0.0563 -0.1650 -0.4376
  890MPD2    H213103   1.326   4.394  14.611  2.6132 -0.2509 -0.8868
  890MPD2    H313104   1.216   4.206  14.644 -2.6316  0.6750  1.1340
  890MPD2     N13105   1.394   4.139  15.067 -0.0957  0.1184 -0.0497
  890MPD2    H513106   1.456   4.182  15.135 -1.3108  0.7154  0.6775
  890MPD2    N113107   1.482   4.539  14.797  0.7730  0.0098  0.3378
  890MPD2    H713108   1.450   4.595  14.718 -2.0360 -0.4467  1.1334
  891MPD2     C13109   4.172   3.429  16.584 -0.3455 -0.0321  0.3922
  891MPD2    C113110   4.071   3.421  16.678  0.3191 -0.2173 -0.5196
  891MPD2    C213111   4.105   3.380  16.810 -0.1616  0.0105 -0.6463
  891MPD2    C313112   4.240   3.346  16.836  0.3334 -0.4359  0.3248
  891MPD2    C413113   4.337   3.365  16.739 -0.0933  0.2428  0.1636
  891MPD2    C513114   4.297   3.403  16.619 -0.3263  0.3071  0.0524
  891MPD2     H13115   4.028   3.370  16.886  0.9688  0.5629  0.5810
  891MPD2    H113116   4.443   3.351  16.758 -0.0487 -1.0489 -1.1146
  891MPD2    H213117   4.152   3.459  16.482 -1.9331  0.8130  0.9399
  891MPD2    H313118   4.373   3.395  16.541  1.5151 -0.0308  1.8634
  891MPD2     N13119   4.263   3.294  16.965 -0.3915 -0.1640  0.1737
  891MPD2    H513120   4.182   3.273  17.023  0.0952 -0.2013  0.8404
  891MPD2    N113121   3.939   3.450  16.633  0.9258 -0.1130  0.0495
  891MPD2    H713122   3.927   3.479  16.536 -0.5355 -2.8422 -0.5809
  892MPD2     C13123   0.402   3.887  14.917  0.1827  0.2776 -0.3672
  892MPD2    C113124   0.322   3.944  14.812 -1.1803  0.6397  0.0782
  892MPD2    C213125   0.371   3.933  14.678  0.3119 -0.1285 -0.8552
  892MPD2    C313126   0.486   3.863  14.649  0.6762  0.6749  0.3031
  892MPD2    C413127   0.558   3.816  14.759 -0.7870 -0.7424  0.2802
  892MPD2    C513128   0.522   3.824  14.890 -0.5855  0.4360  0.1132
  892MPD2     H13129   0.304   3.965  14.599 -0.5132 -2.1129 -0.9582
  892MPD2    H113130   0.647   3.762  14.727 -0.1501  0.8660 -0.6828
  892MPD2    H213131   0.372   3.886  15.021  0.4187  0.0218 -0.3005
  892MPD2    H313132   0.576   3.781  14.974  1.1310 -0.3310 -1.3840
  892MPD2     N13133   0.538   3.832  14.525 -0.3933 -0.1262  0.6044
  892MPD2    H513134   0.617   3.768  14.528 -0.9119 -0.7876  0.1610
  892MPD2    N113135   0.207   4.012  14.831 -0.2415  0.2751 -0.7589
  892MPD2    H713136   0.164   4.031  14.741  0.0154  2.0128 -0.5247
  893MPD2     C13137   2.147   2.829   1.505  0.0015 -0.1018 -0.1829
  893MPD2    C113138   2.092   2.822   1.376  0.1704 -0.5635 -0.0473
  893MPD2    C213139   1.964   2.864   1.352  0.6030 -0.0912  0.7134
  893MPD2    C313140   1.889   2.929   1.450  0.2216  0.2151  0.3456
  893MPD2    C413141   1.953   2.961   1.571  0.5210 -0.1442 -0.1901
  893MPD2    C513142   2.078   2.904   1.604 -0.1030 -0.3596  1.0150
  893MPD2     H13143   1.918   2.849   1.255  0.4895 -0.6839  0.8582
  893MPD2    H113144   1.899   3.010   1.651 -0.9615 -1.6785 -0.2485
  893MPD2    H213145   2.244   2.788   1.529  0.6421  0.9528 -0.9449
  893MPD2    H313146   2.132   2.919   1.697  1.3287  0.8520 -0.0123
  893MPD2     N13147   1.757   2.971   1.431  0.0586  0.1209  0.6444
  893MPD2    H513148   1.709   3.026   1.501  0.5936  0.7147  0.5398
  893MPD2    N113149   2.170   2.764   1.276 -0.2599  0.1428 -0.2858
  893MPD2    H713150   2.257   2.728   1.313  0.0899 -0.2917 -1.5016
  894MPD2     C13151   0.537   0.239   0.869  0.5698 -0.1542 -0.5212
  894MPD2    C113152   0.420   0.276   0.922 -0.7177 -0.9021  0.6662
  894MPD2    C213153   0.414   0.411   0.958  0.3968 -0.1733 -0.3153
  894MPD2    C313154   0.508   0.507   0.930 -0.3116 -0.7793  0.4713
  894MPD2    C413155   0.624   0.464   0.874  0.1791  0.2585 -0.8894
  894MPD2    C513156   0.630   0.334   0.837  0.7673  0.8835  0.3206
  894MPD2     H13157   0.325   0.432   1.016 -0.4253 -0.9714 -1.2690
  894MPD2    H113158   0.707   0.528   0.846 -0.0705  0.6898 -0.6463
  894MPD2    H213159   0.554   0.132   0.858 -4.2566 -0.6752 -2.7505
  894MPD2    H313160   0.726   0.305   0.795  0.1806 -3.1868  1.8343
  894MPD2     N13161   0.480   0.640   0.958  0.0654 -0.3338 -0.0454
  894MPD2    H513162   0.393   0.664   1.004  0.1516  0.4038 -0.2661
  894MPD2    N113163   0.316   0.195   0.984 -0.0708 -0.3796 -0.7226
  894MPD2    H713164   0.248   0.254   1.030 -0.5337 -1.9735  0.6154
  895MPD2     C13165   0.038   2.642  13.593 -0.3098 -0.1128  0.2272
  895MPD2    C113166   0.014   2.691  13.467 -0.4704  0.1875  0.5685
  895MPD2    C213167   4.730   2.606  13.361 -0.1566 -0.5850  0.5603
  895MPD2    C313168   0.022   2.468  13.377  0.0511 -0.0978 -0.6527
  895MPD2    C413169   0.070   2.421  13.500 -0.2757  0.0848  0.0303
  895MPD2    C513170   0.061   2.507  13.611  0.6669  0.2239  0.3275
  895MPD2     H13171   4.691   2.646  13.268 -0.3648 -0.8775  0.5227
  895MPD2    H113172   0.111   2.321  13.512 -1.5423 -0.6612 -1.8855
  895MPD2    H213173   0.057   2.706  13.678 -1.4196  0.6253 -0.0719
  895MPD2    H313174   0.092   2.476  13.710 -1.2228  1.3072  1.2504
  895MPD2     N13175   0.002   2.373  13.270 -0.7198  0.3505  0.1427
  895MPD2    H513176   0.015   2.275  13.293 -0.1572  0.3978  0.0348
  895MPD2    N113177   4.716   2.829  13.431 -0.0648 -0.0038 -0.2586
  895MPD2    H713178   4.706   2.854  13.333 -2.6921 -1.7183 -0.4381
  896MPD2     C13179   1.614   1.180   1.205 -0.0851 -1.0293 -0.0606
  896MPD2    C113180   1.579   1.069   1.133 -0.2833  0.6554  0.0952
  896MPD2    C213181   1.450   1.048   1.095 -0.8276  0.3378  0.8305
  896MPD2    C313182   1.348   1.145   1.115 -0.5390  0.0283 -0.6427
  896MPD2    C413183   1.383   1.259   1.185  0.1979  0.3664  0.1427
  896MPD2    C513184   1.515   1.277   1.228  0.0383 -0.1434  0.5433
  896MPD2     H13185   1.423   0.949   1.061  0.5111  0.0513  0.6137
  896MPD2    H113186   1.312   1.339   1.203 -1.1687 -1.2367  1.9453
  896MPD2    H213187   1.716   1.189   1.241  0.3168 -1.4988 -1.1029
  896MPD2    H313188   1.540   1.373   1.271 -2.6835  1.1338 -0.7319
  896MPD2     N13189   1.221   1.116   1.071 -0.2736 -0.1338 -0.1022
  896MPD2    H513190   1.196   1.027   1.029 -0.1917 -1.3196  2.4144
  896MPD2    N113191   1.684   0.980   1.097 -0.6202  0.1458  0.4050
  896MPD2    H713192   1.781   1.011   1.096 -1.0648  1.4419 -4.0781
  897MPD2     C13193   2.831   2.769  10.260 -0.0792  0.6983 -0.1305
  897MPD2    C113194   2.763   2.882  10.297 -0.3569 -0.3161  1.0611
  897MPD2    C213195   2.712   2.891  10.427  0.0711 -0.8063  0.0171
  897MPD2    C313196   2.726   2.789  10.518 -0.5290  0.3590 -0.1163
  897MPD2    C413197   2.786   2.675  10.476 -0.8757  0.4043 -0.3900
  897MPD2    C513198   2.836   2.668  10.351 -0.2366  0.0042  1.4339
  897MPD2     H13199   2.631   2.959  10.449 -0.0282 -0.1764 -2.2851
  897MPD2    H113200   2.789   2.593  10.547 -0.5853  0.2487 -0.5798
  897MPD2    H213201   2.861   2.754  10.157  2.2119 -1.7819  0.8997
  897MPD2    H313202   2.896   2.582  10.320  0.4598  0.4955  1.4096
  897MPD2     N13203   2.662   2.805  10.646 -0.1058 -0.1917  0.3610
  897MPD2    H513204   2.607   2.891  10.652  1.7340  1.0836 -1.4115
  897MPD2    N113205   2.769   2.985  10.200  0.2946  0.1562  0.1409
  897MPD2    H713206   2.811   2.955  10.113 -0.0381  0.7091 -0.2110
  898MPD2     C13207   4.699   3.146  17.657 -0.1728 -0.7736  0.0160
  898MPD2    C113208   0.050   3.235  17.727 -1.0683 -0.0201 -0.5733
  898MPD2    C213209   0.077   3.357  17.676 -0.1869 -0.5776 -0.0160
  898MPD2    C313210   0.021   3.402  17.560 -0.1380 -0.2834  0.5964
  898MPD2    C413211   4.658   3.317  17.496 -0.1900  0.1916 -0.5789
  898MPD2    C513212   4.640   3.188  17.544  0.0477  0.0879  0.4939
  898MPD2     H13213   0.147   3.424  17.725 -1.5406  1.9926 -1.5702
  898MPD2    H113214   4.603   3.352  17.409  1.3890  3.1076 -0.3735
  898MPD2    H213215   4.689   3.044  17.690  0.0112 -1.9891 -3.6876
  898MPD2    H313216   4.580   3.111  17.496  2.4818 -1.7853  0.4827
  898MPD2     N13217   0.042   3.532  17.507  0.4219 -0.2570  0.3158
  898MPD2    H513218   4.725   3.562  17.424  1.0704  0.6634  0.2605
  898MPD2    N113219   0.133   3.192   0.102 -0.9955  0.2611 -0.7944
  898MPD2    H713220   0.196   3.259   0.143  0.0407  0.1667 -2.2158
  899MPD2     C13221   1.109   3.758  17.372 -0.3451 -0.3437 -0.6752
  899MPD2    C113222   1.087   3.863  17.453  0.9407 -0.3534 -0.2998
  899MPD2    C213223   1.074   3.841  17.591 -0.1101  0.3514 -0.1759
  899MPD2    C313224   1.093   3.714  17.650 -0.0093 -0.0378 -0.1809
  899MPD2    C413225   1.122   3.614  17.565  0.3735 -0.3995  0.1490
  899MPD2    C513226   1.128   3.635  17.428  0.3753 -0.0248  0.1295
  899MPD2     H13227   1.042   3.922  17.656  1.1412  1.2201 -0.6269
  899MPD2    H113228   1.138   3.515  17.606  0.2613 -1.6891 -2.9228
  899MPD2    H213229   1.113   3.768  17.264 -0.1769 -1.5365 -0.7856
  899MPD2    H313230   1.137   3.545  17.368 -0.4723  1.2849 -1.9616
  899MPD2     N13231   1.077   3.689   0.056 -0.2876  0.1131 -0.0178
  899MPD2    H513232   1.095   3.596   0.092  2.0203  0.5389 -0.1089
  899MPD2    N113233   1.052   3.985  17.391 -0.5374  0.2502  0.5918
  899MPD2    H713234   1.057   3.978  17.290  0.7248  3.1021  0.4529
  900MPD2     C13235   0.107   0.630  12.525 -0.1951 -0.5237 -0.3182
  900MPD2    C113236   0.029   0.537  12.473 -0.0102  0.7749  0.3285
  900MPD2    C213237   4.639   0.580  12.418 -0.0999  0.4926 -0.0516
  900MPD2    C313238   4.609   0.715  12.404 -0.8571 -0.4685  0.0010
  900MPD2    C413239   4.687   0.804  12.463 -0.2313 -0.1571  0.4640
  900MPD2    C513240   0.066   0.760  12.531  0.1559 -0.2380 -0.3475
  900MPD2     H13241   4.574   0.508  12.369 -0.2253  0.9191 -0.5190
  900MPD2    H113242   4.654   0.905  12.483  1.1874  0.7083 -1.6755
  900MPD2    H213243   0.202   0.602  12.569  0.1295  0.4314 -0.4133
  900MPD2    H313244   0.116   0.828  12.599 -1.3244 -0.3149  0.8314
  900MPD2     N13245   4.489   0.749  12.338 -0.0836  0.1662 -0.1183
  900MPD2    H513246   4.417   0.678  12.329  1.6455 -2.1256  3.9136
  900MPD2    N113247   0.072   0.412  12.483  0.6741  0.2726  0.3832
  900MPD2    H713248   0.167   0.402  12.517  0.9213  1.2340 -0.0120
  901MPD2     C13249   0.252   4.104  12.192 -0.5268  0.0064 -0.3176
  901MPD2    C113250   0.316   4.133  12.306  0.3432  0.0730 -0.2336
  901MPD2    C213251   0.290   4.250  12.372 -0.3091 -0.0846  0.1826
  901MPD2    C313252   0.194   4.341  12.320 -0.4237  0.5297  0.4415
  901MPD2    C413253   0.119   4.307  12.211  0.7938 -0.2138  0.0246
  901MPD2    C513254   0.156   4.183  12.149 -0.7319 -0.2281  0.2376
  901MPD2     H13255   0.360   4.285  12.447 -0.7146 -2.4012  1.6337
  901MPD2    H113256   0.040   4.363  12.163 -0.0728 -0.2030  1.4637
  901MPD2    H213257   0.262   4.004  12.150  0.0998 -0.2002  0.3213
  901MPD2    H313258   0.092   4.145  12.070 -1.3052  1.7698 -0.2649
  901MPD2     N13259   0.172   4.468  12.382  0.4881  0.2638  0.5864
  901MPD2    H513260   0.211   4.492  12.472  2.0148 -2.4728  0.6748
  901MPD2    N113261   0.417   4.045  12.338  0.0881 -0.0773 -0.2945
  901MPD2    H713262   0.442   3.982  12.263 -0.0867 -1.6772  1.0125
  902MPD2     C13263   4.147   3.603  13.064  0.3523 -0.3641 -0.4905
  902MPD2    C113264   4.144   3.653  12.934 -0.1312  0.0089  0.0624
  902MPD2    C213265   4.255   3.631  12.854  0.2996  0.3500 -0.4351
  902MPD2    C313266   4.362   3.551  12.898 -0.7013 -0.1527 -0.0632
  902MPD2    C413267   4.360   3.505  13.028  0.5472 -0.1246 -0.5690
  902MPD2    C513268   4.255   3.535  13.110  0.7429 -0.6168  0.3572
  902MPD2     H13269   4.266   3.673  12.755  1.4990  0.9891 -0.0209
  902MPD2    H113270   4.443   3.450  13.072  1.4989  0.5758 -1.4941
  902MPD2    H213271   4.064   3.633  13.127  0.3474  0.1411 -0.7396
  902MPD2    H313272   4.254   3.497  13.211 -0.9220 -0.7097  0.3155
  902MPD2     N13273   4.486   3.529  12.823  0.5005 -0.2857 -0.2367
  902MPD2    H513274   4.549   3.460  12.862  1.1011  0.8384  0.7961
  902MPD2    N113275   4.042   3.730  12.895 -0.2472  0.2816 -0.1175
  902MPD2    H713276   3.976   3.759  12.967  0.7083 -3.5901  2.3411
  903MPD2     C13277   4.713   3.691  12.081  0.0010  0.0823 -0.1151
  903MPD2    C113278   4.642   3.705  12.201 -0.0168 -0.3747 -0.4262
  903MPD2    C213279   4.506   3.714  12.176  0.7346  0.4957  0.3141
  903MPD2    C313280   4.444   3.716  12.055 -0.6115  0.2624  0.2404
  903MPD2    C413281   4.524   3.700  11.942  0.5009 -0.1327  0.4835
  903MPD2    C513282   4.657   3.683  11.958 -0.5807 -0.2260 -0.1900
  903MPD2     H13283   4.428   3.711  12.252 -0.1172  1.1411 -0.5362
  903MPD2    H113284   4.479   3.692  11.844  1.4780 -0.8328  0.0877
  903MPD2    H213285   0.083   3.655  12.087  0.3898  1.2104 -0.0899
  903MPD2    H313286   4.723   3.673  11.873 -0.7020  0.9537 -0.4188
  903MPD2     N13287   4.302   3.726  12.048 -0.3615 -0.5533 -0.0542
  903MPD2    H513288   4.255   3.731  12.138  1.5611 -0.9414  0.9619
  903MPD2    N113289   4.689   3.689  12.330 -0.3186 -0.1147  0.0181
  903MPD2    H713290   4.622   3.701  12.404  1.1215 -1.6106  1.5834
  904MPD2     C13291   4.583   2.011  13.904  0.6976 -0.3822  0.7428
  904MPD2    C113292   4.649   2.044  13.790 -0.8531 -0.6392  0.0715
  904MPD2    C213293   0.001   1.946  13.741  0.0153 -0.0588  0.4292
  904MPD2    C313294   0.025   1.828  13.809  0.7034 -0.1182 -1.0019
  904MPD2    C413295   4.691   1.795  13.927  0.0314 -0.1283 -0.0359
  904MPD2    C513296   4.612   1.897  13.973 -0.5317 -0.6745 -0.1920
  904MPD2     H13297   0.048   1.952  13.643  0.1461  1.5926  0.6059
  904MPD2    H113298   4.695   1.694  13.967  0.8157  0.1896  0.6702
  904MPD2    H213299   4.517   2.082  13.953 -2.8026 -2.7495 -0.6120
  904MPD2    H313300   4.565   1.886  14.070  2.6817  0.6181  1.4907
  904MPD2     N13301   0.129   1.759  13.752 -0.1560 -0.9942  0.5927
  904MPD2    H513302   0.157   1.788  13.659 -0.9056 -2.0950  0.0259
  904MPD2    N113303   4.618   2.157  13.711  0.1362 -0.1218  0.3756
  904MPD2    H713304   4.624   2.162  13.610  0.4876 -2.7877  0.2580
  905MPD2     C13305   4.068   2.180  13.160  0.0130  0.4651 -0.5242
  905MPD2    C113306   4.183   2.254  13.183 -0.0004  0.3646  0.6085
  905MPD2    C213307   4.245   2.280  13.065 -0.3687  0.2434 -0.2154
  905MPD2    C313308   4.216   2.218  12.944 -0.7413  0.1326  0.0093
  905MPD2    C413309   4.097   2.153  12.933  0.6278  0.8942 -0.4541
  905MPD2    C513310   4.022   2.142  13.041  0.3819  0.2612  0.0071
  905MPD2     H13311   4.340   2.332  13.074  0.8628 -1.8896 -0.9548
  905MPD2    H113312   4.065   2.115  12.836  2.1734 -0.9195 -0.2558
  905MPD2    H213313   4.011   2.148  13.246  0.7666  1.0146  0.1827
  905MPD2    H313314   3.927   2.090  13.032  1.0405 -1.0758  0.7276
  905MPD2     N13315   4.295   2.222  12.833 -0.3360  0.5844 -0.3347
  905MPD2    H513316   4.259   2.187  12.744  0.3106  0.9166 -0.7256
  905MPD2    N113317   4.218   2.307  13.306 -0.3921  0.0732  0.4741
  905MPD2    H713318   4.147   2.309  13.378  0.8574 -1.8428  1.7673
  906MPD2     C13319   1.283   3.072  11.435  0.5395 -0.6011  0.2608
  906MPD2    C113320   1.371   3.007  11.351 -0.2050 -0.1000  0.5547
  906MPD2    C213321   1.389   2.869  11.370 -0.2825 -0.1340 -0.4477
  906MPD2    C313322   1.331   2.799  11.481  0.8745 -0.0487  0.0863
  906MPD2    C413323   1.255   2.871  11.568  0.0962  0.3759  0.3280
  906MPD2    C513324   1.233   3.003  11.545 -0.6886 -0.0628 -0.0422
  906MPD2     H13325   1.460   2.818  11.306  2.2009  0.0919  2.1156
  906MPD2    H113326   1.215   2.825  11.658  0.0906 -0.7107 -0.2311
  906MPD2    H213327   1.245   3.171  11.415  1.0777 -0.3502  0.4826
  906MPD2    H313328   1.170   3.055  11.616  2.3105  0.9767  1.8296
  906MPD2     N13329   1.358   2.668  11.509 -0.4743  0.3837  0.2057
  906MPD2    H513330   1.322   2.628  11.595 -1.1884  2.5039  0.9051
  906MPD2    N113331   1.434   3.070  11.242 -0.5142  0.0597 -0.1701
  906MPD2    H713332   1.504   3.017  11.191  0.2917  1.8814 -0.9892
  907MPD2     C13333   4.538   1.847  15.213 -0.2039 -0.2886  0.0553
  907MPD2    C113334   4.576   1.852  15.080 -0.0234  0.0630 -0.2003
  907MPD2    C213335   4.546   1.970  15.010  0.5163 -0.4156 -0.2654
  907MPD2    C313336   4.484   2.083  15.066 -0.1892  0.9836 -0.2376
  907MPD2    C413337   4.443   2.069  15.194 -0.1192 -0.1481  0.4211
  907MPD2    C513338   4.471   1.953  15.265  1.0182  0.0452  0.7437
  907MPD2     H13339   4.580   1.979  14.907  0.5448 -0.5033 -0.2633
  907MPD2    H113340   4.402   2.157  15.243  1.4310  0.7023  0.2139
  907MPD2    H213341   4.551   1.761  15.278  1.1340  0.6613  1.0391
  907MPD2    H313342   4.440   1.939  15.368  2.8769  0.0877  1.3063
  907MPD2     N13343   4.473   2.200  14.997  0.5951  0.5011  0.2228
  907MPD2    H513344   4.493   2.192  14.897 -0.1451 -0.5635  0.1671
  907MPD2    N113345   4.636   1.746  15.009 -0.0405  0.0159 -0.6378
  907MPD2    H713346   4.674   1.780  14.921  1.0308 -0.4121 -0.3365
  908MPD2     C13347   2.756   2.993   9.349 -0.4398  0.1229  0.1316
  908MPD2    C113348   2.786   2.906   9.459 -0.4349 -0.9612  0.1536
  908MPD2    C213349   2.814   2.959   9.585 -0.0143  0.1426  0.4562
  908MPD2    C313350   2.783   3.091   9.607 -0.7394 -0.0607  0.8639
  908MPD2    C413351   2.745   3.167   9.500 -0.1335 -0.7327  0.0586
  908MPD2    C513352   2.728   3.123   9.373 -0.4384  0.1210  0.0441
  908MPD2     H13353   2.848   2.902   9.670  2.1695  1.0525  0.2018
  908MPD2    H113354   2.729   3.274   9.508  0.5438 -0.5209 -1.5025
  908MPD2    H213355   2.748   2.958   9.247 -2.3468  3.6270 -0.9061
  908MPD2    H313356   2.692   3.191   9.297 -2.2053  0.3624  1.0972
  908MPD2     N13357   2.802   3.135   9.739 -0.2834 -0.0036 -0.4247
  908MPD2    H513358   2.830   3.070   9.812  0.2879  0.4666 -0.2286
  908MPD2    N113359   2.810   2.766   9.432  0.3780 -0.2746  0.1807
  908MPD2    H713360   2.830   2.737   9.336  0.4457  0.1989  0.0505
  909MPD2     C13361   2.837   0.777  11.616  0.4322 -0.5355 -0.5879
  909MPD2    C113362   2.908   0.889  11.648 -0.3481 -0.6083  0.0897
  909MPD2    C213363   2.869   0.956  11.760 -0.0201  0.1758  0.0620
  909MPD2    C313364   2.762   0.924  11.842 -0.5375  0.1642  0.4399
  909MPD2    C413365   2.683   0.820  11.795 -0.3720 -0.1178 -0.5761
  909MPD2    C513366   2.724   0.737  11.692  0.1774 -0.3847 -0.4479
  909MPD2     H13367   2.936   1.032  11.799  1.2658 -0.8712 -0.1364
  909MPD2    H113368   2.590   0.803  11.849  1.0761 -1.2200  1.5614
  909MPD2    H213369   2.855   0.722  11.524 -0.4460 -1.7032 -0.0610
  909MPD2    H313370   2.659   0.655  11.667 -1.8547  0.8642  0.7508
  909MPD2     N13371   2.739   1.005  11.952  0.8513  0.2758  0.1696
  909MPD2    H513372   2.800   1.085  11.962  3.2334 -1.5309  0.2466
  909MPD2    N113373   3.010   0.941  11.564 -0.2874  0.3725  0.2982
  909MPD2    H713374   3.033   1.038  11.586 -2.0695  1.1306 -1.1403
  910MPD2     C13375   0.502   2.626  15.188 -0.1777  0.1696  0.0141
  910MPD2    C113376   0.406   2.528  15.165 -0.1071 -0.1570  0.5168
  910MPD2    C213377   0.274   2.551  15.206 -0.1692  0.4787  0.2186
  910MPD2    C313378   0.241   2.675  15.271  0.1930  0.2891 -0.0378
  910MPD2    C413379   0.336   2.769  15.292 -0.3972  0.8179  0.1409
  910MPD2    C513380   0.465   2.744  15.249  0.3799 -0.1130 -0.1160
  910MPD2     H13381   0.196   2.478  15.192 -0.1545  0.2315  1.3708
  910MPD2    H113382   0.311   2.859  15.347  0.1954  0.4811  0.9696
  910MPD2    H213383   0.608   2.616  15.166 -0.4495  3.1234 -2.6632
  910MPD2    H313384   0.548   2.809  15.276  0.9629 -0.1536 -1.7891
  910MPD2     N13385   0.105   2.711  15.305  0.4080  0.1885  0.0002
  910MPD2    H513386   0.079   2.807  15.323  1.1598  0.2579  0.7122
  910MPD2    N113387   0.429   2.416  15.089 -0.2325 -0.5677 -0.0452
  910MPD2    H713388   0.355   2.346  15.091 -0.5674 -0.1872  0.7177
  911MPD2     C13389   2.145   2.856  16.572 -0.1843  0.2719  0.4799
  911MPD2    C113390   2.242   2.956  16.573 -0.1862  0.5418  0.4331
  911MPD2    C213391   2.213   3.087  16.552  0.5151  0.1319  0.4883
  911MPD2    C313392   2.077   3.117  16.531 -0.8372  0.8456  0.4513
  911MPD2    C413393   1.979   3.020  16.545 -0.4709  0.0227  0.4485
  911MPD2    C513394   2.013   2.891  16.564 -0.1275 -0.1017 -0.1320
  911MPD2     H13395   2.291   3.160  16.535  0.4920 -0.3002 -1.4966
  911MPD2    H113396   1.875   3.044  16.528 -0.8022  0.7205  3.5085
  911MPD2    H213397   2.172   2.752  16.590 -2.1333 -0.2269  0.4812
  911MPD2    H313398   1.938   2.812  16.557  0.0068 -0.2383 -0.0376
  911MPD2     N13399   2.029   3.247  16.501 -0.0231 -0.1326  0.2618
  911MPD2    H513400   1.929   3.257  16.484 -0.0843 -3.1625 -1.1302
  911MPD2    N113401   2.368   2.908  16.595 -0.2879 -0.0717  0.3982
  911MPD2    H713402   2.373   2.807  16.598 -0.5771 -0.0970  0.0595
  912MPD2     C13403   1.714   3.170  15.920 -0.3938  0.0103  0.3170
  912MPD2    C113404   1.731   3.177  16.057 -0.3294  0.1078  0.1206
  912MPD2    C213405   1.688   3.068  16.135  0.0541 -0.1611 -0.2041
  912MPD2    C313406   1.634   2.957  16.080 -0.1615  0.1622 -0.5121
  912MPD2    C413407   1.626   2.948  15.941 -0.1091 -0.3939  0.3214
  912MPD2    C513408   1.664   3.056  15.867 -0.0433 -0.5115 -0.2038
  912MPD2     H13409   1.699   3.081  16.242 -1.3040  1.1191 -0.2195
  912MPD2    H113410   1.591   2.859  15.890 -0.6073 -1.2014  2.0385
  912MPD2    H213411   1.735   3.255  15.857 -0.2281 -1.2140 -1.2898
  912MPD2    H313412   1.651   3.048  15.759  1.3905  0.6775 -0.4612
  912MPD2     N13413   1.593   2.861  16.173  0.0465 -0.1114 -0.4216
  912MPD2    H513414   1.612   2.887  16.270 -0.5773 -0.8317 -0.1074
  912MPD2    N113415   1.796   3.299  16.112 -0.1419 -0.0404 -0.6184
  912MPD2    H713416   1.834   3.374  16.054 -2.1015 -0.0682 -1.9066
  913MPD2     C13417   2.977   4.191  10.770  0.4747  0.0990  0.2239
  913MPD2    C113418   2.881   4.094  10.778  0.1369  0.1509 -0.4526
  913MPD2    C213419   2.830   4.031  10.665 -0.2706  0.0624 -0.9889
  913MPD2    C313420   2.886   4.057  10.545 -0.1413 -0.1844 -0.0929
  913MPD2    C413421   2.974   4.155  10.534 -0.5075  0.1170  0.0168
  913MPD2    C513422   3.020   4.229  10.644 -0.9245 -0.2769 -0.4961
  913MPD2     H13423   2.749   3.960  10.676  0.2509 -0.3963 -0.0663
  913MPD2    H113424   3.028   4.165  10.440 -2.8740  1.5722 -1.1934
  913MPD2    H213425   3.024   4.233  10.859  1.8834 -0.6076 -0.1919
  913MPD2    H313426   3.102   4.298  10.626  1.1556 -2.4510  0.7886
  913MPD2     N13427   2.851   3.999  10.420 -0.2448  0.2839  0.7118
  913MPD2    H513428   2.892   4.051  10.344  0.8145 -0.6111  0.6715
  913MPD2    N113429   2.829   4.072  10.906 -0.0410 -0.4947  0.2138
  913MPD2    H713430   2.849   4.147  10.971  1.4222 -3.3007  3.0042
  914MPD2     C13431   1.056   4.374  11.971 -0.0964 -0.2913  0.2712
  914MPD2    C113432   0.933   4.406  12.023  0.5363 -0.4065 -0.1038
  914MPD2    C213433   0.883   4.336  12.128 -0.0990  0.3345  0.1222
  914MPD2    C313434   0.950   4.222  12.179 -0.0044  0.4101 -0.2890
  914MPD2    C413435   1.073   4.198  12.132 -0.5653  0.4992 -0.3789
  914MPD2    C513436   1.126   4.269  12.025 -0.1516  0.1610  0.4798
  914MPD2     H13437   0.790   4.371  12.172 -0.2699 -0.4911  0.4156
  914MPD2    H113438   1.120   4.108  12.168 -0.6247  0.3737 -0.6214
  914MPD2    H213439   1.101   4.425  11.887  1.7211 -0.9336  0.8485
  914MPD2    H313440   1.221   4.238  11.981  0.2896  0.6667  1.0807
  914MPD2     N13441   0.875   4.146  12.272 -0.1048 -0.3525  0.1197
  914MPD2    H513442   0.786   4.175  12.310  0.0765  1.6759 -1.0416
  914MPD2    N113443   0.882   4.533  11.974  0.1487 -0.0423  0.7566
  914MPD2    H713444   0.939   4.585  11.908  0.7779  1.0366  2.1694
  915MPD2     C13445   3.658   4.509  15.596  0.1013  0.3874 -0.5913
  915MPD2    C113446   3.536   4.563  15.563 -0.5390  0.1067 -0.2421
  915MPD2    C213447   3.465   4.626  15.663  0.3097 -0.6383 -0.3428
  915MPD2    C313448   3.516   4.627  15.792 -0.1714  0.5124 -0.0285
  915MPD2    C413449   3.632   4.563  15.827 -0.0181 -0.1759 -0.3553
  915MPD2    C513450   3.705   4.505  15.726 -0.5777  0.4095  0.2309
  915MPD2     H13451   3.365   4.666  15.649  1.1073  1.2564 -0.6575
  915MPD2    H113452   3.683   4.554  15.922 -0.0182 -1.6037 -0.4959
  915MPD2    H213453   3.720   4.484  15.511  2.1496  0.9264  0.7548
  915MPD2    H313454   3.794   4.445  15.739 -2.1786 -2.0185  0.0257
  915MPD2     N13455   3.441   4.691  15.893  0.9997 -0.2683  0.2469
  915MPD2    H513456   3.365   0.017  15.859  0.9247  0.2174  1.2345
  915MPD2    N113457   3.473   4.547  15.433 -0.1898 -0.2482  0.0876
  915MPD2    H713458   3.500   4.470  15.373 -0.5940  1.2911 -2.0716
  916MPD2     C13459   1.118   2.562  16.039  0.9305 -0.6511 -0.0568
  916MPD2    C113460   1.157   2.470  16.138 -0.5247 -0.7532  0.1022
  916MPD2    C213461   1.262   2.385  16.114 -0.4377  0.3229 -0.0168
  916MPD2    C313462   1.326   2.390  15.991 -0.1959  0.0687 -0.1913
  916MPD2    C413463   1.277   2.471  15.892  0.0361 -0.1118 -0.1118
  916MPD2    C513464   1.187   2.568  15.924  0.0828  0.3603 -0.2122
  916MPD2     H13465   1.299   2.309  16.183 -2.7818 -0.1974  0.6713
  916MPD2    H113466   1.310   2.470  15.789 -0.9082  1.6043 -0.4385
  916MPD2    H213467   1.038   2.633  16.059  1.3519 -0.4767  0.9995
  916MPD2    H313468   1.157   2.646  15.855  0.5947 -0.1186 -0.9829
  916MPD2     N13469   1.443   2.313  15.975  0.5434 -0.1161 -0.8554
  916MPD2    H513470   1.467   2.251  16.051  0.6137  0.7629 -0.1674
  916MPD2    N113471   1.093   2.487  16.266  0.4851 -0.4068  0.1924
  916MPD2    H713472   1.016   2.552  16.274  0.2621 -0.8907  1.8576
  917MPD2     C13473   1.571   0.309  11.924  0.4349  0.5134 -0.0941
  917MPD2    C113474   1.624   0.365  12.038  0.8791 -0.2581  0.3075
  917MPD2    C213475   1.642   0.497  12.040  0.9361 -0.6892 -0.8793
  917MPD2    C313476   1.611   0.577  11.931 -0.4157 -0.0127 -0.4753
  917MPD2    C413477   1.553   0.517  11.819  0.6226  0.1401 -0.5222
  917MPD2    C513478   1.525   0.382  11.815  0.6831 -0.4674  0.3784
  917MPD2     H13479   1.688   0.540  12.129  0.3301 -0.0367 -0.8837
  917MPD2    H113480   1.523   0.565  11.726  1.5464 -0.6030 -1.2142
  917MPD2    H213481   1.552   0.202  11.929 -0.4070  0.5844 -1.8249
  917MPD2    H313482   1.480   0.333  11.729  1.4523  0.5967 -0.6298
  917MPD2     N13483   1.647   0.711  11.918  0.2470 -0.5569  0.4931
  917MPD2    H513484   1.625   0.754  11.829  0.3978  0.7661  1.0867
  917MPD2    N113485   1.655   0.275  12.145 -0.3145  0.4371  0.9740
  917MPD2    H713486   1.648   0.177  12.120 -1.2653  0.4713  1.0751
  918MPD2     C13487   2.383   0.233  12.762 -0.5890  0.2200  0.4102
  918MPD2    C113488   2.344   0.310  12.654 -0.0881  0.0762  0.2179
  918MPD2    C213489   2.213   0.304  12.605  0.4552  0.3120  0.1057
  918MPD2    C313490   2.120   0.223  12.667  1.2763 -1.3460 -1.0455
  918MPD2    C413491   2.155   0.164  12.787 -0.3496 -0.3916 -0.2362
  918MPD2    C513492   2.287   0.158  12.828  0.3995  0.4657  0.2718
  918MPD2     H13493   2.187   0.347  12.509  1.6751  2.2787  0.6517
  918MPD2    H113494   2.078   0.109  12.840  1.3426 -1.6415  0.9331
  918MPD2    H213495   2.489   0.233  12.787 -0.5472  0.3445  0.2400
  918MPD2    H313496   2.315   0.094  12.911  0.0295 -0.7939 -0.5939
  918MPD2     N13497   2.002   0.201  12.594  0.0702 -0.3670 -0.3363
  918MPD2    H513498   1.976   0.261  12.516 -1.1113  0.6337  0.8157
  918MPD2    N113499   2.438   0.378  12.572  0.1027 -0.2608  0.2178
  918MPD2    H713500   2.408   0.427  12.489  1.0192  1.3722  0.8659
  919MPD2     C13501   2.462   3.903  12.122  0.1588  0.5572 -0.7094
  919MPD2    C113502   2.394   3.855  12.009  0.6805 -0.4838  0.1263
  919MPD2    C213503   2.330   3.954  11.926  0.1924 -0.2418 -0.1752
  919MPD2    C313504   2.343   4.087  11.954 -0.1919 -0.2778 -0.2697
  919MPD2    C413505   2.414   4.129  12.063 -0.3313  0.2315  0.0750
  919MPD2    C513506   2.480   4.036  12.140 -0.2110  0.1717  0.0319
  919MPD2     H13507   2.265   3.916  11.848 -0.1266  0.0486 -0.0516
  919MPD2    H113508   2.413   4.234  12.089 -0.8070  0.1720  0.3079
  919MPD2    H213509   2.489   3.838  12.204  1.1264  0.2381 -1.2764
  919MPD2    H313510   2.507   4.075  12.238  1.1738  2.5570 -1.3068
  919MPD2     N13511   2.271   4.190  11.882 -0.1086 -0.4208 -0.2969
  919MPD2    H513512   2.277   4.286  11.916  1.5342  0.1176 -2.0979
  919MPD2    N113513   2.364   3.722  11.983  0.1605  0.0805 -0.2674
  919MPD2    H713514   2.318   3.686  11.900 -0.3676  0.2851 -0.0615
  920MPD2     C13515   2.131   0.314  11.371 -0.5885 -0.2173  0.6288
  920MPD2    C113516   2.091   0.201  11.298 -0.7088  0.5685 -0.2922
  920MPD2    C213517   2.069   0.081  11.367 -0.2304 -0.2183  0.2230
  920MPD2    C313518   2.092   0.072  11.501  0.5821 -0.0618 -0.1012
  920MPD2    C413519   2.141   0.179  11.575  0.6060  0.0721 -0.8723
  920MPD2    C513520   2.151   0.295  11.511 -0.5617  0.0200 -0.1360
  920MPD2     H13521   2.037   4.723  11.316 -2.4279 -0.1816  1.5621
  920MPD2    H113522   2.170   0.180  11.680  1.0511  0.6529 -0.9976
  920MPD2    H213523   2.140   0.416  11.335 -0.7314 -0.4543 -0.0744
  920MPD2    H313524   2.181   0.376  11.576 -2.0435  0.0261  0.5576
  920MPD2     N13525   2.068   4.675  11.556 -0.4405  0.1619 -0.0226
  920MPD2    H513526   2.049   4.597  11.495 -0.1161 -0.0103  0.0940
  920MPD2    N113527   2.046   0.196  11.165 -0.5696 -0.5605 -0.0449
  920MPD2    H713528   2.010   0.105  11.140  2.0805 -1.6327 -0.0257
  921MPD2     C13529   3.271   3.189  16.989 -0.0097 -0.1905  0.1278
  921MPD2    C113530   3.265   3.229  16.854 -0.4250 -0.0983 -0.7210
  921MPD2    C213531   3.161   3.177  16.778 -0.4893 -0.3943  0.2587
  921MPD2    C313532   3.071   3.087  16.834 -0.3916  0.9910 -0.3006
  921MPD2    C413533   3.087   3.052  16.962  0.2997  0.5704 -0.1372
  921MPD2    C513534   3.180   3.103  17.041  0.2242 -0.3111 -0.4198
  921MPD2     H13535   3.153   3.209  16.675  0.4405 -2.4464 -0.4450
  921MPD2    H113536   3.018   2.978  17.001  2.5736 -1.0274  0.8246
  921MPD2    H213537   3.344   3.239  17.052  0.3309 -1.2687  0.5911
  921MPD2    H313538   3.186   3.078  17.147 -2.1807 -1.7164 -0.6269
  921MPD2     N13539   2.961   3.032  16.757 -0.5560 -0.4390 -0.1521
  921MPD2    H513540   2.885   2.989  16.809 -0.7660 -0.0873 -0.1665
  921MPD2    N113541   3.364   3.310  16.797 -0.4392  0.3947 -0.2691
  921MPD2    H713542   3.452   3.324  16.845  0.1063 -0.5833 -0.9888
  922MPD2     C13543   3.694   1.364  17.601 -0.0036  1.0504 -1.0391
  922MPD2    C113544   3.625   1.274  17.685 -0.5530 -0.1163  0.4256
  922MPD2    C213545   3.597   1.149  17.638  0.1473  0.4010  0.0298
  922MPD2    C313546   3.637   1.118  17.514 -0.1238  0.2292  0.2452
  922MPD2    C413547   3.706   1.205  17.430 -0.8253  0.2765  0.2171
  922MPD2    C513548   3.734   1.329  17.475  0.1587  0.1810  0.4353
  922MPD2     H13549   3.543   1.078  17.700  0.5161  0.3147  0.2496
  922MPD2    H113550   3.739   1.177  17.331 -0.8931  0.7810  0.0548
  922MPD2    H213551   3.733   1.454  17.647 -0.1614  0.0933  0.9891
  922MPD2    H313552   3.776   1.400  17.405  2.2250 -1.2753  0.2219
  922MPD2     N13553   3.606   0.985  17.476 -0.3457  0.5809  0.1421
  922MPD2    H513554   3.533   0.942  17.532  0.3103  0.3326  0.8111
  922MPD2    N113555   3.580   1.315   0.086  0.8328  0.1300 -0.1776
  922MPD2    H713556   3.530   1.242   0.137 -2.0319  1.1234 -1.5713
  923MPD2     C13557   1.143   3.044   9.332 -0.5237 -0.1783 -0.1584
  923MPD2    C113558   1.073   3.128   9.416 -1.1617  0.5027  0.3567
  923MPD2    C213559   1.139   3.184   9.527  0.4148 -0.2404 -0.2425
  923MPD2    C313560   1.273   3.152   9.555 -0.1807 -0.2413 -0.2919
  923MPD2    C413561   1.343   3.066   9.468  0.0922  0.6543 -0.4000
  923MPD2    C513562   1.277   3.021   9.356  0.3032  0.0635  0.1282
  923MPD2     H13563   1.080   3.244   9.596 -1.1253 -2.8195  0.6762
  923MPD2    H113564   1.446   3.037   9.486  0.4449  1.6014 -0.8618
  923MPD2    H213565   1.093   2.993   9.250  2.1526 -0.0049 -1.9050
  923MPD2    H313566   1.335   2.952   9.294  3.5974  0.3614  2.8522
  923MPD2     N13567   1.329   3.192   9.678  0.6643  0.1581  0.3073
  923MPD2    H513568   1.420   3.153   9.699  0.6304  0.0296  0.2170
  923MPD2    N113569   0.938   3.140   9.381  0.3293 -0.1917  0.4639
  923MPD2    H713570   0.917   3.079   9.303 -2.6643  0.9725  0.3774
  924MPD2     C13571   4.476   2.185  14.223  0.8942  0.2576 -0.8451
  924MPD2    C113572   4.475   2.320  14.238  0.2157  0.0114 -0.5529
  924MPD2    C213573   4.422   2.386  14.349  0.3722 -0.1823 -0.3910
  924MPD2    C313574   4.365   2.304  14.447  0.8218  0.4305 -0.0550
  924MPD2    C413575   4.361   2.167  14.430 -0.0657  0.6394 -0.3873
  924MPD2    C513576   4.404   2.109  14.313  0.4074 -0.6109 -0.0357
  924MPD2     H13577   4.434   2.493  14.360  0.0813 -0.1671 -0.2114
  924MPD2    H113578   4.336   2.103  14.513  0.2486 -0.8287 -1.4179
  924MPD2    H213579   4.523   2.136  14.138  0.1923 -1.1088 -0.4422
  924MPD2    H313580   4.422   2.002  14.310 -1.2498 -0.8858 -0.1184
  924MPD2     N13581   4.322   2.354  14.570  0.1348 -0.1405 -0.0184
  924MPD2    H513582   4.290   2.283  14.635 -2.1607  0.1347 -0.8308
  924MPD2    N113583   4.554   2.389  14.144  0.0894  0.2195 -0.3939
  924MPD2    H713584   4.574   2.336  14.060  0.4945 -1.1720  0.5749
  925MPD2     C13585   4.287   3.527  14.749 -0.0946  0.5916 -0.0205
  925MPD2    C113586   4.170   3.570  14.705  0.0299  0.5656 -0.0281
  925MPD2    C213587   4.073   3.613  14.799 -0.0705  0.5523 -0.1115
  925MPD2    C313588   4.086   3.595  14.933  0.2483  0.1201 -0.2584
  925MPD2    C413589   4.208   3.547  14.976 -0.2514  0.3434 -0.0241
  925MPD2    C513590   4.305   3.511  14.886 -0.2890  0.6632 -0.1613
  925MPD2     H13591   3.976   3.645  14.761 -0.7484 -1.9436 -0.4577
  925MPD2    H113592   4.222   3.528  15.082 -1.0654  0.2350  0.0694
  925MPD2    H213593   4.361   3.482  14.685 -0.5110 -0.9006  0.5460
  925MPD2    H313594   4.396   3.467  14.925 -0.0791  1.4263  0.2125
  925MPD2     N13595   3.991   3.634  15.033 -0.9759 -0.1662  0.0371
  925MPD2    H513596   4.017   3.614  15.129  1.0086 -0.5957 -0.6100
  925MPD2    N113597   4.139   3.573  14.569  0.3469 -0.0637 -0.2154
  925MPD2    H713598   4.043   3.594  14.541  0.0687 -1.2175 -0.0938
  926MPD2     C13599   3.267   1.962  13.794 -0.1857  0.3438 -0.0474
  926MPD2    C113600   3.175   2.063  13.776 -0.3400  0.5828 -0.7086
  926MPD2    C213601   3.200   2.163  13.683  0.0406 -0.5994  0.0662
  926MPD2    C313602   3.327   2.177  13.627  0.8994 -0.6838  1.2910
  926MPD2    C413603   3.413   2.079  13.647  0.0506  0.3939 -0.2448
  926MPD2    C513604   3.384   1.969  13.720  0.3134  0.2699 -0.1699
  926MPD2     H13605   3.112   2.226  13.671  1.8250  1.7662 -0.5386
  926MPD2    H113606   3.500   2.076  13.582 -0.7133  1.4082 -1.3084
  926MPD2    H213607   3.256   1.875  13.857 -0.9128 -1.5873 -2.8121
  926MPD2    H313608   3.444   1.878  13.722  1.0451  0.7719  0.6205
  926MPD2     N13609   3.360   2.289  13.543 -0.1017 -0.3440 -0.1024
  926MPD2    H513610   3.454   2.287  13.505  0.4209 -0.7209  1.1986
  926MPD2    N113611   3.053   2.069  13.850  1.0131 -0.2052 -0.6239
  926MPD2    H713612   2.997   2.148  13.818 -2.5097 -2.1148  0.8374
  927MPD2     C13613   2.107   4.329  17.219 -0.5884  0.2346  0.1835
  927MPD2    C113614   2.211   4.295  17.297 -0.0635 -0.4343 -0.4368
  927MPD2    C213615   2.327   4.250  17.236  0.4414 -0.3429  0.1212
  927MPD2    C313616   2.341   4.254  17.100  0.0360  0.6139  0.6757
  927MPD2    C413617   2.231   4.288  17.021  0.2184 -0.2259  0.5438
  927MPD2    C513618   2.115   4.330  17.077 -0.5132 -0.2820 -0.0959
  927MPD2     H13619   2.414   4.221  17.294 -0.5015 -0.3749  1.5359
  927MPD2    H113620   2.238   4.293  16.913  0.2018 -1.8191  0.4832
  927MPD2    H213621   2.009   4.355  17.257 -0.8059 -0.6633  0.2132
  927MPD2    H313622   2.031   4.366  17.018 -0.6049 -0.0869  0.1528
  927MPD2     N13623   2.468   4.219  17.045 -0.0538  0.4940  0.1399
  927MPD2    H513624   2.463   4.222  16.943 -4.0737  1.2703  0.3746
  927MPD2    N113625   2.195   4.305  17.439 -0.2623  0.1889  0.1215
  927MPD2    H713626   2.103   4.312  17.482  0.2617  2.2430  0.8653
  928MPD2     C13627   0.360   2.244   0.778 -0.0011  0.3754  0.8700
  928MPD2    C113628   0.343   2.373   0.736 -0.0687  0.7257  0.0712
  928MPD2    C213629   0.415   2.414   0.625 -0.2829 -0.7794 -0.7854
  928MPD2    C313630   0.506   2.337   0.560 -0.2171  0.6857  0.1701
  928MPD2    C413631   0.526   2.207   0.610  0.0487 -0.2982 -0.3876
  928MPD2    C513632   0.443   2.166   0.711  0.1963  1.1645  0.1858
  928MPD2     H13633   0.395   2.512   0.585 -3.0498 -0.6514  0.9252
  928MPD2    H113634   0.599   2.139   0.569  1.2631  0.9537 -0.3116
  928MPD2    H213635   0.300   2.194   0.853  1.0855 -0.8165  0.9378
  928MPD2    H313636   0.462   2.064   0.741  1.4999  1.8221  1.6445
  928MPD2     N13637   0.570   2.389   0.445  0.1875  0.0796 -0.0045
  928MPD2    H513638   0.622   2.322   0.388 -0.4823  2.0730 -2.9737
  928MPD2    N113639   0.245   2.449   0.807 -0.1131  0.0987 -0.5602
  928MPD2    H713640   0.225   2.418   0.902 -2.9531 -1.5863 -1.6925
  929MPD2     C13641   0.626   3.028  10.304  0.8114 -0.4243 -0.3107
  929MPD2    C113642   0.506   3.099  10.302 -0.0170 -0.6096 -0.0430
  929MPD2    C213643   0.480   3.179  10.190  0.0736 -0.6338 -0.0063
  929MPD2    C313644   0.579   3.207  10.099 -0.7421 -0.0520 -0.0979
  929MPD2    C413645   0.703   3.145  10.109  0.2620  0.3190 -0.5713
  929MPD2    C513646   0.718   3.052  10.207 -0.3928  0.2259 -0.1977
  929MPD2     H13647   0.391   3.240  10.200  1.0712  0.4106  2.3629
  929MPD2    H113648   0.781   3.176  10.041  1.5356 -0.7471  0.3933
  929MPD2    H213649   0.653   2.962  10.386  1.2831  3.1647  2.4713
  929MPD2    H313650   0.816   3.006  10.219  0.9170  3.1727  0.3498
  929MPD2     N13651   0.553   3.285   9.987 -0.1371 -0.1827 -0.5408
  929MPD2    H513652   0.633   3.310   9.929 -0.7978  0.5043 -1.1680
  929MPD2    N113653   0.419   3.070  10.408  0.0875 -0.2892 -0.1958
  929MPD2    H713654   0.442   3.003  10.481 -0.3010 -0.5204 -0.2795
  930MPD2     C13655   2.188   4.705  14.394  0.5926  1.2987  0.3301
  930MPD2    C113656   2.305   0.001  14.317 -0.2509  0.6980 -0.3895
  930MPD2    C213657   2.329   4.657  14.205 -0.3661 -0.6937  0.5939
  930MPD2    C313658   2.233   4.568  14.168 -0.0437 -0.2611  0.4510
  930MPD2    C413659   2.115   4.561  14.231 -0.2079 -0.7325  0.7603
  930MPD2    C513660   2.085   4.626  14.345  0.4051  0.6085 -0.1123
  930MPD2     H13661   2.422   4.669  14.151 -0.2913 -0.7830  0.7023
  930MPD2    H113662   2.040   4.486  14.209 -1.7278  0.4925  1.7800
  930MPD2    H213663   2.170   0.028  14.486  0.2097  0.7512  0.5816
  930MPD2    H313664   1.990   4.620  14.396  0.7978  0.7742  0.6285
  930MPD2     N13665   2.244   4.485  14.055 -0.0773  0.0500  0.4254
  930MPD2    H513666   2.166   4.425  14.031 -1.9140  3.0904 -1.2699
  930MPD2    N113667   2.395   0.105  14.351 -0.3047  0.0494 -0.9478
  930MPD2    H713668   2.485   0.101  14.304 -0.4355 -1.8207 -1.0517
  931MPD2     C13669   2.614   4.051   0.348  0.4292  0.4570  0.2443
  931MPD2    C113670   2.484   4.083   0.380  0.2373 -0.5298 -0.4136
  931MPD2    C213671   2.434   4.030   0.500  0.3145 -1.1212 -0.0527
  931MPD2    C313672   2.519   3.969   0.592  0.3979  0.6290  0.2628
  931MPD2    C413673   2.638   3.929   0.551 -0.0934  0.0569  0.0438
  931MPD2    C513674   2.684   3.968   0.431  0.3847  0.3008  0.0956
  931MPD2     H13675   2.335   4.055   0.536  0.4359 -0.2680 -0.3074
  931MPD2    H113676   2.703   3.882   0.624 -0.2932  1.6820  1.2725
  931MPD2    H213677   2.661   4.066   0.251  0.6539 -3.4682 -0.2335
  931MPD2    H313678   2.781   3.936   0.395  1.4864  3.1379  0.4832
  931MPD2     N13679   2.480   3.922   0.718  0.0347  0.1075  0.1607
  931MPD2    H513680   2.531   3.845   0.759 -0.2969 -0.3675 -0.3181
  931MPD2    N113681   2.410   4.157   0.289  0.4888 -0.0145 -0.2639
  931MPD2    H713682   2.473   4.185   0.214  0.8192  0.4138  0.1702
  932MPD2     C13683   4.352   3.722  11.074  0.4009  0.8113  0.6988
  932MPD2    C113684   4.422   3.775  11.179  0.4563  0.0572 -0.1586
  932MPD2    C213685   4.470   3.692  11.278 -0.1346  0.0740  0.4114
  932MPD2    C313686   4.445   3.556  11.269  0.0666  0.3479  0.3830
  932MPD2    C413687   4.374   3.502  11.168  0.4386 -0.7388  0.0573
  932MPD2    C513688   4.325   3.586  11.074  0.2492 -0.0445  0.4412
  932MPD2     H13689   4.528   3.736  11.358  0.2568 -0.7103  0.5630
  932MPD2    H113690   4.355   3.397  11.152 -0.8096 -0.6848  1.2497
  932MPD2    H213691   4.293   3.784  11.007  0.0236  0.6210  0.8517
  932MPD2    H313692   4.260   3.542  11.000 -2.9164  0.8537  2.6513
  932MPD2     N13693   4.502   3.461  11.361  0.3621  0.1222  0.3555
  932MPD2    H513694   4.475   3.365  11.342 -0.0991  0.8100 -2.4189
  932MPD2    N113695   4.448   3.910  11.189  0.7110 -0.9143 -0.4229
  932MPD2    H713696   4.500   3.935  11.273 -0.8711  1.0385 -0.0349
  933MPD2     C13697   4.406   2.865   0.456  0.3890  0.0467 -0.3672
  933MPD2    C113698   4.491   2.929   0.541 -0.3734 -0.7174  0.5814
  933MPD2    C213699   4.516   3.060   0.516  0.0949  0.9173 -0.0704
  933MPD2    C313700   4.457   3.124   0.406  0.5811  0.2800  0.1320
  933MPD2    C413701   4.376   3.059   0.318 -0.3758 -0.2348  0.4051
  933MPD2    C513702   4.364   2.930   0.344 -0.3187  0.4384 -0.1144
  933MPD2     H13703   4.588   3.120   0.571 -1.1723  1.2010  1.2394
  933MPD2    H113704   4.326   3.102   0.232  1.1407  0.4455 -0.1419
  933MPD2    H213705   4.372   2.763   0.467 -1.1053  0.5142 -0.5775
  933MPD2    H313706   4.299   2.870   0.282 -0.6796 -1.9210  2.5714
  933MPD2     N13707   4.518   3.247   0.384  0.5551  0.0551 -0.4739
  933MPD2    H513708   4.587   3.274   0.453 -0.9047 -1.1897  1.4438
  933MPD2    N113709   4.550   2.862   0.652 -0.1037 -0.0841 -0.4684
  933MPD2    H713710   4.533   2.762   0.656 -0.9267  0.0512 -0.5643
  934MPD2     C13711   2.060   1.042   1.436  0.0016  0.0627 -0.5168
  934MPD2    C113712   2.083   0.910   1.417 -0.7796 -0.2177 -0.5967
  934MPD2    C213713   1.978   0.825   1.409  0.5673  0.0909  0.3968
  934MPD2    C313714   1.849   0.870   1.417  0.2361 -0.1281 -0.2542
  934MPD2    C413715   1.828   1.004   1.424  0.7844 -0.2265 -0.2987
  934MPD2    C513716   1.933   1.087   1.447 -0.6016  0.0161  0.2318
  934MPD2     H13717   1.991   0.720   1.385  1.4938  0.5631 -1.1355
  934MPD2    H113718   1.728   1.046   1.423 -0.2409 -2.6645 -2.1053
  934MPD2    H213719   2.144   1.110   1.438 -0.0536  0.0992  1.2967
  934MPD2    H313720   1.920   1.193   1.465 -0.2577  0.0686  0.1675
  934MPD2     N13721   1.737   0.787   1.394  0.3203  0.2460 -0.8326
  934MPD2    H513722   1.648   0.835   1.406  0.2659  0.7992 -3.3678
  934MPD2    N113723   2.211   0.846   1.418 -0.2163  0.2192  0.4454
  934MPD2    H713724   2.201   0.746   1.433 -3.6609  0.3736 -0.9570
  935MPD2     C13725   1.739   4.569   1.360  1.1357  0.0534 -0.9271
  935MPD2    C113726   1.663   4.610   1.252  0.5935  0.1589  0.1792
  935MPD2    C213727   1.595   4.726   1.264  0.5907  0.2965  0.6192
  935MPD2    C313728   1.610   0.075   1.378  0.4602  0.5386  0.1796
  935MPD2    C413729   1.687   0.031   1.481 -0.5010  0.5191 -0.1818
  935MPD2    C513730   1.745   4.640   1.482 -0.8072  0.1630 -0.2944
  935MPD2     H13731   1.522   0.024   1.189  0.4984 -2.0310 -0.2216
  935MPD2    H113732   1.702   0.090   1.571 -0.2022  2.6247 -1.6242
  935MPD2    H213733   1.803   4.482   1.343  1.3299  0.3301 -1.6094
  935MPD2    H313734   1.815   4.613   1.561 -1.6125  3.0425  1.3907
  935MPD2     N13735   1.550   0.203   1.386  0.4231  0.7245 -0.2256
  935MPD2    H513736   1.561   0.259   1.470  1.4227  1.6787 -0.9932
  935MPD2    N113737   1.640   4.528   1.133  0.2976 -0.2099  0.1907
  935MPD2    H713738   1.555   4.538   1.080 -1.7255 -4.5445  2.6341
  936MPD2     C13739   4.307   1.889  12.124  0.0389 -0.1391 -0.3902
  936MPD2    C113740   4.391   1.848  12.225  0.2421 -0.1205 -0.2329
  936MPD2    C213741   4.522   1.885  12.218 -0.1558 -0.9762  0.5944
  936MPD2    C313742   4.580   1.949  12.113 -0.3863 -1.0785  0.5872
  936MPD2    C413743   4.493   1.989  12.009  0.3688 -0.3062  0.1541
  936MPD2    C513744   4.359   1.958  12.018 -0.9297  0.1478 -0.3837
  936MPD2     H13745   4.574   1.849  12.306  2.8452  1.4884 -0.1686
  936MPD2    H113746   4.531   2.030  11.916 -0.6888 -0.3235 -0.2835
  936MPD2    H213747   4.201   1.867  12.118 -0.1254  0.0632  1.6575
  936MPD2    H313748   4.299   1.991  11.934 -0.4200  2.4095  0.1419
  936MPD2     N13749   4.715   1.973  12.104  0.6066 -0.1958 -0.2979
  936MPD2    H513750   0.009   2.030  12.025  1.0939 -1.0871 -0.7804
  936MPD2    N113751   4.350   1.765  12.336 -0.8605  0.1673  0.5991
  936MPD2    H713752   4.425   1.709  12.376 -0.0224  0.4235 -0.5966
  937MPD2     C13753   2.641   3.205  11.496 -0.4272  0.3415  0.0699
  937MPD2    C113754   2.604   3.332  11.525 -0.2720  0.5457  0.2484
  937MPD2    C213755   2.677   3.437  11.473  0.2310 -0.2646  0.8175
  937MPD2    C313756   2.744   3.419  11.350  0.6140  0.3610 -0.4234
  937MPD2    C413757   2.748   3.289  11.299 -1.0166 -0.3553 -0.5175
  937MPD2    C513758   2.708   3.182  11.376 -0.5440 -0.1552  0.0542
  937MPD2     H13759   2.662   3.536  11.514 -0.3852 -0.4247  0.9807
  937MPD2    H113760   2.800   3.274  11.206  1.0920 -0.4472  0.6712
  937MPD2    H213761   2.614   3.125  11.563  2.3259  0.1551  0.9819
  937MPD2    H313762   2.718   3.082  11.334 -0.3767 -0.3391  0.5254
  937MPD2     N13763   2.806   3.532  11.284 -0.2442  0.4974  0.2518
  937MPD2    H513764   2.813   3.616  11.341  2.0603  1.5684 -1.5731
  937MPD2    N113765   2.541   3.365  11.651 -0.3265  0.4997 -0.0501
  937MPD2    H713766   2.547   3.463  11.678 -1.3010  0.5854 -0.1559
  938MPD2     C13767   0.585   4.419   0.566 -1.0917  0.3543  0.0067
  938MPD2    C113768   0.519   4.484   0.668  1.4164 -0.9668  0.7118
  938MPD2    C213769   0.453   4.413   0.766 -0.0605 -0.5717  0.5421
  938MPD2    C313770   0.460   4.279   0.765 -0.2182  0.1327  0.2288
  938MPD2    C413771   0.532   4.212   0.669 -0.5658  0.5143 -0.4500
  938MPD2    C513772   0.596   4.282   0.575  0.5038  0.1379 -0.1365
  938MPD2     H13773   0.391   4.467   0.837  0.6665  0.0542  0.7046
  938MPD2    H113774   0.554   4.106   0.680  2.5659  1.1311 -0.8570
  938MPD2    H213775   0.629   4.468   0.480  0.8076  1.0075  1.3645
  938MPD2    H313776   0.649   4.234   0.494 -1.0673 -0.7425 -0.6501
  938MPD2     N13777   0.392   4.200   0.862  0.2355 -0.2078 -0.1700
  938MPD2    H513778   0.404   4.101   0.843 -0.7423 -0.5769  1.2007
  938MPD2    N113779   0.495   4.628   0.666  0.2651 -0.5492  0.6320
  938MPD2    H713780   0.431   4.666   0.735 -0.5751 -1.8277  0.5496
  939MPD2     C13781   1.291   0.735   0.569 -0.1608 -0.2064 -0.2799
  939MPD2    C113782   1.408   0.805   0.594 -0.8043  0.1900  0.2405
  939MPD2    C213783   1.527   0.762   0.537  0.4348  0.2866  0.2332
  939MPD2    C313784   1.531   0.644   0.471 -0.3225 -0.0717 -0.1982
  939MPD2    C413785   1.410   0.581   0.440  0.1310 -0.1868  0.1538
  939MPD2    C513786   1.295   0.628   0.487 -0.3180 -0.1563  0.5167
  939MPD2     H13787   1.620   0.814   0.561  1.2155 -0.4217 -1.2874
  939MPD2    H113788   1.401   0.510   0.359 -0.1643 -0.6627  0.5990
  939MPD2    H213789   1.195   0.782   0.584 -1.4295 -2.2889 -1.7981
  939MPD2    H313790   1.201   0.585   0.456 -0.8459  0.3198  1.4699
  939MPD2     N13791   1.653   0.593   0.419  0.3092 -0.1379 -0.1114
  939MPD2    H513792   1.739   0.646   0.423  0.3797 -0.2625  0.0411
  939MPD2    N113793   1.385   0.920   0.670 -0.1628 -0.1172  0.3596
  939MPD2    H713794   1.289   0.949   0.687 -0.1780  0.4072 -0.6138
  940MPD2     C13795   0.610   1.343  13.473  0.1957  0.2389 -0.6670
  940MPD2    C113796   0.499   1.299  13.403  0.0119 -0.0412 -0.3145
  940MPD2    C213797   0.496   1.325  13.263  0.4596  0.3549  0.4262
  940MPD2    C313798   0.599   1.401  13.202  0.1936 -0.0457  0.2573
  940MPD2    C413799   0.700   1.454  13.273 -0.1122 -0.0731 -0.5538
  940MPD2    C513800   0.702   1.421  13.406  0.2056  0.1718  0.1152
  940MPD2     H13801   0.417   1.287  13.198  0.4318  3.0028 -1.0841
  940MPD2    H113802   0.790   1.499  13.233 -0.1466  0.5463  0.0805
  940MPD2    H213803   0.635   1.314  13.574  2.2123 -0.0202 -1.2254
  940MPD2    H313804   0.793   1.456  13.453  1.1298 -0.6769 -1.0292
  940MPD2     N13805   0.611   1.425  13.065 -0.3405 -0.0392 -0.2994
  940MPD2    H513806   0.702   1.460  13.039 -1.0011  0.8363 -1.4511
  940MPD2    N113807   0.401   1.213  13.459 -0.2503 -0.4804 -0.3133
  940MPD2    H713808   0.349   1.157  13.392 -3.8145 -0.0859  2.1156
  941MPD2     C13809   0.031   1.426   9.573  0.2127  0.6822 -0.7595
  941MPD2    C113810   0.055   1.425   9.709 -0.3856 -0.0187  0.1458
  941MPD2    C213811   4.731   1.322   9.787 -0.9095 -0.4708 -0.1600
  941MPD2    C313812   4.651   1.230   9.726  0.3676  0.3291 -0.5616
  941MPD2    C413813   4.639   1.219   9.588 -0.1507  0.9699  0.3538
  941MPD2    C513814   4.699   1.321   9.515  0.0066 -0.2733 -0.0923
  941MPD2     H13815   0.033   1.328   9.890  1.0128 -3.1032 -0.6397
  941MPD2    H113816   4.573   1.145   9.545  1.0422  0.2196 -0.2006
  941MPD2    H213817   0.062   1.499   9.499  1.2610  1.3883  0.3833
  941MPD2    H313818   4.677   1.341   9.411  3.0279 -1.1816 -0.9173
  941MPD2     N13819   4.593   1.121   9.797 -0.2032  0.3798  0.2434
  941MPD2    H513820   4.538   1.056   9.742  0.6275  1.3948 -1.7701
  941MPD2    N113821   0.119   1.534   9.772 -0.3451  0.1230  0.1089
  941MPD2    H713822   0.126   1.526   9.873  2.0667 -0.7974 -0.1295
  942MPD2     C13823   3.587   3.652   9.434 -0.9770 -0.4226 -0.4787
  942MPD2    C113824   3.531   3.568   9.530  0.1296  0.4154 -0.0732
  942MPD2    C213825   3.619   3.513   9.619 -0.5727 -0.6656 -0.6963
  942MPD2    C313826   3.753   3.560   9.619 -0.4975  0.0936 -0.2221
  942MPD2    C413827   3.809   3.646   9.535  0.0105 -0.3861  0.0141
  942MPD2    C513828   3.717   3.687   9.436  0.4766 -0.0040  0.0866
  942MPD2     H13829   3.576   3.446   9.693 -0.1969 -1.8851 -1.5888
  942MPD2    H113830   3.906   3.694   9.536 -0.1936  0.1165 -3.7347
  942MPD2    H213831   3.535   3.687   9.345 -2.0362 -1.4074 -0.2491
  942MPD2    H313832   3.744   3.752   9.354  0.2005  0.4468  0.3523
  942MPD2     N13833   3.849   3.492   9.705 -0.3101  0.0816  0.2786
  942MPD2    H513834   3.946   3.522   9.699 -0.6469  1.1341 -0.0452
  942MPD2    N113835   3.394   3.529   9.535  0.2327 -0.2880  0.1907
  942MPD2    H713836   3.370   3.470   9.614 -3.1451  0.4701 -0.2650
  943MPD2     C13837   3.575   0.203   9.814 -0.3419  1.0125  0.3566
  943MPD2    C113838   3.434   0.190   9.828 -0.3498  0.0748  0.1784
  943MPD2    C213839   3.376   0.247   9.940  0.1328 -0.7461 -0.3597
  943MPD2    C313840   3.452   0.298  10.047 -0.7071 -0.3902  0.1580
  943MPD2    C413841   3.586   0.309  10.033 -0.1150 -0.8876  0.4317
  943MPD2    C513842   3.639   0.265   9.914  0.3898 -0.4088  0.2683
  943MPD2     H13843   3.269   0.235   9.955 -0.2320  0.3068 -2.0978
  943MPD2    H113844   3.653   0.356  10.104  0.7104 -0.4723 -0.6190
  943MPD2    H213845   3.626   0.171   9.724 -1.3506 -2.8326  1.1873
  943MPD2    H313846   3.745   0.282   9.902  0.3181  0.0342  0.2608
  943MPD2     N13847   3.392   0.333  10.172  0.0386  0.1921 -0.3116
  943MPD2    H513848   3.450   0.384  10.238 -0.1557  2.3782 -1.8291
  943MPD2    N113849   3.362   0.127   9.716 -0.0491 -0.4584 -0.4055
  943MPD2    H713850   3.410   0.078   9.641 -1.7903 -0.3805 -1.5885
  944MPD2     C13851   2.338   4.095  11.091 -0.1387 -0.0419  0.0243
  944MPD2    C113852   2.411   4.192  11.028 -0.3901  0.2633  0.4397
  944MPD2    C213853   2.439   4.313  11.085 -0.6566 -0.5756  0.3355
  944MPD2    C313854   2.397   4.338  11.217  0.1814 -0.0962 -0.4995
  944MPD2    C413855   2.341   4.239  11.293 -0.0656 -0.0846 -1.0150
  944MPD2    C513856   2.310   4.120  11.228  0.6667  0.6071  0.4397
  944MPD2     H13857   2.490   4.391  11.030 -1.6645  0.9677  1.6163
  944MPD2    H113858   2.312   4.236  11.397  1.7787 -1.5017 -0.5546
  944MPD2    H213859   2.306   3.998  11.053  1.9322 -1.0269  0.8072
  944MPD2    H313860   2.254   4.055  11.294 -0.5753 -0.8307 -1.9970
  944MPD2     N13861   2.427   4.459  11.269  0.1673 -1.0114 -0.1120
  944MPD2    H513862   2.454   4.533  11.204  1.7348 -0.4154  1.2367
  944MPD2    N113863   2.452   4.159  10.896  0.2913 -0.0622 -0.2637
  944MPD2    H713864   2.427   4.065  10.867  1.4543 -0.7244  0.8404
    1TMC1    C113865   1.546   0.844  15.285  0.2447  0.1269  0.0549
    1TMC1    C213866   1.568   0.828  15.419 -0.2803  0.4447 -0.5734
    1TMC1    C313867   1.514   0.708  15.471  0.2288  0.0761  0.4073
    1TMC1    C413868   1.495   0.746  15.203  0.8233 -0.3359 -0.1956
    1TMC1    C513869   1.445   0.630  15.258 -0.7999 -0.3570  0.1613
    1TMC1    C613870   1.463   0.608  15.395 -1.0070  0.3347  0.1905
    1TMC1     C13871   1.597   0.969  15.229  1.0271 -0.4686 -0.7652
    1TMC1     O13872   1.653   1.052  15.302  0.2809 -0.0632  0.4758
    1TMC1     H13873   1.612   0.906  15.480 -2.2595  2.1689 -1.3607
    1TMC1    H113874   1.474   0.752  15.096  1.8156  0.2343 -0.3573
    1TMC1    H213875   1.428   0.515  15.440  1.3197 -0.4208  0.4565
    1TMC1    C713876   1.407   0.526  15.169 -0.3433  0.4202 -0.3653
    1TMC1    C813877   1.547   0.667  15.606  0.2722  0.2214  0.5288
    1TMC1    O113878   1.387   0.540  15.052 -0.0249 -0.4918 -0.2323
    1TMC1    O213879   1.499   0.567  15.660  0.3296 -0.0189 -0.4374
    1TMC1    O313880   1.448   0.406  15.225  0.2716  0.2826 -0.4554
    1TMC1    H313881   1.471   0.415  15.319 -1.0418  0.6323 -0.1591
    1TMC1    O513882   1.599   0.779  15.669 -0.0961  0.4489 -0.4194
    1TMC1    H513883   1.651   0.849  15.622  1.1630  0.0514  0.3645
    2MPD2     C13884   1.614   1.308  14.837 -0.4854 -0.1585 -0.1104
    2MPD2    C113885   1.528   1.205  14.803  0.0590  0.1078  0.1767
    2MPD2    C213886   1.519   1.094  14.886  0.0073  0.3494  0.3136
    2MPD2    C313887   1.582   1.089  15.011  0.0199  0.2387  1.2763
    2MPD2    C413888   1.668   1.195  15.042  0.1109 -0.0611  0.1580
    2MPD2    C513889   1.679   1.301  14.959 -0.0981 -0.4357  0.3997
    2MPD2     H13890   1.455   1.011  14.857 -0.0304  0.8076 -0.9056
    2MPD2    H113891   1.726   1.190  15.133 -0.0383 -1.0129  0.2005
    2MPD2    H213892   1.618   1.392  14.768 -0.6276 -0.6163 -0.6843
    2MPD2    H313893   1.744   1.384  14.982  2.1888 -2.4271  1.0705
    2MPD2     N13894   1.554   0.979  15.099 -0.4197  0.0934 -0.1478
    2MPD2    H513895   1.492   0.908  15.063  2.0104 -1.1312 -1.8809
    2MPD2    N113896   1.457   1.215  14.678 -0.4019 -0.4957  0.0667
    2MPD2    H713897   1.451   1.304  14.630  1.9597 -0.3986 -0.0807
    3TMC2    C113898   1.348   1.153  14.480  1.2375  0.0352  0.6605
    3TMC2    C213899   1.302   1.060  14.388 -0.2507 -0.3651 -0.5884
    3TMC2    C313900   1.296   1.096  14.256  0.1045  0.3917  0.2613
    3TMC2    C413901   1.342   1.285  14.452 -0.2936 -0.0021  1.0525
    3TMC2    C513902   1.325   1.322  14.323 -0.8564 -0.7696  0.2796
    3TMC2    C613903   1.301   1.231  14.221  0.3455 -0.2605 -0.4827
    3TMC2     C13904   1.405   1.107  14.606 -1.0458 -0.9037  0.6602
    3TMC2     O13905   1.414   0.986  14.633  0.2596 -0.1430  0.1066
    3TMC2     H13906   1.295   0.957  14.419 -0.6645 -0.4789 -1.0547
    3TMC2    H113907   1.362   1.366  14.521  0.5798  1.1480 -0.5575
    3TMC2    H213908   1.310   1.251  14.115  1.3094  3.4191  0.2898
    3TMC2    C713909   1.328   1.471  14.300  0.2646 -0.5259 -0.1736
    3TMC2    C813910   1.228   1.004  14.166  0.4277  0.7310  0.9391
    3TMC2    O113911   1.329   1.550  14.400  0.0224  0.6591  0.4038
    3TMC2    O213912   1.190   1.038  14.053 -0.0695  0.1407  0.4272
    3TMC2    O513913   1.278   0.882  14.186  0.3750  0.4904 -0.3171
    3TMC2    H513914   1.359   0.896  14.240  0.5851 -3.3063  0.3162
    4TMC2    C113915   1.037   1.881  13.410  0.4709 -1.2092  0.6998
    4TMC2    C213916   1.057   2.016  13.402  0.8280  0.6220  0.3670
    4TMC2    C313917   1.144   2.068  13.496  0.1301 -0.1176  0.0711
    4TMC2    C413918   1.101   1.804  13.506 -0.4756 -0.1128  0.3425
    4TMC2    C513919   1.189   1.862  13.597 -0.2594 -0.1537  0.0529
    4TMC2    C613920   1.202   1.998  13.602 -0.2549 -0.3372 -0.2047
    4TMC2     C13921   0.923   1.808  13.350 -0.4788 -0.1490  0.0027
    4TMC2     O13922   0.876   1.712  13.408 -0.4643 -0.0991  0.2354
    4TMC2     H13923   0.984   2.081  13.354  0.8668  1.3004  1.2383
    4TMC2    H113924   1.077   1.698  13.506  2.4409 -0.7115 -4.1884
    4TMC2    H213925   1.276   2.054  13.659 -1.6431  1.5046 -0.2079
    4TMC2    C713926   1.211   1.773  13.713 -0.0451  0.0324 -0.0231
    4TMC2    C813927   1.170   2.209  13.485 -0.1788 -0.2932 -0.7345
    4TMC2    O113928   1.160   1.660  13.720 -0.6177  0.2423 -0.7472
    4TMC2    O213929   1.217   2.275  13.580  0.4381 -0.0955  0.5012
    4TMC2    O513930   1.195   2.228  13.353 -0.0832  0.6183  0.6744
    4TMC2    H513931   1.160   2.163  13.288 -1.3371  1.2732  0.6924
    5MPD2     C13932   0.520   1.824  13.025  0.2407 -0.5455  0.2787
    5MPD2    C113933   0.625   1.901  12.969  0.2880  0.1139  0.6797
    5MPD2    C213934   0.750   1.911  13.037  0.1457 -0.3033  0.3385
    5MPD2    C313935   0.770   1.854  13.164  0.4380  0.9801 -0.3442
    5MPD2    C413936   0.668   1.775  13.207  0.0585  0.5253 -1.0657
    5MPD2    C513937   0.545   1.760  13.145  0.2077 -0.1531  0.4103
    5MPD2     H13938   0.834   1.957  12.988 -0.5613  1.1551  0.4928
    5MPD2    H113939   0.679   1.715  13.297 -0.2348 -0.0843 -1.4326
    5MPD2    H213940   0.421   1.814  12.981  0.7691 -2.3074 -0.4819
    5MPD2    H313941   0.475   1.689  13.189 -1.5249  1.7844  0.7987
    5MPD2     N13942   0.889   1.873  13.233 -0.4788  0.1059 -0.3521
    5MPD2    H513943   0.960   1.932  13.192  0.9940 -2.1029 -0.9662
    5MPD2    N113944   0.594   1.957  12.849 -0.1813  0.5424  0.4756
    5MPD2    H713945   0.496   1.946  12.825 -0.5564  1.7282  1.4686
    6MPD1     C13946   0.094   3.560  13.529 -1.1718  0.4596 -0.4437
    6MPD1    C113947   0.072   3.556  13.394  0.4074 -0.4511 -0.0272
    6MPD1    C213948   0.129   3.460  13.317  0.2931 -0.6217 -0.5087
    6MPD1    C313949   0.205   3.367  13.380  0.5650 -0.1280 -0.1359
    6MPD1    C413950   0.225   3.370  13.511  0.0915  0.0313 -1.0709
    6MPD1    C513951   0.174   3.469  13.591 -0.5914  0.4280 -0.0939
    6MPD1     H13952   0.123   3.452  13.209  2.1599  1.1316 -0.7401
    6MPD1    H113953   0.290   3.298  13.558  0.4754  1.4434  0.5763
    6MPD1    H213954   0.059   3.647  13.582  0.0569 -0.1372  1.3592
    6MPD1    H313955   0.197   3.476  13.697 -1.2941 -1.4373  0.1798
    6MPD1     N13956   0.275   3.259  13.315  0.5467  0.2592  1.1400
    6MPD1    H513957   0.289   3.175  13.371 -1.0688  0.0479  1.2091
    6MPD1    N113958   4.711   3.653  13.341  0.1539  0.1343 -0.1103
    6MPD1    H613959   4.722   3.740  13.393  1.5546  2.1308 -3.8001
    6MPD1    H713960   4.723   3.668  13.241 -0.0610 -0.7134 -0.2705
    7MPD2     C13961   0.327   2.464  13.195 -0.5861  0.6189 -0.9924
    7MPD2    C113962   0.325   2.538  13.073 -0.0657 -0.5750  0.0488
    7MPD2    C213963   0.331   2.473  12.951  0.2087 -1.2760 -0.5553
    7MPD2    C313964   0.335   2.336  12.948  0.2140 -0.1612 -0.1816
    7MPD2    C413965   0.330   2.265  13.067 -0.5732  0.2085 -0.4363
    7MPD2    C513966   0.322   2.331  13.189  0.0880 -1.0554  0.2640
    7MPD2     H13967   0.336   2.524  12.856 -1.3850 -0.4431 -0.2013
    7MPD2    H113968   0.339   2.157  13.078  1.7902  0.6110  1.5672
    7MPD2    H213969   0.310   2.511  13.291  3.2276  2.0634 -1.0261
    7MPD2    H313970   0.320   2.266  13.275  0.2649  2.1247  2.6679
    7MPD2     N13971   0.350   2.260  12.832 -0.0445  0.8945  0.0623
    7MPD2    H513972   0.350   2.159  12.842 -2.3938  0.9650  0.7971
    7MPD2    N113973   0.315   2.678  13.065  0.3552 -0.1149 -0.0064
    7MPD2    H713974   0.311   2.719  12.972 -0.1485 -0.8046 -0.2899
    8TMC3    C113975   0.407   2.221  12.599 -0.1268 -0.4306 -0.6648
    8TMC3    C213976   0.456   2.105  12.657 -0.6602 -0.1203  0.3455
    8TMC3    C313977   0.594   2.087  12.641  0.1870  0.2520 -0.3302
    8TMC3    C413978   0.478   2.303  12.519  0.1059  0.0105  0.8408
    8TMC3    C513979   0.608   2.279  12.504  0.2931  0.1461 -0.1046
    8TMC3    C613980   0.670   2.169  12.562 -0.7139 -1.0167  0.3829
    8TMC3     C13981   0.352   2.308  12.702  0.0958 -0.4423  0.6264
    8TMC3     O13982   0.358   2.425  12.668 -0.0440 -0.1078 -0.1716
    8TMC3     H13983   0.390   2.038  12.711  0.0925 -0.1979  1.1770
    8TMC3    H113984   0.431   2.383  12.463  0.3792  0.3927  1.1564
    8TMC3    H213985   0.778   2.159  12.554 -0.5626  1.3034 -0.4536
    8TMC3    C713986   0.692   2.396  12.478  1.1264 -0.1469  1.3204
    8TMC3    C813987   0.674   2.030  12.758 -0.1901  0.3535 -0.7651
    8TMC3    O113988   0.804   2.396  12.434 -0.5692 -0.5405 -0.0637
    8TMC3    O213989   0.790   2.058  12.761 -0.8830 -0.2532  0.6747
    9TMC3    C113990   0.356   3.130  13.134  0.2099 -0.3221  1.0047
    9TMC3    C213991   0.432   3.133  13.019  0.3908 -0.0744 -0.2474
    9TMC3    C313992   0.479   3.013  12.969  0.0901 -0.1468  0.5295
    9TMC3    C413993   0.309   3.005  13.178  0.2760  0.1810  0.2610
    9TMC3    C513994   0.364   2.896  13.125 -0.0900 -0.2595  0.0063
    9TMC3    C613995   0.452   2.896  13.032 -0.0048 -0.3936 -0.0104
    9TMC3     C13996   0.292   3.254  13.180  0.4789  0.2290  0.3918
    9TMC3     O13997   0.281   3.337  13.092  0.2134  0.2467 -1.2104
    9TMC3     H13998   0.467   3.227  12.979  0.7602  0.6909  1.9045
    9TMC3    H113999   0.241   2.994  13.262 -1.2092  4.1274 -0.4509
    9TMC3    H214000   0.513   2.810  13.006  0.1316  0.2712 -1.9247
    9TMC3    C714001   0.323   2.767  13.172 -0.2388  0.1288  0.2706
    9TMC3    C814002   0.572   3.009  12.855  1.3704  0.6107  0.2993
    9TMC3    O114003   0.304   2.751  13.291 -0.4223 -0.0660 -0.2664
    9TMC3    O214004   0.662   3.092  12.847 -0.4938  0.1122 -0.4717
   10MPD2     C14005   0.786   2.688  12.510 -0.1511 -0.2865 -0.2421
   10MPD2    C114006   0.668   2.638  12.551  0.4485  0.3703  0.4830
   10MPD2    C214007   0.593   2.713  12.635 -0.2368 -0.0091  0.0224
   10MPD2    C314008   0.626   2.836  12.679  0.2275  0.1515  0.7103
   10MPD2    C414009   0.737   2.892  12.625 -0.6603 -0.4368  0.3597
   10MPD2    C514010   0.819   2.820  12.543  0.0751 -0.0344  0.2276
   10MPD2     H14011   0.495   2.676  12.663 -1.0808  1.5771 -0.8336
   10MPD2    H114012   0.778   2.988  12.656  0.7414 -2.2510  4.1400
   10MPD2    H214013   0.852   2.630  12.447  0.0443 -1.1756  0.7765
   10MPD2    H314014   0.913   2.864  12.510  0.2190 -0.2002  0.4131
   10MPD2     N14015   0.543   2.896  12.781 -0.8524  0.0245  0.6932
   10MPD2    H514016   0.457   2.850  12.810 -1.5349  0.3678 -0.7614
   10MPD2    N114017   0.632   2.507  12.535 -0.0847  0.0595  0.3629
   10MPD2    H714018   0.546   2.480  12.581  0.1669  1.0204  1.3867
   11MPD2     C14019   1.425   1.726  14.190  0.5419 -0.0155 -0.7290
   11MPD2    C114020   1.345   1.637  14.118 -0.0692 -0.9197  0.1811
   11MPD2    C214021   1.291   1.668  13.992 -0.1549  0.1121  0.2595
   11MPD2    C314022   1.329   1.786  13.937 -0.0799  0.8145  0.7062
   11MPD2    C414023   1.409   1.878  14.010  0.1427  0.4109  0.3367
   11MPD2    C514024   1.458   1.848  14.134  0.4281  0.5260 -0.4599
   11MPD2     H14025   1.229   1.595  13.941  1.9827  0.6640 -3.1030
   11MPD2    H114026   1.435   1.979  13.980 -0.9366  0.0173 -1.9080
   11MPD2    H214027   1.466   1.711  14.289  0.9166 -0.1138 -0.8987
   11MPD2    H314028   1.504   1.923  14.196 -1.1570  1.2420 -0.1564
   11MPD2     N14029   1.283   1.836  13.808 -0.3020  0.2470 -0.4336
   11MPD2    H514030   1.308   1.929  13.775  0.5033 -0.1225 -0.8737
   11MPD2    N114031   1.308   1.510  14.170  0.3725 -0.1850  0.3640
   11MPD2    H714032   1.265   1.439  14.112 -1.1658  0.9896  0.0473
    1MPD1     C14033   3.648   4.029  16.952 -0.6263  0.5786  0.2656
    1MPD1    C114034   3.757   3.989  17.020  0.6132  0.0461 -1.1357
    1MPD1    C214035   3.755   3.858  17.074 -0.3599 -0.0060  0.1958
    1MPD1    C314036   3.668   3.761  17.034 -0.4605  0.8289  0.3376
    1MPD1    C414037   3.572   3.806  16.940  1.5285 -0.3434 -0.2442
    1MPD1    C514038   3.556   3.940  16.914  0.2864  0.6476 -0.2718
    1MPD1     H14039   3.838   3.836  17.140  0.8033  2.3159 -0.4850
    1MPD1    H114040   3.493   3.743  16.902  1.2821 -0.2984  0.1903
    1MPD1    H214041   3.641   4.132  16.920 -0.7266  0.3397 -0.4920
    1MPD1    H314042   3.468   3.981  16.867 -1.1981 -0.8950  1.1676
    1MPD1     N14043   3.673   3.627  17.060  0.3983 -0.3980  0.4898
    1MPD1    H514044   3.591   3.570  17.043 -1.3948  2.3174  0.0853
    1MPD1    N114045   3.855   4.077  17.073  0.2122  0.5203  0.1510
    1MPD1    H614046   3.934   4.016  17.092  0.1593  0.2960 -0.3369
    1MPD1    H714047   3.889   4.146  17.008 -0.0687  0.0153 -0.5382
    2MPD1     C14048   4.045   2.617  17.017  0.2682  0.2294  0.6293
    2MPD1    C114049   3.906   2.634  17.032  0.0378 -0.0177 -0.1172
    2MPD1    C214050   3.857   2.764  17.049 -0.0500  0.4907  0.1675
    2MPD1    C314051   3.940   2.874  17.059  0.6039  0.0858 -0.0332
    2MPD1    C414052   4.080   2.854  17.044 -0.6419  0.9922 -0.0263
    2MPD1    C514053   4.128   2.730  17.015  0.1733  0.3918  0.3201
    2MPD1     H14054   3.753   2.786  17.069 -0.2036  1.0740 -1.2675
    2MPD1    H114055   4.154   2.932  17.057 -1.2351  1.3972  0.9137
    2MPD1    H214056   4.094   2.521  17.016  0.4279  0.3236 -2.2160
    2MPD1    H314057   4.234   2.715  17.004 -0.1269 -3.0883  2.1612
    2MPD1     N14058   3.879   2.989  17.099 -0.0711 -0.0071  0.0282
    2MPD1    H514059   3.778   2.992  17.103 -0.0799  0.1660 -0.3508
    2MPD1    N114060   3.814   2.525  17.064 -0.0358  0.2655 -0.0527
    2MPD1    H614061   3.830   2.445  17.004  0.8641 -0.8302  1.6473
    2MPD1    H714062   3.721   2.566  17.066 -0.1819 -0.0414 -0.9052
    3TMC3    C114063   3.847   3.212  17.166 -0.4031  0.3407 -0.2345
    3TMC3    C214064   3.725   3.170  17.214 -0.4839  0.2722  0.4212
    3TMC3    C314065   3.621   3.262  17.230 -0.4008 -0.3929 -0.4074
    3TMC3    C414066   3.869   3.350  17.130 -0.1079  0.4202 -0.0004
    3TMC3    C514067   3.762   3.434  17.144 -0.4599 -0.6300 -0.8901
    3TMC3    C614068   3.641   3.392  17.189  0.1295 -0.4600 -0.0236
    3TMC3     C14069   3.944   3.108  17.121 -0.0758 -0.4087 -0.0146
    3TMC3     O14070   4.051   3.145  17.078  0.8415 -0.2164  0.1437
    3TMC3     H14071   3.713   3.076  17.267 -0.5861  1.0103  1.7133
    3TMC3    H114072   3.966   3.391  17.103 -0.1728  0.1554 -0.6150
    3TMC3    H214073   3.559   3.463  17.190  0.6015  0.0642  1.6546
    3TMC3    C714074   3.784   3.566  17.109 -0.4275  0.3974  0.9413
    3TMC3    C814075   3.504   3.236  17.304 -0.4092  0.2843 -0.7288
    3TMC3    O114076   3.900   3.607  17.120  0.0452  0.4555 -0.2442
    3TMC3    O214077   3.437   3.335  17.338 -0.1144 -0.1177  0.1470
    4MPD1     C14078   3.137   2.941  17.491  0.0831 -0.9935 -0.6842
    4MPD1    C114079   3.177   2.882  17.374  0.1485  1.1072 -0.1980
    4MPD1    C214080   3.290   2.938  17.308  0.4884  0.2361  0.2099
    4MPD1    C314081   3.345   3.056  17.364 -0.0659 -0.0591 -0.0573
    4MPD1    C414082   3.289   3.125  17.471 -0.5778  0.5927 -0.9561
    4MPD1    C514083   3.183   3.067  17.525  0.2705 -0.3475  0.6069
    4MPD1     H14084   3.327   2.885  17.221  0.2778 -3.2320  2.2139
    4MPD1    H114085   3.316   3.225  17.501  3.2081 -0.4492 -0.9573
    4MPD1    H214086   3.047   2.905  17.540  1.2395 -0.7616  1.6012
    4MPD1    H314087   3.135   3.126  17.602 -0.2729  0.6311 -0.4881
    4MPD1     N14088   3.456   3.113  17.294  0.7181 -0.1063  0.3297
    4MPD1    H514089   3.507   3.053  17.230 -0.1615 -0.9050  0.3688
    4MPD1    N114090   3.109   2.777  17.324  0.2369  0.4233  0.2189
    4MPD1    H614091   3.172   2.719  17.270 -0.5924 -2.7402  2.6603
    4MPD1    H714092   3.058   2.724  17.395  1.8172 -1.0428  0.2521
    1TCq1    O114093   0.612   2.640  10.993  0.2539  0.1105 -0.0950
    1TCq1    C114094   0.590   2.663  11.127  0.4095 -1.0359  0.5560
    1TCq1    O214095   0.567   2.582  11.211  0.4675  0.1453  0.0598
    1TCq1    C214096   0.571   2.801  11.155  0.9287  0.4647 -0.3330
    1TCq1    C314097   0.515   2.878  11.062 -0.5054  0.3834  0.1051
    1TCq1    C414098   0.462   2.998  11.105 -0.1505  0.0464  0.0236
    1TCq1    C514099   0.434   3.015  11.241  0.9747 -0.3766  0.4369
    1TCq1    C614100   0.491   2.930  11.334 -0.2478  0.0320  0.0973
    1TCq1    C714101   0.564   2.819  11.292  0.3652 -0.0393  0.0176
    1TCq1    C814102   0.440   2.926  11.466 -0.2701  0.1149 -0.0257
    1TCq1    O414103   0.448   2.826  11.531 -0.3719  0.5139 -0.1714
    1TCq1    C914104   0.382   3.075  11.011  0.2435  0.3082  0.1739
    1TCq1    O514105   0.280   3.141  11.059  0.0132  0.0094  0.1475
    1TCq1    O614106   0.408   3.061  10.888 -0.4484 -0.2548  0.6580
    1TCq1    H114107   0.656   2.709  10.939  0.1996 -0.0729 -0.3732
    1TCq1    H214108   0.522   2.864  10.955 -0.1960  0.9975  0.0433
    1TCq1    H314109   0.379   3.105  11.263  2.2485  0.2985  0.8741
    1TCq1    H414110   0.621   2.757  11.360  0.4854  0.2600  0.1894
    2MPD1     C14111   0.291   3.157  11.900 -0.1978  0.5746 -0.4920
    2MPD1    C114112   0.306   3.258  11.803  0.5479  0.0549  0.6646
    2MPD1    C214113   0.337   3.212  11.677 -0.3221 -0.4122 -0.2068
    2MPD1    C314114   0.364   3.084  11.645  0.4865  0.1572 -0.3115
    2MPD1    C414115   0.358   2.992  11.745 -0.1327 -0.0559  0.7777
    2MPD1    C514116   0.317   3.026  11.870  0.6344  0.4023 -0.8237
    2MPD1     H14117   0.332   3.281  11.593  0.9041 -0.2541 -0.1511
    2MPD1    H114118   0.376   2.887  11.728  0.3702  0.0889  0.4019
    2MPD1    H214119   0.272   3.181  12.005  0.4526  1.9896 -0.6892
    2MPD1    H314120   0.308   2.952  11.947 -0.3498 -0.0486 -1.3753
    2MPD1     N14121   0.401   3.052  11.513  0.0652  0.3143 -0.0495
    2MPD1    H514122   0.418   3.130  11.450  3.2110 -0.8579 -0.6664
    2MPD1    N114123   0.255   3.391  11.823  0.6336  0.6408 -0.4529
    2MPD1    H614124   0.281   3.428  11.914 -0.7840 -1.1360  0.6683
    2MPD1    H714125   0.298   3.453  11.753 -0.7074  0.3576 -1.5253
    1TMC1    C114126   1.218   4.493   1.336  0.5842  0.0332  0.2000
    1TMC1    C214127   1.195   4.573   1.439 -0.1941 -0.0377 -1.2025
    1TMC1    C314128   1.273   4.555   1.547  0.5561  0.2298  0.8149
    1TMC1    C414129   1.327   4.405   1.330  0.1047  0.6673 -1.0244
    1TMC1    C514130   1.411   4.404   1.436  0.3004  0.5166  0.3988
    1TMC1    C614131   1.384   4.476   1.550  0.2490  0.6761  0.2152
    1TMC1     C14132   1.148   4.514   1.209 -0.8318 -0.0530 -0.0228
    1TMC1     O14133   1.214   4.493   1.110 -0.8681  0.2509  0.1686
    1TMC1     H14134   1.100   4.624   1.444 -0.3365 -0.3949 -0.3278
    1TMC1    H114135   1.347   4.352   1.237 -0.3498  1.3537 -1.5060
    1TMC1    H214136   1.449   4.469   1.637  0.3238 -2.1333 -0.0871
    1TMC1    C714137   1.532   4.323   1.436  0.0316  0.3163 -0.9224
    1TMC1    C814138   1.246   4.632   1.662 -0.0111  0.6299 -0.0355
    1TMC1    O114139   1.621   4.335   1.521 -0.3217 -0.0707 -0.6748
    1TMC1    O214140   1.270   4.593   1.777  0.6547 -0.0837 -0.6936
    1TMC1    O314141   1.515   4.228   1.344 -0.2753  0.4797 -0.3313
    1TMC1    H314142   1.422   4.224   1.311  0.3073 -1.0484 -1.8081
    1TMC1    O514143   1.199   0.026   1.626 -0.9277 -0.4453 -0.2313
    1TMC1    H514144   1.214   0.047   1.532  1.5309  0.6106  0.3802
    2MPD1     C14145   0.758   4.636   0.925 -0.8277  0.0136  0.3252
    2MPD1    C114146   0.706   4.637   1.056 -0.7684 -0.0128  0.3063
    2MPD1    C214147   0.796   4.615   1.159  0.2714 -0.2587 -0.5209
    2MPD1    C314148   0.932   4.609   1.122 -0.3659  0.5526  0.0613
    2MPD1    C414149   0.980   4.634   0.998 -0.4210 -0.1291  0.7119
    2MPD1    C514150   0.894   4.659   0.899  0.6697  0.1282 -0.4257
    2MPD1     H14151   0.766   4.599   1.262  0.2349  1.1549 -0.3094
    2MPD1    H114152   1.087   4.639   0.978 -0.5777 -1.2942 -0.3571
    2MPD1    H214153   0.686   4.640   0.845  1.2605 -1.3711 -1.6360
    2MPD1    H314154   0.924   4.664   0.795 -0.1030 -0.9914 -0.7090
    2MPD1     N14155   1.016   4.561   1.223  0.3263  0.1145  0.0907
    2MPD1    H514156   0.977   4.559   1.316 -1.7421 -1.1177 -0.8040
    2MPD1    N114157   0.569   4.640   1.074 -0.4150 -0.3351 -0.4930
    2MPD1    H614158   0.529   4.680   0.989 -0.3943  0.9956  0.1246
    2MPD1    H714159   0.538   4.690   1.157  1.7113  2.7862 -1.5935
    1MPD1     C14160   1.192   1.745  12.577 -0.3225 -0.1804  0.0316
    1MPD1    C114161   1.212   1.819  12.695 -0.6214  0.1461  0.2099
    1MPD1    C214162   1.325   1.891  12.712 -0.7549  0.7326 -0.3053
    1MPD1    C314163   1.424   1.903  12.611  0.0802 -0.1404  0.2301
    1MPD1    C414164   1.407   1.832  12.492 -0.1471  0.2048  0.3763
    1MPD1    C514165   1.288   1.761  12.475 -0.3043 -1.2163 -0.2720
    1MPD1     H14166   1.334   1.946  12.805  2.2802  0.2167 -0.2730
    1MPD1    H114167   1.472   1.843  12.406  0.6939 -4.3225  0.4061
    1MPD1    H214168   1.100   1.689  12.559 -0.8558 -0.0267  2.3594
    1MPD1    H314169   1.278   1.716  12.377 -1.7359 -2.0871  0.2573
    1MPD1     N14170   1.539   1.979  12.641  0.6033 -0.1803 -0.1740
    1MPD1    H514171   1.542   2.030  12.729 -2.4448  1.5341 -1.0430
    1MPD1    N114172   1.111   1.838  12.785  0.0252  0.0958  0.3225
    1MPD1    H614173   1.154   1.853  12.876  0.3056 -0.4461  0.2796
    1MPD1    H714174   1.056   1.753  12.796  0.4911 -0.3846 -1.0651
    2MPD1     C14175   1.053   3.538  11.773  0.2709  0.1040 -0.0547
    2MPD1    C114176   1.102   3.634  11.686 -0.7534  0.2132 -0.1085
    2MPD1    C214177   1.210   3.605  11.604  0.1432  0.9664  0.1504
    2MPD1    C314178   1.266   3.477  11.601 -0.5203  0.7075  0.4927
    2MPD1    C414179   1.219   3.384  11.691 -0.5610  1.0917 -0.3083
    2MPD1    C514180   1.103   3.413  11.761  0.2600 -0.3730  0.0353
    2MPD1     H14181   1.250   3.669  11.526  1.8854 -0.3743 -0.0633
    2MPD1    H114182   1.257   3.283  11.687 -1.1692  0.9804 -3.5154
    2MPD1    H214183   0.971   3.557  11.841  0.7396  1.5227  0.1164
    2MPD1    H314184   1.056   3.342  11.828 -1.6296 -0.6758 -1.6365
    2MPD1     N14185   1.371   3.440  11.516  0.2398  0.3608 -0.3863
    2MPD1    H514186   1.408   3.347  11.534 -3.0102 -1.2509 -2.1040
    2MPD1    N114187   1.048   3.761  11.696 -0.4138 -0.0151 -0.5812
    2MPD1    H614188   1.060   3.814  11.609  0.5019  1.1468  0.2500
    2MPD1    H714189   0.956   3.759  11.738  0.4822 -1.8162  1.2671
    3MPD1     C14190   1.841   4.137  11.045 -0.6672  0.1088 -0.0326
    3MPD1    C114191   1.744   4.121  11.135  0.3455  0.1443 -0.0627
    3MPD1    C214192   1.692   3.998  11.153  0.6252 -0.4555 -0.1788
    3MPD1    C314193   1.754   3.885  11.111  0.2266 -0.4609 -0.4144
    3MPD1    C414194   1.863   3.895  11.027  0.2100 -0.1053  0.6617
    3MPD1    C514195   1.892   4.024  10.981  0.2767 -0.0708  0.1439
    3MPD1     H14196   1.614   3.979  11.226  0.1467 -1.3228 -0.9216
    3MPD1    H114197   1.911   3.808  10.983 -0.0616 -0.3341  0.8185
    3MPD1    H214198   1.887   4.233  11.025  0.2001 -0.1666  0.6217
    3MPD1    H314199   1.981   4.038  10.921  0.9553 -1.1519  0.8961
    3MPD1     N14200   1.719   3.761  11.166  0.0537  0.2727  0.3562
    3MPD1    H514201   1.646   3.765  11.237  0.0966 -0.2023  0.4283
    3MPD1    N114202   1.678   4.234  11.190  0.0286  0.6787  0.4184
    3MPD1    H614203   1.609   4.215  11.262 -1.4760 -2.2821 -1.7987
    3MPD1    H714204   1.739   4.310  11.218  0.1001  0.5431  0.6275
    4MPD2     C14205   1.592   2.663  12.378  0.5221  0.3998  0.1175
    4MPD2    C114206   1.715   2.604  12.395  0.4548  0.4493 -0.2412
    4MPD2    C214207   1.826   2.654  12.327  0.2348 -0.6837 -0.4308
    4MPD2    C314208   1.817   2.754  12.229 -0.3438 -1.1384  0.0738
    4MPD2    C414209   1.697   2.816  12.214 -0.1622 -0.7785 -0.4087
    4MPD2    C514210   1.589   2.771  12.290  0.0937 -0.1174 -0.3287
    4MPD2     H14211   1.923   2.610  12.347 -0.3180 -2.5708 -1.8645
    4MPD2    H114212   1.676   2.901  12.150  0.7031 -1.2314 -1.2851
    4MPD2    H214213   1.506   2.628  12.434  2.1099 -1.3293  1.4902
    4MPD2    H314214   1.495   2.822  12.272  0.8646  2.1013  1.9932
    4MPD2     N14215   1.923   2.799  12.147  0.5981  0.4850  0.2498
    4MPD2    H514216   1.914   2.887  12.098 -3.7599  0.9928  1.9417
    4MPD2    N114217   1.745   2.509  12.494  0.2190  0.0619 -0.0028
    4MPD2    H714218   1.841   2.475  12.504 -0.3869 -1.6403  0.0908
    5TMC3    C114219   1.733   2.347  12.655  0.6320  0.1490  0.4849
    5TMC3    C214220   1.662   2.230  12.640 -0.4124  0.3629  0.3976
    5TMC3    C314221   1.725   2.113  12.603  0.7950 -0.6714  0.1059
    5TMC3    C414222   1.871   2.342  12.637 -0.1396 -0.1560 -0.4930
    5TMC3    C514223   1.926   2.229  12.579 -0.7883  0.3856 -0.3684
    5TMC3    C614224   1.853   2.115  12.557 -0.5154 -0.1868  0.2294
    5TMC3     C14225   1.668   2.458  12.591  0.5535 -0.1589  0.3986
    5TMC3     O14226   1.548   2.471  12.614  0.6584 -0.0299  0.1893
    5TMC3     H14227   1.557   2.226  12.665 -0.4075 -0.0291  0.3633
    5TMC3    H114228   1.927   2.434  12.651  1.4593 -0.9206 -1.9532
    5TMC3    H214229   1.897   2.029  12.506 -1.9238 -1.4342  1.1160
    5TMC3    C714230   2.011   2.263  12.464  0.5995  0.0920 -0.0614
    5TMC3    C814231   1.637   2.017  12.551  0.0396 -0.3307  0.1844
    5TMC3    O114232   2.027   2.387  12.458  0.6289  0.2830  0.3691
    5TMC3    O214233   1.664   1.960  12.446 -0.4026  0.8427  0.0972
    6TMC3    C114234   1.535   3.468  11.343 -0.6184 -0.2455 -0.8622
    6TMC3    C214235   1.584   3.555  11.251  0.3083  0.1955  0.0406
    6TMC3    C314236   1.713   3.532  11.204 -0.0229  0.5644  0.4122
    6TMC3    C414237   1.607   3.357  11.384  0.4993  0.0575  0.7787
    6TMC3    C514238   1.736   3.346  11.347  0.1921  0.5638  0.1560
    6TMC3    C614239   1.796   3.439  11.262  0.0968 -0.2573 -0.3604
    6TMC3     C14240   1.407   3.508  11.401  0.6565  0.3423 -0.2291
    6TMC3     O14241   1.355   3.601  11.347 -0.0986  0.2966  0.3287
    6TMC3     H14242   1.514   3.617  11.197  0.5587 -0.7659 -1.3772
    6TMC3    H114243   1.561   3.286  11.452  0.3187 -0.9057 -0.3492
    6TMC3    H214244   1.900   3.438  11.233  0.5037 -2.4296  1.1507
    6TMC3    C714245   1.813   3.228  11.392  0.5310 -0.1015  0.4017
    6TMC3    C814246   1.778   3.641  11.140  0.2713 -0.2025 -0.5840
    6TMC3    O114247   1.766   3.159  11.476 -0.1433  0.4360  0.1884
    6TMC3    O214248   1.874   3.609  11.070  0.7839 -0.2893 -0.3617
    7MPD2     C14249   2.245   2.223  11.996 -1.1217  0.2749  0.5259
    7MPD2    C114250   2.204   2.328  12.072  0.0342  0.0347 -0.3072
    7MPD2    C214251   2.127   2.314  12.187  0.0772  0.7423  0.2162
    7MPD2    C314252   2.099   2.189  12.238  0.0736  0.9180 -0.3374
    7MPD2    C414253   2.142   2.083  12.159  0.2958 -0.8011 -0.0962
    7MPD2    C514254   2.204   2.099  12.036  0.2336  0.0715  0.4544
    7MPD2     H14255   2.101   2.412  12.225 -0.6685  1.1267 -1.2589
    7MPD2    H114256   2.104   1.986  12.189  1.7579 -1.2963  0.1753
    7MPD2    H214257   2.290   2.239  11.898  4.0215  1.4306  3.1034
    7MPD2    H314258   2.221   2.013  11.971 -2.5989  0.1333 -0.3588
    7MPD2     N14259   2.034   2.167  12.367  0.3104 -0.0451  0.1531
    7MPD2    H514260   2.011   2.072  12.393 -1.5534  1.0004  2.3440
    7MPD2    N114261   2.242   2.456  12.044 -0.0283 -0.0255 -0.7510
    7MPD2    H714262   2.202   2.525  12.107 -0.0409 -1.9749  1.3502
    8TMC3    C114263   2.279   2.650  11.917 -0.9951 -0.1230 -0.1392
    8TMC3    C214264   2.224   2.693  11.798 -0.7966  0.3768  0.4593
    8TMC3    C314265   2.117   2.788  11.808 -0.2060  0.1853  0.0297
    8TMC3    C414266   2.239   2.706  12.034 -0.0186 -0.5098  0.0225
    8TMC3    C514267   2.139   2.800  12.043  0.0331 -0.3743 -0.0548
    8TMC3    C614268   2.069   2.827  11.928  0.3418 -0.9580  0.4029
    8TMC3     C14269   2.309   2.508  11.932  0.1641  0.3407  0.4027
    8TMC3     O14270   2.353   2.454  11.833  0.3297 -1.1879 -0.2885
    8TMC3     H14271   2.260   2.675  11.697 -0.1225  0.7919  0.6273
    8TMC3    H114272   2.298   2.692  12.124  0.3312  0.2486 -0.0881
    8TMC3    H214273   1.977   2.884  11.915  0.0253 -0.9422  2.7782
    8TMC3    C714274   2.046   2.738  12.138  0.3125  0.6349  0.0605
    8TMC3    C814275   2.069   2.861  11.694 -0.0646 -0.3285  0.5559
    8TMC3    O114276   2.083   2.634  12.194 -0.2782  0.4022 -0.3780
    8TMC3    O214277   1.956   2.901  11.697  0.3595  0.3462 -0.2300
    9MPD2     C14278   2.279   3.006  11.429  0.2247  0.4715 -0.2564
    9MPD2    C114279   2.162   2.983  11.499  0.1610  0.5654 -0.7649
    9MPD2    C214280   2.046   3.044  11.462 -0.1480 -0.1143  0.3401
    9MPD2    C314281   2.046   3.134  11.361 -0.3088  0.0108  0.1243
    9MPD2    C414282   2.163   3.150  11.287  0.3545  0.2108 -0.7001
    9MPD2    C514283   2.278   3.096  11.325 -0.3692  0.3045 -0.3531
    9MPD2     H14284   1.955   3.031  11.520 -0.0332 -0.1779  0.5041
    9MPD2    H114285   2.171   3.226  11.209  0.8318  0.6607 -0.2153
    9MPD2    H214286   2.372   2.965  11.465 -0.8387 -3.0076 -1.4833
    9MPD2    H314287   2.372   3.120  11.278 -1.2086  0.5573 -1.9033
    9MPD2     N14288   1.937   3.217  11.325 -0.0607 -0.3984  0.2886
    9MPD2    H514289   1.958   3.283  11.251 -0.9574  0.7639  1.0863
    9MPD2    N114290   2.170   2.895  11.610 -0.1880  0.1713 -0.0468
    9MPD2    H714291   2.262   2.858  11.633 -0.1815  0.0886 -0.2039
    1MPD1     C14292   1.177   2.869  16.861  0.3793 -0.4147  0.0381
    1MPD1    C114293   1.046   2.893  16.836  0.4082  0.0493 -1.1049
    1MPD1    C214294   0.947   2.821  16.903  0.0743 -0.2389  0.1814
    1MPD1    C314295   0.991   2.712  16.978 -0.3644  0.1153 -0.6768
    1MPD1    C414296   1.122   2.678  16.996 -0.5764  0.7421  0.2097
    1MPD1    C514297   1.217   2.763  16.938 -0.2130 -0.5054 -0.9235
    1MPD1     H14298   0.845   2.854  16.889  0.1970  0.7775  1.7307
    1MPD1    H114299   1.151   2.590  17.052 -0.6923 -0.2599 -1.2906
    1MPD1    H214300   1.248   2.942  16.825  0.2608 -0.8314 -1.0417
    1MPD1    H314301   1.324   2.748  16.950 -0.1961 -0.6690 -1.3007
    1MPD1     N14302   0.897   2.633  17.048  0.7199 -0.4270  0.2535
    1MPD1    H514303   0.940   2.550  17.088 -0.3626 -0.4334  1.4041
    1MPD1    N114304   1.010   3.010  16.768  0.0070  0.0241  0.1051
    1MPD1    H614305   1.064   3.038  16.686  2.9957 -1.7474  1.4952
    1MPD1    H714306   0.914   3.010  16.733  0.7055  0.9998 -1.8238
    2TMC2    C114307   0.696   2.371  17.282 -0.0763  0.5413 -0.6074
    2TMC2    C214308   0.560   2.356  17.245 -1.2183  0.1648  0.5474
    2TMC2    C314309   0.493   2.432  17.156 -0.5612 -0.4874  0.4350
    2TMC2    C414310   0.768   2.461  17.215 -0.1736  0.1178 -0.2956
    2TMC2    C514311   0.698   2.542  17.127 -0.0241 -0.2704  0.5800
    2TMC2    C614312   0.563   2.531  17.092 -0.3998  0.5396  0.0547
    2TMC2     C14313   0.752   2.268  17.364 -0.6087 -0.0223 -0.2889
    2TMC2     O14314   0.664   2.197  17.403 -0.1381 -0.2407 -0.5411
    2TMC2     H14315   0.498   2.275  17.280 -1.0638  0.3295  1.1906
    2TMC2    H114316   0.869   2.479  17.251 -1.0116  1.3368  1.4378
    2TMC2    H214317   0.514   2.596  17.021 -0.6309 -0.0899 -0.3557
    2TMC2    C714318   0.760   2.647  17.058 -0.3262 -0.0070  0.6568
    2TMC2    C814319   0.350   2.409  17.134  0.9827  0.7063 -0.8279
    2TMC2    O114320   0.694   2.742  17.023 -0.4694 -0.7174  0.4921
    2TMC2    O214321   0.282   2.345  17.214 -0.0679  0.7609 -0.2276
    2TMC2    O514322   0.311   2.459  17.014  0.2107  0.0053 -0.0528
    2TMC2    H514323   0.384   2.494  16.957  1.5661 -3.0045 -0.1697
    3MPD1     C14324   1.101   1.971  17.580 -0.9540  0.3320  0.3423
    3MPD1    C114325   1.158   2.047  17.480  0.6633 -0.5475 -0.2414
    3MPD1    C214326   1.075   2.127  17.408  0.2385  0.2791 -0.0463
    3MPD1    C314327   0.942   2.133  17.423 -0.4681  1.1568 -0.9429
    3MPD1    C414328   0.881   2.046  17.506 -0.2077  0.4368 -0.0461
    3MPD1    C514329   0.966   1.964  17.580 -0.0213  0.0005 -0.1148
    3MPD1     H14330   1.120   2.187  17.329  2.7455 -0.4906  0.7750
    3MPD1    H114331   0.775   2.042  17.530 -0.2291 -0.1242 -0.2341
    3MPD1    H214332   1.153   1.909  17.652  1.0317 -0.0445 -1.4110
    3MPD1    H314333   0.927   1.901  17.659  2.6379 -0.1432  1.0851
    3MPD1     N14334   0.883   2.244  17.365  0.1419  0.6426  0.6303
    3MPD1    H514335   0.941   2.308  17.312  3.5817 -1.7419  1.5079
    3MPD1    N114336   1.289   2.037  17.452  0.8258 -0.0693 -0.2015
    3MPD1    H614337   1.332   2.121  17.413  2.5969 -1.4815 -1.3414
    3MPD1    H714338   1.338   2.027  17.540  0.6791  0.9698 -0.0085
    1TMC1    C114339   3.923   1.162  12.868  0.4918  0.0024  0.5769
    1TMC1    C214340   3.855   1.173  12.988  0.5452 -0.2938  0.1384
    1TMC1    C314341   3.722   1.216  12.983  0.7822  0.1582  0.5309
    1TMC1    C414342   3.854   1.184  12.752 -0.2183 -0.2873 -1.0943
    1TMC1    C514343   3.727   1.225  12.747  0.2706 -0.3399  0.2038
    1TMC1    C614344   3.660   1.235  12.860 -0.5305 -0.0830 -0.8362
    1TMC1     C14345   4.061   1.139  12.861  0.4106  0.5239 -0.7603
    1TMC1     O14346   4.116   1.199  12.770 -0.3453  0.3437  0.2340
    1TMC1     H14347   3.895   1.153  13.087  0.2224 -0.6067  0.2082
    1TMC1    H114348   3.905   1.164  12.658 -0.3113  0.8950 -1.3991
    1TMC1    H214349   3.558   1.272  12.866  0.1045  1.4591  0.6190
    1TMC1    C714350   3.644   1.193  12.634 -0.3558  0.3851  0.8188
    1TMC1    C814351   3.645   1.227  13.104  0.3388 -0.0690  0.2752
    1TMC1    O114352   3.534   1.238  12.639 -0.6030  0.5094 -0.5466
    1TMC1    O214353   3.657   1.162  13.203  0.2970  0.3946  0.2848
    1TMC1    O314354   3.685   1.088  12.558  0.2345 -0.2433  0.1792
    1TMC1    H314355   3.770   1.039  12.561  0.3781  0.1464  2.3548
    1TMC1    O514356   3.589   1.352  13.109 -0.0843 -0.9366  0.0722
    1TMC1    H514357   3.591   1.402  13.025 -2.5322  0.3925  0.8155
    2MPD2     C14358   4.341   1.184  12.963  0.3780 -0.4250 -0.0589
    2MPD2    C114359   4.239   1.120  13.034 -0.0426 -0.6617 -0.3307
    2MPD2    C214360   4.263   1.087  13.163 -0.2905 -0.5963 -0.6742
    2MPD2    C314361   4.384   1.128  13.230 -0.0052  0.2982 -0.4368
    2MPD2    C414362   4.477   1.199  13.161  0.2661  0.1676  0.0684
    2MPD2    C514363   4.454   1.222  13.029  0.2032  0.0227 -0.0723
    2MPD2     H14364   4.183   1.036  13.216  0.8265 -0.5283  1.1132
    2MPD2    H114365   4.569   1.234  13.207  0.8987 -1.9608  0.3942
    2MPD2    H214366   4.331   1.208  12.858  1.3790  0.0596 -0.0440
    2MPD2    H314367   4.531   1.245  12.956 -0.7473 -0.2072 -1.1527
    2MPD2     N14368   4.402   1.108  13.366  0.0578  0.1538  0.7259
    2MPD2    H514369   4.327   1.067  13.420  0.8011 -1.4370  0.5507
    2MPD2    N114370   4.100   1.100  12.984 -0.5615  0.2960 -0.2024
    2MPD2    H714371   4.035   1.071  13.056 -3.0688  1.1799 -2.1072
    3TCq1    O114372   4.345   1.066  13.955  0.2616 -0.0019  0.4747
    3TCq1    C114373   4.277   1.055  13.840 -0.1852 -0.5748  0.1393
    3TCq1    O214374   4.192   1.135  13.799  0.2128 -0.4237 -0.7454
    3TCq1    C214375   4.375   1.012  13.742 -0.2570  0.2409 -0.0457
    3TCq1    C314376   4.447   0.900  13.771 -0.0020  0.4398  0.3884
    3TCq1    C414377   4.555   0.867  13.700 -0.1093 -0.0423 -0.0192
    3TCq1    C514378   4.591   0.951  13.597  0.3250 -0.0048 -0.6710
    3TCq1    C614379   4.512   1.061  13.563  0.6428  0.0724 -0.7440
    3TCq1    C714380   4.398   1.094  13.629  0.4049  0.3186  0.6907
    3TCq1    C814381   4.525   1.110  13.436  0.6518 -0.4390 -0.4653
    3TCq1    O414382   4.642   1.113  13.390 -0.0393  0.1228 -0.0101
    3TCq1    C914383   4.640   0.750  13.728  0.4569  0.6333 -0.2554
    3TCq1    O514384   4.726   0.728  13.638 -0.4200 -0.5441 -0.0583
    3TCq1    O614385   4.595   0.666  13.809  0.3011 -0.1484  0.2486
    3TCq1    H114386   4.406   0.997  13.990 -0.3127 -0.4565  0.5771
    3TCq1    H214387   4.421   0.838  13.856  0.2165 -0.4545 -0.2071
    3TCq1    H314388   4.685   0.941  13.545  0.2292 -1.5764 -0.5442
    3TCq1    H414389   4.332   1.175  13.599 -0.5715 -0.2887  1.2033
    1MPD2     C14390   4.003   1.967  15.244  0.7602  0.1940  0.5979
    1MPD2    C114391   3.898   1.879  15.229 -0.1352  0.0524  0.5624
    1MPD2    C214392   3.922   1.775  15.140 -0.1881  0.3967 -0.4577
    1MPD2    C314393   4.036   1.768  15.058 -0.3144 -0.3517  0.3311
    1MPD2    C414394   4.131   1.865  15.068  0.8585  0.0294 -0.3587
    1MPD2    C514395   4.113   1.963  15.161  0.1545 -0.4458  0.2554
    1MPD2     H14396   3.848   1.697  15.127  0.4197  0.0228 -1.6428
    1MPD2    H114397   4.218   1.860  15.004 -1.1066  0.5062 -3.0992
    1MPD2    H214398   3.998   2.049  15.316 -0.3982 -0.4211  1.2178
    1MPD2    H314399   4.187   2.042  15.159 -1.5627  1.1456 -0.3355
    1MPD2     N14400   4.029   1.673  14.951 -0.5364  0.4704 -0.4334
    1MPD2    H514401   3.943   1.623  14.933  0.6756 -1.3171 -1.1972
    1MPD2    N114402   3.778   1.891  15.302  0.2207  0.8545 -0.6928
    1MPD2    H714403   3.776   1.971  15.363 -1.3126 -0.9057  1.5852
    2TMC3    C114404   3.558   1.823  15.366  0.1768 -0.3162  0.8338
    2TMC3    C214405   3.496   1.699  15.383  0.3799 -0.4325  0.0568
    2TMC3    C314406   3.363   1.677  15.355 -0.0074 -0.2150 -0.3673
    2TMC3    C414407   3.479   1.930  15.326 -1.2102 -0.7397 -0.1304
    2TMC3    C514408   3.344   1.908  15.303 -0.7887  0.5271  0.1447
    2TMC3    C614409   3.288   1.784  15.317  0.6215 -0.1698  0.4078
    2TMC3     C14410   3.671   1.796  15.284  0.2915 -0.6545  0.0536
    2TMC3     O14411   3.651   1.704  15.210  0.6846 -0.2234 -0.3793
    2TMC3     H14412   3.555   1.612  15.410  2.5102  1.4834  1.5845
    2TMC3    H114413   3.529   2.025  15.309  0.6601 -1.2318  2.7070
    2TMC3    H214414   3.184   1.770  15.291  0.3183  1.1538  0.8647
    2TMC3    C714415   3.249   2.018  15.286 -0.3693 -0.0235  0.1094
    2TMC3    C814416   3.331   1.564  15.275 -0.2836  0.0267  0.4835
    2TMC3    O114417   3.133   2.000  15.323  0.2785  0.3220  0.1182
    2TMC3    O214418   3.218   1.520  15.263 -0.3150 -0.1858  0.0954
    3TCq1    O114419   3.273   2.689  14.216  0.0153  0.4042  0.8476
    3TCq1    C114420   3.193   2.683  14.321  0.2225 -0.2236 -0.5863
    3TCq1    O214421   3.071   2.695  14.332 -0.6143 -0.2590 -0.2690
    3TCq1    C214422   3.263   2.594  14.419  0.1792  0.1094  0.3138
    3TCq1    C314423   3.323   2.482  14.375 -0.0649 -0.3771  0.3621
    3TCq1    C414424   3.346   2.383  14.467 -0.1209 -0.1126 -0.3407
    3TCq1    C514425   3.308   2.394  14.600  0.2312 -0.0047 -0.4129
    3TCq1    C614426   3.249   2.504  14.641 -0.1413  0.8948  0.0622
    3TCq1    C714427   3.223   2.606  14.547 -1.1365 -0.3617 -0.8327
    3TCq1    C814428   3.200   2.524  14.779 -0.6971 -0.6822 -0.6843
    3TCq1    O414429   3.135   2.627  14.812  0.0532  0.6671  0.2807
    3TCq1    C914430   3.413   2.270  14.426  0.7218  0.0151 -0.0944
    3TCq1    O514431   3.458   2.193  14.514 -0.0269 -0.1839 -0.4880
    3TCq1    O614432   3.416   2.248  14.301  0.1379  0.3021  0.3092
    3TCq1    H114433   3.366   2.659  14.227 -0.3161 -1.3420 -1.0606
    3TCq1    H214434   3.354   2.468  14.272 -2.1931 -2.6147  0.0300
    3TCq1    H314435   3.307   2.301  14.657  0.1407  0.1028 -0.2399
    3TCq1    H414436   3.167   2.696  14.569  2.3084  1.2751  1.1717
    4MPD2     C14437   3.074   2.420  15.031 -1.0356 -0.5239  0.6603
    4MPD2    C114438   3.197   2.386  14.980 -0.5099 -0.1579  0.8757
    4MPD2    C214439   3.272   2.293  15.044  0.1649 -0.0798 -0.1068
    4MPD2    C314440   3.222   2.222  15.150 -0.8013  0.2361 -0.9675
    4MPD2    C414441   3.098   2.258  15.210  1.0058 -0.1308 -0.9276
    4MPD2    C514442   3.034   2.362  15.151  0.6992  0.3641 -0.7073
    4MPD2     H14443   3.364   2.254  15.000  0.5234  1.9491 -1.1417
    4MPD2    H114444   3.078   2.223  15.311  0.8132  0.1694 -0.8578
    4MPD2    H214445   3.010   2.490  14.979  0.5516  0.2867 -0.2130
    4MPD2    H314446   2.948   2.394  15.209  0.7859 -0.3321 -0.1950
    4MPD2     N14447   3.298   2.113  15.202  0.5794 -0.0321 -0.0042
    4MPD2    H514448   3.394   2.103  15.173  0.9385  0.2690  1.1079
    4MPD2    N114449   3.253   2.432  14.859  0.4164 -0.2505  0.3192
    4MPD2    H714450   3.337   2.380  14.835  0.3163 -0.2687  0.0152
    5TMC2    C114451   3.880   1.460  14.718 -0.4965 -0.1847 -0.5913
    5TMC2    C214452   3.946   1.344  14.678  0.9628  0.3585 -0.3854
    5TMC2    C314453   4.086   1.356  14.678 -0.5343 -0.4357  0.2275
    5TMC2    C414454   3.935   1.581  14.731 -0.4047  0.2873  0.4424
    5TMC2    C514455   4.073   1.584  14.743 -0.2832  0.2755  0.0348
    5TMC2    C614456   4.148   1.475  14.706 -0.6683  1.0329 -0.2952
    5TMC2     C14457   3.786   1.446  14.827 -0.2253  0.0807  0.4775
    5TMC2     O14458   3.830   1.487  14.934 -0.3272  0.1175 -0.3943
    5TMC2     H14459   3.902   1.245  14.676 -0.1031  0.8053  1.2385
    5TMC2    H114460   3.870   1.663  14.760  0.6339  1.7340 -1.3048
    5TMC2    H214461   4.256   1.484  14.717 -0.4446 -0.7193 -1.0544
    5TMC2    C714462   4.127   1.659  14.856 -0.5416  0.0024 -0.3669
    5TMC2    C814463   4.169   1.240  14.661  0.0207  0.3283  0.1341
    5TMC2    O114464   4.242   1.704  14.841  0.4932 -0.3252  0.8452
    5TMC2    O214465   4.146   1.133  14.714 -0.4196 -1.0246 -0.1229
    5TMC2    O514466   4.255   1.273  14.558 -0.3426 -0.1043  0.0422
    5TMC2    H514467   4.236   1.365  14.531  4.8452  0.8847 -0.1873
    6MPD2     C14468   3.341   1.351  15.059  0.3732 -0.2233 -0.1311
    6MPD2    C114469   3.444   1.437  15.089 -0.3585 -0.2922  0.3498
    6MPD2    C214470   3.558   1.436  15.007 -0.9311  0.3528  0.7263
    6MPD2    C314471   3.567   1.354  14.897  0.0915 -0.4960  0.1185
    6MPD2    C414472   3.462   1.273  14.870  0.4579 -0.1235 -0.3727
    6MPD2    C514473   3.348   1.266  14.952 -0.4224 -0.0586 -0.0319
    6MPD2     H14474   3.626   1.519  15.020 -2.5912  2.1766 -2.3096
    6MPD2    H114475   3.468   1.218  14.777 -0.4208  1.1802 -1.1955
    6MPD2    H214476   3.249   1.336  15.114  1.0324 -1.0294  0.7572
    6MPD2    H314477   3.263   1.205  14.922 -1.5382  1.6590 -0.3606
    6MPD2     N14478   3.680   1.360  14.805 -0.3162  0.3249  0.9786
    6MPD2    H514479   3.696   1.298  14.726 -1.6412 -0.3382  1.2289
    6MPD2    N114480   3.441   1.538  15.194  0.1525  1.2595 -0.2663
    6MPD2    H714481   3.522   1.596  15.213  0.9357 -1.1875  4.0543
  945NH3     N114482   4.067   1.177   1.855  0.0150  0.4444  0.7898
  945NH3     H214483   4.090   1.116   1.777 -0.8032 -0.6046  1.3788
  945NH3     H314484   4.070   1.264   1.803 -0.2422  0.0414  0.1004
  945NH3     H414485   4.143   1.189   1.921  1.4215 -0.9599 -0.5482
  946SOD     NA14486   1.884   0.346   8.250 -0.0217 -0.0911 -0.1964
  947SOD     NA14487   4.192   0.895  10.783  0.4828 -0.5264  0.1395
  948SOD     NA14488   0.291   4.411  17.487 -0.2933 -0.1461 -0.3063
  949SOD     NA14489   1.088   0.738   7.700  0.3342  0.4425 -0.0045
  950SOD     NA14490   2.371   2.417  11.615 -0.2998  0.1619  0.2343
  951SOD     NA14491   0.433   2.957   3.654  0.2184 -0.0773  0.1659
  952SOD     NA14492   1.658   0.449  14.332  0.0791  0.5703  0.1317
  953SOD     NA14493   3.353   0.948  14.539  0.1426  0.4812 -0.4167
  954SOL     OW14494   1.135   4.710   9.046 -0.3398  0.4033  0.4432
  954SOL    HW114495   1.129   0.056   9.100  0.0359  1.4805 -1.0742
  954SOL    HW214496   1.088   4.644   9.097  2.6293 -2.3485 -0.3073
  955SOL     OW14497   2.496   0.127   5.550  0.0467  0.3046  0.3320
  955SOL    HW114498   2.508   0.221   5.563  3.4852 -0.5684  3.5571
  955SOL    HW214499   2.579   0.101   5.592 -1.4907 -2.9173  1.3766
  956SOL     OW14500   1.564   2.054   2.994 -0.7576 -0.3581  0.5488
  956SOL    HW114501   1.513   1.980   2.959 -0.1490 -0.8283  0.6622
  956SOL    HW214502   1.647   2.006   2.998  0.3907  1.6327  0.2924
  957SOL     OW14503   3.731   0.752  10.088 -0.1750  0.0261  0.2712
  957SOL    HW114504   3.783   0.676  10.115 -1.3047 -1.3087 -1.3475
  957SOL    HW214505   3.759   0.825  10.143  2.9064 -1.6582  0.9234
  958SOL     OW14506   0.040   2.981  13.055  0.3544 -0.9947  0.0326
  958SOL    HW114507   0.014   2.889  13.056 -0.3729 -0.7968 -0.7982
  958SOL    HW214508   0.071   2.999  12.966  0.1064  0.0220  0.1634
  959SOL     OW14509   3.147   3.801   7.245  0.9321  0.5099 -0.0769
  959SOL    HW114510   3.083   3.743   7.286  2.5086 -2.5929 -2.0502
  959SOL    HW214511   3.188   3.747   7.177  1.1720 -0.0166  0.4821
  960SOL     OW14512   0.785   3.145   1.319 -0.1642  0.4590  0.0408
  960SOL    HW114513   0.839   3.108   1.250 -1.1160 -1.0175  0.0944
  960SOL    HW214514   0.705   3.094   1.305  0.2934  0.5167 -2.6722
  961SOL     OW14515   4.093   2.778  15.674  0.3582  0.3961  0.3814
  961SOL    HW114516   4.152   2.725  15.621 -0.3530  1.2572 -1.2750
  961SOL    HW214517   4.034   2.816  15.610  3.0462  0.3670 -2.1371
  962SOL     OW14518   3.956   2.220   9.702 -0.1113 -0.3311 -0.2275
  962SOL    HW114519   3.956   2.133   9.663 -0.8033  0.2091 -1.4244
  962SOL    HW214520   3.861   2.228   9.711 -0.0796 -0.0425 -0.1557
  963SOL     OW14521   2.854   1.547   8.059  0.4660 -0.3284 -0.4838
  963SOL    HW114522   2.912   1.623   8.071 -0.3859  0.2356  0.0680
  963SOL    HW214523   2.867   1.520   8.150 -0.2959  0.4102 -0.1468
  964SOL     OW14524   4.318   0.986  17.266 -0.2660 -0.5084  0.3354
  964SOL    HW114525   4.287   1.030  17.187  0.2503  1.0976  1.0317
  964SOL    HW214526   4.240   0.934  17.287 -0.6820 -0.7034 -1.7393
  965SOL     OW14527   4.174   0.009   4.079  0.0677  0.2635  0.0491
  965SOL    HW114528   4.116   4.695   4.140  0.4549 -0.1191  0.1292
  965SOL    HW214529   4.125   0.084   4.045 -0.1719  0.0798 -0.0110
  966SOL     OW14530   0.601   1.121   7.768 -0.6214  0.2419 -0.7029
  966SOL    HW114531   0.508   1.110   7.748 -0.3673 -0.3153 -1.6056
  966SOL    HW214532   0.635   1.064   7.699 -1.7041 -1.9867  0.6076
  967SOL     OW14533   4.184   1.010   4.495 -0.6079  0.0373  0.4135
  967SOL    HW114534   4.101   1.019   4.449 -1.3388  0.6865  1.8394
  967SOL    HW214535   4.148   1.036   4.580 -1.8665 -2.3124  0.5883
  968SOL     OW14536   4.677   0.663  12.907 -0.3416 -0.5598 -0.0816
  968SOL    HW114537   4.664   0.689  12.999  0.4583  1.0244 -0.4173
  968SOL    HW214538   0.036   0.688  12.895 -1.0045  1.0169 -1.7413
  969SOL     OW14539   1.849   1.646   3.046 -0.1676  0.0062  0.5325
  969SOL    HW114540   1.924   1.602   3.006  0.5478  2.8435 -1.2036
  969SOL    HW214541   1.798   1.569   3.070  1.3000 -0.7268  1.3126
  970SOL     OW14542   0.615   3.264   8.374  0.2756 -0.6325  0.1281
  970SOL    HW114543   0.612   3.238   8.281 -0.6143 -1.5733  0.4187
  970SOL    HW214544   0.529   3.305   8.382  0.5947  0.1314 -0.4250
  971SOL     OW14545   1.441   1.390   4.809  0.2533 -0.1203 -0.1366
  971SOL    HW114546   1.534   1.370   4.820  0.7107  3.2886  2.2550
  971SOL    HW214547   1.444   1.471   4.758 -0.7630 -0.1617 -0.2513
  972SOL     OW14548   2.129   0.367   5.933  0.4046 -0.2817  0.0037
  972SOL    HW114549   2.145   0.437   5.996 -0.2161  1.2150 -1.5265
  972SOL    HW214550   2.197   0.383   5.867  1.0411 -0.1367  0.6929
  973SOL     OW14551   1.170   4.222   2.258 -0.2154  0.2739 -0.0042
  973SOL    HW114552   1.119   4.151   2.219  2.1645 -1.9296  0.9006
  973SOL    HW214553   1.120   4.251   2.334 -0.0503  0.0107  0.2050
  974SOL     OW14554   4.665   3.071   4.435  0.2386  0.1324 -0.0013
  974SOL    HW114555   4.609   3.056   4.512 -1.1245  0.0535 -1.0049
  974SOL    HW214556   4.637   3.006   4.371  0.8664  1.7177 -1.9015
  975SOL     OW14557   0.178   1.913   1.549  0.8025  0.7848 -0.1569
  975SOL    HW114558   0.223   1.923   1.633 -1.4225  0.2207  1.0955
  975SOL    HW214559   0.231   1.858   1.491 -0.0858  0.2210 -0.4375
  976SOL     OW14560   4.688   2.297   8.506  0.3572 -0.5742 -0.6195
  976SOL    HW114561   4.635   2.270   8.581  0.2655  0.6480 -0.2388
  976SOL    HW214562   4.637   2.263   8.433  0.0104  0.7095 -0.9909
  977SOL     OW14563   3.602   0.156   1.296 -0.7258 -0.1937  0.0376
  977SOL    HW114564   3.695   0.136   1.304 -0.4757  1.4821  1.4622
  977SOL    HW214565   3.568   0.068   1.282  0.6793 -0.4322 -1.7445
  978SOL     OW14566   1.322   2.000   5.614  0.4253  0.3333  0.2065
  978SOL    HW114567   1.304   1.965   5.701 -0.9779  0.8453  0.1227
  978SOL    HW214568   1.258   1.949   5.564 -0.3423  1.1574  0.3523
  979SOL     OW14569   3.625   0.519   5.710  0.2296 -0.5093  0.1579
  979SOL    HW114570   3.709   0.555   5.682 -0.3117  0.5887 -0.0338
  979SOL    HW214571   3.643   0.502   5.802 -1.5402 -1.9757  0.2304
  980SOL     OW14572   1.191   2.987   4.022  0.0712  0.4451  0.5228
  980SOL    HW114573   1.194   3.004   3.928  0.2645 -0.9437  0.2656
  980SOL    HW214574   1.279   2.954   4.042  1.2996  3.2434 -0.3866
  981SOL     OW14575   2.646   3.592   3.357  0.2724 -0.1091  0.2757
  981SOL    HW114576   2.620   3.651   3.428 -2.5714 -0.6857 -0.2711
  981SOL    HW214577   2.660   3.656   3.287 -2.4693 -0.1710 -0.3209
  982SOL     OW14578   1.972   4.525  15.892  0.1036 -0.1304  0.0141
  982SOL    HW114579   1.915   4.538  15.816 -0.3844  0.1897  0.4366
  982SOL    HW214580   1.959   4.614  15.925 -1.5473  0.2598 -1.6815
  983SOL     OW14581   2.635   2.214  16.566  0.5015 -0.1832 -0.1552
  983SOL    HW114582   2.711   2.161  16.591  0.7623 -0.7891 -2.2608
  983SOL    HW214583   2.583   2.143  16.529  0.9715  0.3664 -1.8407
  984SOL     OW14584   3.487   4.332  15.909  0.0931  0.6574  0.4486
  984SOL    HW114585   3.502   4.412  15.960 -1.6444  0.9364  0.5091
  984SOL    HW214586   3.541   4.341  15.830 -1.4590  2.0100 -0.4507
  985SOL     OW14587   0.533   3.700   6.513  0.0355 -0.0384  0.1572
  985SOL    HW114588   0.596   3.636   6.480 -0.1132  0.2287 -0.6474
  985SOL    HW214589   0.582   3.744   6.583  1.0959 -2.0464  0.6708
  986SOL     OW14590   1.134   1.684   3.761 -0.1596  0.1485 -0.2700
  986SOL    HW114591   1.069   1.650   3.699 -0.2438  0.5189 -0.3876
  986SOL    HW214592   1.092   1.770   3.774 -0.4166  0.3707 -2.5678
  987SOL     OW14593   0.030   0.555  17.454 -0.0901  0.4773  0.0794
  987SOL    HW114594   0.020   0.631  17.396  1.7243  2.1327  1.9446
  987SOL    HW214595   0.078   0.600  17.524 -0.6188  1.7884 -0.3961
  988SOL     OW14596   2.336   4.522   1.497  0.0137 -0.0811 -0.2468
  988SOL    HW114597   2.262   4.516   1.438  0.1253 -1.8165 -0.2141
  988SOL    HW214598   2.409   4.489   1.444  0.4665  0.8920 -0.2305
  989SOL     OW14599   1.645   2.120   4.309  0.5156  0.4346 -0.5122
  989SOL    HW114600   1.609   2.162   4.230 -0.2811 -0.0489 -0.4067
  989SOL    HW214601   1.617   2.185   4.373 -0.9541  0.6863 -1.4085
  990SOL     OW14602   3.957   4.564  16.489  0.4888 -0.4208 -0.5743
  990SOL    HW114603   4.027   4.622  16.460 -0.2901  1.4817  1.3604
  990SOL    HW214604   3.984   4.554  16.580  0.5179 -0.0913 -0.5464
  991SOL     OW14605   0.200   2.169   1.471  0.3011  0.3968 -0.3429
  991SOL    HW114606   0.174   2.101   1.533 -0.9930  1.0794 -0.1507
  991SOL    HW214607   0.136   2.233   1.502 -0.0182 -1.1811  2.2633
  992SOL     OW14608   0.548   2.090   6.653 -0.3501  0.6725  0.7677
  992SOL    HW114609   0.506   2.131   6.728 -1.5095 -1.8255  1.4944
  992SOL    HW214610   0.480   2.109   6.588  2.2585 -0.4891 -2.3057
  993SOL     OW14611   4.509   3.568   6.184 -0.6220 -0.6426  0.0533
  993SOL    HW114612   4.480   3.645   6.232  0.2059  0.8460 -1.8577
  993SOL    HW214613   4.537   3.607   6.102  1.7904  0.3974  1.3765
  994SOL     OW14614   1.859   3.437  13.749  0.5069  0.0964 -0.0531
  994SOL    HW114615   1.861   3.449  13.844  0.8278 -1.2444  0.1141
  994SOL    HW214616   1.775   3.473  13.722  0.7541  1.0826  0.4639
  995SOL     OW14617   4.381   1.756   6.063  1.2705 -0.5505  0.0140
  995SOL    HW114618   4.323   1.690   6.101 -0.1980  1.3952  1.1148
  995SOL    HW214619   4.372   1.740   5.969  1.4990 -0.5068 -0.0169
  996SOL     OW14620   2.584   0.188   6.284  0.0057 -0.8376 -0.2205
  996SOL    HW114621   2.550   0.201   6.195  0.1780 -1.5434 -0.3871
  996SOL    HW214622   2.524   0.233   6.342 -1.9155  0.4183 -3.1559
  997SOL     OW14623   3.425   2.187   5.056  0.3872 -0.3241 -0.2303
  997SOL    HW114624   3.452   2.214   4.968  4.2633  2.7263  1.8813
  997SOL    HW214625   3.437   2.263   5.113 -1.5583 -2.2484  2.7190
  998SOL     OW14626   1.653   3.174   2.944  0.0595  0.0699  0.8309
  998SOL    HW114627   1.708   3.179   2.866  0.1221 -0.3042  0.8507
  998SOL    HW214628   1.573   3.226   2.931  0.8148  1.0024 -0.0177
  999SOL     OW14629   2.781   1.069  12.552 -0.3910 -0.1434  0.1224
  999SOL    HW114630   2.859   1.063  12.497 -1.5845 -0.9719 -1.4662
  999SOL    HW214631   2.789   1.158  12.587  1.3083 -0.1192 -0.3596
 1000SOL     OW14632   4.453   3.171   7.568  0.2635  0.2892  0.6159
 1000SOL    HW114633   4.490   3.245   7.617  1.8808 -0.2000  0.1331
 1000SOL    HW214634   4.514   3.100   7.586  3.1074  2.6413  0.1662
 1001SOL     OW14635   1.596   0.387  12.742 -0.2694 -0.1076 -0.5051
 1001SOL    HW114636   1.541   0.355  12.670  0.2875  0.9838 -1.4059
 1001SOL    HW214637   1.546   0.368  12.821  2.1030 -1.1232  0.7870
 1002SOL     OW14638   1.082   0.155   5.462  0.4599  0.4398  0.9314
 1002SOL    HW114639   1.053   0.102   5.388  1.1557 -0.9775  1.6855
 1002SOL    HW214640   1.027   0.234   5.458  1.4509  1.0878  0.1037
 1003SOL     OW14641   3.133   4.689   8.313  1.0499 -0.1548  0.3596
 1003SOL    HW114642   3.079   4.611   8.297  1.2298 -0.1847 -0.0990
 1003SOL    HW214643   3.182   4.698   8.231  2.0938 -1.5472  0.8383
 1004SOL     OW14644   4.626   1.392   9.024  0.0030  0.0522  0.2756
 1004SOL    HW114645   4.616   1.358   8.935 -1.8663 -2.6373  1.5197
 1004SOL    HW214646   4.534   1.416   9.035  0.2432  0.3677  1.5656
 1005SOL     OW14647   1.691   1.728   7.151 -0.5619  0.0872 -0.1201
 1005SOL    HW114648   1.607   1.754   7.190  0.6469 -0.2349  2.7109
 1005SOL    HW214649   1.749   1.759   7.221  0.9693 -1.4429 -0.7410
 1006SOL     OW14650   2.036   3.614  16.840 -0.1551  0.7990  0.2630
 1006SOL    HW114651   2.120   3.644  16.808  0.5567 -2.7047 -1.1676
 1006SOL    HW214652   2.063   3.527  16.870 -0.3416  0.5080 -0.4143
 1007SOL     OW14653   0.099   3.932   4.896 -0.4083  0.0144  0.1878
 1007SOL    HW114654   0.155   3.943   4.820 -1.3607  0.4656 -0.4596
 1007SOL    HW214655   0.110   3.839   4.915 -1.2725 -0.6776 -2.6473
 1008SOL     OW14656   2.119   1.523   6.219  0.0967 -0.7302 -0.2607
 1008SOL    HW114657   2.075   1.528   6.304  2.2791 -1.1615  0.8881
 1008SOL    HW214658   2.113   1.427   6.218 -0.6965 -0.7209  2.5045
 1009SOL     OW14659   1.719   4.510  15.370  0.2258 -0.0673  0.0536
 1009SOL    HW114660   1.736   4.425  15.410  1.7618  1.5245  2.8572
 1009SOL    HW214661   1.788   4.514  15.304 -1.2308  0.9962 -1.4204
 1010SOL     OW14662   0.847   1.632   7.777 -0.4689 -0.1082 -0.8038
 1010SOL    HW114663   0.923   1.582   7.807  1.9221  2.7828 -2.0652
 1010SOL    HW214664   0.851   1.720   7.816  0.5843 -0.6556  0.3375
 1011SOL     OW14665   2.697   1.178   9.632  0.4996  0.2104 -0.3236
 1011SOL    HW114666   2.635   1.233   9.585  2.0381  0.2521 -2.2973
 1011SOL    HW214667   2.657   1.092   9.627 -0.4088  0.5765  0.5485
 1012SOL     OW14668   1.075   1.758   1.608 -0.2281  0.0690  0.0406
 1012SOL    HW114669   1.156   1.808   1.593 -1.1099  2.0399  1.9171
 1012SOL    HW214670   1.039   1.751   1.520 -1.4538  1.7971  0.3990
 1013SOL     OW14671   4.457   1.983   0.970  0.1687 -0.0232  0.1874
 1013SOL    HW114672   4.447   1.971   0.876  1.6506  0.9651 -0.1005
 1013SOL    HW214673   4.551   2.000   0.963  0.1751 -0.9755 -1.9280
 1014SOL     OW14674   4.687   0.710   4.041  0.2288 -0.3508 -0.3488
 1014SOL    HW114675   0.037   0.751   4.012  0.2148  0.8745  1.3367
 1014SOL    HW214676   4.669   0.764   4.118 -2.1112 -0.4779 -0.8126
 1015SOL     OW14677   2.165   2.822   3.433  0.2391  0.1084 -0.6413
 1015SOL    HW114678   2.179   2.728   3.443 -0.5814  0.0762  0.2276
 1015SOL    HW214679   2.229   2.863   3.490 -2.6184  0.7227  2.1462
 1016SOL     OW14680   1.359   1.947   8.264 -0.2093 -0.8434  0.1729
 1016SOL    HW114681   1.424   1.996   8.315 -0.6606 -0.6706  0.5800
 1016SOL    HW214682   1.409   1.932   8.184  2.5912  4.1815  0.9811
 1017SOL     OW14683   1.028   1.553   4.197 -0.1737 -0.5084 -0.1123
 1017SOL    HW114684   0.947   1.569   4.246  0.1695 -0.4772  0.4392
 1017SOL    HW214685   0.993   1.506   4.121  0.1379 -0.0486 -0.5346
 1018SOL     OW14686   2.221   0.948   9.029  0.2217 -0.3993  0.0931
 1018SOL    HW114687   2.186   1.028   9.068  2.7078  0.9793 -0.5041
 1018SOL    HW214688   2.282   0.922   9.098  0.9592  2.7730  0.6470
 1019SOL     OW14689   0.157   0.673   7.922 -0.0316 -0.0217  0.3441
 1019SOL    HW114690   0.150   0.732   7.847  1.1538 -0.7349 -0.3202
 1019SOL    HW214691   0.064   0.668   7.947  0.4552 -0.8720  1.9852
 1020SOL     OW14692   0.573   3.620   8.114 -1.1377  0.2677  0.2137
 1020SOL    HW114693   0.538   3.663   8.036 -0.6246 -0.7360 -0.5707
 1020SOL    HW214694   0.664   3.644   8.100 -1.3574  2.4498  2.4115
 1021SOL     OW14695   0.037   4.225  13.477  0.3120 -0.2143 -0.0247
 1021SOL    HW114696   4.687   4.268  13.501  0.4416 -0.5608  1.0278
 1021SOL    HW214697   0.049   4.177  13.559 -0.7809  1.7544  1.2778
 1022SOL     OW14698   2.894   1.292   9.489 -0.0593 -0.3403 -0.7754
 1022SOL    HW114699   2.915   1.370   9.540  0.6735  0.0594 -1.6917
 1022SOL    HW214700   2.826   1.248   9.541  0.2373  1.3427  1.0398
 1023SOL     OW14701   0.121   0.926  16.056 -0.0266 -0.1888  0.7292
 1023SOL    HW114702   0.149   0.945  16.145 -1.3782  0.4747  1.0121
 1023SOL    HW214703   0.095   1.012  16.025 -0.3518  0.0946  1.8013
 1024SOL     OW14704   2.892   1.405  11.745 -0.1222 -0.4193 -0.1846
 1024SOL    HW114705   2.805   1.401  11.706 -0.1865  0.9225 -0.1884
 1024SOL    HW214706   2.870   1.455  11.824  2.4017  2.1727 -1.1027
 1025SOL     OW14707   3.386   1.829   9.005 -0.4478  0.0593 -0.3854
 1025SOL    HW114708   3.317   1.850   9.068 -0.2947 -1.4395  0.2660
 1025SOL    HW214709   3.423   1.917   8.993 -0.2686  0.1614  0.9057
 1026SOL     OW14710   0.416   4.354   5.021 -0.4121 -0.0661  0.2310
 1026SOL    HW114711   0.460   4.408   4.955 -0.6236 -1.9472 -1.4318
 1026SOL    HW214712   0.437   4.270   4.983  0.7182  1.1363 -1.7735
 1027SOL     OW14713   2.103   1.743   8.708  0.2832 -0.4567 -0.3393
 1027SOL    HW114714   2.026   1.788   8.743  0.6518 -0.0910 -0.0013
 1027SOL    HW214715   2.169   1.800   8.746  0.5113 -1.0304  0.1127
 1028SOL     OW14716   1.477   3.510   3.402  0.2115  0.1855 -0.0641
 1028SOL    HW114717   1.394   3.558   3.402  0.0725 -0.0545  0.1365
 1028SOL    HW214718   1.496   3.495   3.495  0.3459 -0.8288 -0.2546
 1029SOL     OW14719   3.349   3.916   0.711 -0.0315  0.1262 -0.1733
 1029SOL    HW114720   3.270   3.913   0.657  0.8803  2.6999 -1.6321
 1029SOL    HW214721   3.400   3.977   0.658  0.1218  0.3518  0.2348
 1030SOL     OW14722   3.750   2.691   4.450  0.0051  0.0129 -0.1865
 1030SOL    HW114723   3.781   2.775   4.415 -0.9186  0.9625  1.2989
 1030SOL    HW214724   3.777   2.696   4.541 -1.2320  2.5021  0.0273
 1031SOL     OW14725   4.713   2.228  11.947 -0.0318 -0.0656 -0.2699
 1031SOL    HW114726   4.620   2.247  11.954 -0.0553  0.2994 -1.4611
 1031SOL    HW214727   4.713   2.223  11.851 -0.2067  1.8555 -0.3721
 1032SOL     OW14728   1.900   0.933   0.009 -0.0050 -0.7357  0.0530
 1032SOL    HW114729   1.954   0.928   0.087  0.1206 -2.3711 -0.1450
 1032SOL    HW214730   1.826   0.987   0.037  0.5164 -0.5928  1.1160
 1033SOL     OW14731   2.503   0.641   9.384  0.5748  0.0176 -0.5945
 1033SOL    HW114732   2.464   0.640   9.471  1.2255 -1.9295 -0.3219
 1033SOL    HW214733   2.490   0.551   9.357 -0.7372 -0.2018  0.7486
 1034SOL     OW14734   4.348   3.370   2.882  0.6554  0.2800 -0.1266
 1034SOL    HW114735   4.294   3.388   2.959  1.9844 -0.4956  0.9822
 1034SOL    HW214736   4.397   3.451   2.869 -0.1041  0.4298 -2.1075
 1035SOL     OW14737   4.549   3.065   1.099 -0.3666 -0.0400 -0.1284
 1035SOL    HW114738   4.490   3.015   1.042  1.7614 -0.5057 -1.9062
 1035SOL    HW214739   4.516   3.045   1.187  0.4082  0.9494  0.3871
 1036SOL     OW14740   3.153   1.535   3.459  0.3514 -0.1651 -0.3324
 1036SOL    HW114741   3.226   1.595   3.445  1.5909 -1.8764 -1.3266
 1036SOL    HW214742   3.114   1.554   3.374 -1.1087  1.4087  0.6939
 1037SOL     OW14743   0.098   1.299  15.541  0.2608 -0.4083  0.4567
 1037SOL    HW114744   0.152   1.233  15.584 -0.4788 -1.3092  0.0032
 1037SOL    HW214745   0.144   1.380  15.561  0.0337 -0.3999  0.9601
 1038SOL     OW14746   2.826   1.905  12.292 -0.2493 -1.1681 -0.4907
 1038SOL    HW114747   2.836   1.975  12.357 -0.9469 -1.9110  0.4090
 1038SOL    HW214748   2.914   1.879  12.263  1.2337  1.4056  1.6165
 1039SOL     OW14749   4.289   2.427   6.668  0.2426 -0.3096  0.5646
 1039SOL    HW114750   4.272   2.421   6.762  0.7117 -1.8791  0.5336
 1039SOL    HW214751   4.384   2.417   6.662  0.7251  3.0156  2.9236
 1040SOL     OW14752   1.448   0.312   7.586  1.0892 -0.0690 -0.2883
 1040SOL    HW114753   1.498   0.232   7.602  0.7335 -0.7790 -2.8684
 1040SOL    HW214754   1.390   0.281   7.518  1.4450 -1.7313  0.1697
 1041SOL     OW14755   3.409   0.404   2.180 -0.0001 -0.0897  0.4742
 1041SOL    HW114756   3.325   0.421   2.222 -0.5291  1.4383 -1.2109
 1041SOL    HW214757   3.424   0.492   2.147  2.6715 -0.8199 -0.2391
 1042SOL     OW14758   2.176   0.470  12.990  0.2744 -0.6579  0.3703
 1042SOL    HW114759   2.226   0.493  12.912  1.1772 -0.1843  1.0869
 1042SOL    HW214760   2.111   0.416  12.945 -0.7552 -0.5266  1.6987
 1043SOL     OW14761   1.501   3.130  16.725  0.7030  0.0698  0.2227
 1043SOL    HW114762   1.507   3.048  16.774  2.9112  1.1510  1.7850
 1043SOL    HW214763   1.438   3.111  16.656  2.2334 -0.6675 -0.9619
 1044SOL     OW14764   0.244   1.339   7.266 -0.0208 -0.6594  0.0050
 1044SOL    HW114765   0.331   1.360   7.300 -0.7197 -2.1368  2.6887
 1044SOL    HW214766   0.205   1.425   7.257  0.5592 -0.6063 -1.9225
 1045SOL     OW14767   2.587   0.922   4.625 -0.9043 -0.0385 -0.5460
 1045SOL    HW114768   2.538   0.846   4.657 -0.4473 -0.2864 -0.4344
 1045SOL    HW214769   2.577   0.911   4.531  0.8090 -0.3468 -0.6877
 1046SOL     OW14770   0.770   4.644   9.354  0.0641 -0.4665  0.1754
 1046SOL    HW114771   0.834   4.713   9.372 -1.1041  0.7720 -0.5315
 1046SOL    HW214772   0.695   4.696   9.327  1.2249  1.4871  0.7382
 1047SOL     OW14773   2.433   0.949   6.147 -0.2908 -0.5844  0.0355
 1047SOL    HW114774   2.509   1.006   6.145 -1.7675  1.3079 -1.5078
 1047SOL    HW214775   2.480   0.869   6.170  0.8357 -0.0639 -0.4525
 1048SOL     OW14776   3.677   3.158  16.865 -0.1887  0.3674  0.1529
 1048SOL    HW114777   3.725   3.240  16.870  0.0146  0.3470 -1.3250
 1048SOL    HW214778   3.688   3.138  16.772  2.3078 -0.1742  0.5946
 1049SOL     OW14779   1.540   0.263  14.386 -1.2613 -0.1165 -0.5032
 1049SOL    HW114780   1.522   0.247  14.478  1.1616  0.1007  0.0128
 1049SOL    HW214781   1.497   0.195  14.334 -1.1072 -0.6998  0.1365
 1050SOL     OW14782   4.454   2.831  13.246  0.1362  0.3715 -0.3705
 1050SOL    HW114783   4.416   2.753  13.205 -1.2985 -0.0569  1.8166
 1050SOL    HW214784   4.377   2.888  13.247  1.7814  2.6198 -0.0475
 1051SOL     OW14785   0.232   1.467   2.717  0.3623 -0.5512  0.0201
 1051SOL    HW114786   0.315   1.462   2.764  0.4974 -0.3067 -0.1982
 1051SOL    HW214787   0.211   1.560   2.733  1.3878 -0.4970  1.1015
 1052SOL     OW14788   2.066   3.005   8.462 -0.2382 -0.1067 -0.0510
 1052SOL    HW114789   2.124   3.031   8.534 -1.8423 -0.6438  1.4223
 1052SOL    HW214790   2.131   3.010   8.391 -0.2242  0.2341 -0.0139
 1053SOL     OW14791   3.967   0.955  17.018 -0.2162  0.3359  0.1670
 1053SOL    HW114792   3.988   0.870  16.978  0.9862 -0.1718  1.8675
 1053SOL    HW214793   4.013   0.944  17.101  2.9747  0.9124 -1.5012
 1054SOL     OW14794   2.702   4.516   6.151  0.3952  0.2662  0.5625
 1054SOL    HW114795   2.723   4.490   6.061  1.3465  1.5818  0.4248
 1054SOL    HW214796   2.773   4.483   6.206  2.0508  4.0308  0.6313
 1055SOL     OW14797   4.380   4.451   7.224  0.0723 -0.5781 -0.0850
 1055SOL    HW114798   4.435   4.523   7.192 -0.5989  0.1500  0.4131
 1055SOL    HW214799   4.372   4.397   7.145  0.4268 -0.6227 -0.0931
 1056SOL     OW14800   3.961   4.265   2.281 -0.0669 -0.0078  0.2687
 1056SOL    HW114801   3.919   4.189   2.321  0.5366 -1.4994 -1.8878
 1056SOL    HW214802   3.949   4.321   2.358 -1.8447 -1.7133  1.2250
 1057SOL     OW14803   4.373   2.989   8.651  0.4060 -0.7350  0.2737
 1057SOL    HW114804   4.343   2.988   8.742 -0.4244 -0.5250  0.0061
 1057SOL    HW214805   4.358   2.897   8.632  0.7566 -0.7467  0.0424
 1058SOL     OW14806   0.764   0.605   8.073  0.4582  0.3246 -0.3593
 1058SOL    HW114807   0.688   0.659   8.051 -0.6038 -0.8924  0.2733
 1058SOL    HW214808   0.755   0.557   7.990 -0.6065 -0.6832  0.3320
 1059SOL     OW14809   4.259   1.496  16.797 -0.7158  0.0127 -0.0781
 1059SOL    HW114810   4.250   1.413  16.844 -1.4622  0.3348  0.3522
 1059SOL    HW214811   4.239   1.467  16.708 -4.2364 -1.0911  1.1024
 1060SOL     OW14812   1.131   2.027  16.745  0.0049 -0.2068  0.0113
 1060SOL    HW114813   1.076   2.105  16.740  1.5485  0.9844  1.2449
 1060SOL    HW214814   1.215   2.071  16.756  0.8391 -1.7349 -0.2158
 1061SOL     OW14815   4.435   1.901   5.169 -0.4009  0.0363 -0.6619
 1061SOL    HW114816   4.402   1.985   5.200  0.2210  0.9364 -2.4774
 1061SOL    HW214817   4.364   1.837   5.179 -1.1948  1.4640  2.9702
 1062SOL     OW14818   1.545   2.089   0.459  0.2387 -0.0073 -0.3507
 1062SOL    HW114819   1.494   2.146   0.516  0.9742  0.0645  0.2411
 1062SOL    HW214820   1.490   2.091   0.381  0.6177 -0.2469 -0.6241
 1063SOL     OW14821   0.246   0.518   5.339  0.9547  0.1062  0.1294
 1063SOL    HW114822   0.245   0.440   5.395 -0.9772  0.2602  0.3144
 1063SOL    HW214823   0.195   0.491   5.263  1.4071  1.3351 -0.6093
 1064SOL     OW14824   1.102   3.295   7.496 -0.1131  0.4181  0.2164
 1064SOL    HW114825   1.120   3.345   7.575 -1.4717  0.4303  0.5253
 1064SOL    HW214826   1.009   3.317   7.498  0.2711  2.0798 -0.1498
 1065SOL     OW14827   4.421   3.433   1.872 -0.7700  0.1194  0.0286
 1065SOL    HW114828   4.505   3.418   1.829 -0.7391 -2.8991  1.1525
 1065SOL    HW214829   4.370   3.391   1.802 -1.2628  0.6652  0.0610
 1066SOL     OW14830   0.683   3.483  13.662  0.3409  0.0975  0.7465
 1066SOL    HW114831   0.597   3.510  13.694  1.1989  1.1784  2.1009
 1066SOL    HW214832   0.724   3.456  13.744 -0.3576 -1.7502  0.4885
 1067SOL     OW14833   2.010   0.732   7.552  0.5103  0.0888  0.9150
 1067SOL    HW114834   2.025   0.660   7.613 -3.5572 -0.9634  0.7023
 1067SOL    HW214835   2.097   0.766   7.534 -0.6977  2.5385 -0.4043
 1068SOL     OW14836   3.423   2.847   3.682  0.1582  0.2986 -0.4264
 1068SOL    HW114837   3.502   2.898   3.700 -0.5206  1.4503 -0.6885
 1068SOL    HW214838   3.363   2.860   3.755  1.7968  1.5908  0.6922
 1069SOL     OW14839   3.328   4.732   8.951  0.1890 -0.8016  0.4127
 1069SOL    HW114840   3.373   0.047   9.021 -0.5898 -1.2091  1.2039
 1069SOL    HW214841   3.238   0.000   8.984  0.6887 -2.0517  1.8150
 1070SOL     OW14842   0.810   3.220   3.590  0.0146 -0.3838  0.3446
 1070SOL    HW114843   0.842   3.179   3.671  2.9548 -3.0674 -2.1324
 1070SOL    HW214844   0.856   3.159   3.532  0.1934 -0.6125  0.7208
 1071SOL     OW14845   0.232   0.571   2.000  0.1617 -0.0015 -0.2746
 1071SOL    HW114846   0.253   0.538   1.912 -0.3672 -0.3510 -0.2710
 1071SOL    HW214847   0.182   0.495   2.031 -0.0765  1.0218  1.8067
 1072SOL     OW14848   2.848   2.038   5.058  0.3358  0.2579  0.1620
 1072SOL    HW114849   2.854   1.994   5.143  1.0487 -0.6963 -0.3903
 1072SOL    HW214850   2.772   1.994   5.022 -0.7428  0.4015  2.2195
 1073SOL     OW14851   3.834   1.202   6.681  0.0102 -0.0023 -0.1335
 1073SOL    HW114852   3.901   1.218   6.747  0.4976  0.1907 -0.6776
 1073SOL    HW214853   3.776   1.147   6.734 -1.3898  0.2849 -1.3752
 1074SOL     OW14854   2.372   2.193   3.098 -0.0036 -0.3164  0.0447
 1074SOL    HW114855   2.462   2.215   3.120 -0.4008 -0.8151  2.1242
 1074SOL    HW214856   2.388   2.175   3.005  1.1374 -0.9430  0.3632
 1075SOL     OW14857   2.750   0.199   5.129 -0.6450 -0.3250  0.2437
 1075SOL    HW114858   2.718   0.256   5.060  0.6549  0.3801  0.2329
 1075SOL    HW214859   2.754   0.112   5.089 -1.4118  0.2551 -1.0861
 1076SOL     OW14860   3.655   3.021   8.534 -0.0431  0.3824 -0.2914
 1076SOL    HW114861   3.668   3.025   8.629 -0.1833  0.7962 -0.2942
 1076SOL    HW214862   3.622   3.107   8.508  0.1640  0.0882 -1.5124
 1077SOL     OW14863   0.612   0.983   2.060 -0.1387 -0.0414  0.6295
 1077SOL    HW114864   0.630   1.076   2.042  0.2689 -0.1075  0.6964
 1077SOL    HW214865   0.613   0.988   2.156  1.1419  0.6768  0.5858
 1078SOL     OW14866   2.778   1.075   2.109  0.7342  0.5615 -0.2283
 1078SOL    HW114867   2.844   1.043   2.048  0.6853 -0.7409  0.3831
 1078SOL    HW214868   2.701   1.102   2.059  0.1306  0.3213  0.5666
 1079SOL     OW14869   0.725   1.612  15.184 -0.1076  0.0831 -0.6583
 1079SOL    HW114870   0.715   1.539  15.246 -1.0214  1.1881  0.4715
 1079SOL    HW214871   0.744   1.682  15.246  1.6928  0.3317 -1.4711
 1080SOL     OW14872   2.008   2.314   2.350 -0.6658  0.1767  0.4905
 1080SOL    HW114873   2.097   2.278   2.360 -1.0539 -2.2645 -4.5327
 1080SOL    HW214874   1.987   2.327   2.442 -0.5006 -1.2281  0.7391
 1081SOL     OW14875   3.424   4.472   3.232  0.6109  0.1046 -0.3787
 1081SOL    HW114876   3.391   4.389   3.266 -1.9390  0.9385 -0.7816
 1081SOL    HW214877   3.358   4.498   3.168  0.9045  2.1334  0.1476
 1082SOL     OW14878   1.432   3.867   0.136  0.1671 -0.4647 -0.3231
 1082SOL    HW114879   1.390   3.910   0.211  3.2681  0.4585  0.8947
 1082SOL    HW214880   1.396   3.918   0.063  0.3188 -0.6645 -0.5329
 1083SOL     OW14881   1.234   4.507   3.725  0.1095  0.1050  0.1240
 1083SOL    HW114882   1.329   4.503   3.735  0.2311  0.2965 -0.9073
 1083SOL    HW214883   1.214   4.414   3.716  1.1179  0.0520 -1.5611
 1084SOL     OW14884   2.354   1.723   5.390 -0.4741  0.6176  0.2379
 1084SOL    HW114885   2.322   1.677   5.312  0.6982  2.2035 -1.1713
 1084SOL    HW214886   2.350   1.655   5.457 -1.2498 -0.5141 -0.9428
 1085SOL     OW14887   0.579   1.000   3.948 -0.1397 -0.2040 -0.2512
 1085SOL    HW114888   0.618   0.958   3.872  1.0151 -2.8905  1.8471
 1085SOL    HW214889   0.612   1.090   3.941 -0.4528  0.1744  3.2479
 1086SOL     OW14890   4.082   2.252  10.806 -0.4280  0.2048  0.2625
 1086SOL    HW114891   4.099   2.202  10.886  1.9269  0.5403 -0.0430
 1086SOL    HW214892   4.155   2.313  10.805 -0.2377  0.0199  2.3458
 1087SOL     OW14893   1.550   0.128   9.561  0.2573 -0.0513 -0.2648
 1087SOL    HW114894   1.546   0.112   9.466 -0.9571  0.6950 -0.3345
 1087SOL    HW214895   1.633   0.175   9.570  0.1488  0.1391 -0.2600
 1088SOL     OW14896   0.724   4.597  13.909 -0.0071 -0.4583  0.1457
 1088SOL    HW114897   0.731   4.627  14.000  0.7646 -0.5465  0.1124
 1088SOL    HW214898   0.653   4.647  13.868  1.5943  1.1885 -0.5805
 1089SOL     OW14899   0.709   1.177  15.469  0.2022 -0.0522 -0.5868
 1089SOL    HW114900   0.747   1.203  15.554  0.4996  1.9231 -1.3218
 1089SOL    HW214901   0.632   1.128  15.497  0.1835  1.0981  1.3792
 1090SOL     OW14902   3.464   1.079   4.645  0.3543  0.5205 -0.5826
 1090SOL    HW114903   3.406   1.094   4.571 -1.6984 -0.8527  0.7484
 1090SOL    HW214904   3.486   1.170   4.664  1.7440 -0.6967  3.6583
 1091SOL     OW14905   4.372   3.468   4.152  0.4636 -0.4761  0.1893
 1091SOL    HW114906   4.425   3.529   4.203 -0.4802 -0.9930  1.8052
 1091SOL    HW214907   4.301   3.447   4.213 -0.4568  0.0606 -0.6889
 1092SOL     OW14908   4.636   2.571   4.147 -0.6875  0.0007  0.2428
 1092SOL    HW114909   4.689   2.613   4.080 -1.7101  0.7652 -0.0852
 1092SOL    HW214910   4.594   2.496   4.103  1.1931 -1.6639  1.2719
 1093SOL     OW14911   1.892   3.627   4.462 -0.4065  0.6690 -0.0109
 1093SOL    HW114912   1.834   3.687   4.509 -0.5213  0.9283 -0.4839
 1093SOL    HW214913   1.828   3.604   4.395 -0.8885 -2.4246  1.5092
 1094SOL     OW14914   2.167   2.762   4.560 -0.0644 -0.3874 -0.2419
 1094SOL    HW114915   2.141   2.702   4.629 -1.2725  0.2143 -0.1558
 1094SOL    HW214916   2.137   2.845   4.597 -0.5926 -1.1977  1.1420
 1095SOL     OW14917   4.710   2.269   4.404  0.1858  0.0281  0.5078
 1095SOL    HW114918   0.035   2.274   4.327 -1.3687 -1.0300 -0.6958
 1095SOL    HW214919   0.047   2.267   4.470 -0.1852 -2.1879  0.8128
 1096SOL     OW14920   0.454   0.577   3.315 -0.7292 -0.3137 -0.1426
 1096SOL    HW114921   0.487   0.533   3.236 -1.3143  0.5094 -0.8461
 1096SOL    HW214922   0.391   0.636   3.275 -1.1047  0.7027  1.9609
 1097SOL     OW14923   1.307   3.303   6.601  0.5286  0.1654 -0.3224
 1097SOL    HW114924   1.267   3.339   6.522  1.0301 -0.7626 -0.9920
 1097SOL    HW214925   1.316   3.385   6.649 -0.2396  0.9809 -1.5764
 1098SOL     OW14926   0.319   4.416   4.374  0.2890  0.0925  0.5003
 1098SOL    HW114927   0.297   4.489   4.316 -2.9648 -1.7590 -0.6330
 1098SOL    HW214928   0.377   4.452   4.440  0.9760  1.8371 -1.0512
 1099SOL     OW14929   4.495   0.057   8.569  0.1722  0.0320 -0.0920
 1099SOL    HW114930   4.578   0.043   8.613  0.6598  0.6354 -0.8125
 1099SOL    HW214931   4.487   0.152   8.567  1.8526  0.1587 -1.3920
 1100SOL     OW14932   1.905   3.212  11.752 -0.2713 -0.2845  0.2417
 1100SOL    HW114933   1.943   3.133  11.715 -1.0392 -0.7028  0.3331
 1100SOL    HW214934   1.859   3.248  11.677  1.4628  0.9624 -0.2166
 1101SOL     OW14935   3.837   1.728   3.961 -0.4561  0.5310 -0.0863
 1101SOL    HW114936   3.860   1.746   3.870 -0.1539 -1.2385 -0.3642
 1101SOL    HW214937   3.874   1.804   4.006 -0.0123 -0.5643  1.4067
 1102SOL     OW14938   2.618   4.459   3.051 -0.0238 -0.3100  0.1934
 1102SOL    HW114939   2.659   4.479   3.135 -0.9610 -1.4258  0.9180
 1102SOL    HW214940   2.561   4.533   3.029  0.2403 -0.0046  0.5407
 1103SOL     OW14941   3.164   4.420   2.471 -0.1796  0.1415 -0.4520
 1103SOL    HW114942   3.163   4.512   2.495  2.2099 -0.1439  0.7899
 1103SOL    HW214943   3.075   4.412   2.438 -1.5153  0.5483  3.0025
 1104SOL     OW14944   1.685   2.753   2.931 -0.0994 -0.1486  0.0175
 1104SOL    HW114945   1.726   2.816   2.872 -2.2877  2.1096  0.9460
 1104SOL    HW214946   1.600   2.794   2.947  0.3334 -0.5767  3.2680
 1105SOL     OW14947   4.198   3.699  15.767 -0.0843  0.7853 -0.2165
 1105SOL    HW114948   4.179   3.662  15.681  1.7893  1.0238 -0.7509
 1105SOL    HW214949   4.118   3.707  15.819  0.9218 -0.3878  1.5142
 1106SOL     OW14950   2.766   3.934   7.476 -0.1540  0.2740  0.8021
 1106SOL    HW114951   2.853   3.953   7.441 -0.3365 -1.3836 -0.5670
 1106SOL    HW214952   2.788   3.921   7.569 -1.2435  1.1812  1.1875
 1107SOL     OW14953   0.303   2.348   1.752  0.3128  0.4993  0.7160
 1107SOL    HW114954   0.394   2.376   1.759  0.9450 -0.6560 -2.7017
 1107SOL    HW214955   0.280   2.370   1.661 -2.2046 -2.4695  0.6059
 1108SOL     OW14956   0.926   0.119   9.471 -0.1336  0.2433 -0.2557
 1108SOL    HW114957   0.998   0.183   9.468 -0.5802  0.7311 -0.5239
 1108SOL    HW214958   0.853   0.180   9.482  1.2810  1.5802  1.7656
 1109SOL     OW14959   1.306   0.215   7.397 -0.2483  0.1000 -0.4820
 1109SOL    HW114960   1.228   0.190   7.347  0.7839  0.1853 -2.1283
 1109SOL    HW214961   1.376   0.199   7.335  0.2289  0.2916  0.0085
 1110SOL     OW14962   2.013   1.661   6.751 -0.4811  0.2923  0.1025
 1110SOL    HW114963   1.955   1.676   6.826  0.7642 -0.5467  1.2346
 1110SOL    HW214964   2.081   1.607   6.791 -3.4034 -2.3204  1.5702
 1111SOL     OW14965   1.771   2.148  16.212 -0.2591 -0.0844 -0.0031
 1111SOL    HW114966   1.684   2.188  16.215  0.0417  0.6606 -1.3952
 1111SOL    HW214967   1.745   2.065  16.252 -0.1329 -0.3649 -0.5171
 1112SOL     OW14968   3.996   1.317  10.465  0.8792 -0.5005  0.3288
 1112SOL    HW114969   3.931   1.250  10.487 -0.7691  0.3239 -1.9547
 1112SOL    HW214970   3.955   1.397  10.498 -0.3838 -1.2723  0.6312
 1113SOL     OW14971   4.243   0.548   4.855 -0.5479  0.1145  0.0829
 1113SOL    HW114972   4.337   0.546   4.837 -0.5763  2.2401 -0.3956
 1113SOL    HW214973   4.245   0.547   4.950 -0.9312 -1.7426  0.0689
 1114SOL     OW14974   0.674   4.402   5.453 -0.5613  0.1282 -0.0918
 1114SOL    HW114975   0.721   4.352   5.386 -0.0031  0.7718 -0.1802
 1114SOL    HW214976   0.734   4.417   5.526  0.3119  2.5341 -1.3030
 1115SOL     OW14977   4.256   3.389   4.386  0.2882 -0.2111  0.0508
 1115SOL    HW114978   4.325   3.390   4.453 -1.4369 -1.7796  1.8763
 1115SOL    HW214979   4.190   3.410   4.453 -0.8330 -1.7068 -0.5833
 1116SOL     OW14980   1.437   0.083   4.341 -0.3131 -0.1252  0.1965
 1116SOL    HW114981   1.444   0.148   4.271  1.0038  0.3302  0.7524
 1116SOL    HW214982   1.520   0.038   4.325  0.1109  0.5189  0.6108
 1117SOL     OW14983   4.534   0.843   7.119 -0.5221  0.7033 -0.2128
 1117SOL    HW114984   4.489   0.899   7.183 -0.2192  1.8488 -1.0013
 1117SOL    HW214985   4.580   0.910   7.068  2.7915 -1.3059  0.1485
 1118SOL     OW14986   3.608   0.938   7.522  0.3459  0.5144  0.3049
 1118SOL    HW114987   3.568   1.004   7.579  0.9570  1.4723 -0.3779
 1118SOL    HW214988   3.601   0.853   7.565 -0.4481  0.0875 -0.6395
 1119SOL     OW14989   4.370   2.402   5.841  0.0936 -0.0966  0.0425
 1119SOL    HW114990   4.308   2.401   5.768  0.3468 -0.3045 -0.1685
 1119SOL    HW214991   4.433   2.468   5.812 -0.2956 -1.2404 -3.4659
 1120SOL     OW14992   2.862   1.917  15.316 -0.0577 -0.5366  0.1930
 1120SOL    HW114993   2.865   1.946  15.407  0.6680 -2.0817  0.6616
 1120SOL    HW214994   2.950   1.938  15.286 -0.6380  1.9738  0.2723
 1121SOL     OW14995   4.269   4.007   4.067  0.0159 -0.0578  0.1658
 1121SOL    HW114996   4.343   4.013   4.127  0.2853  0.6028 -0.2405
 1121SOL    HW214997   4.196   4.015   4.129 -0.3327  2.0668 -0.5191
 1122SOL     OW14998   2.353   2.307  14.036  0.1619 -0.0082 -0.0064
 1122SOL    HW114999   2.297   2.342  13.967 -0.7058  1.1648  1.2830
 1122SOL    HW215000   2.301   2.235  14.071 -1.7977  1.5795  0.3037
 1123SOL     OW15001   3.037   4.599   7.179  0.1540  0.6798 -0.9696
 1123SOL    HW115002   3.079   4.685   7.181  0.3407  0.6029 -1.7051
 1123SOL    HW215003   3.070   4.571   7.094  1.3540  0.2325 -0.3552
 1124SOL     OW15004   3.698   1.991  10.416  0.1900 -0.2656  0.2584
 1124SOL    HW115005   3.775   2.033  10.377  1.7593  0.2674  3.9165
 1124SOL    HW215006   3.634   2.062  10.404  0.1062 -0.3010  0.4932
 1125SOL     OW15007   1.260   1.693   8.178 -0.0305  0.0557 -0.7961
 1125SOL    HW115008   1.311   1.758   8.227 -1.9316  0.9723 -0.0494
 1125SOL    HW215009   1.327   1.637   8.139  0.2141 -1.0647  1.2324
 1126SOL     OW15010   1.220   2.657   7.216 -0.4437 -0.0539  0.0505
 1126SOL    HW115011   1.266   2.645   7.133  0.4517 -0.8747  0.6628
 1126SOL    HW215012   1.240   2.571   7.254 -0.6013 -0.5327 -0.9495
 1127SOL     OW15013   3.291   3.495   1.546 -0.1343  0.0835 -0.6683
 1127SOL    HW115014   3.331   3.567   1.595 -0.7265 -1.2161  1.7291
 1127SOL    HW215015   3.285   3.424   1.610  0.2143 -0.2901 -1.0496
 1128SOL     OW15016   0.384   0.397   5.593 -0.2554 -0.6518 -0.0283
 1128SOL    HW115017   0.463   0.361   5.552  0.3014 -1.1375  1.5018
 1128SOL    HW215018   0.379   0.346   5.673 -2.8442 -1.3948 -0.6660
 1129SOL     OW15019   1.748   0.996   5.718  0.3758  0.2934 -0.4840
 1129SOL    HW115020   1.711   0.909   5.730  1.8819 -0.3767 -0.6819
 1129SOL    HW215021   1.673   1.042   5.755  1.6723  2.2268 -0.2147
 1130SOL     OW15022   3.728   2.707   1.994 -0.4629 -0.3267  0.1773
 1130SOL    HW115023   3.788   2.647   2.038  0.3806 -1.0709 -1.9861
 1130SOL    HW215024   3.722   2.771   2.065  0.2246  1.4340 -1.3303
 1131SOL     OW15025   1.607   2.463  15.084  0.3920  0.1485 -0.1621
 1131SOL    HW115026   1.664   2.422  15.149  2.0598  0.7558 -1.2478
 1131SOL    HW215027   1.527   2.436  15.128 -0.8153  0.6385 -2.0819
 1132SOL     OW15028   0.559   3.381   7.766 -0.1995 -0.0415 -0.5320
 1132SOL    HW115029   0.464   3.375   7.760 -0.3461  1.2155  0.4312
 1132SOL    HW215030   0.565   3.465   7.812 -0.6421 -0.0765 -0.4080
 1133SOL     OW15031   2.172   0.244   4.050 -0.3656  0.1218  0.0518
 1133SOL    HW115032   2.188   0.151   4.064 -1.2320 -0.1986 -1.1856
 1133SOL    HW215033   2.178   0.275   4.141  1.0726  0.8143 -0.2820
 1134SOL     OW15034   4.483   0.789   3.466 -0.6903  0.7992  0.0465
 1134SOL    HW115035   4.453   0.712   3.416 -0.8075  0.7391  0.2090
 1134SOL    HW215036   4.575   0.763   3.464 -0.5795  1.2009 -0.1386
 1135SOL     OW15037   1.937   3.474  14.339  0.6528 -0.5663  0.2389
 1135SOL    HW115038   1.879   3.516  14.276  1.3011  0.7035  0.4873
 1135SOL    HW215039   2.025   3.461  14.304  0.7890 -1.2799  0.8290
 1136SOL     OW15040   2.943   2.683   2.381 -0.0645  0.3049  0.2880
 1136SOL    HW115041   3.009   2.741   2.346 -0.7825 -0.3660 -2.1561
 1136SOL    HW215042   2.884   2.696   2.307 -0.4794 -2.2379  0.1583
 1137SOL     OW15043   1.192   4.236   3.690  0.1112  0.3780  0.1116
 1137SOL    HW115044   1.223   4.161   3.638 -0.4183 -1.1931  2.0639
 1137SOL    HW215045   1.097   4.224   3.691  0.2336 -0.6802 -0.6434
 1138SOL     OW15046   3.983   2.556   1.595 -0.1256 -0.1889  0.1623
 1138SOL    HW115047   4.020   2.512   1.672 -1.5170 -0.0851  0.8856
 1138SOL    HW215048   4.051   2.535   1.532 -0.0715 -0.1101  0.1940
 1139SOL     OW15049   4.624   3.369   6.375 -0.3301  0.1924  0.3567
 1139SOL    HW115050   4.581   3.421   6.442  0.7975  1.7816 -0.1386
 1139SOL    HW215051   4.603   3.424   6.299  1.3833  0.8765  0.3704
 1140SOL     OW15052   2.937   3.096   1.680  0.4880 -0.0234 -0.0486
 1140SOL    HW115053   2.876   3.159   1.642 -1.1875 -1.4240  0.3514
 1140SOL    HW215054   3.010   3.124   1.624  1.2026 -0.6253  0.5874
 1141SOL     OW15055   1.662   2.218  11.334  0.7512  0.4453  0.6923
 1141SOL    HW115056   1.672   2.297  11.281 -0.9315 -0.2431 -0.6441
 1141SOL    HW215057   1.641   2.153  11.266 -1.2067  0.7116  1.0588
 1142SOL     OW15058   4.435   3.653   1.039 -0.0372 -0.2413  0.8908
 1142SOL    HW115059   4.529   3.636   1.042  0.3432  2.1146  2.0299
 1142SOL    HW215060   4.450   3.744   1.014 -1.7667 -0.7018 -1.7873
 1143SOL     OW15061   1.215   2.582  15.066 -0.0581  0.3757  0.4696
 1143SOL    HW115062   1.274   2.618  14.999 -3.4454  1.6444 -1.7957
 1143SOL    HW215063   1.254   2.617  15.146 -0.2074  0.5917  0.4486
 1144SOL     OW15064   0.855   2.551   3.112 -0.2836  0.2403 -0.1789
 1144SOL    HW115065   0.794   2.477   3.116 -0.1075  0.0313 -1.3858
 1144SOL    HW215066   0.878   2.559   3.020  0.2525 -0.6484 -0.1227
 1145SOL     OW15067   1.102   3.485  17.101 -0.0606  0.1351  0.1472
 1145SOL    HW115068   1.142   3.464  17.017  0.9275  1.5268  0.2680
 1145SOL    HW215069   1.099   3.580  17.088  1.3466  0.3670  1.5678
 1146SOL     OW15070   0.602   0.015  11.144  0.8216 -0.2554  0.2924
 1146SOL    HW115071   0.585   4.728  11.237 -0.4619  1.0469  0.3366
 1146SOL    HW215072   0.658   4.676  11.114  0.3575 -1.7835  3.0041
 1147SOL     OW15073   1.515   4.450   2.489  0.1551 -0.6161  0.2392
 1147SOL    HW115074   1.520   4.365   2.445  1.1714 -0.4742  0.0793
 1147SOL    HW215075   1.583   4.452   2.557 -0.0321 -1.8582  0.4695
 1148SOL     OW15076   0.132   3.738   8.980  0.3499  0.4797 -0.0280
 1148SOL    HW115077   0.107   3.654   9.020 -0.3885  0.9396  0.4807
 1148SOL    HW215078   0.227   3.729   8.980  0.2475 -0.6599 -0.6599
 1149SOL     OW15079   2.333   3.270  15.413  0.0747  1.0464  0.6643
 1149SOL    HW115080   2.365   3.181  15.427 -0.7501  0.1149 -3.4736
 1149SOL    HW215081   2.274   3.284  15.488 -2.1072 -1.1842 -0.6493
 1150SOL     OW15082   4.339   2.622   3.177 -0.4233 -0.0907 -1.0286
 1150SOL    HW115083   4.258   2.632   3.225 -0.3296  1.2433 -1.1500
 1150SOL    HW215084   4.400   2.663   3.238  0.0783  2.9709 -3.5589
 1151SOL     OW15085   4.730   1.383   3.408 -0.7574 -0.0512  0.2023
 1151SOL    HW115086   4.724   1.326   3.331  0.4151 -0.1228  0.1681
 1151SOL    HW215087   4.699   1.462   3.364  0.7081  0.1201 -0.5313
 1152SOL     OW15088   1.896   2.645   1.643 -0.3304 -0.7847 -0.0799
 1152SOL    HW115089   1.939   2.698   1.575  1.4494 -2.2490 -0.1131
 1152SOL    HW215090   1.894   2.706   1.717 -0.3621  1.2206 -1.7135
 1153SOL     OW15091   0.585   0.689  13.297  0.2175  0.3226  0.2357
 1153SOL    HW115092   0.619   0.779  13.294 -0.7857  0.6769 -0.6601
 1153SOL    HW215093   0.503   0.694  13.346  1.0485  2.8689  1.3897
 1154SOL     OW15094   2.295   1.386   3.182  0.0768  0.2521  0.1686
 1154SOL    HW115095   2.217   1.331   3.188  1.1842 -1.2043  1.2540
 1154SOL    HW215096   2.266   1.477   3.189 -0.7840 -0.0561  0.5023
 1155SOL     OW15097   0.671   1.257   4.216  0.4128  0.3249 -0.0119
 1155SOL    HW115098   0.693   1.255   4.123  0.3404 -0.9941 -0.0006
 1155SOL    HW215099   0.723   1.187   4.256  1.3233  1.2163  0.3605
 1156SOL     OW15100   4.295   3.603   8.425 -0.5147  0.7456 -0.8341
 1156SOL    HW115101   4.358   3.657   8.473  0.8261 -0.9279 -0.7208
 1156SOL    HW215102   4.296   3.519   8.470  1.4392  1.2776  0.1226
 1157SOL     OW15103   4.318   1.130   3.317 -0.1033  0.1446  0.4082
 1157SOL    HW115104   4.407   1.101   3.335 -0.0179 -1.1833 -2.1362
 1157SOL    HW215105   4.307   1.069   3.244  0.5038  0.2924  0.1902
 1158SOL     OW15106   4.151   3.923  17.313  0.0394 -0.2032  0.3229
 1158SOL    HW115107   4.156   3.942  17.219 -0.2400 -0.2829  0.2930
 1158SOL    HW215108   4.140   3.828  17.310 -1.0839 -0.0720  0.4480
 1159SOL     OW15109   1.676   1.844   8.711 -0.3839 -0.5257  0.3385
 1159SOL    HW115110   1.690   1.781   8.640  3.5998  1.4287 -0.6276
 1159SOL    HW215111   1.737   1.913   8.686 -0.7365 -0.1337  0.5744
 1160SOL     OW15112   2.450   3.160   9.201  0.0236  0.0328 -0.3270
 1160SOL    HW115113   2.433   3.133   9.291  4.5134  0.4517  0.6333
 1160SOL    HW215114   2.433   3.075   9.160  0.5793  0.8375 -2.2705
 1161SOL     OW15115   0.017   1.325   2.211  0.3680 -0.2148 -0.3532
 1161SOL    HW115116   4.681   1.324   2.278 -0.2213 -0.0183 -0.9560
 1161SOL    HW215117   0.098   1.308   2.260  2.2187  2.3609 -2.5183
 1162SOL     OW15118   0.673   1.556  16.342  0.7247 -0.3363  0.3460
 1162SOL    HW115119   0.696   1.601  16.261 -2.3330  0.2194 -0.2009
 1162SOL    HW215120   0.712   1.606  16.413 -0.0265 -1.8448  1.8284
 1163SOL     OW15121   0.397   1.358   4.363 -0.3029  0.3474 -0.2698
 1163SOL    HW115122   0.478   1.326   4.323 -0.1712 -0.3997  0.5898
 1163SOL    HW215123   0.425   1.449   4.377  1.0012  0.1574 -1.5774
 1164SOL     OW15124   0.422   0.695   0.106  0.5819 -0.0465  0.1880
 1164SOL    HW115125   0.365   0.708   0.182 -1.6419 -1.6729 -1.2011
 1164SOL    HW215126   0.484   0.768   0.113 -0.2254  0.7985 -1.3393
 1165SOL     OW15127   0.089   2.169  12.691 -0.2763 -0.1749 -0.3234
 1165SOL    HW115128   0.071   2.169  12.597 -1.1846 -0.5288 -0.1465
 1165SOL    HW215129   0.057   2.084  12.723 -1.5446 -0.2237 -1.7257
 1166SOL     OW15130   3.644   4.507   1.869 -0.0210  0.3136 -0.2407
 1166SOL    HW115131   3.649   4.477   1.779 -0.9755 -1.8786  0.4248
 1166SOL    HW215132   3.624   4.423   1.911 -1.3047  0.6009 -0.2739
 1167SOL     OW15133   2.614   4.121  16.562  0.2428  0.2173 -0.2422
 1167SOL    HW115134   2.599   4.167  16.479 -0.8795 -1.4523 -0.9585
 1167SOL    HW215135   2.562   4.041  16.558 -0.1149  0.4540 -0.3445
 1168SOL     OW15136   4.117   3.072   2.327 -0.2402  0.3894  0.0992
 1168SOL    HW115137   4.171   3.014   2.381  1.0768  1.0312 -0.5236
 1168SOL    HW215138   4.175   3.089   2.252 -0.6711 -2.4724 -0.9041
 1169SOL     OW15139   3.240   0.085   5.630  0.4884  0.6744 -0.0183
 1169SOL    HW115140   3.282   0.171   5.632 -0.2333  0.9887  2.2018
 1169SOL    HW215141   3.311   0.022   5.622  2.4809  2.7523  1.1830
 1170SOL     OW15142   4.117   1.296   8.665 -0.0107  0.8160 -0.0517
 1170SOL    HW115143   4.087   1.374   8.618 -1.7012 -0.2576 -0.7527
 1170SOL    HW215144   4.209   1.285   8.641 -0.3116 -1.1144 -0.2987
 1171SOL     OW15145   1.343   1.551   9.005 -0.0616  1.1621  0.1559
 1171SOL    HW115146   1.371   1.624   8.951 -0.0066  1.1205  0.1284
 1171SOL    HW215147   1.401   1.559   9.081  0.1889 -0.6911  0.1631
 1172SOL     OW15148   3.299   1.460   5.050  0.2224  0.0439 -0.1228
 1172SOL    HW115149   3.358   1.534   5.058  1.5068 -1.2862  2.8168
 1172SOL    HW215150   3.222   1.489   5.001  0.1504  0.7207  0.3990
 1173SOL     OW15151   1.507   4.310   1.848 -0.0263  0.6057 -0.5385
 1173SOL    HW115152   1.554   4.285   1.769 -0.6524 -2.2376 -0.0035
 1173SOL    HW215153   1.537   4.244   1.910 -1.2128  0.4696 -0.1054
 1174SOL     OW15154   1.134   1.978   2.137  0.1416 -0.6455  0.4112
 1174SOL    HW115155   1.138   2.048   2.073 -2.2192 -0.7165  0.1621
 1174SOL    HW215156   1.137   1.901   2.080 -1.1654  0.7637 -1.5868
 1175SOL     OW15157   3.124   1.301   0.107  0.2488  0.0383  0.0349
 1175SOL    HW115158   3.063   1.348   0.050 -0.5105 -1.4040 -0.3627
 1175SOL    HW215159   3.178   1.368   0.149  1.0123 -1.8114  2.0493
 1176SOL     OW15160   0.787   3.047   7.622  0.0133 -0.0575  0.4826
 1176SOL    HW115161   0.736   3.078   7.697  2.5365 -0.3471  2.3309
 1176SOL    HW215162   0.830   3.129   7.597  0.4553 -0.6167 -0.5821
 1177SOL     OW15163   4.482   1.747   8.171  0.1226 -0.9864 -1.0290
 1177SOL    HW115164   4.560   1.758   8.225  0.8426  0.1510 -2.3001
 1177SOL    HW215165   4.418   1.732   8.241  0.6632 -1.4572 -0.6393
 1178SOL     OW15166   0.587   0.479   5.933  0.2478 -0.3606  0.4987
 1178SOL    HW115167   0.681   0.487   5.947  0.3452 -1.6318  0.6156
 1178SOL    HW215168   0.579   0.553   5.873  2.4420  0.5354  1.3056
 1179SOL     OW15169   2.192   3.373   7.207  0.3129 -0.1694 -0.0226
 1179SOL    HW115170   2.212   3.374   7.113  1.2360  1.3800  0.1938
 1179SOL    HW215171   2.184   3.279   7.224  0.3047 -0.7385 -3.1010
 1180SOL     OW15172   2.428   0.042   4.853  0.0924  0.1154 -1.0309
 1180SOL    HW115173   2.397   4.687   4.878 -0.4226  0.2283 -1.2830
 1180SOL    HW215174   2.427   0.083   4.940 -0.2114 -1.1845 -0.4284
 1181SOL     OW15175   3.249   1.174  14.296 -0.4316  0.3063 -0.7243
 1181SOL    HW115176   3.326   1.119  14.310  0.1128  0.9975 -1.0172
 1181SOL    HW215177   3.279   1.254  14.254 -1.8170  0.2310 -1.8767
 1182SOL     OW15178   2.286   1.923   9.881 -0.8244 -0.1629  0.1038
 1182SOL    HW115179   2.254   1.860   9.817  0.6990 -0.3325 -0.5040
 1182SOL    HW215180   2.378   1.895   9.888 -0.7659  0.0374  0.1375
 1183SOL     OW15181   2.038   4.197   7.314  0.0869  0.8126  0.9119
 1183SOL    HW115182   2.124   4.227   7.344  0.6343  1.0410 -0.9145
 1183SOL    HW215183   1.997   4.160   7.393  1.2354 -0.0992  1.0841
 1184SOL     OW15184   4.538   0.543  14.252  0.1510 -0.3144 -0.1231
 1184SOL    HW115185   4.586   0.564  14.331  1.9584  3.1330 -2.1305
 1184SOL    HW215186   4.597   0.577  14.185 -0.4213  5.2255  2.1518
 1185SOL     OW15187   1.948   3.505   6.310  0.1745 -0.3796  0.1009
 1185SOL    HW115188   2.017   3.498   6.376  0.4842  1.2079 -0.0597
 1185SOL    HW215189   2.002   3.489   6.234 -1.7105  0.1119 -1.3374
 1186SOL     OW15190   1.281   0.217  10.053 -0.0982 -0.6642  0.5491
 1186SOL    HW115191   1.186   0.204  10.051  0.1810 -2.4044 -2.4096
 1186SOL    HW215192   1.301   0.255  10.138 -2.3295  0.2190  0.6915
 1187SOL     OW15193   0.789   3.582   4.616 -0.5244  0.2897  0.4421
 1187SOL    HW115194   0.803   3.646   4.686  3.6788  0.4890 -0.5888
 1187SOL    HW215195   0.755   3.642   4.550 -0.2511 -3.2113 -2.8933
 1188SOL     OW15196   1.528   3.816  15.892  0.8183 -0.2969 -0.0254
 1188SOL    HW115197   1.510   3.811  15.798  0.6835 -1.7215  0.0725
 1188SOL    HW215198   1.438   3.829  15.919  0.7599 -0.2462 -0.2412
 1189SOL     OW15199   3.637   0.312  14.517  0.4651  0.0510  0.5011
 1189SOL    HW115200   3.713   0.366  14.537 -0.0277  0.1852  1.9434
 1189SOL    HW215201   3.561   0.367  14.535  0.1137 -1.1081  2.4721
 1190SOL     OW15202   2.299   1.608   7.406 -0.3033  0.1850  0.8814
 1190SOL    HW115203   2.392   1.627   7.396 -0.3878 -0.3877 -1.1057
 1190SOL    HW215204   2.313   1.532   7.461  0.2140  1.6338  2.7302
 1191SOL     OW15205   2.368   2.631   6.859 -0.2026  0.1336  0.0938
 1191SOL    HW115206   2.419   2.556   6.889  0.4326  0.6031  0.1760
 1191SOL    HW215207   2.437   2.681   6.815 -0.1427 -0.2555 -0.2667
 1192SOL     OW15208   0.612   2.630   3.686 -0.7277 -0.3850 -0.7389
 1192SOL    HW115209   0.663   2.583   3.620  1.4702  1.7270 -0.5556
 1192SOL    HW215210   0.557   2.557   3.714  0.3869 -0.0508  2.3273
 1193SOL     OW15211   4.292   0.570   8.401  0.0876 -0.2261 -0.6907
 1193SOL    HW115212   4.325   0.497   8.348 -1.2594 -0.2087 -1.5720
 1193SOL    HW215213   4.198   0.571   8.383 -0.2703 -1.2016  1.1318
 1194SOL     OW15214   1.102   0.649  15.357  0.2120 -0.1114 -0.1821
 1194SOL    HW115215   1.111   0.560  15.324 -1.1690 -0.9206  1.5715
 1194SOL    HW215216   1.102   0.696  15.273  2.2633 -0.7685 -0.5552
 1195SOL     OW15217   2.408   3.623   2.468  0.1228 -0.6988 -0.2738
 1195SOL    HW115218   2.496   3.601   2.439  0.1932  0.8057 -1.2233
 1195SOL    HW215219   2.421   3.659   2.556  2.3532 -0.1391 -0.8503
 1196SOL     OW15220   2.542   3.950   5.051  0.5349  0.1111 -0.6119
 1196SOL    HW115221   2.627   3.905   5.054  0.8637  0.7293 -0.5720
 1196SOL    HW215222   2.558   4.015   5.120 -0.8151  1.5407 -1.6363
 1197SOL     OW15223   2.126   3.914   4.407  0.4525  0.0735  0.0692
 1197SOL    HW115224   2.132   3.838   4.349  0.1399  0.0064  0.1237
 1197SOL    HW215225   2.092   3.871   4.486 -1.0348 -1.9601 -1.6660
 1198SOL     OW15226   2.895   1.702   0.310  0.1459 -0.2838 -0.3353
 1198SOL    HW115227   2.869   1.618   0.273 -1.4153  0.6495 -1.3729
 1198SOL    HW215228   2.860   1.754   0.237 -1.1091 -2.3841 -1.2159
 1199SOL     OW15229   4.632   1.509   8.414  0.0887  0.6763  0.0141
 1199SOL    HW115230   4.723   1.480   8.406  0.1188  0.8364 -0.2284
 1199SOL    HW215231   4.578   1.468   8.347  0.8417  0.0277 -0.1953
 1200SOL     OW15232   3.380   1.088   8.640 -0.3229 -0.1815 -0.4217
 1200SOL    HW115233   3.353   1.107   8.730 -2.6499  2.2781 -1.6609
 1200SOL    HW215234   3.448   1.152   8.619  0.7095 -0.6239  1.5385
 1201SOL     OW15235   0.555   2.367   1.786 -0.0731  0.0731  0.2164
 1201SOL    HW115236   0.570   2.426   1.860  0.0015 -1.0805  1.1146
 1201SOL    HW215237   0.618   2.299   1.808 -1.1579 -0.6342  1.1116
 1202SOL     OW15238   1.711   0.687   9.346 -0.2526 -0.1084 -0.1966
 1202SOL    HW115239   1.802   0.716   9.354  0.3516 -2.0948  0.1254
 1202SOL    HW215240   1.723   0.639   9.428  0.5139 -2.2587 -1.5639
 1203SOL     OW15241   0.705   2.418   6.930  0.1071 -0.4656 -0.5675
 1203SOL    HW115242   0.671   2.459   7.009 -0.7377  1.2400 -1.8159
 1203SOL    HW215243   0.654   2.471   6.869  2.2943  1.8281 -0.3849
 1204SOL     OW15244   2.949   2.139   7.988 -0.4552  0.2488  1.1090
 1204SOL    HW115245   3.014   2.164   7.923 -1.1946  2.4445  1.2401
 1204SOL    HW215246   2.886   2.089   7.935  1.9980 -2.3062  0.6005
 1205SOL     OW15247   0.803   3.912  17.163  0.9148 -0.3026  0.0072
 1205SOL    HW115248   0.837   3.877  17.246  1.0812  1.4239  0.6814
 1205SOL    HW215249   0.734   3.856  17.129  0.2830  1.9167 -2.3709
 1206SOL     OW15250   3.553   1.326   2.227 -0.0885 -0.3107 -0.2998
 1206SOL    HW115251   3.467   1.302   2.260 -0.2225  0.3568 -0.1584
 1206SOL    HW215252   3.569   1.258   2.161  1.2690 -0.8197  0.5490
 1207SOL     OW15253   0.692   1.608   2.825  0.4799  0.7858  0.6453
 1207SOL    HW115254   0.753   1.534   2.836 -0.2301 -0.2267 -2.1505
 1207SOL    HW215255   0.715   1.664   2.898 -1.0098  2.7710 -0.4112
 1208SOL     OW15256   3.955   1.718   9.822 -1.0179  0.2022  0.0999
 1208SOL    HW115257   3.896   1.754   9.888 -0.9747  2.3525 -1.0288
 1208SOL    HW215258   3.901   1.720   9.743  0.7527 -2.3560 -1.1478
 1209SOL     OW15259   4.102   0.822   5.707  0.2951 -0.0330 -0.3724
 1209SOL    HW115260   4.136   0.768   5.636 -3.1517 -1.8500 -0.6404
 1209SOL    HW215261   4.016   0.849   5.675 -0.0523 -0.6670  0.0262
 1210SOL     OW15262   3.466   0.002   6.989 -0.6093 -0.2420 -0.4933
 1210SOL    HW115263   3.546   4.729   7.042  0.6670  2.7384 -2.1315
 1210SOL    HW215264   3.462   4.644   6.957 -1.1291 -0.2350 -0.4454
 1211SOL     OW15265   1.648   1.885   7.722 -0.0040  0.2246 -0.4593
 1211SOL    HW115266   1.635   1.802   7.676 -0.2313  0.5108 -0.9054
 1211SOL    HW215267   1.741   1.874   7.742  0.0905 -0.3946 -1.2735
 1212SOL     OW15268   3.538   2.994  12.624  0.1973  0.2834  0.1507
 1212SOL    HW115269   3.543   3.014  12.717 -1.0887  0.9078  0.0705
 1212SOL    HW215270   3.455   3.036  12.605  0.7664  0.3483 -2.2456
 1213SOL     OW15271   3.680   3.430  11.277  0.0888 -0.0360 -0.2107
 1213SOL    HW115272   3.610   3.431  11.211 -0.6379  0.4100  0.5558
 1213SOL    HW215273   3.754   3.406  11.223 -0.5378  0.8786 -1.4716
 1214SOL     OW15274   0.482   4.613   7.243 -0.2668 -0.0653 -0.0126
 1214SOL    HW115275   0.400   4.637   7.285 -0.6588 -0.9705 -0.2506
 1214SOL    HW215276   0.448   4.573   7.163  0.0259 -0.8044  0.2257
 1215SOL     OW15277   2.041   3.396  15.357  0.5057 -0.1600  0.5353
 1215SOL    HW115278   2.114   3.457  15.347 -1.2565  1.5592 -1.6976
 1215SOL    HW215279   1.972   3.452  15.392  0.3961  2.5374 -3.9804
 1216SOL     OW15280   3.076   1.854   9.956  0.1333 -0.4139  0.1268
 1216SOL    HW115281   3.018   1.901   9.896 -2.8635 -0.2619  3.1394
 1216SOL    HW215282   3.155   1.838   9.904  0.2687  2.0606 -0.4320
 1217SOL     OW15283   0.464   2.058  13.760  0.3161 -0.3913  0.2329
 1217SOL    HW115284   0.527   2.050  13.689  0.1919  0.3726  0.0279
 1217SOL    HW215285   0.506   2.015  13.835  2.2662 -0.3862 -0.8707
 1218SOL     OW15286   0.809   1.891   4.659  0.1293  0.4617 -0.0255
 1218SOL    HW115287   0.724   1.846   4.652 -0.2275  0.8292  1.7836
 1218SOL    HW215288   0.857   1.810   4.677 -0.5818 -0.0838 -0.5684
 1219SOL     OW15289   2.762   2.122  12.460  0.3002 -0.7069 -0.1602
 1219SOL    HW115290   2.762   2.153  12.550  2.4688  0.9997 -0.7462
 1219SOL    HW215291   2.720   2.198  12.419  0.4849 -0.0577  0.8483
 1220SOL     OW15292   2.680   2.904   5.562 -0.2349  0.0222  0.1220
 1220SOL    HW115293   2.768   2.941   5.569  0.3769 -1.3489 -0.3063
 1220SOL    HW215294   2.684   2.838   5.630 -1.2793  0.8112  0.9569
 1221SOL     OW15295   4.117   4.128   9.091 -0.3583  0.7014  0.1898
 1221SOL    HW115296   4.145   4.059   9.030  0.7519  1.9431 -0.6904
 1221SOL    HW215297   4.046   4.179   9.050 -0.4079  0.8312  0.4402
 1222SOL     OW15298   1.684   2.860   2.110  0.0381 -0.0639  0.3842
 1222SOL    HW115299   1.702   2.950   2.138  0.6200 -0.9358  2.7535
 1222SOL    HW215300   1.728   2.824   2.187  2.1401 -1.4204 -1.4526
 1223SOL     OW15301   3.935   0.133   1.774  0.4196  1.0477 -0.1858
 1223SOL    HW115302   3.857   0.096   1.815  0.8571  1.0206  0.6323
 1223SOL    HW215303   3.921   0.226   1.788 -1.0779  0.9594 -1.0840
 1224SOL     OW15304   3.795   3.524   7.667  0.3358  0.2827  0.1448
 1224SOL    HW115305   3.791   3.530   7.572  2.8979  3.1544  0.2275
 1224SOL    HW215306   3.795   3.430   7.687 -3.3619  0.5594  1.5862
 1225SOL     OW15307   3.545   3.445  11.784 -0.1865  0.6953  0.1767
 1225SOL    HW115308   3.548   3.440  11.879 -0.9259 -1.8674  0.0781
 1225SOL    HW215309   3.473   3.381  11.780 -0.5879  1.2246 -1.0349
 1226SOL     OW15310   0.641   0.893   1.787 -0.3474 -0.0014 -0.0723
 1226SOL    HW115311   0.662   0.805   1.755 -2.3743 -1.3750  2.3679
 1226SOL    HW215312   0.662   0.881   1.880  0.5107 -1.5239 -0.4575
 1227SOL     OW15313   1.212   4.019   9.246  0.0074  0.2439  0.1402
 1227SOL    HW115314   1.306   4.027   9.259  0.1601  0.0818 -0.8374
 1227SOL    HW215315   1.182   3.946   9.299  0.7606  0.1375  0.4082
 1228SOL     OW15316   3.767   3.550   3.987  0.1609 -0.4969  0.3650
 1228SOL    HW115317   3.746   3.638   3.957 -2.0024 -0.7374  1.1999
 1228SOL    HW215318   3.680   3.510   3.984  1.0089 -2.2606 -1.3699
 1229SOL     OW15319   2.949   1.700   1.551  0.0308  0.8219 -0.8272
 1229SOL    HW115320   2.862   1.661   1.562  1.0287 -1.0173  0.6048
 1229SOL    HW215321   3.003   1.627   1.584 -2.9869 -1.1311 -0.2415
 1230SOL     OW15322   1.094   2.622   8.381 -0.2933 -0.2281  0.6612
 1230SOL    HW115323   1.016   2.568   8.381 -0.8215  0.5765 -2.1785
 1230SOL    HW215324   1.164   2.561   8.404 -1.9580 -1.6818  1.8138
 1231SOL     OW15325   2.928   1.935   7.269  0.3789 -0.9194 -0.1883
 1231SOL    HW115326   2.982   1.864   7.234 -1.2246 -1.7705 -0.9370
 1231SOL    HW215327   2.993   2.001   7.295  1.0226 -0.9274 -1.8218
 1232SOL     OW15328   1.803   3.808  13.469  1.2441  0.3188  0.3896
 1232SOL    HW115329   1.797   3.735  13.408  1.3470  0.4505  0.2209
 1232SOL    HW215330   1.894   3.837  13.461  1.1007  0.9489  1.0124
 1233SOL     OW15331   1.395   0.719  10.604  0.0868 -0.8254  0.3398
 1233SOL    HW115332   1.415   0.812  10.600  1.3017 -1.0670  0.7334
 1233SOL    HW215333   1.401   0.700  10.698 -0.1899 -0.7180  0.3769
 1234SOL     OW15334   1.597   4.403  16.298  0.2365  0.6088  0.2575
 1234SOL    HW115335   1.628   4.483  16.255  2.1051 -0.1791  0.1296
 1234SOL    HW215336   1.585   4.430  16.389  3.8381  0.8709  0.6515
 1235SOL     OW15337   1.160   4.466   9.366  0.0617  1.4034  0.3813
 1235SOL    HW115338   1.106   4.491   9.440 -2.6312 -1.3417 -0.6686
 1235SOL    HW215339   1.220   4.539   9.348 -0.0163  1.3222 -0.2147
 1236SOL     OW15340   4.571   2.549   0.428  0.2983 -0.1675  0.1548
 1236SOL    HW115341   4.529   2.553   0.514 -1.8173  1.1972 -0.9486
 1236SOL    HW215342   4.513   2.488   0.381  1.4931  0.1035 -1.6730
 1237SOL     OW15343   3.444   0.175   6.748  0.3383 -0.3842  0.4663
 1237SOL    HW115344   3.355   0.161   6.716  0.8217 -0.7051 -0.7144
 1237SOL    HW215345   3.446   0.123   6.829  2.0739 -1.7915 -0.4938
 1238SOL     OW15346   4.372   3.569   7.230  0.3220  0.2877 -0.3768
 1238SOL    HW115347   4.303   3.610   7.281  0.0811 -1.2009  0.5006
 1238SOL    HW215348   4.342   3.574   7.139 -0.6636 -2.5682 -0.1949
 1239SOL     OW15349   3.117   0.349   6.703  0.0420 -0.0988 -0.3476
 1239SOL    HW115350   3.032   0.393   6.704 -0.2620 -0.7072  0.2644
 1239SOL    HW215351   3.122   0.335   6.608  1.1601  0.6543 -0.4054
 1240SOL     OW15352   3.648   2.182   6.553  0.1963 -0.0692  0.4524
 1240SOL    HW115353   3.726   2.179   6.608  0.6936  4.1664 -0.0133
 1240SOL    HW215354   3.585   2.230   6.606 -0.5173 -1.1000  0.5261
 1241SOL     OW15355   2.750   1.237   2.384 -0.4167 -0.5071  0.5520
 1241SOL    HW115356   2.806   1.168   2.348 -0.4414  0.2728 -0.9867
 1241SOL    HW215357   2.710   1.282   2.309  2.4157  0.0496 -0.6240
 1242SOL     OW15358   3.165   0.677   5.663  0.3870 -0.1240 -0.2505
 1242SOL    HW115359   3.244   0.704   5.616  1.4801 -3.3143 -0.2906
 1242SOL    HW215360   3.130   0.627   5.589  1.5314 -0.0788 -0.8223
 1243SOL     OW15361   0.143   0.773   4.407  0.2985  0.0187 -0.1924
 1243SOL    HW115362   0.062   0.758   4.456  1.0453  2.7782  1.8971
 1243SOL    HW215363   0.170   0.851   4.455 -0.7791 -0.2733  0.8877
 1244SOL     OW15364   0.587   1.591   4.450 -0.2186  0.0707 -0.6918
 1244SOL    HW115365   0.597   1.666   4.508  3.1849 -1.5445  0.8532
 1244SOL    HW215366   0.561   1.634   4.369 -1.0720 -0.6524 -0.7910
 1245SOL     OW15367   0.617   1.715   4.879 -0.2081  0.0007 -0.3881
 1245SOL    HW115368   0.528   1.731   4.845 -1.1731 -1.2473  1.5548
 1245SOL    HW215369   0.647   1.650   4.814 -0.0621 -1.4752  1.1593
 1246SOL     OW15370   1.835   4.159   3.899 -0.1640 -0.3827  0.3882
 1246SOL    HW115371   1.856   4.155   3.806 -0.3554 -2.6844  0.4440
 1246SOL    HW215372   1.870   4.075   3.929  1.2181 -0.1817 -0.6551
 1247SOL     OW15373   0.978   1.289   4.847  0.0905  0.3407 -0.2709
 1247SOL    HW115374   0.949   1.215   4.899  0.1137 -1.1336 -2.3255
 1247SOL    HW215375   1.050   1.256   4.793 -0.6196 -1.1929 -0.2722
 1248SOL     OW15376   4.391   1.868   3.108  0.4173  0.0918 -0.1112
 1248SOL    HW115377   4.388   1.775   3.132  0.6873  0.1446  0.1241
 1248SOL    HW215378   4.307   1.879   3.063  1.0113  0.1324 -1.2056
 1249SOL     OW15379   3.308   1.371  11.802 -0.0575  0.1951 -0.7124
 1249SOL    HW115380   3.393   1.369  11.758  2.1681 -0.8767  3.6401
 1249SOL    HW215381   3.258   1.351  11.723 -2.5144  0.5141  0.7285
 1250SOL     OW15382   1.084   0.608   5.671  0.4443  0.2037 -0.6967
 1250SOL    HW115383   1.063   0.646   5.586  0.6526 -0.9246 -1.2467
 1250SOL    HW215384   1.103   0.516   5.654 -1.0455  0.1506 -2.0826
 1251SOL     OW15385   1.061   0.865   3.584  0.3465 -0.0188  0.5988
 1251SOL    HW115386   1.114   0.887   3.507 -0.1265  0.1655  0.3260
 1251SOL    HW215387   1.109   0.920   3.646 -0.0037  0.3984  0.5019
 1252SOL     OW15388   4.018   1.554   3.260 -0.1398 -0.2488  0.5504
 1252SOL    HW115389   3.966   1.619   3.211  0.8340 -1.7694 -2.5027
 1252SOL    HW215390   4.105   1.561   3.221 -0.6236 -1.8934 -0.8100
 1253SOL     OW15391   0.729   0.479   7.275 -0.0458 -0.0851 -0.3339
 1253SOL    HW115392   0.709   0.439   7.359 -1.2003  0.8145 -0.1913
 1253SOL    HW215393   0.638   0.481   7.244 -0.2017  0.5840  0.1835
 1254SOL     OW15394   2.458   0.646   4.337 -0.1440  0.1357 -0.4966
 1254SOL    HW115395   2.514   0.575   4.306 -0.7314 -0.8335  0.6548
 1254SOL    HW215396   2.381   0.634   4.282  0.8163 -2.3115 -1.3119
 1255SOL     OW15397   4.380   0.409  16.195  0.2796  0.2021 -0.0401
 1255SOL    HW115398   4.422   0.324  16.184 -1.8304 -0.9476  0.8370
 1255SOL    HW215399   4.311   0.387  16.257 -0.1310 -1.5878 -1.1176
 1256SOL     OW15400   3.776   2.337   2.589  0.3916 -0.4940 -0.1126
 1256SOL    HW115401   3.781   2.241   2.589 -0.1042 -0.5131 -1.5808
 1256SOL    HW215402   3.737   2.354   2.504 -0.2943  1.7354  0.6475
 1257SOL     OW15403   0.391   3.276   8.744 -0.5993  0.4517 -0.6351
 1257SOL    HW115404   0.421   3.221   8.671 -0.0207 -0.5511  0.3624
 1257SOL    HW215405   0.449   3.352   8.738 -0.4366  0.2477 -1.6569
 1258SOL     OW15406   0.434   4.623   5.772 -0.2333 -0.2850 -0.1025
 1258SOL    HW115407   0.351   4.646   5.813  0.4152 -1.9598  2.1957
 1258SOL    HW215408   0.483   4.591   5.849  0.8844  0.9395 -0.3042
 1259SOL     OW15409   3.542   0.689   9.023 -0.1681 -0.1718  0.1537
 1259SOL    HW115410   3.533   0.763   8.962  1.7541  0.3647  0.5112
 1259SOL    HW215411   3.449   0.666   9.028 -0.4513  1.3093  1.5485
 1260SOL     OW15412   4.169   1.152   4.246  0.1174 -0.2996 -0.0055
 1260SOL    HW115413   4.151   1.232   4.198  3.1517  0.0761 -0.5395
 1260SOL    HW215414   4.090   1.141   4.298  0.0319 -0.3594 -0.1504
 1261SOL     OW15415   0.139   4.059   2.018 -0.0286 -0.3108  0.3182
 1261SOL    HW115416   0.060   4.021   2.058 -0.1359  1.9086  2.2058
 1261SOL    HW215417   0.145   4.003   1.940  1.9381 -0.3783  0.5205
 1262SOL     OW15418   0.733   4.530   6.918  0.7381 -0.0467 -0.0136
 1262SOL    HW115419   0.757   4.561   6.831  2.9903 -1.1353  0.2085
 1262SOL    HW215420   0.765   4.603   6.971  1.1802 -0.0848 -0.2268
 1263SOL     OW15421   0.425   2.702   2.371 -0.0571 -0.3609 -0.3808
 1263SOL    HW115422   0.441   2.724   2.280 -0.2665 -0.7838 -0.5210
 1263SOL    HW215423   0.400   2.789   2.401 -0.5661 -1.0032  1.0640
 1264SOL     OW15424   4.182   3.207  15.002  0.1510  1.0253  0.0776
 1264SOL    HW115425   4.260   3.234  14.952  1.7883 -0.1221  2.0098
 1264SOL    HW215426   4.199   3.115  14.983 -2.5918  0.6049 -0.3337
 1265SOL     OW15427   3.043   3.467  12.117  0.6514 -0.0705 -0.0099
 1265SOL    HW115428   3.026   3.522  12.193 -1.6695 -0.7030 -0.0638
 1265SOL    HW215429   2.971   3.488  12.058  1.5401  0.0019 -1.0744
 1266SOL     OW15430   0.065   4.249  17.105  0.4176 -0.2871 -0.4077
 1266SOL    HW115431   0.001   4.201  17.053  0.7960 -0.4478 -0.7166
 1266SOL    HW215432   0.138   4.194  17.079  1.0881 -0.4141  1.7195
 1267SOL     OW15433   0.117   2.888   6.718  0.5971 -0.4554 -0.6484
 1267SOL    HW115434   0.059   2.845   6.655 -1.7307  1.2619  0.3233
 1267SOL    HW215435   0.136   2.972   6.678  0.8304 -0.2126 -0.0218
 1268SOL     OW15436   3.396   4.190  12.176  0.2763 -0.4437 -0.2133
 1268SOL    HW115437   3.308   4.170  12.143 -0.0904  0.7785  0.0205
 1268SOL    HW215438   3.381   4.262  12.237 -1.6152 -0.3909 -0.7185
 1269SOL     OW15439   4.086   2.816  12.926  0.1411 -0.2808 -0.0318
 1269SOL    HW115440   4.026   2.857  12.988  1.4831  0.0711  1.0295
 1269SOL    HW215441   4.044   2.843  12.844 -0.8598  0.2923  0.6611
 1270SOL     OW15442   1.533   0.062  15.316 -0.7997 -0.1711  0.2985
 1270SOL    HW115443   1.603   0.096  15.260 -1.9557  2.2308  0.3286
 1270SOL    HW215444   1.588   0.014  15.378  1.2564  1.5235 -0.2219
 1271SOL     OW15445   3.192   1.916   6.736  0.2898  0.6072 -0.4876
 1271SOL    HW115446   3.281   1.880   6.734  0.1274  0.2260 -0.9569
 1271SOL    HW215447   3.222   2.006   6.721  0.1087  0.5485 -1.2207
 1272SOL     OW15448   1.379   3.873   7.353  0.3214 -0.2888  0.1747
 1272SOL    HW115449   1.321   3.923   7.296 -0.4392 -0.3531  0.8947
 1272SOL    HW215450   1.442   3.852   7.284  0.6595  0.9903  0.0819
 1273SOL     OW15451   2.100   4.100  16.096  0.3096 -0.4052  0.0661
 1273SOL    HW115452   2.039   4.151  16.043  1.1548 -1.0244 -1.5063
 1273SOL    HW215453   2.164   4.071  16.031 -1.0861  1.1267 -1.9877
 1274SOL     OW15454   4.424   2.263  10.563 -0.0763 -0.4243  0.4872
 1274SOL    HW115455   4.484   2.190  10.550  0.4454  0.5232 -2.3694
 1274SOL    HW215456   4.478   2.341  10.549 -3.0333  1.7342  1.0234
 1275SOL     OW15457   1.513   4.506   4.595  0.3677  0.3178 -0.0628
 1275SOL    HW115458   1.539   4.445   4.664  1.7587 -1.0037 -1.7153
 1275SOL    HW215459   1.595   4.535   4.554  0.1802 -0.1318 -0.7665
 1276SOL     OW15460   2.876   1.758   8.281  0.1730  0.5194 -0.0689
 1276SOL    HW115461   2.953   1.774   8.227 -0.9797  0.6330 -1.7011
 1276SOL    HW215462   2.835   1.840   8.255  0.8126  0.9040  0.1436
 1277SOL     OW15463   0.163   0.828  16.737 -0.2492  0.1744  1.0951
 1277SOL    HW115464   0.210   0.812  16.654 -1.8399 -0.9603  0.4088
 1277SOL    HW215465   0.239   0.830  16.795  0.6151  1.5351 -0.0852
 1278SOL     OW15466   3.651   3.715   4.320  0.1620  0.1853  0.5228
 1278SOL    HW115467   3.602   3.732   4.240 -0.7093  0.1551  1.0448
 1278SOL    HW215468   3.737   3.743   4.289  0.8905 -0.9467  1.4883
 1279SOL     OW15469   1.814   2.974   2.385 -0.9324 -0.0679  0.3997
 1279SOL    HW115470   1.753   2.924   2.440 -2.4358  1.2557 -0.0889
 1279SOL    HW215471   1.883   2.995   2.449 -1.9293  2.9493  0.4569
 1280SOL     OW15472   4.330   1.984  11.626  0.6143 -0.1427  0.1529
 1280SOL    HW115473   4.315   1.903  11.675 -2.1059  1.1723  1.5005
 1280SOL    HW215474   4.313   1.951  11.538 -0.9015  0.5510  0.1826
 1281SOL     OW15475   3.125   2.738  16.860 -0.1249  0.2650 -0.3092
 1281SOL    HW115476   3.034   2.765  16.872 -0.8084 -0.9565 -2.7237
 1281SOL    HW215477   3.116   2.714  16.767 -0.5439  0.7177 -0.3869
 1282SOL     OW15478   2.539   0.244   8.750  0.6595 -0.2404  0.3093
 1282SOL    HW115479   2.475   0.173   8.746  0.4121 -0.0349  0.5906
 1282SOL    HW215480   2.622   0.201   8.768  0.2240 -1.1264  0.1955
 1283SOL     OW15481   2.533   1.900  15.721 -0.6910 -0.6400  0.0181
 1283SOL    HW115482   2.503   1.944  15.641  0.8615 -1.3756 -0.9634
 1283SOL    HW215483   2.500   1.810  15.716 -1.6408 -0.2729 -0.3001
 1284SOL     OW15484   4.293   2.649   5.489  0.0805  0.1409  0.4729
 1284SOL    HW115485   4.203   2.665   5.516 -0.2956 -0.2862 -0.5202
 1284SOL    HW215486   4.266   2.633   5.399  0.3279 -0.0697  0.4370
 1285SOL     OW15487   1.629   4.576   5.417 -0.2891 -0.1099 -0.2033
 1285SOL    HW115488   1.580   4.614   5.344  0.8217 -0.3553 -1.0802
 1285SOL    HW215489   1.716   4.594   5.380 -0.3831 -1.6134 -1.1661
 1286SOL     OW15490   1.855   0.446   3.151  0.6049  0.0014 -0.0043
 1286SOL    HW115491   1.879   0.356   3.174 -0.6486 -0.5123 -0.7079
 1286SOL    HW215492   1.903   0.495   3.218 -0.2877  0.1053  0.5528
 1287SOL     OW15493   0.803   2.405   7.385 -0.4869  0.2163 -0.0013
 1287SOL    HW115494   0.793   2.462   7.308  3.2780  1.4652  0.4216
 1287SOL    HW215495   0.886   2.361   7.366 -1.1793 -1.6950  1.4811
 1288SOL     OW15496   1.655   2.456  11.731  0.0540 -0.3013 -0.1197
 1288SOL    HW115497   1.648   2.535  11.677 -1.6949  1.2338  2.3551
 1288SOL    HW215498   1.637   2.495  11.817 -0.1511 -0.2706 -0.1751
 1289SOL     OW15499   2.659   3.002   2.853  0.2232  0.4176  0.0212
 1289SOL    HW115500   2.712   2.928   2.825 -1.0093  1.0177 -3.8825
 1289SOL    HW215501   2.595   2.969   2.917 -2.6507  1.4559 -2.3429
 1290SOL     OW15502   3.894   2.272   9.169  0.2120  0.4991  0.1565
 1290SOL    HW115503   3.802   2.250   9.157 -0.8222  3.3724  2.7404
 1290SOL    HW215504   3.887   2.319   9.252 -1.4734 -0.5807  0.6145
 1291SOL     OW15505   0.153   4.221   8.885 -0.5417  0.0349  0.0271
 1291SOL    HW115506   0.153   4.158   8.956 -3.5829 -0.7886 -0.6975
 1291SOL    HW215507   0.061   4.227   8.858 -0.3036  1.0745 -0.5664
 1292SOL     OW15508   3.768   0.126   8.755 -0.1021 -0.0154  0.5876
 1292SOL    HW115509   3.790   0.074   8.677  0.6957  0.0355  0.7793
 1292SOL    HW215510   3.772   0.217   8.726  1.3943 -0.1917  0.2300
 1293SOL     OW15511   2.217   3.791   0.159 -0.3347  0.3343  0.4322
 1293SOL    HW115512   2.287   3.749   0.209  0.0083  0.7205  0.2685
 1293SOL    HW215513   2.244   3.774   0.069 -0.1699  0.2879  0.4902
 1294SOL     OW15514   1.270   1.191   6.979 -0.4698  0.1522 -0.3330
 1294SOL    HW115515   1.275   1.286   6.965  0.2347 -0.1142 -1.9433
 1294SOL    HW215516   1.200   1.186   7.044 -1.2245 -0.9420 -1.2178
 1295SOL     OW15517   0.135   3.650   7.313 -0.5271  0.1036  0.1995
 1295SOL    HW115518   0.052   3.696   7.317 -1.1689 -1.0343 -0.1528
 1295SOL    HW215519   0.131   3.597   7.233  0.2482  2.1534 -1.1839
 1296SOL     OW15520   1.164   2.740  15.613 -0.2986  0.1541 -0.0739
 1296SOL    HW115521   1.221   2.729  15.690 -1.5492 -1.9959  0.5576
 1296SOL    HW215522   1.210   2.683  15.552  0.2567  1.9564 -1.3089
 1297SOL     OW15523   3.448   1.972   7.284  0.2304 -0.5190  0.2291
 1297SOL    HW115524   3.431   1.896   7.341  0.6467 -0.8389 -0.0795
 1297SOL    HW215525   3.488   2.033   7.346  0.9895 -1.5653  0.7698
 1298SOL     OW15526   0.503   1.926  16.645 -0.1285 -0.2536  0.1795
 1298SOL    HW115527   0.438   1.976  16.694 -2.0382 -2.5616 -0.0132
 1298SOL    HW215528   0.552   1.877  16.711 -0.6104  2.2729  2.4287
 1299SOL     OW15529   0.300   1.597  17.327  0.1753 -0.5800 -0.2004
 1299SOL    HW115530   0.273   1.556  17.409 -0.5259  0.9150  0.3056
 1299SOL    HW215531   0.229   1.657  17.305  0.8820  0.3346 -0.0010
 1300SOL     OW15532   3.450   3.979  10.923 -0.6238  0.4663 -0.7847
 1300SOL    HW115533   3.381   4.009  10.865  2.6393  1.7309 -4.0306
 1300SOL    HW215534   3.416   3.896  10.954  0.7616 -1.3939 -4.2550
 1301SOL     OW15535   3.232   1.767   3.809 -0.1296 -0.1037 -0.4754
 1301SOL    HW115536   3.214   1.757   3.902 -0.7874  0.6870 -0.5235
 1301SOL    HW215537   3.152   1.816   3.789  0.6456  0.3392 -2.5015
 1302SOL     OW15538   1.915   3.215   5.452  0.5431  0.2131 -0.4731
 1302SOL    HW115539   2.009   3.229   5.443  0.5221  0.9760  0.4906
 1302SOL    HW215540   1.884   3.255   5.371 -0.6029 -1.7537 -1.0230
 1303SOL     OW15541   0.708   0.213   1.161 -0.4015  0.8869 -0.1980
 1303SOL    HW115542   0.729   0.164   1.241  2.1098  1.7868 -0.3188
 1303SOL    HW215543   0.749   0.161   1.092  2.8516  1.1944  1.4842
 1304SOL     OW15544   1.595   3.026   3.163  0.4638 -0.0818 -0.0006
 1304SOL    HW115545   1.620   3.103   3.214  1.3810 -0.2135 -0.2624
 1304SOL    HW215546   1.589   3.069   3.078 -1.9666 -0.8462 -0.2324
 1305SOL     OW15547   3.342   1.993   9.451 -0.1784 -0.8190 -0.1147
 1305SOL    HW115548   3.427   1.950   9.443  0.4836  0.1326  1.7719
 1305SOL    HW215549   3.315   1.956   9.535  2.1858 -0.1464  0.9579
 1306SOL     OW15550   4.684   2.429   2.335 -0.6225  0.1979  0.6119
 1306SOL    HW115551   4.634   2.349   2.348 -0.0808 -0.2914 -0.2950
 1306SOL    HW215552   0.040   2.393   2.324 -0.9393 -0.4036  0.0265
 1307SOL     OW15553   3.375   3.652   1.332  0.3992  0.3349 -0.1540
 1307SOL    HW115554   3.340   3.590   1.397 -0.1273  3.8337  2.8947
 1307SOL    HW215555   3.340   3.610   1.253 -2.0877  1.3539  0.3956
 1308SOL     OW15556   3.227   3.516   4.424  0.5312 -0.5385 -0.3506
 1308SOL    HW115557   3.282   3.526   4.346 -1.8939 -2.1064 -2.2775
 1308SOL    HW215558   3.151   3.569   4.403  0.2179 -1.7631 -2.3783
 1309SOL     OW15559   4.216   2.987  13.256  1.0250  0.0506  0.1284
 1309SOL    HW115560   4.253   3.018  13.339  0.2498  1.7097 -0.1407
 1309SOL    HW215561   4.208   3.073  13.216 -1.1865 -0.3141 -0.2112
 1310SOL     OW15562   4.350   0.310   8.904  0.2071 -0.1223  0.5490
 1310SOL    HW115563   4.425   0.292   8.847 -1.1140  3.1868 -2.2712
 1310SOL    HW215564   4.315   0.222   8.911  0.3630 -0.2443 -0.2050
 1311SOL     OW15565   3.999   1.577   6.064  0.0026 -0.0727 -0.2945
 1311SOL    HW115566   3.935   1.511   6.090  0.4165  0.1596  1.3274
 1311SOL    HW215567   4.067   1.578   6.132 -0.3767 -0.4796  0.0922
 1312SOL     OW15568   2.874   1.109   2.947  0.0371 -0.2171  0.2909
 1312SOL    HW115569   2.850   1.075   3.033  0.7818 -1.0131  0.1728
 1312SOL    HW215570   2.846   1.201   2.951  1.6723  0.2807  0.3599
 1313SOL     OW15571   4.483   4.509   6.772 -0.4921 -0.4484 -0.4670
 1313SOL    HW115572   4.512   4.433   6.722  0.9988  0.9668 -1.7465
 1313SOL    HW215573   4.430   4.469   6.841 -0.2517  0.5631  0.3108
 1314SOL     OW15574   0.277   2.122  14.706  0.1318 -0.2101  0.8997
 1314SOL    HW115575   0.260   2.145  14.615 -1.9964  0.0759  1.3666
 1314SOL    HW215576   0.276   2.027  14.697  0.5918 -0.1453  0.1263
 1315SOL     OW15577   3.364   2.856  16.912 -0.6941 -0.7341  0.5732
 1315SOL    HW115578   3.313   2.933  16.936 -0.2958 -0.0018 -0.9466
 1315SOL    HW215579   3.289   2.799  16.893 -1.8240  0.2781  2.0240
 1316SOL     OW15580   0.304   3.975  16.247 -0.1032 -0.2195 -0.6116
 1316SOL    HW115581   0.399   3.961  16.240  0.1842  2.1779 -1.3621
 1316SOL    HW215582   0.284   4.052  16.195 -2.4160  1.4440  2.7206
 1317SOL     OW15583   4.177   0.306   0.062  0.1665  0.4161 -0.3477
 1317SOL    HW115584   4.118   0.381   0.050  1.1646  1.2870  0.2132
 1317SOL    HW215585   4.188   0.308   0.158  0.8960 -1.4784 -0.3944
 1318SOL     OW15586   1.889   4.457   7.972 -0.0200 -0.3567 -0.1039
 1318SOL    HW115587   1.907   4.512   8.049 -1.0259 -1.1722  0.7201
 1318SOL    HW215588   1.800   4.423   7.983 -1.4659  4.0617  2.0589
 1319SOL     OW15589   3.892   1.499   2.576 -0.0615  0.0947  0.6842
 1319SOL    HW115590   3.856   1.448   2.504  0.2731 -0.7810  1.1398
 1319SOL    HW215591   3.813   1.542   2.609  0.4090  1.3496  0.2114
 1320SOL     OW15592   1.438   4.490  15.225 -0.4374  0.0271 -0.1434
 1320SOL    HW115593   1.503   4.553  15.254 -1.6221  1.1953 -0.0501
 1320SOL    HW215594   1.453   4.492  15.131 -1.5698  0.2097 -0.3146
 1321SOL     OW15595   0.770   0.758   7.174 -0.2967 -0.2214  0.2496
 1321SOL    HW115596   0.852   0.766   7.126 -1.0116 -1.0670 -1.1137
 1321SOL    HW215597   0.784   0.668   7.204 -0.4119 -0.2955  0.0745
 1322SOL     OW15598   4.082   0.493   2.149  0.7974  0.0664 -0.0575
 1322SOL    HW115599   4.114   0.422   2.094  0.4547 -1.9752  2.3841
 1322SOL    HW215600   4.165   0.514   2.192  1.3016 -0.5949 -0.7140
 1323SOL     OW15601   3.822   2.633   9.209 -0.5045 -0.1128 -0.4047
 1323SOL    HW115602   3.854   2.562   9.265 -0.7098  1.0379  1.1841
 1323SOL    HW215603   3.848   2.715   9.253 -1.3077  0.1196 -0.3693
 1324SOL     OW15604   0.233   2.557   2.082  0.0664 -0.1721  0.3427
 1324SOL    HW115605   0.199   2.646   2.086 -0.2972 -0.4028  2.0303
 1324SOL    HW215606   0.235   2.540   1.987 -0.0042 -1.2137  0.5300
 1325SOL     OW15607   1.442   1.787   5.034  0.4443 -0.4911  0.4693
 1325SOL    HW115608   1.445   1.835   5.116 -0.0339 -2.1690  1.4752
 1325SOL    HW215609   1.503   1.844   4.987  0.7479 -1.3097 -0.1384
 1326SOL     OW15610   3.755   2.289  12.217  0.2081  0.0862 -0.0729
 1326SOL    HW115611   3.726   2.351  12.150  0.3940  1.2131  0.8899
 1326SOL    HW215612   3.791   2.227  12.154  0.4912 -0.1187  0.2927
 1327SOL     OW15613   2.478   2.997   1.594  0.4001  0.0778  0.2780
 1327SOL    HW115614   2.533   2.935   1.546 -0.2968 -1.4719  1.4988
 1327SOL    HW215615   2.487   2.960   1.682  1.7871 -0.9706 -0.2865
 1328SOL     OW15616   4.726   1.734   7.263 -0.6402 -0.0650  0.4417
 1328SOL    HW115617   0.001   1.685   7.344  1.1998 -1.0673 -0.3466
 1328SOL    HW215618   4.630   1.731   7.258 -0.5270 -0.1217 -1.6946
 1329SOL     OW15619   0.072   0.361   2.132  0.2711  0.0346 -0.3331
 1329SOL    HW115620   4.724   0.335   2.085  1.0462 -1.6551 -0.7086
 1329SOL    HW215621   0.040   0.383   2.219  0.4109  1.2861 -0.5897
 1330SOL     OW15622   4.351   3.038   5.374  0.6127 -0.3818  1.6480
 1330SOL    HW115623   4.387   2.952   5.350  2.3364  0.8424 -0.1117
 1330SOL    HW215624   4.407   3.069   5.444  2.5509  0.9150 -0.4902
 1331SOL     OW15625   2.215   4.316   4.932  0.6018  0.6215  0.3537
 1331SOL    HW115626   2.252   4.282   4.851  0.1368 -0.0866  0.4417
 1331SOL    HW215627   2.138   4.360   4.896  0.9725  1.4857  0.6123
 1332SOL     OW15628   4.274   1.321   5.433  0.2159  0.0776 -0.0856
 1332SOL    HW115629   4.304   1.405   5.399  0.2515  0.5165  1.0371
 1332SOL    HW215630   4.241   1.273   5.357 -3.2650  0.4958  1.1874
 1333SOL     OW15631   0.840   1.227  13.693  0.2603  0.0142 -0.0162
 1333SOL    HW115632   0.909   1.168  13.661  1.2802  1.0763  0.2431
 1333SOL    HW215633   0.872   1.310  13.658 -2.9794  0.2363 -2.4814
 1334SOL     OW15634   0.518   3.927  10.973  0.2975 -0.1006  0.0711
 1334SOL    HW115635   0.566   4.009  10.970  0.9320 -0.4663  0.1592
 1334SOL    HW215636   0.578   3.871  11.022 -0.9676 -3.0450 -1.7426
 1335SOL     OW15637   2.452   3.435   8.518  0.1737 -0.1386  0.1772
 1335SOL    HW115638   2.483   3.523   8.537  1.4224 -0.7872  1.1452
 1335SOL    HW215639   2.506   3.413   8.442  0.1422  1.2030 -0.2408
 1336SOL     OW15640   2.869   3.236   7.876  0.0763  0.4547  0.0367
 1336SOL    HW115641   2.841   3.218   7.786 -2.2732 -0.5592  0.9941
 1336SOL    HW215642   2.960   3.208   7.876 -0.4356 -1.1624  1.1734
 1337SOL     OW15643   0.161   2.560  12.550 -0.4297 -0.3433  0.6817
 1337SOL    HW115644   0.081   2.520  12.583  0.4468 -1.6103  1.2816
 1337SOL    HW215645   0.227   2.523  12.609  1.3322  0.2447 -0.9264
 1338SOL     OW15646   3.234   1.173   6.369  0.0508  0.1581 -0.0777
 1338SOL    HW115647   3.172   1.213   6.309 -0.6943  0.0109  0.5988
 1338SOL    HW215648   3.259   1.097   6.316  0.4938 -0.8257  1.5482
 1339SOL     OW15649   4.065   0.076   0.654  0.3983  0.2310  0.7247
 1339SOL    HW115650   3.973   0.070   0.677 -0.2900  1.8613 -1.6463
 1339SOL    HW215651   4.114   0.036   0.726  0.3066 -1.0138  0.1095
 1340SOL     OW15652   0.107   0.898   6.029 -0.0631 -0.0052  0.2205
 1340SOL    HW115653   0.072   0.839   5.962 -0.5853  2.0713 -1.3491
 1340SOL    HW215654   0.050   0.973   6.016 -2.9325 -2.0423  1.0435
 1341SOL     OW15655   2.535   2.611   5.556  0.1824  0.6006  0.0763
 1341SOL    HW115656   2.585   2.573   5.483 -0.1679  0.4597 -0.0915
 1341SOL    HW215657   2.479   2.535   5.568  2.3788 -0.7667  1.4049
 1342SOL     OW15658   4.021   4.431  15.372 -0.2754 -0.0753 -0.4408
 1342SOL    HW115659   3.946   4.480  15.340 -1.7150 -0.1972  2.7200
 1342SOL    HW215660   3.990   4.398  15.456 -1.6321 -0.6550 -1.1745
 1343SOL     OW15661   4.654   0.311  14.114 -0.0505 -0.3251  0.6817
 1343SOL    HW115662   4.573   0.345  14.154 -0.8650 -0.3785 -0.9214
 1343SOL    HW215663   4.724   0.375  14.129 -0.5394 -0.5601  3.8815
 1344SOL     OW15664   3.486   2.962   2.434 -0.2578  0.0160 -0.2801
 1344SOL    HW115665   3.543   3.039   2.445  2.1698 -1.7723 -0.3871
 1344SOL    HW215666   3.414   3.001   2.384  0.0521  0.4498 -0.3939
 1345SOL     OW15667   1.641   0.002   2.422  0.1759  0.2587  0.3658
 1345SOL    HW115668   1.603   4.649   2.441  1.4790 -0.8221 -1.8046
 1345SOL    HW215669   1.589   0.051   2.486 -0.2504 -0.4882  0.5882
 1346SOL     OW15670   1.236   1.232   3.951 -0.6043 -0.5585 -0.4708
 1346SOL    HW115671   1.283   1.148   3.954 -1.5377 -1.0348  0.8807
 1346SOL    HW215672   1.295   1.275   3.890  0.9025 -0.6926  0.9198
 1347SOL     OW15673   1.016   0.174   9.202 -0.3004 -0.0491  0.3245
 1347SOL    HW115674   0.958   0.250   9.191 -0.0968 -0.0193 -0.4986
 1347SOL    HW215675   1.059   0.200   9.284 -0.8326  2.2630 -0.1161
 1348SOL     OW15676   0.159   4.554   7.742  0.3398 -0.4307  0.4928
 1348SOL    HW115677   0.125   4.472   7.706  2.2024 -0.0863 -2.0453
 1348SOL    HW215678   0.219   4.522   7.810 -0.0840 -1.8552  0.1863
 1349SOL     OW15679   3.248   1.697  11.871 -0.3343  0.0942  0.3275
 1349SOL    HW115680   3.196   1.752  11.812  0.4057  2.2201  1.6279
 1349SOL    HW215681   3.255   1.618  11.818 -0.8636  1.5075 -1.8704
 1350SOL     OW15682   1.480   2.724   3.798  0.4712 -0.1357  0.0556
 1350SOL    HW115683   1.437   2.797   3.753 -1.3966 -0.8467  0.6455
 1350SOL    HW215684   1.413   2.700   3.862  0.0573  0.5224 -0.1326
 1351SOL     OW15685   3.333   0.774   5.439  0.2899  0.0350  0.1505
 1351SOL    HW115686   3.412   0.827   5.453  0.8268 -0.6435 -0.3203
 1351SOL    HW215687   3.276   0.834   5.390 -0.2589  0.1728  0.9632
 1352SOL     OW15688   4.509   4.558   2.082  0.3508 -0.2856  0.2724
 1352SOL    HW115689   4.431   4.614   2.088  1.1835  0.9371 -0.2190
 1352SOL    HW215690   4.465   4.474   2.073 -0.0632  0.0398 -0.7664
 1353SOL     OW15691   0.414   4.087  16.483  0.4522  0.2318 -0.5822
 1353SOL    HW115692   0.326   4.116  16.507 -0.8116 -3.3860 -0.8023
 1353SOL    HW215693   0.399   4.035  16.403 -2.0710 -1.5671  1.0653
 1354SOL     OW15694   1.977   1.219   7.099 -0.2536 -0.4285  0.2744
 1354SOL    HW115695   1.938   1.267   7.027  0.8410  0.2652  0.1483
 1354SOL    HW215696   2.052   1.186   7.050 -0.1895  1.8240 -1.1121
 1355SOL     OW15697   3.683   2.274   9.871  0.2403  0.0068  0.6201
 1355SOL    HW115698   3.601   2.291   9.823  0.3546  0.2213  0.4999
 1355SOL    HW215699   3.714   2.362   9.893  1.0660 -0.2249  0.3670
 1356SOL     OW15700   1.677   2.437   4.070 -0.3286  0.2534  0.4713
 1356SOL    HW115701   1.667   2.421   3.976  2.1948 -0.2168  0.2840
 1356SOL    HW215702   1.608   2.395   4.121 -1.1879  1.2184  0.1271
 1357SOL     OW15703   3.974   3.195   7.402  0.3183  0.2409  0.5390
 1357SOL    HW115704   3.952   3.242   7.322  0.5722 -0.7651 -0.1208
 1357SOL    HW215705   4.067   3.217   7.396  0.3446  0.2472  0.9750
 1358SOL     OW15706   3.262   3.211  10.872  0.0768 -1.0063 -0.4185
 1358SOL    HW115707   3.198   3.279  10.851  1.2889  0.1773 -0.2833
 1358SOL    HW215708   3.212   3.137  10.839 -1.8580  0.6498 -1.1385
 1359SOL     OW15709   0.930   0.313   6.108 -0.1233 -0.2444  0.4446
 1359SOL    HW115710   0.851   0.300   6.160  0.9820  0.9743  2.4238
 1359SOL    HW215711   0.967   0.225   6.111 -0.7084 -0.4279  2.6272
 1360SOL     OW15712   2.275   4.445  12.056 -0.0316 -0.5576 -0.2244
 1360SOL    HW115713   2.190   4.410  12.081  1.3974 -1.5894  3.2044
 1360SOL    HW215714   2.257   4.539  12.065 -1.6106 -0.8340 -0.5245
 1361SOL     OW15715   1.648   4.710   3.466 -0.7081 -0.2429  0.1081
 1361SOL    HW115716   1.630   0.040   3.396  1.0974 -0.1207 -0.2476
 1361SOL    HW215717   1.741   4.690   3.454 -0.1824  2.7624 -0.8545
 1362SOL     OW15718   3.643   3.228   5.429 -0.1769 -0.0687 -0.3572
 1362SOL    HW115719   3.598   3.273   5.500  0.3149 -0.0665 -0.0552
 1362SOL    HW215720   3.590   3.148   5.419 -3.5000  1.9649  1.0490
 1363SOL     OW15721   4.680   4.046  12.409 -0.4463 -0.2707 -0.2368
 1363SOL    HW115722   0.007   4.002  12.470  0.7297 -0.3772 -1.4597
 1363SOL    HW215723   4.730   4.049  12.328 -0.1640 -1.2871 -0.1052
 1364SOL     OW15724   1.997   4.210   2.040  0.0575  0.2521  0.3385
 1364SOL    HW115725   1.989   4.250   2.127  1.4070 -0.5236  0.8209
 1364SOL    HW215726   1.961   4.122   2.052  0.5664  0.0004  0.0012
 1365SOL     OW15727   3.450   0.770   6.932  0.0622 -0.3170 -0.5830
 1365SOL    HW115728   3.533   0.755   6.977 -0.5868  0.2446  0.8066
 1365SOL    HW215729   3.486   0.832   6.869  0.6381  0.6525  0.7097
 1366SOL     OW15730   0.976   2.968   2.392  0.2814  0.3093 -0.0046
 1366SOL    HW115731   1.037   3.032   2.430  1.5547 -0.8752 -0.0471
 1366SOL    HW215732   1.010   2.981   2.303 -0.0452 -0.7183 -0.2760
 1367SOL     OW15733   1.186   4.449   8.892  0.5824 -0.4300 -0.6838
 1367SOL    HW115734   1.164   4.542   8.903  3.0840  0.1135 -0.2362
 1367SOL    HW215735   1.131   4.411   8.824  1.7982  1.1010 -2.5577
 1368SOL     OW15736   1.197   4.466   2.755  0.5187  0.3710  0.6457
 1368SOL    HW115737   1.226   4.554   2.778  0.2385  0.0976  2.0430
 1368SOL    HW215738   1.123   4.487   2.697  1.0677  0.8419  0.1172
 1369SOL     OW15739   1.504   4.388   9.507 -0.0756  0.1732 -0.3431
 1369SOL    HW115740   1.544   4.320   9.453  0.5168  0.0263  0.2777
 1369SOL    HW215741   1.412   4.362   9.508 -0.2411  0.7816  0.1202
 1370SOL     OW15742   0.607   1.528   2.148  0.5826  0.2180  0.4244
 1370SOL    HW115743   0.621   1.623   2.145  1.2808  0.1333  1.0031
 1370SOL    HW215744   0.556   1.517   2.068 -0.6245  0.4488  1.1551
 1371SOL     OW15745   1.133   2.816  16.473  0.1624  0.4287  0.4998
 1371SOL    HW115746   1.179   2.841  16.392 -1.6089  2.5380  0.1491
 1371SOL    HW215747   1.204   2.797  16.535 -0.3684  1.9061  1.5647
 1372SOL     OW15748   3.594   3.902  15.794  0.0772 -0.3245  0.4612
 1372SOL    HW115749   3.510   3.941  15.773  0.8705  0.7369 -0.7075
 1372SOL    HW215750   3.570   3.813  15.769 -1.3720  0.1577  0.1749
 1373SOL     OW15751   0.547   2.783  14.553 -0.4608 -0.0645 -0.6413
 1373SOL    HW115752   0.639   2.795  14.577 -0.3448 -1.6743 -0.2773
 1373SOL    HW215753   0.517   2.743  14.635  1.7306 -0.3439  0.0240
 1374SOL     OW15754   2.824   0.487   2.669  0.1703  0.3514  0.3121
 1374SOL    HW115755   2.857   0.576   2.682 -1.1801  0.8692  0.2078
 1374SOL    HW215756   2.752   0.504   2.609  0.3002 -1.6698 -0.4024
 1375SOL     OW15757   1.609   2.847   5.589  0.1615 -0.0086  0.2904
 1375SOL    HW115758   1.633   2.916   5.526  0.3521 -1.9822 -1.7997
 1375SOL    HW215759   1.516   2.867   5.597 -0.3551 -1.8065 -1.2528
 1376SOL     OW15760   0.199   0.289   4.877  0.1006  0.1894 -0.1031
 1376SOL    HW115761   0.261   0.329   4.815  1.9226 -0.8350  1.0497
 1376SOL    HW215762   0.218   0.197   4.860  0.2419 -0.0359  1.2599
 1377SOL     OW15763   2.173   1.507  10.793 -0.1142 -0.7583  0.0682
 1377SOL    HW115764   2.111   1.470  10.856  0.8269 -0.4111  1.1962
 1377SOL    HW215765   2.242   1.442  10.787  1.6139  1.1055 -0.1811
 1378SOL     OW15766   2.978   3.984  11.657  0.5649 -0.3729  0.1540
 1378SOL    HW115767   3.036   4.060  11.647  0.8208 -0.7376 -1.1854
 1378SOL    HW215768   2.978   3.960  11.564  0.4270  0.3557 -0.0317
 1379SOL     OW15769   3.906   0.457   9.420  0.3018 -0.4595 -0.6106
 1379SOL    HW115770   3.846   0.390   9.388  0.2636 -0.5758 -0.2946
 1379SOL    HW215771   3.986   0.431   9.374 -0.2699 -1.5372 -0.9699
 1380SOL     OW15772   0.233   3.682  13.957 -0.1558 -0.1085 -0.0243
 1380SOL    HW115773   0.239   3.708  13.865 -1.1815  1.4712  0.3617
 1380SOL    HW215774   0.301   3.614  13.963 -0.6339 -0.6377 -0.5940
 1381SOL     OW15775   2.295   3.439   7.916 -0.6262 -0.6611 -0.3618
 1381SOL    HW115776   2.224   3.449   7.979 -2.4431  1.4244 -2.7828
 1381SOL    HW215777   2.255   3.378   7.854 -2.5249 -1.2195  1.4132
 1382SOL     OW15778   0.825   2.639   5.140  0.3845  0.5361  0.2591
 1382SOL    HW115779   0.804   2.686   5.221 -1.6365 -1.5412  0.9237
 1382SOL    HW215780   0.842   2.712   5.080  3.4464  1.3778  2.1592
 1383SOL     OW15781   0.484   0.062   4.523 -0.0908  0.0478 -0.3791
 1383SOL    HW115782   0.395   0.080   4.495  0.3211  1.7082 -0.6300
 1383SOL    HW215783   0.473   4.709   4.566  0.5947 -0.9310 -2.1039
 1384SOL     OW15784   1.418   1.632  17.263  0.0552 -0.4666 -0.1685
 1384SOL    HW115785   1.337   1.631  17.213 -0.3151  0.6890  0.3945
 1384SOL    HW215786   1.399   1.556  17.319  1.0565  0.2387  1.1438
 1385SOL     OW15787   2.196   3.730   8.532  0.3546 -0.0460  0.2637
 1385SOL    HW115788   2.112   3.686   8.545  0.4694 -0.1497  0.6556
 1385SOL    HW215789   2.175   3.822   8.548  0.5653 -0.0997  0.8612
 1386SOL     OW15790   2.650   1.469   7.643 -0.2786  0.6880  0.8058
 1386SOL    HW115791   2.619   1.380   7.626 -0.7547  0.8445  0.8277
 1386SOL    HW215792   2.607   1.518   7.573  0.0053  0.7332  0.6649
 1387SOL     OW15793   2.777   2.582   1.338  0.4379  0.0590  0.0307
 1387SOL    HW115794   2.798   2.569   1.245  1.4308 -0.4663  0.3224
 1387SOL    HW215795   2.857   2.568   1.389  0.9193 -0.0592 -0.7403
 1388SOL     OW15796   1.004   0.721   6.747 -0.3654 -0.2574 -0.4725
 1388SOL    HW115797   1.042   0.634   6.762  1.1285 -0.0316 -2.9855
 1388SOL    HW215798   0.940   0.695   6.682 -0.1377 -0.3963 -0.6420
 1389SOL     OW15799   3.690   3.274   4.126  0.1362  0.1711  0.6613
 1389SOL    HW115800   3.681   3.290   4.032  1.4644  0.9192  0.6566
 1389SOL    HW215801   3.704   3.179   4.131 -1.1163  0.0355  1.6591
 1390SOL     OW15802   0.283   3.917   0.184 -1.0157 -0.8493  0.0405
 1390SOL    HW115803   0.374   3.945   0.187 -0.9811 -1.1264  1.3439
 1390SOL    HW215804   0.258   3.969   0.260 -1.2159  0.5391 -0.9695
 1391SOL     OW15805   3.625   0.692   8.580  0.2612  0.1520 -0.1163
 1391SOL    HW115806   3.582   0.629   8.637 -1.2368 -0.1417 -1.5773
 1391SOL    HW215807   3.714   0.690   8.615 -0.3576  2.2640  1.5788
 1392SOL     OW15808   0.282   3.637   0.188  0.1985 -0.4944 -0.0873
 1392SOL    HW115809   0.287   3.733   0.182 -2.9098 -0.3998 -0.7069
 1392SOL    HW215810   0.245   3.620   0.101  0.7324  1.3335 -0.6759
 1393SOL     OW15811   1.694   4.014  13.596  0.4711 -0.5205  0.3832
 1393SOL    HW115812   1.715   4.069  13.520 -1.1063 -0.5164 -0.0485
 1393SOL    HW215813   1.729   3.927  13.578 -0.0049 -0.8730  1.1633
 1394SOL     OW15814   4.282   3.483   5.158 -0.4863 -0.2509  0.2374
 1394SOL    HW115815   4.233   3.411   5.118 -1.1399 -1.5695  3.4080
 1394SOL    HW215816   4.251   3.474   5.248 -2.0716 -2.8259 -0.5306
 1395SOL     OW15817   3.827   4.597  15.274 -0.4724  0.4230 -0.1453
 1395SOL    HW115818   3.766   4.560  15.211 -1.2318  1.0232  0.2410
 1395SOL    HW215819   3.793   4.685  15.289 -1.7547  0.1379 -1.3786
 1396SOL     OW15820   3.640   1.932   5.831  0.6786 -0.0277 -0.0625
 1396SOL    HW115821   3.545   1.924   5.817  0.6071  1.5998 -0.4897
 1396SOL    HW215822   3.650   2.021   5.863 -1.7957  0.5511 -0.8331
 1397SOL     OW15823   2.382   0.414   6.870 -0.6870  0.0550  0.2809
 1397SOL    HW115824   2.408   0.338   6.923 -1.3560 -0.0760  0.4240
 1397SOL    HW215825   2.291   0.431   6.894 -1.2048 -1.2950 -0.7348
 1398SOL     OW15826   4.113   4.560  16.986 -0.2331 -0.2792 -0.3289
 1398SOL    HW115827   4.099   4.639  17.038 -1.2085 -0.0892 -0.8781
 1398SOL    HW215828   4.108   4.495  17.057  0.6022  0.4942  0.4380
 1399SOL     OW15829   0.431   2.096   5.978  0.0188 -0.3507  0.1535
 1399SOL    HW115830   0.358   2.034   5.974 -1.0291  0.9216 -0.1969
 1399SOL    HW215831   0.488   2.071   5.905 -0.6622  0.9159 -0.7842
 1400SOL     OW15832   4.128   4.336   5.599 -0.1791  1.1042  0.3808
 1400SOL    HW115833   4.049   4.288   5.574  1.3852 -0.7539 -1.0350
 1400SOL    HW215834   4.110   4.364   5.688 -0.8815  1.0524  0.2571
 1401SOL     OW15835   2.279   2.408   7.103 -0.0279 -0.2359  0.6236
 1401SOL    HW115836   2.236   2.355   7.170  0.5988  0.0641  1.2583
 1401SOL    HW215837   2.343   2.351   7.060  0.5090  0.7427  0.1318
 1402SOL     OW15838   4.721   1.391   7.034  0.1644  0.6534 -0.5269
 1402SOL    HW115839   0.026   1.340   7.106 -1.9952 -0.5605 -0.2986
 1402SOL    HW215840   0.055   1.401   6.966  1.2701  0.5166  0.5149
 1403SOL     OW15841   2.751   2.722  12.039  0.0760  0.7275 -0.0301
 1403SOL    HW115842   2.811   2.654  12.008  1.9267  2.6833 -0.7325
 1403SOL    HW215843   2.807   2.764  12.103  1.8244  0.7304 -1.5555
 1404SOL     OW15844   0.814   4.438   4.988 -0.0405 -0.0684 -0.1320
 1404SOL    HW115845   0.846   4.433   5.077  0.1914 -0.4242 -0.2371
 1404SOL    HW215846   0.867   4.512   4.956  1.3756 -0.2556  1.8133
 1405SOL     OW15847   3.246   3.294  16.363  0.0296  0.1420  0.1588
 1405SOL    HW115848   3.157   3.308  16.330 -0.7096 -0.6426  1.8023
 1405SOL    HW215849   3.238   3.329  16.452  0.2860  0.8722 -0.1078
 1406SOL     OW15850   2.539   1.247   7.567  0.0755  0.1512  0.5209
 1406SOL    HW115851   2.447   1.228   7.583  0.6312 -1.2975  2.0409
 1406SOL    HW215852   2.582   1.165   7.592  1.4733  0.9206  0.6576
 1407SOL     OW15853   4.284   3.000  13.518  0.6343 -0.1336  0.5392
 1407SOL    HW115854   4.312   3.007  13.610  2.5074  3.2220 -0.3073
 1407SOL    HW215855   4.230   2.922  13.529  1.9644 -1.1060  0.2066
 1408SOL     OW15856   0.743   3.373   3.392 -0.7415  0.2995  0.4647
 1408SOL    HW115857   0.748   3.311   3.466  1.0551  0.3624  0.4037
 1408SOL    HW215858   0.762   3.305   3.328  2.1856  0.4435  1.1534
 1409SOL     OW15859   2.328   3.064   2.293 -0.2364  0.0884  0.1357
 1409SOL    HW115860   2.237   3.088   2.276  0.1483  0.3954 -1.5294
 1409SOL    HW215861   2.368   3.149   2.312 -1.1741  1.0147 -1.9851
 1410SOL     OW15862   2.038   1.101   4.394 -0.0172 -0.3673 -0.7019
 1410SOL    HW115863   1.957   1.095   4.445  1.3381  0.7843  1.5405
 1410SOL    HW215864   2.005   1.082   4.306 -1.9509 -3.2106  0.6253
 1411SOL     OW15865   1.658   0.229   6.370  0.2179  0.1621  0.5817
 1411SOL    HW115866   1.717   0.196   6.437  1.0953 -1.8180 -1.1432
 1411SOL    HW215867   1.644   0.146   6.325 -1.3268  0.2290  0.9360
 1412SOL     OW15868   2.403   4.437  14.571  0.1715 -0.1918  0.2962
 1412SOL    HW115869   2.377   4.466  14.484  2.5981 -0.7775 -0.6136
 1412SOL    HW215870   2.427   4.519  14.613  1.3177 -0.5059  0.2504
 1413SOL     OW15871   0.172   1.306   3.032 -0.0598  0.2676  0.1690
 1413SOL    HW115872   0.186   1.375   2.967 -0.7646 -0.2272 -0.5173
 1413SOL    HW215873   0.077   1.306   3.043  0.1025 -0.7604  1.6378
 1414SOL     OW15874   1.689   3.188   7.174 -0.0601  0.0904  0.0001
 1414SOL    HW115875   1.601   3.163   7.201 -0.0755  0.2918  0.1448
 1414SOL    HW215876   1.740   3.112   7.203 -0.2954 -0.4616 -1.0630
 1415SOL     OW15877   3.182   0.069   1.747  0.7373  0.2790 -0.7237
 1415SOL    HW115878   3.254   0.062   1.684  0.7955  2.9401 -0.9365
 1415SOL    HW215879   3.214   0.027   1.826  1.2113 -0.8589 -1.5151
 1416SOL     OW15880   3.171   4.272   8.915 -0.0849 -0.4521 -0.1048
 1416SOL    HW115881   3.260   4.268   8.949 -0.9005  2.7255  2.3913
 1416SOL    HW215882   3.125   4.237   8.992  1.8365 -2.3624  0.1667
 1417SOL     OW15883   3.158   1.108   4.052  0.1787 -0.1496  0.6179
 1417SOL    HW115884   3.252   1.108   4.032 -0.7786  2.2223 -3.8336
 1417SOL    HW215885   3.139   1.016   4.038  0.1355 -0.2675  1.4297
 1418SOL     OW15886   2.867   2.186   2.243 -0.0841 -0.4197 -0.1504
 1418SOL    HW115887   2.780   2.186   2.204 -1.1880  0.5288  2.3279
 1418SOL    HW215888   2.856   2.126   2.317 -1.7391 -1.1135 -0.9533
 1419SOL     OW15889   3.838   2.287  10.697 -0.3829 -0.0600  0.0081
 1419SOL    HW115890   3.930   2.287  10.720 -0.4572 -0.5654  0.3038
 1419SOL    HW215891   3.821   2.202  10.738  2.2046 -0.6615 -0.1975
 1420SOL     OW15892   3.852   0.816  10.964 -0.1412 -0.0590 -0.2550
 1420SOL    HW115893   3.770   0.820  11.013  0.0204  1.7656 -0.1504
 1420SOL    HW215894   3.823   0.822  10.873 -1.8804  0.5554  0.3418
 1421SOL     OW15895   1.372   3.546  10.463  0.4706 -0.0305  0.0517
 1421SOL    HW115896   1.426   3.551  10.383  0.2705  0.2075 -0.0680
 1421SOL    HW215897   1.295   3.506  10.423 -1.6908  2.6454  1.5575
 1422SOL     OW15898   3.745   4.537   7.223 -0.0455 -0.1462  0.3682
 1422SOL    HW115899   3.656   4.556   7.252 -0.7563 -1.1116 -1.1944
 1422SOL    HW215900   3.784   4.530   7.310 -2.1446 -0.3005  1.2929
 1423SOL     OW15901   2.622   0.609  11.291  0.9629 -0.0764 -0.0131
 1423SOL    HW115902   2.672   0.542  11.339 -0.0309  1.0399  2.5712
 1423SOL    HW215903   2.697   0.648  11.246  0.6179 -0.0119 -0.5329
 1424SOL     OW15904   3.680   1.711  10.486 -0.0875  0.6027 -0.2125
 1424SOL    HW115905   3.665   1.803  10.463 -0.1005  0.6062 -0.1906
 1424SOL    HW215906   3.741   1.684  10.418  1.0505 -2.5542  2.0475
 1425SOL     OW15907   3.698   0.417  11.594  0.3581  0.0570  0.0191
 1425SOL    HW115908   3.726   0.356  11.526 -0.2126 -0.6687  0.4254
 1425SOL    HW215909   3.631   0.360  11.634  2.0001 -1.4386  0.6248
 1426SOL     OW15910   0.864   2.580   8.990 -0.1475  0.3607 -0.1410
 1426SOL    HW115911   0.810   2.659   8.983 -1.0835  0.0246  3.1569
 1426SOL    HW215912   0.830   2.557   9.077  0.0708  0.9264  0.0985
 1427SOL     OW15913   3.328   1.021   8.204 -0.0084 -0.1017 -0.3955
 1427SOL    HW115914   3.363   1.051   8.288  0.7123 -1.1931 -0.3121
 1427SOL    HW215915   3.257   0.961   8.228 -0.5813  0.9359  0.4776
 1428SOL     OW15916   2.208   0.321   9.483  0.4576 -0.8455  0.4258
 1428SOL    HW115917   2.219   0.246   9.542 -0.8008 -1.3714 -0.0211
 1428SOL    HW215918   2.295   0.319   9.443 -0.1196 -3.5304 -0.7151
 1429SOL     OW15919   4.615   3.378   3.789 -0.0310  0.7621  0.4842
 1429SOL    HW115920   4.601   3.284   3.786  1.4862  0.5263  0.8037
 1429SOL    HW215921   4.589   3.389   3.881  1.2757  0.7042  0.8621
 1430SOL     OW15922   3.903   0.026   1.536  0.0556 -0.1258 -0.0906
 1430SOL    HW115923   3.941   0.058   1.618 -3.5359 -0.5245  1.7211
 1430SOL    HW215924   3.949   0.082   1.473  0.2835  0.8469  0.9394
 1431SOL     OW15925   0.141   2.246   8.767 -0.0544  0.4833 -0.5782
 1431SOL    HW115926   0.054   2.264   8.802  0.4261 -1.9436  1.9058
 1431SOL    HW215927   0.164   2.329   8.725  2.3133  0.4849  0.7188
 1432SOL     OW15928   1.937   1.862  12.322  0.6667  0.1371  0.1698
 1432SOL    HW115929   1.875   1.811  12.374  0.3039 -1.7135 -2.1280
 1432SOL    HW215930   1.902   1.853  12.234  1.3150  0.1499 -0.0885
 1433SOL     OW15931   1.534   2.427  11.968 -0.7092 -0.4617 -0.1402
 1433SOL    HW115932   1.489   2.408  12.050  0.3729 -0.6841  0.3999
 1433SOL    HW215933   1.489   2.370  11.905  0.9178 -1.8859 -0.0290
 1434SOL     OW15934   3.436   0.408   3.856 -0.2202  0.1583  0.4591
 1434SOL    HW115935   3.481   0.421   3.773  1.0191  0.4028  1.1636
 1434SOL    HW215936   3.433   0.499   3.886  0.4649  0.3165  0.0535
 1435SOL     OW15937   3.514   2.947   3.179 -0.0909 -0.6862 -0.0333
 1435SOL    HW115938   3.423   2.953   3.208  0.3689  2.8946  0.7413
 1435SOL    HW215939   3.510   2.871   3.121  1.3831 -1.9357  1.5406
 1436SOL     OW15940   3.937   0.735  16.839 -0.1084  0.0699 -0.0273
 1436SOL    HW115941   3.854   0.777  16.862 -0.3895 -0.0384 -0.8383
 1436SOL    HW215942   3.923   0.734  16.744  0.4907  0.0629 -0.1166
 1437SOL     OW15943   2.422   0.511   1.846 -0.6309 -0.6831 -0.0073
 1437SOL    HW115944   2.399   0.490   1.936 -0.2189  0.1883  0.2977
 1437SOL    HW215945   2.347   0.469   1.804 -0.0508  0.5964 -2.2908
 1438SOL     OW15946   0.250   3.020  13.504  0.0559 -0.1313  0.4743
 1438SOL    HW115947   0.207   2.935  13.500  1.5275 -0.8403 -0.4651
 1438SOL    HW215948   0.300   3.009  13.585  0.3395  1.0889  0.4678
 1439SOL     OW15949   3.544   4.227   6.676 -0.0509 -0.1455  0.2174
 1439SOL    HW115950   3.524   4.201   6.586  0.2521  2.8577 -0.7197
 1439SOL    HW215951   3.462   4.274   6.690  0.6681  0.8283  1.1487
 1440SOL     OW15952   3.880   0.847   7.021 -0.1360 -0.0795 -0.0651
 1440SOL    HW115953   3.825   0.920   7.047 -0.4625 -1.1152  2.1151
 1440SOL    HW215954   3.929   0.831   7.101 -0.3565 -0.0076  0.0832
 1441SOL     OW15955   1.142   4.184   5.267  0.2574 -0.2798  0.0677
 1441SOL    HW115956   1.054   4.164   5.236 -0.5213  2.7087  0.3032
 1441SOL    HW215957   1.154   4.114   5.331 -1.5760 -1.7478 -1.2269
 1442SOL     OW15958   3.418   3.521  17.009  0.3709 -0.5998 -0.0530
 1442SOL    HW115959   3.378   3.567  17.082 -1.0589 -0.6387 -0.8229
 1442SOL    HW215960   3.361   3.553  16.939  2.5414  1.4773 -0.8622
 1443SOL     OW15961   2.117   1.157   3.951 -0.0261 -0.0812 -0.3571
 1443SOL    HW115962   2.151   1.085   3.897 -0.4661 -1.2495  0.9441
 1443SOL    HW215963   2.187   1.166   4.015 -1.2613  1.1831  0.7982
 1444SOL     OW15964   2.357   0.239   8.326 -0.2356  0.6160  0.0967
 1444SOL    HW115965   2.273   0.233   8.371  0.2556 -1.1782  0.7914
 1444SOL    HW215966   2.424   0.232   8.395 -0.9009 -2.3573  0.4448
 1445SOL     OW15967   0.621   3.222   8.100  0.5384 -0.7194  0.1098
 1445SOL    HW115968   0.590   3.292   8.043 -2.3109 -0.5083  1.9628
 1445SOL    HW215969   0.670   3.176   8.031  1.6702 -0.3229  0.6426
 1446SOL     OW15970   0.898   0.870   2.148  0.0198 -0.3447  0.1267
 1446SOL    HW115971   0.909   0.881   2.242 -2.8312  1.3827  0.2646
 1446SOL    HW215972   0.878   0.778   2.135 -0.4377 -0.3264  0.7092
 1447SOL     OW15973   3.262   4.697  11.169  0.5978  0.1239 -0.1309
 1447SOL    HW115974   3.356   4.700  11.185  0.8084 -2.2154 -0.8548
 1447SOL    HW215975   3.223   0.016  11.240 -1.6340  0.4072 -1.5590
 1448SOL     OW15976   3.364   1.479  10.097 -0.2826  0.4204 -0.5470
 1448SOL    HW115977   3.398   1.564  10.071 -1.4806  1.1237  0.1937
 1448SOL    HW215978   3.440   1.421  10.094 -0.4091  0.2205  0.3190
 1449SOL     OW15979   4.683   2.156  11.041  0.3431  0.3320 -0.1817
 1449SOL    HW115980   4.630   2.119  11.112  1.1257  0.0595  0.2564
 1449SOL    HW215981   0.028   2.191  11.087 -0.6171  0.6956  1.1487
 1450SOL     OW15982   0.116   0.970   2.237 -0.0110  0.0276 -0.2317
 1450SOL    HW115983   0.172   0.893   2.230 -0.3774 -0.2024 -0.6614
 1450SOL    HW215984   0.185   1.035   2.241  0.0607 -0.0722  0.0806
 1451SOL     OW15985   3.749   3.812   4.569  0.5056 -0.0453 -0.7658
 1451SOL    HW115986   3.674   3.791   4.514 -0.7592 -1.3806  1.4715
 1451SOL    HW215987   3.807   3.861   4.511 -0.8007  0.0674 -1.9453
 1452SOL     OW15988   1.169   4.413   6.850  1.0707  0.3630  0.2358
 1452SOL    HW115989   1.131   4.497   6.825  1.8166  0.0418 -1.9668
 1452SOL    HW215990   1.164   4.425   6.945  0.1678 -1.2451  0.3992
 1453SOL     OW15991   2.881   4.093   3.851  0.0349 -0.0500 -0.2593
 1453SOL    HW115992   2.943   4.120   3.784 -0.0031 -2.5886 -1.3181
 1453SOL    HW215993   2.874   4.175   3.900 -2.8232 -1.3373  1.4855
 1454SOL     OW15994   1.737   3.487   5.558 -0.0082  0.2697 -0.0656
 1454SOL    HW115995   1.688   3.446   5.487  0.4449  0.6563 -0.5979
 1454SOL    HW215996   1.673   3.485   5.630 -0.8332  0.6168 -0.8040
 1455SOL     OW15997   2.261   0.983   6.705 -0.0595  0.8624 -0.2000
 1455SOL    HW115998   2.329   1.049   6.724  1.4440 -0.1432 -2.1595
 1455SOL    HW215999   2.302   0.924   6.643  0.0848  0.4584  0.2798
 1456SOL     OW16000   3.871   0.056  13.770  0.5173  0.4034  0.7690
 1456SOL    HW116001   3.782   0.085  13.750  0.4579  0.0481  0.5110
 1456SOL    HW216002   3.878   0.092  13.858 -0.3874 -1.6659  1.6928
 1457SOL     OW16003   0.179   2.156   8.398 -0.4768  0.4552  0.6071
 1457SOL    HW116004   0.105   2.201   8.438 -0.7193 -1.9897  2.9090
 1457SOL    HW216005   0.183   2.207   8.317 -2.2419 -0.2413  0.0934
 1458SOL     OW16006   0.828   4.172   6.782 -0.0013  0.1804 -0.0619
 1458SOL    HW116007   0.744   4.211   6.755 -1.2665 -1.0105  2.1587
 1458SOL    HW216008   0.811   4.145   6.872  1.7134 -2.3359 -0.5169
 1459SOL     OW16009   0.034   2.787   2.161  0.1212  0.0820  0.0735
 1459SOL    HW116010   0.042   2.882   2.148  1.8175 -0.1838 -0.7271
 1459SOL    HW216011   0.004   2.754   2.076  2.0098 -0.8514 -0.2238
 1460SOL     OW16012   3.342   1.201  12.231 -0.0968  0.2970 -0.1359
 1460SOL    HW116013   3.279   1.266  12.200 -0.3929  0.0938  0.0411
 1460SOL    HW216014   3.419   1.248  12.197  0.1558  0.0855  0.1492
 1461SOL     OW16015   0.530   0.830  16.424  0.2508 -0.1503  0.1047
 1461SOL    HW116016   0.584   0.780  16.363 -2.0187 -1.2094 -1.0505
 1461SOL    HW216017   0.584   0.908  16.426 -1.4389  1.0409 -0.4177
 1462SOL     OW16018   0.218   2.670   6.448 -0.0211 -0.5361 -0.1606
 1462SOL    HW116019   0.182   2.759   6.441  1.0382 -0.0306  0.7366
 1462SOL    HW216020   0.182   2.653   6.534  0.5043 -2.7643 -0.3688
 1463SOL     OW16021   1.275   1.109   2.862 -0.4753  0.2324  0.1037
 1463SOL    HW116022   1.256   1.031   2.809  0.6367  0.0958 -0.0971
 1463SOL    HW216023   1.234   1.173   2.804  0.2852 -0.3266 -1.0510
 1464SOL     OW16024   1.049   1.741   2.972  0.6031  0.4367  0.0352
 1464SOL    HW116025   0.991   1.781   2.908 -0.2581  1.8694  1.7280
 1464SOL    HW216026   1.108   1.816   2.976  1.8606 -0.6071  1.4642
 1465SOL     OW16027   0.431   1.660  14.801 -0.3574 -0.2300  0.3255
 1465SOL    HW116028   0.401   1.598  14.868 -0.2882 -0.0057  0.5617
 1465SOL    HW216029   0.468   1.734  14.849  1.8445  0.5483 -2.6252
 1466SOL     OW16030   4.715   1.960  12.828  0.4794 -0.1661  0.0040
 1466SOL    HW116031   4.680   1.894  12.889  2.1402 -2.9468 -2.0559
 1466SOL    HW216032   4.637   1.962  12.773 -0.6863 -0.2227  1.6242
 1467SOL     OW16033   2.174   1.597   3.307  0.0148  0.3518  0.0618
 1467SOL    HW116034   2.185   1.581   3.401  1.8725  1.3352  0.0275
 1467SOL    HW216035   2.109   1.666   3.317 -0.9032 -0.4032 -0.7352
 1468SOL     OW16036   2.740   2.026  16.023 -0.3092  0.1528  0.4210
 1468SOL    HW116037   2.658   1.980  16.006  0.6926 -1.7457  0.7225
 1468SOL    HW216038   2.771   2.031  15.933  0.0216 -0.7363  0.4773
 1469SOL     OW16039   3.021   0.304  11.226  0.0863 -0.4464 -0.0220
 1469SOL    HW116040   3.011   0.385  11.276 -0.9766 -0.4926 -0.1601
 1469SOL    HW216041   3.050   0.246  11.297  1.7279  0.3822 -0.0206
 1470SOL     OW16042   1.424   0.219   7.106  0.1915 -0.4845  0.0145
 1470SOL    HW116043   1.507   0.205   7.151 -0.0141 -0.8274  0.2873
 1470SOL    HW216044   1.430   0.158   7.032 -1.1461  0.9192 -1.2551
 1471SOL     OW16045   2.467   3.748   6.279  0.3967  0.4432 -0.0002
 1471SOL    HW116046   2.378   3.773   6.254  1.1837  0.7131 -2.5239
 1471SOL    HW216047   2.460   3.755   6.374  1.0841 -1.3345  0.1849
 1472SOL     OW16048   3.495   0.783   4.651  0.3418  0.0967 -0.0460
 1472SOL    HW116049   3.499   0.876   4.630 -1.0357  0.0402 -0.5433
 1472SOL    HW216050   3.408   0.763   4.616  0.8557  1.8367 -2.2638
 1473SOL     OW16051   1.747   1.601   7.544 -0.4497  0.1240  0.6939
 1473SOL    HW116052   1.758   1.513   7.506  1.9109  0.8901 -0.4183
 1473SOL    HW216053   1.777   1.579   7.633  4.1422 -1.4913 -1.2082
 1474SOL     OW16054   3.150   3.698   8.665 -0.2495  0.2383  0.4809
 1474SOL    HW116055   3.083   3.765   8.667  0.5576  1.0344  0.9458
 1474SOL    HW216056   3.182   3.727   8.580  1.0935 -0.5174  0.7105
 1475SOL     OW16057   2.111   1.898  16.408 -0.0825  0.2676  0.5313
 1475SOL    HW116058   2.187   1.840  16.419  0.0856  0.4159  0.1565
 1475SOL    HW216059   2.041   1.832  16.400 -0.2457  0.5721 -0.5854
 1476SOL     OW16060   0.724   0.840   4.187 -0.2054 -0.0276 -0.2733
 1476SOL    HW116061   0.742   0.775   4.119  0.9953  0.2583 -0.2120
 1476SOL    HW216062   0.661   0.893   4.137 -1.6812  0.6073  2.2411
 1477SOL     OW16063   2.199   2.644  13.768  0.1279  0.6603 -0.3460
 1477SOL    HW116064   2.110   2.680  13.772 -0.2015 -0.1739 -0.0844
 1477SOL    HW216065   2.234   2.710  13.709 -0.6268  1.7506  0.4417
 1478SOL     OW16066   0.484   0.982  15.528  0.4062 -0.3169 -0.1929
 1478SOL    HW116067   0.493   0.890  15.503 -0.9450 -0.2777 -0.8257
 1478SOL    HW216068   0.414   1.008  15.468 -1.2279 -0.0277  1.8225
 1479SOL     OW16069   3.386   2.319  11.169  0.3572 -0.6436  0.1880
 1479SOL    HW116070   3.395   2.401  11.122  1.2419 -0.0800  1.3256
 1479SOL    HW216071   3.294   2.296  11.160  0.6861 -1.9484  0.0913
 1480SOL     OW16072   3.942   1.147  15.543 -1.1065  0.1971 -0.4442
 1480SOL    HW116073   3.995   1.227  15.546 -0.8458  0.0124 -0.0690
 1480SOL    HW216074   3.855   1.187  15.540 -0.4792  1.4397 -1.8290
 1481SOL     OW16075   2.201   4.416   3.845  0.7539 -0.3095 -0.0440
 1481SOL    HW116076   2.144   4.382   3.914  0.6543 -1.3529 -0.6434
 1481SOL    HW216077   2.161   4.369   3.772 -0.4848  0.1700  0.3421
 1482SOL     OW16078   1.926   1.121   1.022  0.0530  0.2629  0.6550
 1482SOL    HW116079   1.884   1.202   0.994  1.0837  0.3604 -0.6012
 1482SOL    HW216080   2.020   1.134   1.030 -0.0021  0.9883  0.0551
 1483SOL     OW16081   0.954   2.679   1.989  0.3718 -0.3411  0.6720
 1483SOL    HW116082   1.043   2.696   2.019  0.4475  2.4097 -1.0906
 1483SOL    HW216083   0.960   2.586   1.967  0.2670  0.1605 -1.5312
 1484SOL     OW16084   3.082   2.841   4.697  0.7657 -0.2764  0.0482
 1484SOL    HW116085   3.158   2.806   4.651 -0.5568 -1.1187 -1.4785
 1484SOL    HW216086   3.110   2.930   4.717  2.7891 -1.0985  0.8424
 1485SOL     OW16087   0.590   2.490   2.023 -0.0425  0.0050  0.2487
 1485SOL    HW116088   0.640   2.552   2.075  0.9194 -1.6771  1.3358
 1485SOL    HW216089   0.517   2.484   2.085 -0.5959  0.9341 -0.3081
 1486SOL     OW16090   2.420   3.170   0.676  0.3167  0.3404 -0.0539
 1486SOL    HW116091   2.491   3.223   0.713  1.9550 -1.3920 -0.7252
 1486SOL    HW216092   2.432   3.097   0.736  1.3678  0.3563 -0.2367
 1487SOL     OW16093   4.000   0.600   9.634 -0.4362  0.0133 -0.3660
 1487SOL    HW116094   3.945   0.571   9.561  0.9688 -0.8098 -1.1024
 1487SOL    HW216095   3.942   0.673   9.653  1.3293  2.1572 -3.2082
 1488SOL     OW16096   1.906   2.804   7.918 -0.2394 -0.0029  0.7698
 1488SOL    HW116097   1.949   2.889   7.912 -1.8081  0.9144  2.2770
 1488SOL    HW216098   1.812   2.821   7.906 -0.3893 -0.7007  0.9820
 1489SOL     OW16099   0.602   2.810   8.348 -0.6681  0.1108  0.0223
 1489SOL    HW116100   0.614   2.794   8.441 -1.4648  0.3957  0.1783
 1489SOL    HW216101   0.695   2.813   8.329 -0.3694 -1.6744  1.2223
 1490SOL     OW16102   0.004   3.440  15.620  0.1058 -0.4407 -0.1410
 1490SOL    HW116103   0.048   3.525  15.627  0.2314 -0.7820  3.2489
 1490SOL    HW216104   4.691   3.422  15.703  1.6445  1.0023  1.0247
 1491SOL     OW16105   0.071   3.604   7.022  0.4188 -0.5153  0.5038
 1491SOL    HW116106   0.048   3.681   6.971 -0.9813 -0.9507  0.4667
 1491SOL    HW216107   0.004   3.545   6.987  0.3966 -0.5977  0.6804
 1492SOL     OW16108   0.588   1.015  13.880 -0.0278  0.2482 -0.6087
 1492SOL    HW116109   0.602   0.997  13.787 -0.4573 -0.1725 -0.5916
 1492SOL    HW216110   0.610   1.107  13.892 -0.9349  0.7495 -2.8745
 1493SOL     OW16111   3.447   2.014  14.216 -0.3589  0.4408 -0.0505
 1493SOL    HW116112   3.503   2.017  14.138 -0.6388  1.1347 -0.2252
 1493SOL    HW216113   3.440   2.106  14.242 -0.7965  0.7742 -1.3418
 1494SOL     OW16114   0.449   1.506  15.059 -0.8379  0.0695  0.1189
 1494SOL    HW116115   0.463   1.471  15.147 -0.7539 -2.6622 -0.9860
 1494SOL    HW216116   0.443   1.601  15.067 -0.9171 -0.0266  1.1917
 1495SOL     OW16117   1.446   2.460   7.258  0.2230 -0.3503  0.4546
 1495SOL    HW116118   1.443   2.539   7.205  2.4012 -1.0198 -0.6822
 1495SOL    HW216119   1.475   2.391   7.198 -0.4757 -0.3848  0.1556
 1496SOL     OW16120   3.925   3.815   7.058 -0.3717  0.2332  0.0790
 1496SOL    HW116121   3.923   3.898   7.010  2.9699  0.1929 -0.1541
 1496SOL    HW216122   3.929   3.846   7.148 -1.9421  1.7792 -0.3720
 1497SOL     OW16123   2.531   1.162   1.039 -0.5356  0.1455  0.1457
 1497SOL    HW116124   2.516   1.123   0.952  2.0974 -0.0556 -0.1938
 1497SOL    HW216125   2.534   1.252   1.008 -1.4855 -0.1270 -0.7799
 1498SOL     OW16126   3.328   2.628   2.343 -0.3821  0.0092  0.5075
 1498SOL    HW116127   3.337   2.544   2.390 -0.3700 -1.4447 -2.0859
 1498SOL    HW216128   3.397   2.610   2.279  0.4265 -0.2644  1.4620
 1499SOL     OW16129   2.896   1.391   6.521 -0.2819 -0.0850 -0.1463
 1499SOL    HW116130   2.873   1.369   6.611 -2.5629 -1.0935 -0.9879
 1499SOL    HW216131   2.990   1.408   6.530 -0.1892 -0.2691 -0.7744
 1500SOL     OW16132   0.131   2.307   7.427 -0.0190  0.4301  0.2635
 1500SOL    HW116133   0.219   2.271   7.417 -1.3846 -2.0345 -2.7831
 1500SOL    HW216134   0.098   2.310   7.337  1.4192  2.7827 -0.1563
 1501SOL     OW16135   1.705   2.353   1.078  0.1155  0.4991 -0.0632
 1501SOL    HW116136   1.793   2.345   1.113 -0.2419  1.2630  1.0414
 1501SOL    HW216137   1.685   2.446   1.096 -1.0291  0.9164 -3.5047
 1502SOL     OW16138   4.310   2.031   4.139 -0.1328  0.8372 -0.2618
 1502SOL    HW116139   4.246   1.978   4.187  2.7830 -3.2756 -0.9386
 1502SOL    HW216140   4.384   2.010   4.195 -1.3177  0.5624  1.2066
 1503SOL     OW16141   1.995   2.357   4.393  0.2832 -0.0583 -0.1496
 1503SOL    HW116142   1.949   2.425   4.442  3.1243  2.2387 -0.6159
 1503SOL    HW216143   2.042   2.416   4.334  0.6983 -0.5341 -0.3017
 1504SOL     OW16144   1.630   2.885   9.099  0.3646 -0.0691  0.1045
 1504SOL    HW116145   1.572   2.844   9.034  1.3743  0.7655 -1.3190
 1504SOL    HW216146   1.586   2.970   9.105 -0.5653 -0.3991 -2.0550
 1505SOL     OW16147   4.478   2.552   5.649 -0.7536 -1.1549  0.5371
 1505SOL    HW116148   4.560   2.595   5.623 -0.0817 -3.0854 -0.5020
 1505SOL    HW216149   4.420   2.563   5.574  0.6614 -1.1373 -0.5631
 1506SOL     OW16150   0.914   1.974   3.116  0.1198 -0.0273  0.3099
 1506SOL    HW116151   0.936   1.955   3.207 -1.7629 -1.0293  0.5469
 1506SOL    HW216152   0.968   2.051   3.098  1.2218 -1.2014 -1.4154
 1507SOL     OW16153   3.610   2.572   8.086  0.0060  0.1219  0.0172
 1507SOL    HW116154   3.674   2.641   8.104  1.5092 -1.3081  0.1679
 1507SOL    HW216155   3.637   2.523   8.009  1.6850  0.4270  0.4020
 1508SOL     OW16156   1.084   2.103  13.129 -0.4193 -0.0493 -0.4566
 1508SOL    HW116157   1.056   2.133  13.043 -0.7827  1.0078  0.0235
 1508SOL    HW216158   1.142   2.031  13.102  0.6774 -0.0790  1.9143
 1509SOL     OW16159   4.611   3.098   7.036  0.0441  0.0420  0.4680
 1509SOL    HW116160   4.557   3.175   7.055  0.1162  0.0374  0.6825
 1509SOL    HW216161   4.585   3.046   7.112 -1.7121 -0.8310 -0.7119
 1510SOL     OW16162   0.534   0.664   7.545  0.5035  0.0050 -0.4881
 1510SOL    HW116163   0.471   0.594   7.563 -0.2851  0.6527 -0.6888
 1510SOL    HW216164   0.611   0.629   7.589  2.3390  3.6692 -0.7868
 1511SOL     OW16165   1.230   0.010   3.351  0.1724  0.3189  0.4774
 1511SOL    HW116166   1.298   0.018   3.284 -1.4434  0.3030 -1.1680
 1511SOL    HW216167   1.188   0.096   3.344 -0.1792  0.1288  0.2387
 1512SOL     OW16168   0.061   0.961   7.224  0.2077  0.0562  0.2081
 1512SOL    HW116169   0.132   0.929   7.168 -0.1407 -2.6129  1.2860
 1512SOL    HW216170   4.730   0.993   7.159  1.3250 -0.3392 -1.0751
 1513SOL     OW16171   3.590   1.856   9.730 -0.7017 -0.6763  0.0687
 1513SOL    HW116172   3.574   1.827   9.640 -0.2487 -0.8280  0.0334
 1513SOL    HW216173   3.529   1.929   9.740 -0.3187 -0.2590 -0.6279
 1514SOL     OW16174   3.543   4.652  11.170 -0.5279  0.1980 -0.2798
 1514SOL    HW116175   3.596   4.730  11.187 -0.2814  0.5552 -2.8252
 1514SOL    HW216176   3.607   4.585  11.194 -0.3453  0.3450 -0.3578
 1515SOL     OW16177   3.335   4.623   1.011 -0.3975  0.0140  0.7406
 1515SOL    HW116178   3.341   4.544   0.958 -4.1496  2.0738 -2.7239
 1515SOL    HW216179   3.322   4.689   0.943 -2.1672 -0.9466  0.1613
 1516SOL     OW16180   4.091   2.253  15.011  0.0554 -0.0652 -0.7599
 1516SOL    HW116181   4.076   2.333  14.961  0.2061 -1.2270 -2.6468
 1516SOL    HW216182   4.029   2.266  15.083 -0.0608  0.5930 -0.9730
 1517SOL     OW16183   4.507   3.762   5.972 -0.5944 -0.2200  0.0228
 1517SOL    HW116184   4.416   3.763   5.941 -0.4005 -1.2267 -0.5934
 1517SOL    HW216185   4.554   3.811   5.904  0.8495 -0.5387  0.8033
 1518SOL     OW16186   3.763   2.302   4.626  0.4412  0.7813  0.2513
 1518SOL    HW116187   3.772   2.212   4.595 -0.6235  0.3168  1.2759
 1518SOL    HW216188   3.851   2.336   4.609  0.6660  0.2554  0.3779
 1519SOL     OW16189   1.093   4.694   8.758  0.2809 -0.1078 -0.7968
 1519SOL    HW116190   1.113   0.042   8.709  3.3631  0.6074  1.5935
 1519SOL    HW216191   1.096   4.732   8.846  1.6457 -0.4056 -0.7147
 1520SOL     OW16192   1.802   0.233   7.549  0.1181  1.1663  0.1527
 1520SOL    HW116193   1.845   0.153   7.518  0.0328  1.1769  0.0054
 1520SOL    HW216194   1.831   0.237   7.640 -3.8943 -1.8840  1.6140
 1521SOL     OW16195   3.559   4.257   1.599  0.0518  0.5505 -0.1380
 1521SOL    HW116196   3.516   4.342   1.584 -1.8547 -0.6337 -1.3594
 1521SOL    HW216197   3.479   4.206   1.614  0.2685  0.2621  0.0196
 1522SOL     OW16198   3.468   1.555  17.620 -0.2612 -0.4934 -0.2086
 1522SOL    HW116199   3.552   1.514  17.639 -0.3841 -0.4823  0.3672
 1522SOL    HW216200   3.426   1.482  17.575  0.2880 -2.5496  2.6112
 1523SOL     OW16201   3.136   2.628   7.959 -0.0327 -0.1158  0.1780
 1523SOL    HW116202   3.107   2.575   8.033  0.5053 -1.0350 -0.2677
 1523SOL    HW216203   3.102   2.572   7.890 -2.4945  1.1976  0.3469
 1524SOL     OW16204   1.830   0.462   8.649  0.3433  0.2040  0.0370
 1524SOL    HW116205   1.738   0.443   8.630  0.2566 -0.7852  1.4604
 1524SOL    HW216206   1.814   0.531   8.713 -2.1230  0.3445 -0.7181
 1525SOL     OW16207   4.530   2.397  11.480  0.6264  0.5883 -0.1238
 1525SOL    HW116208   4.532   2.310  11.520  2.5212  0.8663  0.4069
 1525SOL    HW216209   4.592   2.378  11.410  1.5170  0.7869  0.5952
 1526SOL     OW16210   0.777   4.331   9.178 -0.0008 -0.1350 -0.7841
 1526SOL    HW116211   0.695   4.362   9.139  0.3689  2.6943  0.6428
 1526SOL    HW216212   0.775   4.236   9.173 -0.3532 -0.0972 -1.3616
 1527SOL     OW16213   0.545   0.713   8.581 -0.0583 -0.1380 -0.2244
 1527SOL    HW116214   0.471   0.653   8.583  0.2544 -0.6874 -4.0422
 1527SOL    HW216215   0.550   0.743   8.672  1.4136 -0.6559 -0.1302
 1528SOL     OW16216   4.040   2.433   7.031 -0.0651  0.2125 -0.0383
 1528SOL    HW116217   4.112   2.389   7.076 -0.2490  0.9264  0.9376
 1528SOL    HW216218   4.066   2.524   7.021  0.4256  0.2895  1.8729
 1529SOL     OW16219   3.210   0.274   9.230 -0.2009  0.9606 -0.4283
 1529SOL    HW116220   3.260   0.339   9.279 -0.3662  0.6257  0.1838
 1529SOL    HW216221   3.268   0.198   9.237 -0.6827  0.4369 -2.0401
 1530SOL     OW16222   3.203   3.242   6.685  0.7825 -0.6654 -0.1818
 1530SOL    HW116223   3.223   3.238   6.779  0.2612  0.2668 -0.0290
 1530SOL    HW216224   3.290   3.255   6.648  0.6798  1.4561  0.2856
 1531SOL     OW16225   4.283   0.279   5.051  0.1462 -0.0710 -0.6635
 1531SOL    HW116226   4.235   0.231   4.984  0.6606 -0.5212 -0.7052
 1531SOL    HW216227   4.376   0.267   5.032  0.1034 -3.2292  1.0338
 1532SOL     OW16228   4.685   2.569   5.279  0.1163 -0.6996  0.1104
 1532SOL    HW116229   4.695   2.488   5.327 -2.7319 -0.5878  0.8963
 1532SOL    HW216230   4.670   2.533   5.191  3.0866 -1.3102 -0.1509
 1533SOL     OW16231   2.404   3.567  15.304 -0.1544 -0.1026 -0.0153
 1533SOL    HW116232   2.386   3.485  15.350  1.1888 -0.2881  0.1672
 1533SOL    HW216233   2.319   3.611  15.311  0.0589  0.6338 -1.9722
 1534SOL     OW16234   4.382   1.645   8.827 -0.0006  0.1864  0.0054
 1534SOL    HW116235   4.372   1.627   8.734 -0.8635  0.1292  0.1036
 1534SOL    HW216236   4.293   1.680   8.839 -0.8240 -2.4093  1.5828
 1535SOL     OW16237   0.392   2.777   5.445 -0.2844 -0.2088  0.1975
 1535SOL    HW116238   0.427   2.752   5.359 -3.7795  0.3360 -1.3787
 1535SOL    HW216239   0.359   2.866   5.430 -0.9956  0.1686  3.9091
 1536SOL     OW16240   3.889   2.595   5.801  0.2152 -0.2614 -0.7575
 1536SOL    HW116241   3.839   2.536   5.856  0.7707 -1.1545 -1.2110
 1536SOL    HW216242   3.972   2.588   5.849 -0.0224  0.5030 -0.2308
 1537SOL     OW16243   2.248   1.701   2.459  0.1006  0.1582  0.4585
 1537SOL    HW116244   2.328   1.720   2.509  0.0006  1.2738  0.2016
 1537SOL    HW216245   2.203   1.642   2.520  1.7013 -0.4483  1.0659
 1538SOL     OW16246   4.723   1.735   0.964  0.3515 -0.3561  0.6360
 1538SOL    HW116247   0.035   1.803   0.913 -0.8429 -0.9092 -1.1441
 1538SOL    HW216248   0.040   1.738   1.046 -1.0219 -2.9342  1.5515
 1539SOL     OW16249   3.671   1.146  10.572 -0.3217 -0.3050  0.0557
 1539SOL    HW116250   3.633   1.161  10.658  0.3740  2.1636 -0.0657
 1539SOL    HW216251   3.596   1.104  10.529  1.2506 -0.2608 -2.7500
 1540SOL     OW16252   1.905   2.593   4.044 -0.2810 -0.3335 -0.7561
 1540SOL    HW116253   1.926   2.579   3.952 -0.9171  0.7331 -1.0679
 1540SOL    HW216254   1.821   2.547   4.052 -0.5678 -0.1319 -2.6668
 1541SOL     OW16255   2.156   3.829  11.166 -0.3912  0.4625  0.1401
 1541SOL    HW116256   2.198   3.744  11.178 -0.9639  0.0680 -0.6874
 1541SOL    HW216257   2.130   3.827  11.074 -1.2250  0.0775  0.3880
 1542SOL     OW16258   0.790   1.311  10.186  0.1915  0.6863  0.2860
 1542SOL    HW116259   0.860   1.247  10.171 -2.2569 -2.5461  2.6872
 1542SOL    HW216260   0.773   1.292  10.278  0.3440 -0.7047  0.0327
 1543SOL     OW16261   3.891   1.901  16.976 -0.2409 -0.3161 -0.3801
 1543SOL    HW116262   3.908   1.977  16.921 -0.3099 -0.0378 -0.0225
 1543SOL    HW216263   3.970   1.902  17.030 -2.1635 -1.4998  2.4808
 1544SOL     OW16264   1.741   4.360  15.106 -0.5854 -0.0911  0.3148
 1544SOL    HW116265   1.815   4.415  15.128 -1.3761  0.6290  1.1810
 1544SOL    HW216266   1.695   4.421  15.049 -2.0732 -1.0120  0.5292
 1545SOL     OW16267   3.643   4.687   6.452 -0.2748  0.4851  0.2704
 1545SOL    HW116268   3.736   4.685   6.474  0.2046  0.0795 -1.8327
 1545SOL    HW216269   3.611   4.651   6.534 -0.0676  2.2244  1.1334
 1546SOL     OW16270   3.189   0.826  14.953  0.2016 -0.2605  0.1497
 1546SOL    HW116271   3.094   0.837  14.956 -0.2235 -3.3716 -1.9316
 1546SOL    HW216272   3.226   0.884  15.019  0.2477 -0.7806  0.5803
 1547SOL     OW16273   4.191   3.967   8.854 -0.2567 -0.2133  0.1255
 1547SOL    HW116274   4.150   3.888   8.889  2.9508 -0.6788  2.8889
 1547SOL    HW216275   4.222   3.934   8.770  0.7174 -0.1752  0.4713
 1548SOL     OW16276   3.597   0.287  13.348  0.2957  0.4938  0.0552
 1548SOL    HW116277   3.506   0.317  13.336  0.8146  2.4832  1.1532
 1548SOL    HW216278   3.589   0.230  13.424  0.4428 -0.8663 -0.9367
 1549SOL     OW16279   3.881   2.599   8.212  0.1394 -0.7508  0.2930
 1549SOL    HW116280   3.881   2.517   8.163  0.3157 -0.1705 -0.6762
 1549SOL    HW216281   3.837   2.571   8.292  1.8979  0.0622  1.5528
 1550SOL     OW16282   1.054   3.163  10.041  0.4024 -0.2757 -0.3903
 1550SOL    HW116283   1.044   3.120  10.126  1.5842  1.4413  0.6070
 1550SOL    HW216284   1.103   3.098   9.990  2.1080  0.2284  0.6063
 1551SOL     OW16285   0.922   2.114  14.764 -0.6896 -0.0881  0.2181
 1551SOL    HW116286   0.988   2.127  14.696 -0.1470 -1.2860  0.5175
 1551SOL    HW216287   0.933   2.197  14.811  0.1832 -0.4143  0.5912
 1552SOL     OW16288   1.214   3.601   5.974  0.4667 -0.0956  0.0304
 1552SOL    HW116289   1.262   3.678   5.942 -0.0460  0.6518  1.0815
 1552SOL    HW216290   1.260   3.590   6.057  0.6573  0.6482  0.0245
 1553SOL     OW16291   3.278   3.104   8.535  0.2070  0.3573  0.0954
 1553SOL    HW116292   3.237   3.128   8.618  1.3141  2.0314  0.1579
 1553SOL    HW216293   3.353   3.048   8.558 -1.1775 -1.7970 -0.6979
 1554SOL     OW16294   2.803   4.405  15.080 -0.4009  0.5043  0.4050
 1554SOL    HW116295   2.785   4.357  15.000  1.7106 -1.6542  1.2218
 1554SOL    HW216296   2.873   4.352  15.117 -0.4048  0.3976  0.2581
 1555SOL     OW16297   2.344   2.408   4.897  0.4885 -0.1971 -0.3461
 1555SOL    HW116298   2.395   2.349   4.953  0.8801 -0.4782 -0.9937
 1555SOL    HW216299   2.256   2.401   4.932  0.3397  2.5711 -0.1629
 1556SOL     OW16300   2.774   0.685   8.501  0.1692 -0.4407  0.4907
 1556SOL    HW116301   2.737   0.603   8.535 -0.4806 -0.1107  0.5848
 1556SOL    HW216302   2.866   0.659   8.494  0.4299  0.7962 -0.5138
 1557SOL     OW16303   0.309   3.335   4.960  0.2374 -0.4658 -0.5055
 1557SOL    HW116304   0.370   3.321   4.888 -0.3215  0.4343 -1.1647
 1557SOL    HW216305   0.260   3.253   4.955 -0.0184 -0.3307 -0.1984
 1558SOL     OW16306   1.763   3.710  13.895 -0.4907 -0.1396 -0.1520
 1558SOL    HW116307   1.689   3.651  13.881 -0.4227 -0.0293 -0.9966
 1558SOL    HW216308   1.718   3.795  13.898  2.3646  1.4288 -1.0419
 1559SOL     OW16309   3.895   4.385   5.261 -0.1978  0.2843  0.4176
 1559SOL    HW116310   3.842   4.310   5.235 -1.6870  1.2596  0.6735
 1559SOL    HW216311   3.842   4.421   5.332 -0.5592  1.1638 -0.3002
 1560SOL     OW16312   0.149   2.329   1.053  0.3501 -0.0623  0.2100
 1560SOL    HW116313   0.153   2.250   1.106  4.0124 -0.6539 -0.9207
 1560SOL    HW216314   0.084   2.378   1.104 -1.1172  1.0282 -2.6681
 1561SOL     OW16315   2.621   0.735  14.025 -0.1783 -0.4347 -0.2415
 1561SOL    HW116316   2.620   0.793  13.949  3.7311  0.9663  0.7667
 1561SOL    HW216317   2.565   0.796  14.072  0.4072 -1.4266  1.7354
 1562SOL     OW16318   3.099   3.796   9.173 -0.4775 -0.5490 -0.6069
 1562SOL    HW116319   3.187   3.823   9.146 -0.0376  0.5733  1.9629
 1562SOL    HW216320   3.098   3.817   9.266 -0.1076  2.2730 -1.2235
 1563SOL     OW16321   4.644   1.121   2.994 -0.3176  0.4660  0.3575
 1563SOL    HW116322   4.655   1.126   2.899  2.7864  1.0554  0.7370
 1563SOL    HW216323   4.696   1.045   3.019 -0.4994  0.4378  0.6480
 1564SOL     OW16324   3.828   0.237  16.832  0.3040  0.2143 -0.0243
 1564SOL    HW116325   3.734   0.248  16.842 -0.0833 -2.2945 -1.0356
 1564SOL    HW216326   3.835   0.185  16.752 -0.3877 -2.0892  1.4304
 1565SOL     OW16327   3.653   4.653  17.089  0.1935  0.0948 -0.4308
 1565SOL    HW116328   3.598   4.719  17.131  0.1227  0.1226 -0.5680
 1565SOL    HW216329   3.668   4.591  17.161  1.8253  0.1748 -0.7041
 1566SOL     OW16330   3.280   4.230  16.029  0.1969  0.3641  0.1295
 1566SOL    HW116331   3.216   4.299  16.047  1.2659  1.2112  0.6764
 1566SOL    HW216332   3.346   4.276  15.978  1.7108 -1.9620 -0.0090
 1567SOL     OW16333   4.101   1.353  10.771  0.0586 -0.1842  0.0041
 1567SOL    HW116334   4.086   1.343  10.677  1.6651 -1.6326 -0.0930
 1567SOL    HW216335   4.128   1.444  10.770  4.5850 -1.5481  0.3251
 1568SOL     OW16336   2.047   2.399   5.885  0.7939  0.2083  0.6288
 1568SOL    HW116337   2.114   2.334   5.907  1.3946  0.2189 -1.1343
 1568SOL    HW216338   1.972   2.341   5.876  0.9887  0.2809 -1.4749
 1569SOL     OW16339   2.155   0.567   2.662  0.2227  0.5855  0.0270
 1569SOL    HW116340   2.148   0.617   2.743  0.4359  1.0232 -0.2301
 1569SOL    HW216341   2.156   0.640   2.601  1.8326  0.0956 -0.5361
 1570SOL     OW16342   0.656   1.433   5.624 -0.0237  0.1651  0.3343
 1570SOL    HW116343   0.617   1.395   5.546  2.0164  1.5666 -1.3633
 1570SOL    HW216344   0.718   1.366   5.650 -1.6564 -0.6384  2.1274
 1571SOL     OW16345   1.734   0.989   6.390 -0.2596  0.5026 -0.1679
 1571SOL    HW116346   1.789   0.921   6.352  0.6971  1.1412  0.0907
 1571SOL    HW216347   1.687   1.026   6.315  0.1643  0.1676 -0.5992
 1572SOL     OW16348   4.469   0.177   2.161  0.5782 -0.9305 -0.8036
 1572SOL    HW116349   4.386   0.217   2.135  0.0933 -0.3494  1.5725
 1572SOL    HW216350   4.448   0.125   2.239 -0.2671 -3.3006 -2.6463
 1573SOL     OW16351   1.047   3.883   3.905 -0.3120  0.0781 -0.0361
 1573SOL    HW116352   0.985   3.940   3.859 -1.3000 -2.3563 -1.6635
 1573SOL    HW216353   1.055   3.805   3.851 -0.9693 -0.4275  0.5913
 1574SOL     OW16354   0.971   1.908   3.825 -0.5703  0.1513 -0.0854
 1574SOL    HW116355   1.011   1.924   3.910  1.1309 -0.7969 -0.7143
 1574SOL    HW216356   0.887   1.955   3.823 -0.6798  0.0558  1.8184
 1575SOL     OW16357   1.068   3.768   4.413 -0.2835  0.2753  0.0925
 1575SOL    HW116358   1.041   3.859   4.420  1.4982  0.9922 -2.4572
 1575SOL    HW216359   1.161   3.780   4.399 -0.0240 -0.0243  1.5408
 1576SOL     OW16360   4.538   1.254   7.457 -0.0525 -0.8829 -0.0378
 1576SOL    HW116361   4.524   1.348   7.474  1.6300 -0.9478  1.6522
 1576SOL    HW216362   4.632   1.247   7.445  0.2534 -0.8570  2.3002
 1577SOL     OW16363   4.214   2.419   3.705 -0.2484 -0.4021 -0.4767
 1577SOL    HW116364   4.131   2.456   3.735 -1.2128 -2.8389 -0.1107
 1577SOL    HW216365   4.271   2.447   3.776  0.6436 -0.9615 -0.9731
 1578SOL     OW16366   4.289   1.769   8.369  0.4351  0.1972  0.1113
 1578SOL    HW116367   4.213   1.765   8.312  0.5753  0.2021 -0.0757
 1578SOL    HW216368   4.273   1.845   8.425 -0.0856  0.3127 -0.1974
 1579SOL     OW16369   3.611   2.618  16.630  0.2978  0.0535  0.1679
 1579SOL    HW116370   3.525   2.623  16.587 -0.3773 -0.6029  1.4514
 1579SOL    HW216371   3.656   2.703  16.625 -0.4294  0.3697 -1.1276
 1580SOL     OW16372   2.274   0.805  12.487 -0.0290 -0.0077 -0.2789
 1580SOL    HW116373   2.336   0.790  12.558 -0.0705  1.4846  0.0762
 1580SOL    HW216374   2.309   0.888  12.454  2.9755 -0.5520  1.5395
 1581SOL     OW16375   2.692   4.631  15.166 -0.0502 -0.0520  0.6460
 1581SOL    HW116376   2.709   4.612  15.259  0.7829 -0.5722  0.3931
 1581SOL    HW216377   2.730   4.560  15.114 -1.7018 -0.8017  0.4750
 1582SOL     OW16378   3.634   0.942   8.123 -0.0926  0.1847 -0.2899
 1582SOL    HW116379   3.588   0.857   8.120 -0.7570  0.6015 -2.0363
 1582SOL    HW216380   3.570   0.988   8.177  0.6723  0.9314 -0.0226
 1583SOL     OW16381   1.933   1.446   8.802  0.1947 -0.5857  0.0520
 1583SOL    HW116382   1.990   1.503   8.853  0.4613 -2.1624  1.5231
 1583SOL    HW216383   1.856   1.458   8.857 -0.2983  0.2174 -0.8228
 1584SOL     OW16384   2.364   0.159   7.370 -1.5120 -0.2227  0.0974
 1584SOL    HW116385   2.384   0.066   7.369 -0.8176 -0.0964  2.6544
 1584SOL    HW216386   2.335   0.172   7.460  0.8358  0.9840  0.6907
 1585SOL     OW16387   4.467   1.685   1.745  0.3970 -0.9776  0.3546
 1585SOL    HW116388   4.473   1.760   1.686 -0.6196 -0.1512  1.3092
 1585SOL    HW216389   4.551   1.641   1.729  2.1123  1.8096  1.6437
 1586SOL     OW16390   1.217   0.873  15.472 -0.0629  0.5867  0.9407
 1586SOL    HW116391   1.182   0.793  15.434 -1.1924  1.6535 -0.2521
 1586SOL    HW216392   1.145   0.936  15.477  0.2252  0.9675  0.2810
 1587SOL     OW16393   0.595   0.734   3.683  0.1038  0.1878 -0.3021
 1587SOL    HW116394   0.670   0.785   3.711  0.5825 -0.3502 -0.6053
 1587SOL    HW216395   0.609   0.660   3.743  1.4920 -0.2380 -1.1560
 1588SOL     OW16396   1.671   3.396   7.729  0.4287 -0.4892  0.2500
 1588SOL    HW116397   1.608   3.466   7.715 -0.2962 -1.0993  0.4823
 1588SOL    HW216398   1.673   3.358   7.641  0.3347 -3.4565  1.5434
 1589SOL     OW16399   0.165   3.766   1.563  0.4127 -0.4138  0.1627
 1589SOL    HW116400   0.155   3.680   1.523  2.6809 -0.7688  0.3230
 1589SOL    HW216401   0.184   3.814   1.483 -0.4788 -1.1018 -0.4600
 1590SOL     OW16402   3.227   2.427   8.572  0.6000 -0.1370  0.3114
 1590SOL    HW116403   3.247   2.451   8.481  0.3647 -1.1771 -0.0089
 1590SOL    HW216404   3.132   2.440   8.569  0.6713  0.3572  0.1135
 1591SOL     OW16405   0.760   1.662   5.129 -0.0758  0.2957 -0.2569
 1591SOL    HW116406   0.816   1.596   5.087  0.3230 -0.5334  1.5605
 1591SOL    HW216407   0.680   1.654   5.077  0.2459 -0.1293 -0.6907
 1592SOL     OW16408   0.901   1.867   4.977 -0.4643 -0.8421 -0.1108
 1592SOL    HW116409   0.941   1.805   4.916 -0.5950 -0.1627 -0.8859
 1592SOL    HW216410   0.817   1.828   5.002 -0.1324 -1.1150  0.5988
 1593SOL     OW16411   3.918   1.301   3.047 -0.0132  0.3220 -0.4525
 1593SOL    HW116412   4.004   1.314   3.088 -0.9154 -0.2909  1.6087
 1593SOL    HW216413   3.947   1.324   2.958 -1.3406  0.3292 -0.8789
 1594SOL     OW16414   1.160   2.701   3.394 -0.2367  0.5387 -0.2127
 1594SOL    HW116415   1.229   2.656   3.345  0.6679  1.8428 -0.1369
 1594SOL    HW216416   1.098   2.629   3.390 -0.9064  1.1163 -0.2334
 1595SOL     OW16417   1.951   4.107   5.073 -0.4474 -0.1892 -0.3897
 1595SOL    HW116418   1.966   4.095   4.979  0.5933 -0.4828 -0.1819
 1595SOL    HW216419   1.893   4.183   5.069 -0.1180  0.1255  0.8221
 1596SOL     OW16420   2.616   4.619   3.475  0.0801  0.2398 -0.3476
 1596SOL    HW116421   2.628   4.555   3.405  1.6972 -2.3225  2.2451
 1596SOL    HW216422   2.692   4.677   3.467 -0.4992  1.0038 -0.2600
 1597SOL     OW16423   4.422   0.366   2.646  0.2403  0.3214 -0.1316
 1597SOL    HW116424   4.442   0.455   2.619  1.5554 -0.1941 -0.8563
 1597SOL    HW216425   4.494   0.348   2.706  0.4508  0.7254 -0.2590
 1598SOL     OW16426   0.758   2.560  15.379  0.3678  0.1682 -0.2587
 1598SOL    HW116427   0.786   2.578  15.469 -0.2577 -0.9537  0.1612
 1598SOL    HW216428   0.708   2.480  15.392 -0.8923  0.9049 -0.4874
 1599SOL     OW16429   2.365   1.115   3.638 -0.2918 -0.4951 -0.2604
 1599SOL    HW116430   2.374   1.053   3.566 -0.0982 -1.9065  0.9940
 1599SOL    HW216431   2.300   1.066   3.689 -0.8878  0.0629 -0.4790
 1600SOL     OW16432   3.976   0.596   8.379  0.2036  0.4803  0.3884
 1600SOL    HW116433   3.972   0.500   8.377 -2.1746  0.6099 -1.0559
 1600SOL    HW216434   3.884   0.619   8.366  0.4698  1.1741 -0.2904
 1601SOL     OW16435   2.119   2.582  14.368 -0.2237 -0.1019 -0.1153
 1601SOL    HW116436   2.194   2.534  14.334  0.6055  0.9408  0.2511
 1601SOL    HW216437   2.095   2.626  14.286  1.0315  0.0410 -0.4067
 1602SOL     OW16438   0.321   1.776   8.733 -0.3180 -0.0302 -0.1151
 1602SOL    HW116439   0.317   1.769   8.828 -0.1086  0.3780 -0.0752
 1602SOL    HW216440   0.297   1.867   8.715 -0.0111  0.4175  1.7000
 1603SOL     OW16441   4.265   1.447   0.187 -0.4309 -0.3338  0.5768
 1603SOL    HW116442   4.175   1.415   0.185 -0.9781  1.2782 -0.2865
 1603SOL    HW216443   4.312   1.377   0.142 -1.8316 -1.6812  1.2174
 1604SOL     OW16444   2.921   3.549   1.353 -0.1361 -0.1257  0.2429
 1604SOL    HW116445   2.993   3.608   1.330 -0.0355 -0.0094  0.8636
 1604SOL    HW216446   2.856   3.568   1.284 -1.8861 -0.0411  1.9171
 1605SOL     OW16447   3.929   4.280   3.950  0.0472  0.4007 -0.3050
 1605SOL    HW116448   3.851   4.272   4.005 -1.6044  0.9822 -2.5750
 1605SOL    HW216449   3.999   4.286   4.015  1.5193 -0.6761 -1.7692
 1606SOL     OW16450   2.747   0.656   4.543  0.1925  0.2977  0.3540
 1606SOL    HW116451   2.652   0.642   4.546 -0.1619  2.7166  0.1014
 1606SOL    HW216452   2.767   0.665   4.449 -1.2150  3.1192  0.3449
 1607SOL     OW16453   4.039   0.586   2.788  0.2411 -0.0292  0.0035
 1607SOL    HW116454   4.132   0.567   2.801 -0.2016 -2.0191  0.1307
 1607SOL    HW216455   4.026   0.632   2.872 -0.9035  1.0653 -0.7600
 1608SOL     OW16456   4.402   3.009   9.514 -0.2999 -0.1226  0.3518
 1608SOL    HW116457   4.476   3.050   9.469  0.0658  0.5790  1.5952
 1608SOL    HW216458   4.453   2.945   9.564  0.5740  0.5141  0.2706
 1609SOL     OW16459   3.406   0.838   3.228  0.4954  0.1302 -0.1013
 1609SOL    HW116460   3.474   0.771   3.234 -1.0558 -1.5586 -1.4427
 1609SOL    HW216461   3.451   0.921   3.245 -3.8769  2.4272  0.2769
 1610SOL     OW16462   3.848   4.196   2.666  0.4828 -0.6023  0.1922
 1610SOL    HW116463   3.903   4.248   2.607 -1.2442  0.5655 -0.3802
 1610SOL    HW216464   3.905   4.121   2.684  2.7448  1.3298  1.0811
 1611SOL     OW16465   2.819   2.778   0.993 -0.3796  0.1202 -0.5666
 1611SOL    HW116466   2.822   2.692   1.034  0.4913  0.9214  1.0399
 1611SOL    HW216467   2.913   2.796   1.000  0.2082 -2.1113 -2.6936
 1612SOL     OW16468   1.082   3.221  12.081 -0.6684 -0.0388  0.1435
 1612SOL    HW116469   1.137   3.155  12.040  1.0058  1.4273  0.0154
 1612SOL    HW216470   1.141   3.289  12.114  0.2014 -0.4364 -0.6177
 1613SOL     OW16471   0.713   2.180  16.143  0.7443  0.0507  0.3164
 1613SOL    HW116472   0.724   2.087  16.159 -2.2538 -0.2193  0.8222
 1613SOL    HW216473   0.797   2.221  16.165  1.4317 -1.2736  0.1624
 1614SOL     OW16474   0.200   3.077   4.944 -1.1027 -0.2708 -0.2729
 1614SOL    HW116475   0.244   3.025   5.011  0.7015  1.7866  0.1467
 1614SOL    HW216476   0.191   3.009   4.877 -0.1879 -0.9741  0.3142
 1615SOL     OW16477   0.200   0.802  11.124 -0.3904 -0.4953  0.5991
 1615SOL    HW116478   0.232   0.821  11.036 -1.3011 -0.8269  0.2001
 1615SOL    HW216479   0.128   0.865  11.130  0.3839  0.4170  0.2527
 1616SOL     OW16480   0.278   0.606  14.671  0.5829 -0.1866  0.2479
 1616SOL    HW116481   0.301   0.606  14.579  1.3564  0.6523  0.4406
 1616SOL    HW216482   0.183   0.614  14.665  0.5601 -0.2603  0.4981
 1617SOL     OW16483   3.480   2.991   6.227  0.5353 -0.3750  0.0021
 1617SOL    HW116484   3.556   2.995   6.285 -0.5405  0.4810  1.3618
 1617SOL    HW216485   3.517   2.930   6.163  0.4949  0.9892 -1.3113
 1618SOL     OW16486   2.829   0.671   4.265 -0.6501 -0.3410  0.2908
 1618SOL    HW116487   2.804   0.670   4.173 -1.5138  2.2089  0.5154
 1618SOL    HW216488   2.909   0.618   4.263 -1.1006 -1.0167  0.2744
 1619SOL     OW16489   3.891   2.420   5.192 -0.2917 -0.2206  0.0139
 1619SOL    HW116490   3.865   2.378   5.273 -0.8161 -0.8280 -0.4695
 1619SOL    HW216491   3.823   2.485   5.176 -0.9296 -1.3786 -2.0322
 1620SOL     OW16492   1.695   4.329   5.092 -0.2652 -0.1297  0.0062
 1620SOL    HW116493   1.636   4.396   5.057  0.1262 -0.2462 -0.8830
 1620SOL    HW216494   1.788   4.352   5.083 -0.3034  0.0956  0.1857
 1621SOL     OW16495   0.105   0.557  11.745 -0.5627  0.0120  0.3577
 1621SOL    HW116496   0.171   0.591  11.805  1.2537  0.9636 -2.1714
 1621SOL    HW216497   0.157   0.540  11.666 -0.3400  1.9850  0.0891
 1622SOL     OW16498   3.751   3.076   2.919 -0.1494 -0.7740  0.2365
 1622SOL    HW116499   3.769   3.049   3.009 -0.3289 -0.4861  0.3555
 1622SOL    HW216500   3.826   3.035   2.875  0.0254 -0.6472  0.4150
 1623SOL     OW16501   1.446   0.424   3.733  0.5647 -0.1419  0.1057
 1623SOL    HW116502   1.419   0.354   3.793 -1.0358  0.5111  0.1604
 1623SOL    HW216503   1.519   0.462   3.782 -1.3050  2.0953  1.2073
 1624SOL     OW16504   1.959   0.235   3.878  0.0264 -0.1319 -0.1618
 1624SOL    HW116505   2.045   0.234   3.919  0.1615 -2.1779 -0.4771
 1624SOL    HW216506   1.927   0.155   3.919 -1.3210 -0.6976 -2.3081
 1625SOL     OW16507   4.030   0.617   3.059 -0.7688  0.1861 -0.8037
 1625SOL    HW116508   4.061   0.530   3.081  3.1166  2.1625  1.4502
 1625SOL    HW216509   3.980   0.647   3.135  1.0661 -0.3184  0.6031
 1626SOL     OW16510   4.241   3.032   7.265  0.1009 -0.4338 -0.0580
 1626SOL    HW116511   4.255   2.974   7.340  0.1295 -1.2545 -0.6958
 1626SOL    HW216512   4.253   3.112   7.317  0.7188 -0.7036  0.2119
 1627SOL     OW16513   3.318   1.235   5.224 -0.3194  0.1260 -0.2685
 1627SOL    HW116514   3.255   1.299   5.190 -0.9205 -0.3823 -0.1057
 1627SOL    HW216515   3.291   1.154   5.181  0.5775 -0.1204 -0.3743
 1628SOL     OW16516   3.617   0.398   8.196  0.1164  0.2325 -0.1451
 1628SOL    HW116517   3.657   0.354   8.121 -0.3215 -1.5057  0.6426
 1628SOL    HW216518   3.529   0.425   8.168  0.3488  0.9203 -0.2079
 1629SOL     OW16519   1.183   3.272   8.213  0.3434  0.1430  0.2523
 1629SOL    HW116520   1.154   3.182   8.196 -2.3408  0.8925  0.9170
 1629SOL    HW216521   1.226   3.298   8.131 -0.9162  0.3048 -0.3466
 1630SOL     OW16522   0.219   2.301   2.554  0.2764  0.2873 -0.0888
 1630SOL    HW116523   0.254   2.213   2.539  3.0734  1.6341 -1.6207
 1630SOL    HW216524   0.202   2.338   2.467  2.2391 -0.2969 -0.7277
 1631SOL     OW16525   3.193   1.669   8.918  0.6248  0.4478  0.5385
 1631SOL    HW116526   3.278   1.711   8.934  1.1053 -0.6745  0.9995
 1631SOL    HW216527   3.193   1.674   8.823 -1.1799 -1.0762  0.4731
 1632SOL     OW16528   3.899   3.254   5.481  0.4828 -0.1748  0.5170
 1632SOL    HW116529   3.941   3.186   5.427  2.3636  0.8063  0.7712
 1632SOL    HW216530   3.806   3.235   5.469  0.2320  0.2317  1.8197
 1633SOL     OW16531   1.692   0.298   5.727  0.0759 -0.2205  0.2299
 1633SOL    HW116532   1.743   0.368   5.768  1.5694  0.0544 -2.0827
 1633SOL    HW216533   1.730   0.225   5.776  0.9066 -1.4433 -2.2279
 1634SOL     OW16534   2.525   3.618   7.036  0.4072  0.2130 -0.4675
 1634SOL    HW116535   2.472   3.538   7.043  1.0634 -0.4936 -3.6302
 1634SOL    HW216536   2.502   3.650   6.949 -2.1142 -3.0667 -1.0466
 1635SOL     OW16537   3.198   2.712   5.373 -0.4215  0.0464 -0.0934
 1635SOL    HW116538   3.166   2.651   5.440 -0.5944 -0.4737 -0.6536
 1635SOL    HW216539   3.265   2.668   5.320 -0.2891  0.5493 -0.3398
 1636SOL     OW16540   2.168   2.316   1.302  0.4375 -0.4253 -0.3709
 1636SOL    HW116541   2.147   2.356   1.387 -1.4936  1.9020 -1.9400
 1636SOL    HW216542   2.090   2.339   1.251  0.1959  1.7019  0.9196
 1637SOL     OW16543   2.956   0.243   9.352 -0.4017  0.3387  0.1359
 1637SOL    HW116544   3.031   0.267   9.297 -0.9372 -0.2995 -0.8779
 1637SOL    HW216545   2.880   0.243   9.295  0.9241  0.4537 -1.6299
 1638SOL     OW16546   1.023   0.001  11.122 -0.1502  1.3787 -0.5392
 1638SOL    HW116547   1.116   0.005  11.146 -0.0266 -1.9053 -0.4781
 1638SOL    HW216548   0.983   0.039  11.200  1.3267  1.8252 -0.0101
 1639SOL     OW16549   1.543   0.139  17.040  0.2680 -0.5234  0.1249
 1639SOL    HW116550   1.497   0.169  17.118  3.3615 -0.1094  1.8152
 1639SOL    HW216551   1.464   0.100  17.003 -0.3913  2.3465 -1.4554
 1640SOL     OW16552   1.507   1.159   5.776 -0.5095  0.5048  0.1984
 1640SOL    HW116553   1.412   1.144   5.774 -0.3229 -1.3166  4.4965
 1640SOL    HW216554   1.513   1.255   5.774 -1.0249  0.5769  2.1126
 1641SOL     OW16555   2.586   2.943   7.898  0.3659  0.5607 -0.5688
 1641SOL    HW116556   2.570   3.031   7.933  1.8865  0.1708  1.1137
 1641SOL    HW216557   2.516   2.952   7.833 -1.2076  0.7515  1.1501
 1642SOL     OW16558   4.319   4.554   2.672  0.8436 -0.2752  0.5769
 1642SOL    HW116559   4.326   4.547   2.577 -0.0802  0.5463  0.4590
 1642SOL    HW216560   4.404   4.519   2.699 -0.0329 -1.6505  1.5667
 1643SOL     OW16561   2.067   4.003   7.819 -0.6918  0.5399  0.0324
 1643SOL    HW116562   2.122   3.945   7.767 -0.5740 -0.8056  1.6652
 1643SOL    HW216563   2.049   4.069   7.752  0.3335  0.3866 -0.3900
 1644SOL     OW16564   3.695   2.183   8.201  0.3886  0.6727 -0.0980
 1644SOL    HW116565   3.731   2.263   8.163  0.1984  1.6599  1.8527
 1644SOL    HW216566   3.672   2.199   8.292  0.9288 -0.4714  0.2466
 1645SOL     OW16567   2.397   1.767   3.565 -0.1469 -0.3932 -0.6080
 1645SOL    HW116568   2.477   1.819   3.565  0.4946 -1.3808  0.5286
 1645SOL    HW216569   2.333   1.836   3.546 -1.3988 -0.5963  2.8222
 1646SOL     OW16570   4.040   1.278   9.243  0.2618 -0.2265  0.4115
 1646SOL    HW116571   4.061   1.185   9.235 -1.2157 -0.5904  0.7492
 1646SOL    HW216572   4.090   1.299   9.322 -0.4466 -1.5455  1.2097
 1647SOL     OW16573   1.392   3.755  13.712  0.2866  0.3705  0.1711
 1647SOL    HW116574   1.416   3.736  13.622  0.5374 -0.0160  0.3206
 1647SOL    HW216575   1.316   3.810  13.691  1.1167  1.2238 -0.5474
 1648SOL     OW16576   3.044   3.590   4.723 -0.4398 -0.7952 -0.5923
 1648SOL    HW116577   2.980   3.609   4.790  1.5245 -0.8278  1.3007
 1648SOL    HW216578   3.060   3.495   4.731 -0.6824 -0.6964  1.0800
 1649SOL     OW16579   4.599   3.612   7.702  0.2000 -0.4516  0.5587
 1649SOL    HW116580   4.557   3.697   7.714 -0.2643 -0.5699 -0.2092
 1649SOL    HW216581   4.687   3.633   7.734  1.1117 -1.0730 -1.5226
 1650SOL     OW16582   0.900   1.905   5.533 -0.0851 -0.1814  0.1484
 1650SOL    HW116583   0.847   1.926   5.455  0.6768  3.3485  0.6075
 1650SOL    HW216584   0.852   1.840   5.584  0.9488 -1.6485 -0.7441
 1651SOL     OW16585   4.094   2.842   8.567  0.5184  0.0820 -0.0088
 1651SOL    HW116586   4.173   2.789   8.569  0.7453  0.4297  0.3315
 1651SOL    HW216587   4.085   2.856   8.661  0.0289  2.6717 -0.4172
 1652SOL     OW16588   1.671   4.225   9.379  0.2339 -0.5385 -0.5304
 1652SOL    HW116589   1.759   4.263   9.386 -0.4610  1.3952 -2.3789
 1652SOL    HW216590   1.676   4.153   9.442  2.8852 -0.3770 -0.5606
 1653SOL     OW16591   2.771   3.715   6.585  0.2059 -0.3248 -0.0362
 1653SOL    HW116592   2.728   3.667   6.657  3.2318 -2.4202  0.3447
 1653SOL    HW216593   2.724   3.798   6.581  1.0062  0.1797  1.3002
 1654SOL     OW16594   4.419   1.388   1.317  0.0759  0.4962 -0.0460
 1654SOL    HW116595   4.362   1.445   1.370 -0.2672 -0.7344  0.9264
 1654SOL    HW216596   4.423   1.425   1.229 -1.7225  1.6209  0.3247
 1655SOL     OW16597   2.379   1.747   2.026 -0.0969 -0.1517 -0.1041
 1655SOL    HW116598   2.347   1.750   1.936  1.9110  0.1044 -0.8003
 1655SOL    HW216599   2.299   1.710   2.064 -0.8271  0.7594 -0.7453
 1656SOL     OW16600   0.526   0.505   4.155 -0.6264  0.2299  0.3216
 1656SOL    HW116601   0.578   0.492   4.234 -2.2038 -1.3515  1.0983
 1656SOL    HW216602   0.484   0.588   4.178  0.0651  0.4204  0.8848
 1657SOL     OW16603   3.123   4.618   5.474 -0.3975 -0.9997  0.1590
 1657SOL    HW116604   3.174   4.690   5.512 -2.9259  1.8435 -1.8806
 1657SOL    HW216605   3.038   4.658   5.457 -0.1786 -1.1822 -1.3355
 1658SOL     OW16606   0.581   1.597  11.996 -0.0928 -0.1317 -0.1164
 1658SOL    HW116607   0.646   1.527  11.992 -2.6108 -2.4785 -0.5618
 1658SOL    HW216608   0.631   1.674  12.022 -1.4072 -0.0277  2.1598
 1659SOL     OW16609   0.873   3.545   2.583 -0.4378  0.0335 -0.1694
 1659SOL    HW116610   0.865   3.464   2.533  0.2619 -0.0346 -0.1786
 1659SOL    HW216611   0.811   3.529   2.654 -0.1369  1.9390  0.5461
 1660SOL     OW16612   4.671   3.728   1.752 -0.2254  0.5119 -0.0794
 1660SOL    HW116613   0.010   3.735   1.689  0.5281 -0.0200  0.7135
 1660SOL    HW216614   4.630   3.814   1.756 -0.9712  0.2961 -2.9906
 1661SOL     OW16615   4.121   1.962   8.066 -0.6790 -0.0229 -0.6099
 1661SOL    HW116616   4.080   2.048   8.069 -1.0248 -0.1832 -0.7992
 1661SOL    HW216617   4.212   1.980   8.040 -0.6544  1.8406  0.7692
 1662SOL     OW16618   2.994   3.683   6.455 -0.1417  0.1591 -0.7142
 1662SOL    HW116619   3.055   3.623   6.499 -0.3907 -1.2190 -2.2620
 1662SOL    HW216620   2.924   3.704   6.517 -1.5729 -0.5836 -2.0625
 1663SOL     OW16621   4.461   3.623   4.341 -0.2124  0.7196 -0.4467
 1663SOL    HW116622   4.523   3.694   4.329  1.1346 -0.0113  2.0537
 1663SOL    HW216623   4.514   3.561   4.392 -1.0214 -1.6435 -2.5225
 1664SOL     OW16624   2.467   0.474   0.701  0.1564 -0.2935 -0.1080
 1664SOL    HW116625   2.531   0.545   0.710 -1.7962  1.3976  0.5247
 1664SOL    HW216626   2.388   0.524   0.678  0.1755 -0.3106 -0.2072
 1665SOL     OW16627   2.585   0.724   7.655  0.0936 -0.6369  0.1318
 1665SOL    HW116628   2.579   0.681   7.570 -1.3687 -1.5949  0.7183
 1665SOL    HW216629   2.631   0.665   7.715 -1.3148 -0.5137  1.3551
 1666SOL     OW16630   3.799   4.385   1.263 -0.4077 -0.0969 -0.0893
 1666SOL    HW116631   3.801   4.379   1.358 -0.4306 -0.0788 -0.0877
 1666SOL    HW216632   3.890   4.379   1.234  0.2637  0.3810  1.9506
 1667SOL     OW16633   3.969   0.880   1.963  0.7960  0.0970  0.5867
 1667SOL    HW116634   4.052   0.913   1.996  1.9714 -1.6047 -0.6799
 1667SOL    HW216635   3.950   0.954   1.906 -0.8824  0.6215  1.8201
 1668SOL     OW16636   3.931   2.079   2.350 -0.0338  0.5634  0.0779
 1668SOL    HW116637   3.836   2.081   2.338 -0.2065 -0.3919  1.2903
 1668SOL    HW216638   3.943   2.013   2.419  0.6815 -2.5211 -2.9626
 1669SOL     OW16639   4.299   2.084   1.388  0.3405  0.6219 -0.5455
 1669SOL    HW116640   4.269   2.027   1.317 -1.7500 -1.2483  1.8583
 1669SOL    HW216641   4.311   2.168   1.345  1.2648 -0.3592 -2.2393
 1670SOL     OW16642   0.320   3.820   3.769  0.5295  0.0462  0.9745
 1670SOL    HW116643   0.339   3.732   3.802  0.5295 -0.3942 -0.2014
 1670SOL    HW216644   0.388   3.872   3.811  1.4253 -0.2776 -0.0836
 1671SOL     OW16645   3.448   3.101   7.694  0.2131  0.1884  0.5063
 1671SOL    HW116646   3.454   3.103   7.789  1.6030  1.7221  0.3787
 1671SOL    HW216647   3.462   3.194   7.681 -0.1785  0.0710 -0.7309
 1672SOL     OW16648   1.491   1.466   7.084 -0.1661 -0.3801  0.1912
 1672SOL    HW116649   1.555   1.398   7.107 -2.2991 -2.3893  0.2806
 1672SOL    HW216650   1.545   1.533   7.042 -2.9305  0.9621 -1.1952
 1673SOL     OW16651   2.962   0.133   7.075 -0.5594  0.1871 -0.2054
 1673SOL    HW116652   3.049   0.108   7.046  0.9884  2.7664  2.2427
 1673SOL    HW216653   2.917   0.086   7.005 -0.5989 -2.3551  1.5305
 1674SOL     OW16654   1.153   0.092   0.753  0.6120 -0.2266 -0.1020
 1674SOL    HW116655   1.106   0.167   0.717 -0.1774 -1.2986 -1.2770
 1674SOL    HW216656   1.199   0.135   0.826 -0.5374  2.3482 -0.8791
 1675SOL     OW16657   1.527   1.887   2.516 -0.3981  0.5618  0.4766
 1675SOL    HW116658   1.458   1.912   2.455 -0.0684 -2.9940 -1.3615
 1675SOL    HW216659   1.568   1.814   2.470  2.4094  1.7935  0.9696
 1676SOL     OW16660   0.856   4.499  12.521  0.4616  0.3657 -0.1794
 1676SOL    HW116661   0.794   4.509  12.448  0.7052  1.9886 -0.1668
 1676SOL    HW216662   0.824   4.430  12.580  0.3633  0.4673 -0.1137
 1677SOL     OW16663   0.667   2.398   8.858  0.1205 -0.3092 -0.1891
 1677SOL    HW116664   0.665   2.393   8.762 -1.1219  0.0305 -0.1759
 1677SOL    HW216665   0.737   2.461   8.874  0.2574 -0.3871 -0.4729
 1678SOL     OW16666   1.022   4.604  15.597 -0.0877 -0.2675  0.1661
 1678SOL    HW116667   0.995   4.691  15.627  1.7189  0.5378 -0.5457
 1678SOL    HW216668   1.081   4.636  15.529  1.6510 -3.5265  0.1411
 1679SOL     OW16669   1.096   2.445   2.208 -0.4282  0.8611 -0.4406
 1679SOL    HW116670   1.020   2.447   2.150 -0.1700 -1.0478 -0.8456
 1679SOL    HW216671   1.163   2.410   2.148  0.4416  0.1435  0.9541
 1680SOL     OW16672   1.541   1.685  15.001 -0.7557 -0.5913 -0.8256
 1680SOL    HW116673   1.513   1.764  15.048 -0.1873 -0.9072  0.0445
 1680SOL    HW216674   1.470   1.678  14.937 -1.1807 -1.5192 -0.2528
 1681SOL     OW16675   1.647   3.060   8.123 -0.2887 -0.7065  0.1781
 1681SOL    HW116676   1.693   3.127   8.072  0.8040 -0.8078  1.0204
 1681SOL    HW216677   1.719   3.029   8.179  1.8807 -0.4294 -2.4775
 1682SOL     OW16678   3.162   4.174   8.317  0.8169 -0.4874  0.1661
 1682SOL    HW116679   3.083   4.181   8.263  0.4821  0.1541  0.7400
 1682SOL    HW216680   3.133   4.127   8.395  0.5572  2.9417  2.1682
 1683SOL     OW16681   1.643   4.581  16.062  0.3599 -0.1996  0.0762
 1683SOL    HW116682   1.550   4.600  16.076  0.9830  1.8945  1.3810
 1683SOL    HW216683   1.644   4.546  15.973  0.0552 -2.3562  0.9109
 1684SOL     OW16684   2.583   1.775   4.850 -0.3832 -0.0247 -0.3681
 1684SOL    HW116685   2.497   1.747   4.880 -0.7976 -1.8526 -3.2547
 1684SOL    HW216686   2.598   1.723   4.771 -1.3453  1.4712 -1.5572
 1685SOL     OW16687   2.833   2.176  11.217  0.0979 -0.2209 -0.4924
 1685SOL    HW116688   2.823   2.098  11.271 -1.8471  0.9547  0.8617
 1685SOL    HW216689   2.747   2.181  11.175 -1.0114 -0.4621  1.7125
 1686SOL     OW16690   4.255   2.957   6.620  0.2880 -0.9430  0.1567
 1686SOL    HW116691   4.295   2.968   6.534 -1.6765  0.0839 -0.6097
 1686SOL    HW216692   4.332   2.952   6.676 -0.3116  0.1873  1.0703
 1687SOL     OW16693   4.364   4.355   6.966  0.5310 -0.2614  0.1497
 1687SOL    HW116694   4.369   4.259   6.960 -0.7966 -0.3581  0.5354
 1687SOL    HW216695   4.269   4.362   6.977  0.3805  1.8128 -2.4589
 1688SOL     OW16696   0.181   1.938   7.684 -0.2830  0.3567 -0.0995
 1688SOL    HW116697   0.262   1.910   7.642 -1.8171 -0.6503 -2.4155
 1688SOL    HW216698   0.205   1.951   7.776  1.4083 -0.6336 -0.3991
 1689SOL     OW16699   2.160   0.793   8.819 -0.4037 -0.0524  0.0430
 1689SOL    HW116700   2.071   0.821   8.799 -0.5196 -0.2651  0.2646
 1689SOL    HW216701   2.195   0.850   8.888  1.1709  1.6764 -2.1843
 1690SOL     OW16702   1.034   1.096  10.686  0.3985 -0.2517  0.3373
 1690SOL    HW116703   1.060   1.090  10.594 -1.2714 -0.0983 -0.1392
 1690SOL    HW216704   1.086   1.025  10.724  1.9592  0.7262  0.0613
 1691SOL     OW16705   1.177   4.131   0.077  0.7072 -0.0638 -0.3702
 1691SOL    HW116706   1.152   4.127  17.712 -0.8889 -1.1995  0.1016
 1691SOL    HW216707   1.123   4.060   0.112  1.5914 -0.3053  0.5150
 1692SOL     OW16708   0.523   1.004  12.471  0.0144  0.2549 -0.3889
 1692SOL    HW116709   0.534   1.043  12.385  1.1429 -2.4314 -1.4607
 1692SOL    HW216710   0.587   1.059  12.517  0.6669 -1.2536  0.5080
 1693SOL     OW16711   4.026   4.283   9.737  0.3783  0.2799 -0.6970
 1693SOL    HW116712   4.065   4.268   9.823  0.6358  0.7198 -0.7377
 1693SOL    HW216713   3.953   4.222   9.734  1.4499 -0.9600 -1.7484
 1694SOL     OW16714   2.741   0.813  12.411 -0.1418 -0.2947 -0.7165
 1694SOL    HW116715   2.732   0.894  12.461 -5.2332 -1.0994 -0.3388
 1694SOL    HW216716   2.826   0.796  12.452  0.0705 -0.8044 -1.3798
 1695SOL     OW16717   0.286   2.786  12.807  0.2444  0.2228 -0.5571
 1695SOL    HW116718   0.278   2.790  12.711 -0.2799  1.5235 -0.4541
 1695SOL    HW216719   0.200   2.750  12.829  0.3690  0.7190  0.7059
 1696SOL     OW16720   3.846   3.020  16.191 -0.2779  0.0931 -0.3226
 1696SOL    HW116721   3.840   2.999  16.098 -0.4443 -2.4059  0.2583
 1696SOL    HW216722   3.763   2.990  16.228 -0.8359 -0.6414 -2.1677
 1697SOL     OW16723   0.919   0.186   0.315 -0.0317  0.4303  0.0028
 1697SOL    HW116724   0.993   0.224   0.268  0.1167 -2.0241 -1.7015
 1697SOL    HW216725   0.919   0.099   0.277 -0.4407  0.7118 -0.6458
 1698SOL     OW16726   3.268   2.543   7.642 -0.6587 -0.7218 -0.3715
 1698SOL    HW116727   3.342   2.577   7.591 -0.3009  0.6672  1.0661
 1698SOL    HW216728   3.210   2.619   7.638 -1.3749 -1.2814 -0.5048
 1699SOL     OW16729   1.666   2.372   9.257 -0.1992  0.2047 -0.3961
 1699SOL    HW116730   1.614   2.424   9.196  1.9540  2.9086  0.0796
 1699SOL    HW216731   1.699   2.312   9.191 -0.9084 -0.3962 -0.2023
 1700SOL     OW16732   2.177   3.317   5.421  0.1343  0.2735 -0.1429
 1700SOL    HW116733   2.252   3.313   5.479  0.1747  2.6011 -0.0179
 1700SOL    HW216734   2.217   3.364   5.348  0.6675 -0.2659 -0.1909
 1701SOL     OW16735   1.160   2.390  14.216  0.4058 -0.7507 -0.1049
 1701SOL    HW116736   1.229   2.385  14.150 -0.2744 -1.5443 -0.7555
 1701SOL    HW216737   1.217   2.389  14.293 -0.4666 -2.3109  0.5325
 1702SOL     OW16738   2.727   1.600   9.203 -0.0823 -0.5243  0.4369
 1702SOL    HW116739   2.808   1.563   9.168 -0.3565  1.1479 -1.9407
 1702SOL    HW216740   2.761   1.635   9.286 -0.4218  1.5084 -0.2973
 1703SOL     OW16741   2.322   2.330   0.470 -0.4547 -0.4683  0.8287
 1703SOL    HW116742   2.369   2.386   0.532 -1.1501  3.2051 -1.9049
 1703SOL    HW216743   2.306   2.390   0.397 -1.5898 -1.1118  0.5411
 1704SOL     OW16744   2.289   0.484  13.269 -0.3397 -0.2496  0.0848
 1704SOL    HW116745   2.283   0.390  13.253 -1.1822 -0.2638  0.4887
 1704SOL    HW216746   2.375   0.505  13.232 -0.0537 -2.0072 -0.2369
 1705SOL     OW16747   2.722   0.013   2.015 -0.2024 -0.5473  0.1357
 1705SOL    HW116748   2.791   0.004   1.950 -1.0143 -0.3052 -0.7684
 1705SOL    HW216749   2.649   0.067   1.982 -0.5744 -0.7221  0.6687
 1706SOL     OW16750   3.803   2.418   7.168  0.5110 -0.3816 -0.4901
 1706SOL    HW116751   3.807   2.367   7.249 -1.9950 -0.6454 -0.5426
 1706SOL    HW216752   3.894   2.423   7.140  0.3995  2.0852 -0.4199
 1707SOL     OW16753   1.720   3.254  16.655 -0.6605 -0.0694 -0.3599
 1707SOL    HW116754   1.771   3.244  16.735 -1.3629 -2.6206 -0.2306
 1707SOL    HW216755   1.637   3.211  16.675 -0.9994 -0.7972 -3.3151
 1708SOL     OW16756   2.749   0.075   7.886 -0.1163  0.2595 -0.5265
 1708SOL    HW116757   2.676   0.055   7.827 -0.9778  1.9224 -0.0205
 1708SOL    HW216758   2.792   0.133   7.823  0.2988 -1.1337 -1.5094
 1709SOL     OW16759   2.358   2.738   6.576 -0.3899  0.1612 -0.2290
 1709SOL    HW116760   2.440   2.765   6.533  0.9325 -2.4020  0.6899
 1709SOL    HW216761   2.362   2.643   6.584  0.0130 -0.0041 -2.3847
 1710SOL     OW16762   0.818   3.270   9.825  0.2595 -0.4931  0.3769
 1710SOL    HW116763   0.842   3.269   9.732  1.9579 -1.6846  0.8204
 1710SOL    HW216764   0.901   3.253   9.871 -0.1255  0.8951  1.5699
 1711SOL     OW16765   1.100   3.023   4.288  1.9196 -0.1774 -0.7601
 1711SOL    HW116766   1.111   3.014   4.193 -0.8021  1.3754 -1.2173
 1711SOL    HW216767   1.178   2.975   4.318 -0.5088 -3.4504  0.3226
 1712SOL     OW16768   2.119   2.484  16.746 -0.1649 -0.3397 -0.3988
 1712SOL    HW116769   2.181   2.473  16.818 -0.2377  1.0364 -0.1217
 1712SOL    HW216770   2.038   2.475  16.795 -0.6620  2.7500 -0.6524
 1713SOL     OW16771   1.499   3.481   6.864  0.0222  0.0178 -0.4446
 1713SOL    HW116772   1.466   3.393   6.883  2.0794 -1.2395 -2.7229
 1713SOL    HW216773   1.517   3.513   6.952 -1.0498 -0.4509 -0.0577
 1714SOL     OW16774   3.388   4.651   3.553  0.1120 -0.4540  0.2587
 1714SOL    HW116775   3.297   4.678   3.565  0.5485  0.2412  2.0182
 1714SOL    HW216776   3.377   4.555   3.554 -0.6376 -0.3716 -0.0972
 1715SOL     OW16777   1.291   4.130   1.587  0.2941  0.0944  0.0831
 1715SOL    HW116778   1.327   4.136   1.676  0.4392  0.4106  0.0015
 1715SOL    HW216779   1.331   4.047   1.561 -1.2936 -1.2879  2.0839
 1716SOL     OW16780   3.788   3.379  10.933 -0.6976 -0.9235 -0.1936
 1716SOL    HW116781   3.883   3.391  10.928 -0.7540 -0.5405 -0.3886
 1716SOL    HW216782   3.761   3.467  10.960  4.1580  0.6801 -0.6605
 1717SOL     OW16783   2.071   4.578   8.185  0.2976  0.6855  0.1426
 1717SOL    HW116784   2.159   4.566   8.219  0.2655 -1.5956 -0.6092
 1717SOL    HW216785   2.039   4.627   8.261 -1.3079 -0.1408  0.0099
 1718SOL     OW16786   3.414   1.996   3.411 -0.3981  0.4438  0.2722
 1718SOL    HW116787   3.377   1.988   3.499 -0.6425  1.5483  0.2747
 1718SOL    HW216788   3.367   2.071   3.375  1.9859  0.8761 -1.9345
 1719SOL     OW16789   3.350   0.129   2.154  0.5823 -0.0654  0.3889
 1719SOL    HW116790   3.373   0.073   2.080 -0.9339  0.4037 -0.4395
 1719SOL    HW216791   3.385   0.213   2.127  0.8032 -0.4259 -0.4506
 1720SOL     OW16792   4.045   4.289  16.754 -0.4469  0.2222  0.1218
 1720SOL    HW116793   3.965   4.338  16.771 -0.6114 -1.0305  2.9292
 1720SOL    HW216794   4.091   4.362  16.712 -0.5728 -0.8632 -1.9548
 1721SOL     OW16795   3.887   3.086   1.521 -0.3089  0.0886  0.6158
 1721SOL    HW116796   3.954   3.084   1.453  1.5999  0.3265  2.5068
 1721SOL    HW216797   3.900   3.002   1.565 -1.5104 -1.5388 -2.1365
 1722SOL     OW16798   4.657   0.927  16.481  0.1027 -0.1335  0.3918
 1722SOL    HW116799   4.568   0.962  16.475  0.0219  0.0718  2.7788
 1722SOL    HW216800   4.645   0.832  16.485  1.3175 -0.3732 -1.4460
 1723SOL     OW16801   1.135   3.343  16.824  0.2529  0.1052  0.2577
 1723SOL    HW116802   1.058   3.334  16.769  1.0957  0.8484 -1.0407
 1723SOL    HW216803   1.207   3.369  16.767 -1.1807  2.1653 -0.6239
 1724SOL     OW16804   3.364   3.601   9.090 -0.5639  0.1779 -0.0719
 1724SOL    HW116805   3.330   3.625   9.176 -2.5618  0.3170 -0.8986
 1724SOL    HW216806   3.372   3.688   9.050  1.9631 -0.0427 -0.0392
 1725SOL     OW16807   4.558   2.233   1.006 -0.1322 -0.3641  0.1448
 1725SOL    HW116808   4.624   2.165   1.015 -1.3914 -2.0620 -3.4756
 1725SOL    HW216809   4.483   2.174   1.009 -1.0508  0.7206 -1.6231
 1726SOL     OW16810   0.389   3.905  10.711  0.7024 -0.4726 -0.2471
 1726SOL    HW116811   0.425   3.883  10.796  1.5584  1.6717 -0.0427
 1726SOL    HW216812   0.313   3.848  10.703 -1.1173  1.8139  0.7947
 1727SOL     OW16813   2.612   3.475   6.000 -0.2740  0.3198  0.8485
 1727SOL    HW116814   2.674   3.478   6.073  0.6877 -0.1479  0.0423
 1727SOL    HW216815   2.548   3.414   6.037 -1.5383  0.3554 -1.2804
 1728SOL     OW16816   2.883   0.691  14.167 -0.2761  0.2803 -0.3530
 1728SOL    HW116817   2.812   0.715  14.107 -1.1472  2.1561  1.4482
 1728SOL    HW216818   2.912   0.617  14.113 -1.0151 -0.9604  0.9368
 1729SOL     OW16819   4.667   2.412   5.029 -0.1179  0.2699 -0.6432
 1729SOL    HW116820   4.710   2.377   4.951 -0.7581  0.3408 -1.0276
 1729SOL    HW216821   4.606   2.339   5.039 -1.0066  1.1735  0.5811
 1730SOL     OW16822   2.459   0.203  13.141 -0.0880  0.0742  0.0279
 1730SOL    HW116823   2.524   0.239  13.080  0.8991  0.3524  1.2324
 1730SOL    HW216824   2.472   0.253  13.222 -1.4797  1.4919 -0.6412
 1731SOL     OW16825   1.930   4.159   4.355  0.0450 -0.1637  0.0615
 1731SOL    HW116826   1.920   4.105   4.434  2.0305  0.3133  0.6472
 1731SOL    HW216827   1.847   4.141   4.311 -0.5921  1.4256  0.6364
 1732SOL     OW16828   4.506   1.308   3.575  0.3593  0.3846 -0.6682
 1732SOL    HW116829   4.591   1.295   3.532  0.3384 -0.8018 -0.3282
 1732SOL    HW216830   4.496   1.217   3.601 -0.3043  0.3245 -1.1581
 1733SOL     OW16831   0.833   1.995   4.077  0.6916  0.0800 -0.0552
 1733SOL    HW116832   0.912   2.028   4.121  0.5951 -1.2856  1.1091
 1733SOL    HW216833   0.845   1.903   4.100 -1.5659 -0.2330 -0.1665
 1734SOL     OW16834   2.348   1.357   3.528 -0.9106  0.0880 -0.2174
 1734SOL    HW116835   2.328   1.319   3.443 -1.8207 -3.1199  1.4545
 1734SOL    HW216836   2.333   1.285   3.589  0.4976 -2.4834 -2.9140
 1735SOL     OW16837   0.496   3.150   2.597 -0.5751  0.1405  0.4957
 1735SOL    HW116838   0.444   3.225   2.568 -1.1629 -1.2132 -2.0160
 1735SOL    HW216839   0.460   3.132   2.683  0.4909 -3.4784  0.1906
 1736SOL     OW16840   2.981   4.035   7.328 -0.0910 -0.5027  0.0396
 1736SOL    HW116841   3.017   3.954   7.292  0.3205  0.2942 -1.3517
 1736SOL    HW216842   3.065   4.071   7.357 -1.1709  1.1496  1.1028
 1737SOL     OW16843   2.564   4.010   8.613  0.0460 -0.4904  0.2189
 1737SOL    HW116844   2.595   4.011   8.704  0.5673  2.9580 -0.0002
 1737SOL    HW216845   2.490   4.070   8.624  0.7984  0.4803 -0.0175
 1738SOL     OW16846   0.374   1.449   0.323 -0.3445  0.2531 -0.5743
 1738SOL    HW116847   0.320   1.508   0.271  1.5186  1.0723 -1.5561
 1738SOL    HW216848   0.447   1.424   0.267 -1.2196 -0.3910 -1.4350
 1739SOL     OW16849   2.540   4.529  17.645  0.0689 -0.5608 -0.3072
 1739SOL    HW116850   2.453   4.545  17.608  0.1509 -1.3448 -0.8373
 1739SOL    HW216851   2.559   4.619  17.672 -0.7334 -0.7766  0.9621
 1740SOL     OW16852   3.269   1.513  13.724  0.3281 -0.5509 -0.6533
 1740SOL    HW116853   3.278   1.485  13.632  1.1515  0.9629 -1.0391
 1740SOL    HW216854   3.340   1.456  13.756 -0.4778  0.2744  2.5664
 1741SOL     OW16855   0.405   1.484   1.322  0.2458  0.4805  0.2880
 1741SOL    HW116856   0.353   1.407   1.345  0.9094 -0.2663 -0.7235
 1741SOL    HW216857   0.487   1.456   1.363  1.8636  1.5503 -2.1993
 1742SOL     OW16858   0.429   3.560   3.832  0.3322  0.0497  0.0813
 1742SOL    HW116859   0.474   3.538   3.913 -0.3348 -2.7207 -0.2824
 1742SOL    HW216860   0.454   3.489   3.772 -0.0354  1.0140 -1.2288
 1743SOL     OW16861   2.443   1.112   8.378 -0.0526 -0.0194  0.6065
 1743SOL    HW116862   2.519   1.094   8.432 -0.2929  1.5791  1.4741
 1743SOL    HW216863   2.476   1.148   8.295 -2.6084  0.1148 -0.3708
 1744SOL     OW16864   3.817   4.107   1.156 -0.3101  0.6486  0.6810
 1744SOL    HW116865   3.817   4.203   1.159  1.7385  0.6336  1.5669
 1744SOL    HW216866   3.778   4.106   1.244  2.5849  0.4383  1.9857
 1745SOL     OW16867   1.375   3.389  16.973 -0.1035 -0.3625  0.2130
 1745SOL    HW116868   1.462   3.349  16.971  0.7576  1.7759 -4.2699
 1745SOL    HW216869   1.334   3.348  16.897 -0.0661  0.1352 -0.0798
 1746SOL     OW16870   1.552   1.066   4.741 -0.3871 -0.2156  0.5800
 1746SOL    HW116871   1.567   1.097   4.652  1.7564  0.3379  1.1186
 1746SOL    HW216872   1.625   1.008   4.765  0.7388  1.3574  1.0086
 1747SOL     OW16873   0.408   3.792  10.453  0.7879  0.0739 -0.1642
 1747SOL    HW116874   0.437   3.826  10.538 -0.9388  0.5042  0.2636
 1747SOL    HW216875   0.326   3.746  10.470  0.8767 -0.2980 -0.7313
 1748SOL     OW16876   0.794   0.363  15.166 -0.0497  0.1434 -0.1755
 1748SOL    HW116877   0.868   0.303  15.177 -0.0760  0.1258 -0.0958
 1748SOL    HW216878   0.807   0.421  15.241  0.1123 -0.9448  0.6493
 1749SOL     OW16879   0.690   2.238   8.164  0.1012  0.5373  0.2221
 1749SOL    HW116880   0.638   2.256   8.085  0.5364 -1.4408 -0.5010
 1749SOL    HW216881   0.651   2.154   8.187 -0.3360  0.9776  1.1119
 1750SOL     OW16882   2.726   1.156   5.287  0.7894 -0.3524  0.0844
 1750SOL    HW116883   2.743   1.163   5.193  0.9247 -0.9719  0.0601
 1750SOL    HW216884   2.637   1.190   5.295  1.5385  1.1917  1.8630
 1751SOL     OW16885   3.742   0.585   6.908  0.5722 -0.5333 -0.3260
 1751SOL    HW116886   3.778   0.583   6.819  1.1897  0.1765 -0.0943
 1751SOL    HW216887   3.783   0.665   6.942 -1.5939 -0.8120  2.9934
 1752SOL     OW16888   1.481   3.451   9.546 -0.8663  0.4817 -1.1775
 1752SOL    HW116889   1.450   3.361   9.553 -1.8511  0.9766  0.8851
 1752SOL    HW216890   1.503   3.472   9.637 -2.0269 -1.8121 -0.3748
 1753SOL     OW16891   0.802   1.857   5.894 -0.4093 -0.4018 -0.5496
 1753SOL    HW116892   0.776   1.792   5.829 -0.0753 -0.5098 -0.5767
 1753SOL    HW216893   0.793   1.799   5.970  2.3766  0.7881  0.7089
 1754SOL     OW16894   3.002   2.575  11.982 -0.2403  0.3875  0.4133
 1754SOL    HW116895   3.054   2.498  11.959 -1.6805 -0.0377 -1.4513
 1754SOL    HW216896   3.051   2.615  12.054 -0.7089 -0.9337  1.4684
 1755SOL     OW16897   4.342   1.124  10.394 -0.4506 -0.7685  0.3569
 1755SOL    HW116898   4.368   1.191  10.331 -2.6916 -0.4424 -0.2240
 1755SOL    HW216899   4.265   1.091  10.348  0.1466  0.2311 -1.3418
 1756SOL     OW16900   4.566   3.952   3.325 -0.6244 -0.1560  0.0691
 1756SOL    HW116901   4.602   3.986   3.243  0.9156  0.3696  0.9794
 1756SOL    HW216902   4.551   4.034   3.371  2.1606 -0.2749  1.1610
 1757SOL     OW16903   0.695   3.641   4.131  0.1032  0.0819  0.6147
 1757SOL    HW116904   0.631   3.571   4.144  0.3336  0.0968  1.8297
 1757SOL    HW216905   0.724   3.634   4.039 -0.8973 -1.1428  0.3955
 1758SOL     OW16906   0.193   4.223   3.594  0.0299  0.2416  0.0102
 1758SOL    HW116907   0.151   4.233   3.679  1.7397 -0.4456  0.9213
 1758SOL    HW216908   0.218   4.131   3.603 -0.8531  0.1360  1.4118
 1759SOL     OW16909   3.470   2.292   6.746  0.2383 -0.6236 -0.0464
 1759SOL    HW116910   3.499   2.348   6.818 -0.4676  0.8905 -0.9185
 1759SOL    HW216911   3.408   2.356   6.709  0.7211  0.9080  1.7844
 1760SOL     OW16912   0.485   3.405   5.722  0.0999  0.2001  0.7048
 1760SOL    HW116913   0.512   3.456   5.799  2.8456 -0.6886  0.3018
 1760SOL    HW216914   0.412   3.467   5.709  0.7237  1.2641  2.1947
 1761SOL     OW16915   0.829   2.143   4.800 -0.3267  0.1049  0.1997
 1761SOL    HW116916   0.795   2.067   4.754  0.5250  1.2468 -2.3398
 1761SOL    HW216917   0.890   2.182   4.736 -0.4059 -2.7177 -1.5744
 1762SOL     OW16918   3.164   2.011   6.299 -0.5035 -0.1239 -0.1236
 1762SOL    HW116919   3.130   2.090   6.343  2.2962  0.7552  0.4405
 1762SOL    HW216920   3.081   1.964   6.291 -0.6485 -0.0992  1.2892
 1763SOL     OW16921   1.802   0.960  15.616  0.0576  0.3574 -0.4281
 1763SOL    HW116922   1.846   0.914  15.687 -0.3672  0.3794 -0.1545
 1763SOL    HW216923   1.866   1.017  15.572  1.1567  0.0153  0.7163
 1764SOL     OW16924   3.027   3.331   4.804 -0.2351  0.1784 -0.1800
 1764SOL    HW116925   3.086   3.257   4.788  2.7153  2.3310  0.6611
 1764SOL    HW216926   2.942   3.304   4.770  0.5084 -2.4158  0.0514
 1765SOL     OW16927   0.394   2.654   2.737  0.0256 -0.2570 -0.0378
 1765SOL    HW116928   0.404   2.558   2.737 -0.4029 -0.3005  0.1765
 1765SOL    HW216929   0.488   2.672   2.727  0.4060 -1.9248  0.5325
 1766SOL     OW16930   2.449   0.830  12.949  0.1849 -0.2715  0.2702
 1766SOL    HW116931   2.539   0.849  12.975  0.2292  0.2525 -0.2411
 1766SOL    HW216932   2.406   0.893  13.008 -1.1209  0.3858 -1.3719
 1767SOL     OW16933   3.271   3.545  12.003  0.2117  0.2127  0.0394
 1767SOL    HW116934   3.199   3.513  12.056  1.3096  1.4244  2.2665
 1767SOL    HW216935   3.338   3.527  12.069  1.5438  0.1340 -1.3146
 1768SOL     OW16936   1.574   4.335   2.206 -0.0730 -0.1615 -0.2699
 1768SOL    HW116937   1.491   4.367   2.170 -0.0401  0.3876  0.1444
 1768SOL    HW216938   1.573   4.255   2.155 -0.6906  0.4350 -1.1962
 1769SOL     OW16939   4.717   3.684  10.285 -0.5418  0.8240  0.2981
 1769SOL    HW116940   0.019   3.595  10.275 -1.4542  0.4041  0.9291
 1769SOL    HW216941   0.045   3.711  10.355  0.1349  0.5968 -0.1949
 1770SOL     OW16942   1.191   4.318  13.983  0.2265 -0.1834 -0.0685
 1770SOL    HW116943   1.162   4.362  13.903 -0.7076 -2.3362 -0.9161
 1770SOL    HW216944   1.250   4.264  13.931  0.6337  2.5008 -2.4152
 1771SOL     OW16945   1.838   0.586   8.249 -0.9512 -0.0118 -0.1686
 1771SOL    HW116946   1.744   0.581   8.266 -1.1268  3.0472 -0.2424
 1771SOL    HW216947   1.842   0.679   8.227  1.6816 -0.6833 -2.5661
 1772SOL     OW16948   1.048   3.622  16.721 -0.3772  0.1928  0.0270
 1772SOL    HW116949   1.098   3.701  16.743 -1.5033  0.7486  0.6187
 1772SOL    HW216950   1.103   3.550  16.753 -0.2812  0.5355  0.6353
 1773SOL     OW16951   2.222   4.622   0.175  0.1875  0.2854 -0.4333
 1773SOL    HW116952   2.160   4.692   0.195  0.1440  0.1938 -0.2444
 1773SOL    HW216953   2.250   4.638   0.085  2.1976 -1.3222 -0.0776
 1774SOL     OW16954   4.019   1.253   5.463  0.5845 -0.0295  0.2403
 1774SOL    HW116955   4.100   1.305   5.463  0.7168 -0.2346 -0.1480
 1774SOL    HW216956   3.954   1.309   5.505  0.5024  0.6114 -0.7597
 1775SOL     OW16957   3.689   3.442   6.759  0.4634 -0.2184 -0.2846
 1775SOL    HW116958   3.725   3.527   6.784 -1.6370  0.6519 -0.2158
 1775SOL    HW216959   3.718   3.381   6.827  0.6543 -0.0541 -0.2181
 1776SOL     OW16960   4.641   2.540   4.462 -0.3575  0.4033  0.2111
 1776SOL    HW116961   4.644   2.448   4.438 -3.4652  0.9073 -2.1795
 1776SOL    HW216962   4.635   2.583   4.376  1.0564  1.6799  0.7382
 1777SOL     OW16963   1.063   0.147  10.876 -0.2694 -0.9149  0.2721
 1777SOL    HW116964   1.011   0.080  10.832  0.2720 -0.6868 -0.7276
 1777SOL    HW216965   1.057   0.100  10.959  0.8354  1.3436  1.6591
 1778SOL     OW16966   1.442   0.673   7.435 -0.1057  1.0210 -0.4125
 1778SOL    HW116967   1.471   0.632   7.353  0.5833  2.1457 -0.7323
 1778SOL    HW216968   1.503   0.627   7.492  0.2562 -0.1244 -1.7387
 1779SOL     OW16969   4.603   2.806   6.526 -0.8123 -0.3310  0.1839
 1779SOL    HW116970   4.563   2.891   6.543  3.4206  1.8487 -0.7671
 1779SOL    HW216971   4.626   2.814   6.433  0.4492 -1.0035  0.4415
 1780SOL     OW16972   2.334   0.568  12.380  0.2067  0.4805 -0.7268
 1780SOL    HW116973   2.372   0.637  12.325  1.3814 -0.2316 -0.8018
 1780SOL    HW216974   2.274   0.620  12.433 -0.9626 -1.0369 -0.5495
 1781SOL     OW16975   1.032   1.355   3.756 -0.0801 -0.4425  0.2476
 1781SOL    HW116976   1.078   1.323   3.679 -3.5080 -1.2523 -1.4432
 1781SOL    HW216977   1.082   1.306   3.822  0.9537 -1.4238 -1.2668
 1782SOL     OW16978   1.452   1.788   6.403  0.5213 -0.0089 -0.1440
 1782SOL    HW116979   1.475   1.753   6.488  2.4338 -0.6318 -0.9205
 1782SOL    HW216980   1.411   1.712   6.362  0.0121 -0.3095  0.9237
 1783SOL     OW16981   1.535   0.289  15.494  0.1815  0.0066 -0.4206
 1783SOL    HW116982   1.498   0.270  15.580  0.8461 -0.5869 -0.2682
 1783SOL    HW216983   1.533   0.201  15.457 -1.0383 -0.6357  1.1941
 1784SOL     OW16984   0.768   3.142   3.236 -0.2093 -0.1005 -0.1199
 1784SOL    HW116985   0.775   3.108   3.147  1.0546 -1.9290  0.6870
 1784SOL    HW216986   0.816   3.084   3.294  0.3957  1.7264  1.1891
 1785SOL     OW16987   4.165   1.906   0.060  0.6701  0.1739  0.0502
 1785SOL    HW116988   4.122   1.916   0.145 -2.6525  0.7871 -1.7084
 1785SOL    HW216989   4.230   1.976   0.073  0.7101  0.4273 -1.5298
 1786SOL     OW16990   0.529   3.372   6.576  0.0046 -0.1834  0.1222
 1786SOL    HW116991   0.575   3.318   6.511  1.1622  1.3776 -0.3514
 1786SOL    HW216992   0.556   3.328   6.657 -0.4000  0.2282  0.4731
 1787SOL     OW16993   2.971   3.489   1.707  0.0977  0.2472  0.1761
 1787SOL    HW116994   2.900   3.553   1.709 -1.8389 -1.8418 -0.4916
 1787SOL    HW216995   2.937   3.427   1.642 -0.0613 -1.1731  1.6156
 1788SOL     OW16996   2.402   2.773   7.312 -1.0301  0.2593  0.2709
 1788SOL    HW116997   2.359   2.845   7.357 -1.1066  1.1845 -1.2882
 1788SOL    HW216998   2.382   2.794   7.221 -0.5109 -0.8346 -0.1045
 1789SOL     OW16999   0.309   0.714   3.762  0.2697  0.2745  0.6394
 1789SOL    HW117000   0.400   0.723   3.735 -0.1664 -0.7548 -1.1637
 1789SOL    HW217001   0.325   0.650   3.831  0.7767  0.2576  0.5063
 1790SOL     OW17002   3.633   3.958   2.832 -0.0542 -0.0901 -0.3023
 1790SOL    HW117003   3.608   4.001   2.751 -2.1917  0.3575  0.6087
 1790SOL    HW217004   3.570   3.887   2.839  1.2375 -1.4485 -2.5952
 1791SOL     OW17005   1.861   4.325   9.038 -0.2003  0.0309  0.7199
 1791SOL    HW117006   1.830   4.386   8.972  4.0520  1.3745 -0.0816
 1791SOL    HW217007   1.812   4.344   9.118 -2.4432  0.1052 -0.6804
 1792SOL     OW17008   0.737   3.964  10.657 -0.2298 -0.3505  0.4438
 1792SOL    HW117009   0.669   3.996  10.716 -0.6740  0.5857 -0.5650
 1792SOL    HW217010   0.752   4.044  10.607 -1.5000 -0.9719 -0.9317
 1793SOL     OW17011   0.003   1.926   8.930  0.3750 -0.3069 -0.3282
 1793SOL    HW117012   4.712   1.835   8.911  1.1454 -0.5647 -0.0286
 1793SOL    HW217013   0.084   1.944   8.882  0.1032  1.2139 -0.2373
 1794SOL     OW17014   1.930   4.305   2.904 -0.1930 -0.3481 -0.0963
 1794SOL    HW117015   1.912   4.299   2.810 -0.8623 -1.8690  0.1244
 1794SOL    HW217016   1.846   4.283   2.945 -0.7931  0.5421 -0.8380
 1795SOL     OW17017   1.340   0.237   5.367  0.3568 -0.0819  0.3664
 1795SOL    HW117018   1.383   0.252   5.451 -0.6287  0.0324  0.8421
 1795SOL    HW217019   1.249   0.223   5.391 -0.5127  2.7640 -1.3896
 1796SOL     OW17020   0.007   4.325   7.763  0.1614 -0.3718 -0.0960
 1796SOL    HW117021   0.022   4.232   7.751  0.4623 -0.3602  0.1873
 1796SOL    HW217022   4.726   4.333   7.858 -1.2294  1.3015 -0.4306
 1797SOL     OW17023   4.306   2.903   7.486  0.0784 -0.4876  0.2189
 1797SOL    HW117024   4.340   2.904   7.575 -0.5339 -2.1474  0.4641
 1797SOL    HW217025   4.211   2.905   7.498  0.1040  1.5115  0.0828
 1798SOL     OW17026   0.256   3.243  14.732 -0.0733 -0.0063  0.0283
 1798SOL    HW117027   0.351   3.229  14.730  0.2988  2.5297  0.3181
 1798SOL    HW217028   0.243   3.317  14.673 -2.6542  2.4240  3.6274
 1799SOL     OW17029   2.462   0.721  10.018 -0.0552  0.6606 -0.3379
 1799SOL    HW117030   2.532   0.751  10.076 -1.6296  2.8900  0.3909
 1799SOL    HW217031   2.452   0.629  10.044  0.0262  0.6590 -0.3131
 1800SOL     OW17032   4.301   4.539   6.113 -0.7019 -0.5106 -0.2944
 1800SOL    HW117033   4.350   4.604   6.163  0.6376  0.4757 -2.8835
 1800SOL    HW217034   4.255   4.605   6.062  0.4861 -0.2769 -1.0576
 1801SOL     OW17035   2.678   2.439  11.762  0.4234 -0.6361 -0.5414
 1801SOL    HW117036   2.765   2.477  11.745 -0.4961  1.3183 -0.9209
 1801SOL    HW217037   2.645   2.425  11.674 -2.2707 -0.1212  0.3909
 1802SOL     OW17038   4.251   3.758   8.200  0.0662 -0.7676  0.1550
 1802SOL    HW117039   4.294   3.840   8.222  2.5030 -1.8704 -0.4906
 1802SOL    HW217040   4.258   3.697   8.273  0.1519 -0.8262  0.0974
 1803SOL     OW17041   2.455   4.295   6.903 -0.1807  0.2045  0.4772
 1803SOL    HW117042   2.488   4.326   6.987  0.4096  1.1171 -0.0970
 1803SOL    HW217043   2.361   4.288   6.919  0.4190 -3.3796  2.3952
 1804SOL     OW17044   3.343   1.720   3.411 -0.4498 -0.3137 -0.6946
 1804SOL    HW117045   3.376   1.729   3.500 -2.1256 -0.4432 -0.0496
 1804SOL    HW217046   3.321   1.809   3.382  0.0511 -0.3750 -1.2641
 1805SOL     OW17047   1.487   2.556   9.104 -0.1313  0.2446  0.0108
 1805SOL    HW117048   1.441   2.626   9.057 -2.0021 -1.2190 -0.3244
 1805SOL    HW217049   1.411   2.534   9.158  1.6081  0.5788  2.5709
 1806SOL     OW17050   1.191   3.134   8.555 -0.6601 -0.1093 -0.0935
 1806SOL    HW117051   1.113   3.082   8.572  0.6100 -2.7106 -2.3281
 1806SOL    HW217052   1.160   3.203   8.496  1.3138  0.1997 -0.7898
 1807SOL     OW17053   2.560   2.253   3.845  0.5543 -0.0206 -0.1221
 1807SOL    HW117054   2.506   2.180   3.813  0.1436 -0.1713  0.9101
 1807SOL    HW217055   2.504   2.328   3.825 -0.7799 -0.4753  1.8733
 1808SOL     OW17056   0.144   3.187   6.330 -0.0151 -0.3000  0.0306
 1808SOL    HW117057   0.055   3.220   6.320  0.8960  2.0134 -0.4092
 1808SOL    HW217058   0.188   3.259   6.284  0.9271 -1.2578 -0.5645
 1809SOL     OW17059   0.773   3.263   4.624  0.5502 -0.2688 -0.3671
 1809SOL    HW117060   0.816   3.348   4.636 -1.0356  0.6311 -0.9706
 1809SOL    HW217061   0.786   3.251   4.530  3.0832 -2.5917  0.2902
 1810SOL     OW17062   4.072   4.230   1.579  0.7069  0.1670  0.2069
 1810SOL    HW117063   4.166   4.230   1.564  0.9216 -3.6895  1.6108
 1810SOL    HW217064   4.050   4.144   1.614  1.2597  1.4472  3.7288
 1811SOL     OW17065   3.346   1.903   5.813 -0.2682  0.3101  0.1582
 1811SOL    HW117066   3.322   1.942   5.729 -2.5313 -2.3856 -0.4414
 1811SOL    HW217067   3.265   1.879   5.858 -0.7054  0.0828 -0.7562
 1812SOL     OW17068   3.685   2.873   2.204 -0.0203  0.6789  0.2220
 1812SOL    HW117069   3.758   2.930   2.227  1.5717 -1.5191  0.6419
 1812SOL    HW217070   3.613   2.922   2.243  1.2202  0.5981  2.5657
 1813SOL     OW17071   3.470   0.113   8.546 -0.7011  0.3850 -0.2966
 1813SOL    HW117072   3.392   0.066   8.575  0.6961 -1.4960  0.4023
 1813SOL    HW217073   3.535   0.043   8.554 -0.5824  0.7359  2.0401
 1814SOL     OW17074   0.950   1.919  14.049 -0.2240  0.0059 -0.4253
 1814SOL    HW117075   1.031   1.969  14.040 -0.1475  0.1860  1.3137
 1814SOL    HW217076   0.962   1.869  14.130  1.7109 -0.7272 -1.1509
 1815SOL     OW17077   2.392   2.581   2.493 -0.0661 -0.2578  0.4069
 1815SOL    HW117078   2.444   2.581   2.573  0.4703 -0.2900  0.0594
 1815SOL    HW217079   2.402   2.674   2.470 -1.0816 -0.2980 -0.2013
 1816SOL     OW17080   1.066   1.547   8.952  0.2774 -0.6172 -0.2187
 1816SOL    HW117081   1.160   1.556   8.964  0.1005 -1.8567  2.1407
 1816SOL    HW217082   1.038   1.636   8.930  2.2013 -0.1476 -0.7495
 1817SOL     OW17083   2.971   1.517   0.918  1.1748 -0.4011 -0.3300
 1817SOL    HW117084   2.913   1.488   0.847  0.7149 -3.3823  1.2607
 1817SOL    HW217085   2.921   1.571   0.979  1.1632 -0.2013 -0.5123
 1818SOL     OW17086   3.768   1.539   5.252  0.1568 -0.0451  0.2657
 1818SOL    HW117087   3.753   1.581   5.337 -3.0036 -0.9372  0.1416
 1818SOL    HW217088   3.712   1.462   5.253  1.0305 -0.6798 -2.0167
 1819SOL     OW17089   3.108   1.724   6.503 -0.6108  0.2085 -0.0359
 1819SOL    HW117090   3.199   1.696   6.505  0.0880  2.5669  0.5471
 1819SOL    HW217091   3.109   1.783   6.578  0.1155 -0.2988  0.3571
 1820SOL     OW17092   1.657   4.336   7.950 -0.2779  0.6325  0.1165
 1820SOL    HW117093   1.574   4.379   7.968 -0.8990 -0.4635 -0.1635
 1820SOL    HW217094   1.626   4.283   7.876 -0.7573  2.0798 -0.7061
 1821SOL     OW17095   1.675   3.326   3.718  0.1202  0.2088  0.3155
 1821SOL    HW117096   1.737   3.297   3.651  0.5932  1.0027  0.4118
 1821SOL    HW217097   1.687   3.421   3.724  0.9194  0.0256  1.5656
 1822SOL     OW17098   4.355   0.087   4.268 -0.0137 -0.1829 -0.3900
 1822SOL    HW117099   4.296   0.072   4.195 -1.7360  1.7831  0.5757
 1822SOL    HW217100   4.328   0.172   4.303 -0.8348  0.4735 -2.6240
 1823SOL     OW17101   1.263   3.925   2.343  0.0494  0.0981 -0.0102
 1823SOL    HW117102   1.288   3.844   2.388  0.0212 -1.4448 -2.7265
 1823SOL    HW217103   1.178   3.904   2.304  0.4013 -0.0426 -0.7176
 1824SOL     OW17104   0.373   0.036   6.721  0.7617 -0.1963  0.1118
 1824SOL    HW117105   0.423   0.082   6.788  2.0877 -1.6414  0.1139
 1824SOL    HW217106   0.434   4.698   6.697  1.2500  0.3269 -0.1689
 1825SOL     OW17107   1.838   4.684   5.246  0.5229 -0.5397 -0.8580
 1825SOL    HW117108   1.893   4.613   5.212  2.9916  1.9377 -2.1020
 1825SOL    HW217109   1.895   0.012   5.295 -1.2841  0.8996 -0.5427
 1826SOL     OW17110   2.190   2.166   6.014  0.0634 -0.6897 -0.1233
 1826SOL    HW117111   2.201   2.071   6.017  4.6113 -0.0489  3.0647
 1826SOL    HW217112   2.149   2.176   6.099 -1.1783 -2.1333 -0.5510
 1827SOL     OW17113   2.485   2.543   2.771 -0.0648  0.0806  0.8488
 1827SOL    HW117114   2.470   2.625   2.819  0.5318  1.7321 -1.7873
 1827SOL    HW217115   2.409   2.490   2.794  0.0493  0.0762  1.2105
 1828SOL     OW17116   0.309   2.951   2.240  0.0436  1.0189  0.5554
 1828SOL    HW117117   0.240   2.902   2.195  1.1096  0.7604 -0.8231
 1828SOL    HW217118   0.280   2.946   2.331  1.6761  0.7144  1.0694
 1829SOL     OW17119   2.536   0.925   7.180 -0.2854 -0.5072  0.3623
 1829SOL    HW117120   2.622   0.893   7.154 -0.3914  0.0747 -0.7144
 1829SOL    HW217121   2.484   0.871   7.121  1.9777 -0.1960 -1.9132
 1830SOL     OW17122   4.098   1.570  13.820 -0.0522 -0.0869  0.4470
 1830SOL    HW117123   4.186   1.546  13.848 -0.9099 -0.5779  2.6580
 1830SOL    HW217124   4.042   1.504  13.860 -0.6890  1.1099  1.5157
 1831SOL     OW17125   1.105   0.288   9.771 -0.0863 -0.0386 -0.0125
 1831SOL    HW117126   1.182   0.293   9.714  0.5601 -0.0371  0.8594
 1831SOL    HW217127   1.096   0.194   9.784  0.9148  0.1658  2.1121
 1832SOL     OW17128   1.333   4.599   6.172  1.0599  0.3391 -0.5402
 1832SOL    HW117129   1.379   4.562   6.247  0.5049 -2.4419 -1.5790
 1832SOL    HW217130   1.398   4.570   6.108  2.6886  0.2919  1.1104
 1833SOL     OW17131   1.824   1.110   8.963 -0.6583  0.2666  1.1070
 1833SOL    HW117132   1.856   1.023   8.985  0.1570  0.1360 -0.6221
 1833SOL    HW217133   1.850   1.118   8.871 -0.2027  1.5019  1.3301
 1834SOL     OW17134   4.283   4.683   6.662 -0.1569 -1.0044  0.1566
 1834SOL    HW117135   4.303   0.044   6.651 -1.2249 -0.7531  0.4035
 1834SOL    HW217136   4.357   4.649   6.713  0.0231  0.0814  0.6362
 1835SOL     OW17137   1.265   0.119   6.011 -0.2726 -0.2990 -0.2369
 1835SOL    HW117138   1.237   0.147   5.924  0.0396  2.4383  0.5681
 1835SOL    HW217139   1.313   0.039   5.987  3.3789  1.6454  0.6311
 1836SOL     OW17140   2.348   3.679   5.539  0.5282 -0.3010 -0.1403
 1836SOL    HW117141   2.404   3.629   5.479  0.4463 -0.0129 -0.4538
 1836SOL    HW217142   2.291   3.610   5.573  0.5673 -0.8293 -1.1730
 1837SOL     OW17143   2.340   3.435   6.955 -0.0616 -0.1318 -0.8136
 1837SOL    HW117144   2.311   3.367   6.893 -0.3875  0.7675 -1.6453
 1837SOL    HW217145   2.325   3.520   6.914  0.8795  0.3096 -0.2532
 1838SOL     OW17146   2.356   1.084   4.402 -0.4641 -0.0645  0.2138
 1838SOL    HW117147   2.334   1.079   4.308  1.6856 -0.6923 -0.2548
 1838SOL    HW217148   2.325   1.170   4.430 -0.4660 -0.2099  0.6556
 1839SOL     OW17149   0.122   1.926   4.091 -0.2329 -0.3208 -0.1168
 1839SOL    HW117150   0.196   1.890   4.042 -0.3000  0.1292 -0.5484
 1839SOL    HW217151   0.091   1.849   4.138 -1.4149  0.3183  0.1521
 1840SOL     OW17152   4.219   0.759   4.376 -0.5511 -0.2237  0.3097
 1840SOL    HW117153   4.174   0.816   4.438  0.1741 -0.3983  0.9938
 1840SOL    HW217154   4.276   0.820   4.329  0.3457 -1.7304 -0.5836
 1841SOL     OW17155   2.977   3.593   2.436 -0.1316  0.2639  0.4130
 1841SOL    HW117156   3.026   3.599   2.354 -1.1054  1.5985 -0.0622
 1841SOL    HW217157   3.024   3.662   2.483  0.1289 -0.5963  1.4361
 1842SOL     OW17158   0.765   1.763  13.930  0.1226  0.4474 -0.0262
 1842SOL    HW117159   0.774   1.670  13.952 -1.4747  0.6958  1.6346
 1842SOL    HW217160   0.828   1.814  13.980 -1.7895  2.9395 -0.2043
 1843SOL     OW17161   1.057   0.077   6.189 -0.1133  0.2118 -0.0280
 1843SOL    HW117162   1.116   0.076   6.114  1.5621  1.3793  1.2637
 1843SOL    HW217163   1.119   0.071   6.262  0.9721  0.8725 -0.8782
 1844SOL     OW17164   0.252   3.342   5.922  0.8090  0.0859 -0.3208
 1844SOL    HW117165   0.176   3.317   5.976  0.6881 -0.9915 -0.9829
 1844SOL    HW217166   0.327   3.297   5.960  0.7108 -0.1393 -0.3943
 1845SOL     OW17167   3.882   2.711   2.649  0.6672  0.4654  0.3748
 1845SOL    HW117168   3.862   2.719   2.556  2.6228  0.2637 -0.0695
 1845SOL    HW217169   3.932   2.629   2.645 -0.0377  0.1324 -1.4991
 1846SOL     OW17170   0.415   2.302   7.133  0.0071  0.2092  0.2137
 1846SOL    HW117171   0.362   2.351   7.070  0.0763 -0.0827 -0.0734
 1846SOL    HW217172   0.487   2.361   7.155  2.1212 -0.8117 -3.9960
 1847SOL     OW17173   1.547   1.156   1.587  0.8149 -0.8146 -0.4150
 1847SOL    HW117174   1.606   1.217   1.632 -0.5660 -0.3230  0.7141
 1847SOL    HW217175   1.483   1.224   1.565  0.7255  0.1478  2.8068
 1848SOL     OW17176   2.696   3.225   4.194 -0.6184  0.5264  0.0797
 1848SOL    HW117177   2.648   3.303   4.220 -3.1905 -0.2532 -2.3085
 1848SOL    HW217178   2.779   3.244   4.237 -0.7803  0.6389  0.3422
 1849SOL     OW17179   0.584   1.932   5.084  0.2867  0.4002  0.0348
 1849SOL    HW117180   0.603   1.902   4.995 -1.2589 -0.9589  0.1782
 1849SOL    HW217181   0.669   1.955   5.123  0.6193 -1.9156  0.6910
 1850SOL     OW17182   1.837   2.992   5.104 -0.3332 -0.3169  0.3771
 1850SOL    HW117183   1.858   2.909   5.146 -0.9750 -0.2541  0.8281
 1850SOL    HW217184   1.756   2.974   5.057  0.7049  1.3561 -2.0709
 1851SOL     OW17185   0.831   2.121   6.610  0.2102 -0.2647 -0.6864
 1851SOL    HW117186   0.738   2.107   6.592  0.2001  0.0593 -0.9047
 1851SOL    HW217187   0.823   2.208   6.650  0.7696  0.0647 -1.2889
 1852SOL     OW17188   2.687   1.063   8.587  0.3712  0.3011 -0.0135
 1852SOL    HW117189   2.729   1.144   8.559  3.3160 -1.2061  0.0423
 1852SOL    HW217190   2.762   1.005   8.573  0.2156  0.0046  0.3618
 1853SOL     OW17191   4.014   4.492   2.996 -0.1863 -0.3713  0.5745
 1853SOL    HW117192   4.085   4.529   3.049  0.5804 -0.5262 -0.3570
 1853SOL    HW217193   4.054   4.432   2.934 -1.2482  0.9329 -1.3609
 1854SOL     OW17194   1.728   4.103   8.535 -0.1871 -0.1803 -0.2471
 1854SOL    HW117195   1.691   4.137   8.616  0.0204  0.7907 -0.5552
 1854SOL    HW217196   1.694   4.154   8.462 -0.7057 -0.6516 -0.3302
 1855SOL     OW17197   3.439   3.316  10.675 -0.6066  0.3182 -0.2926
 1855SOL    HW117198   3.416   3.276  10.759  1.8176 -0.2540  0.1067
 1855SOL    HW217199   3.529   3.283  10.674 -1.3370 -1.6366 -1.6617
 1856SOL     OW17200   2.550   1.379   3.259  0.1622 -0.6118  0.2457
 1856SOL    HW117201   2.458   1.383   3.233  0.5424  1.5879 -0.7906
 1856SOL    HW217202   2.552   1.460   3.310 -0.5578  0.4589 -1.4054
 1857SOL     OW17203   4.043   3.856   7.800 -0.0088 -0.1976 -0.0100
 1857SOL    HW117204   4.033   3.928   7.862 -2.8750  1.0466 -1.8809
 1857SOL    HW217205   4.059   3.785   7.861 -1.0244  0.1232  0.6246
 1858SOL     OW17206   1.273   4.025  13.578  0.2753  0.0198  0.6705
 1858SOL    HW117207   1.187   3.992  13.606  1.1742 -1.5037  1.6912
 1858SOL    HW217208   1.243   4.076  13.504  1.2266 -1.7595 -0.9448
 1859SOL     OW17209   3.509   1.240   7.032  0.1594 -0.5019  0.0196
 1859SOL    HW117210   3.434   1.292   7.061  1.2319  1.0700 -0.0018
 1859SOL    HW217211   3.511   1.254   6.937 -2.7193 -1.8985 -0.2403
 1860SOL     OW17212   3.186   2.184  10.106 -0.1080 -0.1551 -0.2112
 1860SOL    HW117213   3.092   2.174  10.098 -0.4016  1.3980  1.3853
 1860SOL    HW217214   3.184   2.263  10.160  1.2517  0.0292 -0.4204
 1861SOL     OW17215   1.109   0.371  15.246 -0.4215  0.5078 -0.4373
 1861SOL    HW117216   1.157   0.298  15.285 -0.5368  1.0297  0.6880
 1861SOL    HW217217   1.109   0.344  15.154 -2.4333 -0.8880 -0.0266
 1862SOL     OW17218   4.169   4.304   6.033  0.6704 -0.0413 -0.1153
 1862SOL    HW117219   4.114   4.268   6.102  1.2664  0.3337  0.5589
 1862SOL    HW217220   4.211   4.382   6.070  0.2433  1.8379 -3.5740
 1863SOL     OW17221   4.408   4.439  16.721  0.1235 -0.2817 -0.3963
 1863SOL    HW117222   4.501   4.461  16.718  0.2402 -1.0699 -2.5912
 1863SOL    HW217223   4.404   4.366  16.783 -1.5180 -1.1048 -1.4789
 1864SOL     OW17224   3.300   0.126   1.146  0.2168 -0.8077 -0.0000
 1864SOL    HW117225   3.323   0.033   1.145  0.4886 -0.7423  0.1664
 1864SOL    HW217226   3.377   0.167   1.105  0.0652 -0.7325 -0.2110
 1865SOL     OW17227   2.208   4.157   4.437 -0.4707  0.6603  0.2221
 1865SOL    HW117228   2.127   4.184   4.394  0.8199  1.3784 -1.7382
 1865SOL    HW217229   2.197   4.063   4.420 -1.8499  0.6904  0.9690
 1866SOL     OW17230   2.159   2.650   7.196 -0.4095 -0.1227 -0.1310
 1866SOL    HW117231   2.079   2.657   7.145 -0.8963  0.1418  0.6601
 1866SOL    HW217232   2.205   2.570   7.170  1.2853  0.7730  0.0928
 1867SOL     OW17233   2.193   3.767   8.121 -0.3438 -0.2944  0.3994
 1867SOL    HW117234   2.130   3.838   8.129  0.4638  0.5914 -1.2151
 1867SOL    HW217235   2.253   3.779   8.195  2.0737 -0.1472 -1.6005
 1868SOL     OW17236   1.549   4.089   3.544 -0.4865  0.1340  0.4486
 1868SOL    HW117237   1.604   4.030   3.493  0.6001  0.4990  1.1892
 1868SOL    HW217238   1.472   4.033   3.557 -0.0759 -0.0302  2.2425
 1869SOL     OW17239   1.810   0.818   4.791 -0.4199  0.6446 -0.2883
 1869SOL    HW117240   1.750   0.746   4.811  0.5430 -0.3743 -0.9936
 1869SOL    HW217241   1.884   0.781   4.839 -0.7927  0.9853  0.5355
 1870SOL     OW17242   1.404   2.738   4.810  0.1704  0.5459  0.1936
 1870SOL    HW117243   1.334   2.790   4.770 -1.2897 -0.4519  1.3959
 1870SOL    HW217244   1.468   2.808   4.825 -0.3091  1.0348 -0.0364
 1871SOL     OW17245   0.474   2.579  16.177 -0.3172 -0.3165 -0.0676
 1871SOL    HW117246   0.441   2.623  16.099  0.8131  2.4291  1.0097
 1871SOL    HW217247   0.433   2.642  16.236  2.8275 -0.6254  2.4479
 1872SOL     OW17248   2.371   3.259   6.074  0.2050 -0.2833 -0.5245
 1872SOL    HW117249   2.385   3.323   6.144 -0.5290 -0.1044 -0.5492
 1872SOL    HW217250   2.351   3.183   6.129  0.1277 -0.7150 -1.1470
 1873SOL     OW17251   2.096   3.563  13.363 -0.2632 -0.3005 -0.1715
 1873SOL    HW117252   2.114   3.557  13.269 -0.6680 -1.5826 -0.1722
 1873SOL    HW217253   2.009   3.524  13.366  0.3256 -1.6819 -0.9584
 1874SOL     OW17254   4.177   3.559   0.151  0.1921  0.2292 -1.1717
 1874SOL    HW117255   4.198   3.465   0.152 -1.9424 -0.2619 -2.4159
 1874SOL    HW217256   4.208   3.586   0.064 -1.7073  2.0018 -1.2739
 1875SOL     OW17257   4.173   3.363   2.683 -0.1251 -0.7834  0.0341
 1875SOL    HW117258   4.146   3.272   2.695  1.0226 -1.1876 -0.4657
 1875SOL    HW217259   4.236   3.384   2.752  2.1288 -2.7859 -1.4250
 1876SOL     OW17260   2.969   4.687   0.627 -0.0648 -0.0564  0.2789
 1876SOL    HW117261   3.022   0.023   0.586 -0.8307 -1.3856 -2.8676
 1876SOL    HW217262   2.904   0.004   0.678 -0.0178 -1.2823  1.5159
 1877SOL     OW17263   2.316   4.594   2.816 -0.0097  0.3619 -0.2033
 1877SOL    HW117264   2.249   4.546   2.866 -0.1340  0.1582 -0.5665
 1877SOL    HW217265   2.263   4.667   2.785 -0.9439 -0.8732 -1.5283
 1878SOL     OW17266   3.725   1.596   7.818  0.6186  0.2112 -0.1485
 1878SOL    HW117267   3.814   1.604   7.783 -0.4134  0.8927 -2.5787
 1878SOL    HW217268   3.684   1.628   7.738  0.6771 -1.2407 -0.7706
 1879SOL     OW17269   2.135   2.490   1.519 -0.1536 -0.2685 -0.1130
 1879SOL    HW117270   2.060   2.532   1.562  0.4847 -1.5101  2.1805
 1879SOL    HW217271   2.207   2.543   1.553 -1.4833  0.8045  1.0526
 1880SOL     OW17272   0.393   0.495  12.513 -0.2657 -0.1339 -0.1128
 1880SOL    HW117273   0.410   0.582  12.478 -1.8543  0.5470  0.7652
 1880SOL    HW217274   0.426   0.511  12.601  0.1738 -0.3413 -0.2431
 1881SOL     OW17275   0.383   1.432   8.191  1.0271 -0.2515  0.0084
 1881SOL    HW117276   0.476   1.409   8.191  1.0894  0.0566  1.8167
 1881SOL    HW217277   0.352   1.341   8.181  1.3709 -0.2636 -0.9627
 1882SOL     OW17278   2.025   3.352  17.160  0.4730  0.7209  0.4718
 1882SOL    HW117279   1.958   3.324  17.223  0.9182 -1.0107  0.1708
 1882SOL    HW217280   2.103   3.306  17.192 -0.1162 -0.4918  0.1524
 1883SOL     OW17281   0.973   4.209   1.305 -0.1047 -0.4293  0.1520
 1883SOL    HW117282   1.014   4.184   1.223 -1.7053 -3.0870  0.1515
 1883SOL    HW217283   0.886   4.170   1.291  0.3880 -1.4256 -0.1061
 1884SOL     OW17284   4.055   2.826   8.163 -0.4870  0.5590 -0.4493
 1884SOL    HW117285   3.976   2.777   8.186 -0.1751  0.0372 -0.4915
 1884SOL    HW217286   4.034   2.914   8.194 -2.3068  0.9983 -2.9177
 1885SOL     OW17287   4.035   1.361   1.529 -0.1597  0.0627  0.1243
 1885SOL    HW117288   4.119   1.407   1.526  0.0471 -0.3675 -0.6766
 1885SOL    HW217289   4.029   1.297   1.458 -1.0622 -0.3241  0.5546
 1886SOL     OW17290   2.908   3.397   8.622 -0.3220 -0.1750  0.7951
 1886SOL    HW117291   2.851   3.324   8.598 -0.2073  0.1476 -0.4476
 1886SOL    HW217292   2.989   3.379   8.575 -0.5947 -1.2718  0.7464
 1887SOL     OW17293   0.600   1.352   1.478 -0.1158 -0.4212 -0.2579
 1887SOL    HW117294   0.619   1.290   1.548  1.4661 -0.8303 -1.0518
 1887SOL    HW217295   0.615   1.295   1.403  0.3200 -1.1435  0.3857
 1888SOL     OW17296   2.037   0.110   3.565  0.7071  0.6392 -0.1067
 1888SOL    HW117297   1.962   0.057   3.591  0.5724  1.9443  2.2648
 1888SOL    HW217298   2.053   0.067   3.481  0.4127  1.6042 -0.6545
 1889SOL     OW17299   1.117   4.186   7.612  0.0579  0.0799  0.4616
 1889SOL    HW117300   1.099   4.102   7.571  1.5372 -0.3050  0.6089
 1889SOL    HW217301   1.037   4.234   7.637 -0.8653 -1.7846  1.1062
 1890SOL     OW17302   4.302   2.669   0.930 -0.3811  0.1794  0.0941
 1890SOL    HW117303   4.398   2.663   0.937 -0.4238  0.4620  0.9289
 1890SOL    HW217304   4.277   2.629   1.014  0.1277  0.1907  0.2542
 1891SOL     OW17305   4.143   1.290   5.841  0.3894 -0.2688  0.4951
 1891SOL    HW117306   4.164   1.218   5.782  0.9823  0.0643  0.2946
 1891SOL    HW217307   4.052   1.273   5.862  0.1854 -0.6758 -0.7169
 1892SOL     OW17308   0.638   4.335   4.561  0.2175  0.2285 -0.0631
 1892SOL    HW117309   0.693   4.325   4.638  0.1537 -1.1440 -0.1867
 1892SOL    HW217310   0.672   4.410   4.512  0.3680  1.3671  1.8101
 1893SOL     OW17311   3.655   0.408   2.773 -0.2957  0.1357  0.5478
 1893SOL    HW117312   3.666   0.316   2.798 -2.2969 -0.5516 -1.1318
 1893SOL    HW217313   3.645   0.397   2.679  1.6326  2.7761  0.0503
 1894SOL     OW17314   0.631   1.176   1.681  0.2543  0.0886  0.5456
 1894SOL    HW117315   0.635   1.085   1.711  0.4094  0.6159  2.1633
 1894SOL    HW217316   0.579   1.222   1.747 -1.9466 -0.0024 -1.1429
 1895SOL     OW17317   2.121   1.226   9.042 -0.0504  0.3079  0.2499
 1895SOL    HW117318   2.199   1.242   8.990  0.6049  0.0792  1.1743
 1895SOL    HW217319   2.054   1.249   8.977  0.9382  0.6093 -0.6514
 1896SOL     OW17320   1.333   0.129  15.149 -0.2294 -0.4395 -0.5260
 1896SOL    HW117321   1.398   0.081  15.200  0.0432 -1.3689 -1.7379
 1896SOL    HW217322   1.380   0.212  15.151  1.7611 -1.5715 -0.1164
 1897SOL     OW17323   0.336   3.101   2.853  0.1894 -0.0961 -0.2129
 1897SOL    HW117324   0.314   3.008   2.851 -0.5855  0.1233 -1.4900
 1897SOL    HW217325   0.244   3.121   2.869 -0.2702 -1.8893 -0.5794
 1898SOL     OW17326   3.438   1.490   5.949 -0.6016  0.5345  0.4024
 1898SOL    HW117327   3.371   1.423   5.940  0.5916 -0.8267  1.7471
 1898SOL    HW217328   3.404   1.540   6.024 -1.1299 -1.0426  1.2080
 1899SOL     OW17329   2.198   3.247   6.816 -0.1078 -0.0486 -0.2700
 1899SOL    HW117330   2.233   3.165   6.782  0.4651 -0.1965  0.6695
 1899SOL    HW217331   2.113   3.258   6.773  1.4424  1.0716 -3.0521
 1900SOL     OW17332   3.835   2.554   3.378  0.0664 -0.4003 -0.0200
 1900SOL    HW117333   3.776   2.571   3.304 -0.9149 -0.3934  0.7569
 1900SOL    HW217334   3.783   2.510   3.445  2.3490  0.2522  2.1671
 1901SOL     OW17335   3.764   2.143  11.729  0.1792 -0.1383 -0.1383
 1901SOL    HW117336   3.845   2.113  11.770 -0.7219 -2.1708  0.1588
 1901SOL    HW217337   3.804   2.210  11.674  0.2482 -0.3793 -0.3823
 1902SOL     OW17338   4.476   3.305   4.605  0.2448  0.1403 -0.2127
 1902SOL    HW117339   4.473   3.209   4.602 -0.5209  0.0904  2.0150
 1902SOL    HW217340   4.561   3.331   4.639  0.7504  2.1129 -2.9756
 1903SOL     OW17341   2.521   1.135   2.685 -0.8680  0.6959  0.2302
 1903SOL    HW117342   2.518   1.111   2.592 -1.7607 -1.1437  0.7321
 1903SOL    HW217343   2.593   1.077   2.710 -0.4301  1.2466  0.2249
 1904SOL     OW17344   0.322   0.054   2.763  0.1236 -0.0692  0.2863
 1904SOL    HW117345   0.395   0.061   2.824  1.6965  0.0975 -1.6211
 1904SOL    HW217346   0.273   4.709   2.790  1.3685 -0.5980  1.0116
 1905SOL     OW17347   0.691   1.943   9.889  0.2703  0.0647  0.1620
 1905SOL    HW117348   0.742   1.983   9.959  0.6462  0.0027 -0.0754
 1905SOL    HW217349   0.757   1.886   9.848  0.4931  1.0496 -0.8457
 1906SOL     OW17350   1.159   0.357   3.953 -0.4861  0.2113  0.5298
 1906SOL    HW117351   1.253   0.355   3.936 -0.3980 -2.7496  1.2869
 1906SOL    HW217352   1.123   0.310   3.878 -1.0594 -0.4749  1.2267
 1907SOL     OW17353   4.543   1.463  15.832  0.1092 -0.2916 -0.5810
 1907SOL    HW117354   4.478   1.483  15.765  0.3456  3.1030  0.2222
 1907SOL    HW217355   4.570   1.374  15.808 -3.2420 -1.0804 -1.4472
 1908SOL     OW17356   3.692   1.095   8.788  0.6737 -0.2602  0.1082
 1908SOL    HW117357   3.767   1.129   8.739  0.0551 -0.0156 -0.6659
 1908SOL    HW217358   3.718   1.115   8.878  2.4027 -2.2091  0.0644
 1909SOL     OW17359   0.743   0.570   8.481  0.1531 -0.0841 -0.2408
 1909SOL    HW117360   0.689   0.640   8.517 -0.0479 -0.4858  0.2515
 1909SOL    HW217361   0.749   0.513   8.558  1.2221 -0.8785 -0.9084
 1910SOL     OW17362   2.081   4.729  13.967  0.0404  0.0259  0.2232
 1910SOL    HW117363   2.103   4.653  14.022  0.7769  0.1561  0.0970
 1910SOL    HW217364   1.995   0.023  14.000 -1.2844 -1.3804 -2.0765
 1911SOL     OW17365   0.061   1.995  10.835 -0.9417  0.4860 -0.2497
 1911SOL    HW117366   0.042   2.071  10.890 -1.3702 -1.1247  1.8214
 1911SOL    HW217367   0.115   2.025  10.762 -0.8280  1.0383  0.0522
 1912SOL     OW17368   1.869   3.577  10.782 -0.7132 -0.0618 -0.4340
 1912SOL    HW117369   1.934   3.526  10.732  0.3111  0.1993  0.6118
 1912SOL    HW217370   1.886   3.560  10.875 -0.9016 -0.0226 -0.3932
 1913SOL     OW17371   2.874   3.627   9.692 -0.5457 -0.1924  0.2815
 1913SOL    HW117372   2.967   3.620   9.713 -0.8197  1.6631  2.1577
 1913SOL    HW217373   2.847   3.535   9.693  1.2601 -0.6903  2.0367
 1914SOL     OW17374   0.922   2.407   5.262  0.0413  0.2571  0.6635
 1914SOL    HW117375   0.844   2.413   5.316 -0.4820 -0.4545 -0.0237
 1914SOL    HW217376   0.914   2.490   5.214  0.3238  0.4949  1.0207
 1915SOL     OW17377   1.121   2.176  17.017  0.1578  0.0775 -0.1190
 1915SOL    HW117378   1.093   2.095  17.058  0.8324  0.2206  0.6194
 1915SOL    HW217379   1.060   2.180  16.943  2.7693 -2.1665 -2.3653
 1916SOL     OW17380   2.764   3.694   1.666 -0.2317  0.5474 -0.2176
 1916SOL    HW117381   2.696   3.679   1.601 -0.8933 -3.0128  1.2834
 1916SOL    HW217382   2.714   3.740   1.734  1.2535 -0.9497  1.8805
 1917SOL     OW17383   3.162   1.000   0.876  0.3280 -0.6031 -0.4983
 1917SOL    HW117384   3.251   1.009   0.908  0.5145  0.0901 -1.2310
 1917SOL    HW217385   3.121   1.067   0.932  0.0472 -0.3276 -1.0339
 1918SOL     OW17386   2.537   0.704  12.241  0.3155 -0.0230  0.1891
 1918SOL    HW117387   2.623   0.727  12.277  0.0510  0.6639  0.3754
 1918SOL    HW217388   2.518   0.762  12.168  1.7592  0.1661 -0.0366
 1919SOL     OW17389   3.170   4.586   1.387 -0.5104  0.0813 -0.3121
 1919SOL    HW117390   3.183   4.558   1.477 -0.8590 -3.7681 -1.4623
 1919SOL    HW217391   3.080   4.618   1.398 -0.3120 -0.0091  1.5052
 1920SOL     OW17392   0.031   0.572  11.059 -0.0715  0.8288 -0.2472
 1920SOL    HW117393   0.090   0.643  11.085  0.4158  1.1159 -2.1002
 1920SOL    HW217394   0.008   0.538  11.145  0.6642 -0.1474 -0.4334
 1921SOL     OW17395   2.824   3.770  12.995  0.2546 -0.1469 -0.7263
 1921SOL    HW117396   2.762   3.837  13.024  1.8222  0.2632  1.6747
 1921SOL    HW217397   2.897   3.829  12.973 -2.0884  1.9391 -2.9265
 1922SOL     OW17398   0.088   4.265   4.243  0.1961  0.1178  0.0792
 1922SOL    HW117399   0.119   4.324   4.175  0.8804  1.2592  1.3995
 1922SOL    HW217400   0.159   4.269   4.307  0.8219 -1.3603 -0.5063
 1923SOL     OW17401   3.831   0.071   0.773  0.2373 -0.3299  0.5007
 1923SOL    HW117402   3.743   0.034   0.776 -0.0351  0.2231 -0.6299
 1923SOL    HW217403   3.812   0.164   0.760  0.3041 -0.4421 -0.4638
 1924SOL     OW17404   3.071   3.869   2.751 -0.1827 -0.4997  0.0225
 1924SOL    HW117405   2.999   3.888   2.811  0.5181 -0.7979  0.9563
 1924SOL    HW217406   3.119   3.799   2.795  0.4464  1.1395  1.9057
 1925SOL     OW17407   4.692   2.406  12.642  0.1477 -0.1743  0.1489
 1925SOL    HW117408   4.609   2.378  12.681  0.0404  0.7723  0.6025
 1925SOL    HW217409   0.027   2.353  12.686  0.8209  2.4005  2.2413
 1926SOL     OW17410   3.079   2.218   0.843 -0.4074  0.7090  0.4375
 1926SOL    HW117411   3.108   2.127   0.840 -3.1834 -0.1626  0.5955
 1926SOL    HW217412   3.150   2.262   0.797  0.2410  0.8659  1.5796
 1927SOL     OW17413   4.110   2.222   1.158  0.1159  0.4020 -0.5697
 1927SOL    HW117414   4.023   2.210   1.196 -1.1701  1.4251 -3.2153
 1927SOL    HW217415   4.152   2.136   1.157  1.9427  1.2950 -1.5033
 1928SOL     OW17416   2.052   0.457   9.663  0.2034  0.1408 -0.1110
 1928SOL    HW117417   2.094   0.393   9.605 -0.2720  0.0500 -0.3586
 1928SOL    HW217418   2.114   0.474   9.733 -0.4461  4.0155 -0.4838
 1929SOL     OW17419   4.151   0.120  10.373  0.6057  0.1415 -0.6587
 1929SOL    HW117420   4.239   0.109  10.408 -0.1068 -1.1334  0.7601
 1929SOL    HW217421   4.128   0.028  10.387  2.8536 -0.4549 -0.8851
 1930SOL     OW17422   3.552   0.100  13.557 -0.1705 -0.2273 -0.4453
 1930SOL    HW117423   3.584   0.011  13.544 -0.4098 -0.7550  2.5786
 1930SOL    HW217424   3.576   0.106  13.650  1.2443 -0.4857 -0.8037
 1931SOL     OW17425   1.743   0.256   4.851  0.4736 -0.2470  0.1518
 1931SOL    HW117426   1.730   0.193   4.921 -0.0181 -0.8628 -0.4976
 1931SOL    HW217427   1.679   0.322   4.878  1.0735  0.4350 -0.0803
 1932SOL     OW17428   2.659   1.154   4.710  0.2216  0.1863  0.4750
 1932SOL    HW117429   2.639   1.063   4.688  0.9297 -0.0026  0.6093
 1932SOL    HW217430   2.606   1.196   4.642 -0.0285 -0.1830  0.4440
 1933SOL     OW17431   3.421   2.549   4.288  0.3882 -0.2557  0.5449
 1933SOL    HW117432   3.346   2.496   4.260 -1.0713  0.8592  2.3940
 1933SOL    HW217433   3.479   2.498   4.345  0.7711  0.5256  0.8517
 1934SOL     OW17434   2.934   2.845  12.179  0.2004  0.7349 -0.3504
 1934SOL    HW117435   2.905   2.839  12.270 -0.2066  0.8352 -0.4720
 1934SOL    HW217436   3.027   2.824  12.189  0.4486  1.7794 -0.4023
 1935SOL     OW17437   3.370   4.620   2.280  0.0072  0.2086  0.5060
 1935SOL    HW117438   3.355   4.700   2.231  0.5758 -1.4543 -2.3550
 1935SOL    HW217439   3.277   4.600   2.278  1.1285 -5.0383 -0.6353
 1936SOL     OW17440   1.205   2.228  12.599  0.8330  0.1600 -0.5529
 1936SOL    HW117441   1.130   2.169  12.590 -1.4990  2.8260  1.7327
 1936SOL    HW217442   1.217   2.230  12.694  1.9983  0.9005 -0.7120
 1937SOL     OW17443   2.458   0.943  14.071  0.8277  0.7153 -0.2639
 1937SOL    HW117444   2.480   1.025  14.114 -2.7424  1.4115  0.2307
 1937SOL    HW217445   2.442   0.967  13.980  2.4629 -1.6220 -1.1800
 1938SOL     OW17446   1.662   3.455  11.711  0.1152 -0.7072  0.1752
 1938SOL    HW117447   1.754   3.473  11.691  0.2776 -0.9353  0.7064
 1938SOL    HW217448   1.638   3.516  11.780  1.4064 -0.6243  0.5555
 1939SOL     OW17449   4.533   1.033   3.568  0.0216 -0.2518 -0.5109
 1939SOL    HW117450   4.513   0.949   3.527 -4.0627  1.3440 -1.8236
 1939SOL    HW217451   4.578   1.081   3.498 -0.2290 -0.0484 -0.5329
 1940SOL     OW17452   3.066   3.852   2.485 -0.2471 -0.6251  0.5149
 1940SOL    HW117453   3.080   3.865   2.579  0.4419  1.3175  0.1361
 1940SOL    HW217454   3.156   3.872   2.461 -0.4037 -0.7656 -0.1769
 1941SOL     OW17455   0.891   1.770   2.374 -0.2470 -0.2952  0.2502
 1941SOL    HW117456   0.935   1.699   2.328 -1.6520 -1.0490  0.0517
 1941SOL    HW217457   0.850   1.723   2.446  1.9108 -1.6994  0.5402
 1942SOL     OW17458   4.059   1.736   8.216 -0.3587  0.7997 -0.4374
 1942SOL    HW117459   4.060   1.805   8.149  1.6930 -0.3971 -1.6477
 1942SOL    HW217460   3.984   1.776   8.260 -0.7407  0.8178 -1.1062
 1943SOL     OW17461   0.019   0.631   3.027  0.1925  0.1570  0.7037
 1943SOL    HW117462   0.083   0.626   2.956 -1.8262 -1.8191 -0.9969
 1943SOL    HW217463   0.023   0.726   3.033  1.1499  0.1526  0.0450
 1944SOL     OW17464   1.129   2.072   4.071 -0.1165  0.3340  0.0014
 1944SOL    HW117465   1.127   1.979   4.094  0.4073  0.0588 -1.0586
 1944SOL    HW217466   1.211   2.084   4.022 -1.0763  0.3054 -1.6043
 1945SOL     OW17467   4.046   2.995   6.080 -0.2146  0.2766 -0.2649
 1945SOL    HW117468   4.054   2.951   6.165  0.3324 -1.6565 -1.3069
 1945SOL    HW217469   4.108   2.949   6.024  2.2098  2.9661  0.2365
 1946SOL     OW17470   4.391   2.851   3.708 -0.1583 -0.5286  0.2421
 1946SOL    HW117471   4.368   2.817   3.794  1.0539  0.8951  1.1173
 1946SOL    HW217472   4.476   2.811   3.695  0.2401  0.6457 -0.8508
 1947SOL     OW17473   4.594   2.265   4.724 -0.5306 -0.0372  0.4043
 1947SOL    HW117474   4.622   2.182   4.763  1.5958  0.1299 -0.7875
 1947SOL    HW217475   4.642   2.265   4.642 -1.1184  0.0216  0.0605
 1948SOL     OW17476   0.243   3.846   7.571  0.2462  0.0509 -0.5827
 1948SOL    HW117477   0.219   3.814   7.658  2.1065  0.3781  0.0378
 1948SOL    HW217478   0.165   3.813   7.525 -1.4430  1.6901  1.1039
 1949SOL     OW17479   4.379   2.623  16.807  0.6078 -0.4529  0.6483
 1949SOL    HW117480   4.429   2.552  16.847  0.6695  0.0196  1.4018
 1949SOL    HW217481   4.431   2.638  16.728 -2.3549 -0.8062 -1.3849
 1950SOL     OW17482   1.753   0.121  10.418 -0.0990  0.0443 -0.3892
 1950SOL    HW117483   1.770   0.062  10.345  0.2230 -0.0622 -0.2271
 1950SOL    HW217484   1.695   0.182  10.372 -0.7376  0.1850  0.6095
 1951SOL     OW17485   2.921   4.373   5.223  0.2158  0.3042  0.2364
 1951SOL    HW117486   2.861   4.447   5.235 -1.7367 -0.8116 -2.5419
 1951SOL    HW217487   3.001   4.424   5.229  0.1354  0.2769  1.4941
 1952SOL     OW17488   2.281   2.775   0.544  0.0952 -0.0061  0.1562
 1952SOL    HW117489   2.320   2.802   0.460 -0.1772  0.4556  0.1792
 1952SOL    HW217490   2.335   2.831   0.600 -0.2824 -0.5576  1.0580
 1953SOL     OW17491   3.041   0.774  10.173  0.0516 -0.2735  0.3916
 1953SOL    HW117492   3.035   0.681  10.197  0.8080 -0.4757 -0.1771
 1953SOL    HW217493   2.984   0.822  10.233  1.0498  1.3157  0.0728
 1954SOL     OW17494   2.113   2.522   7.931 -0.3247  0.0147 -0.5457
 1954SOL    HW117495   2.057   2.445   7.932 -0.8867  0.4338  0.1791
 1954SOL    HW217496   2.112   2.543   7.837  0.6920 -0.7998 -0.7372
 1955SOL     OW17497   3.520   2.080  15.043 -0.1656 -0.2472  0.3420
 1955SOL    HW117498   3.502   2.081  14.949 -2.5074 -2.0374  0.7386
 1955SOL    HW217499   3.606   2.121  15.035 -0.7453  0.3415 -2.8857
 1956SOL     OW17500   0.863   3.327  14.146 -0.1059  0.1413  0.1427
 1956SOL    HW117501   0.778   3.343  14.186 -0.1221  0.5983 -0.0709
 1956SOL    HW217502   0.884   3.239  14.176 -0.6438  0.1306  0.4805
 1957SOL     OW17503   2.407   0.631   3.465 -0.1760  0.3264 -0.3145
 1957SOL    HW117504   2.479   0.577   3.498 -1.9983 -1.8004  0.1406
 1957SOL    HW217505   2.350   0.561   3.434  1.4002 -1.0039 -0.2111
 1958SOL     OW17506   4.622   4.075   3.078 -0.4084  1.0093 -0.1394
 1958SOL    HW117507   4.599   4.112   2.993 -1.3015  1.7977  0.4319
 1958SOL    HW217508   4.541   4.097   3.126 -0.6198 -1.7426  0.7818
 1959SOL     OW17509   3.117   3.176   7.813 -0.0453 -0.0221  0.3500
 1959SOL    HW117510   3.130   3.097   7.760 -2.0563 -1.1965  1.5930
 1959SOL    HW217511   3.106   3.244   7.746 -0.5133 -0.4781 -0.0386
 1960SOL     OW17512   0.668   0.270   7.477  0.1287 -0.2985  0.0355
 1960SOL    HW117513   0.574   0.280   7.496 -0.2835 -1.8139 -1.2131
 1960SOL    HW217514   0.681   0.180   7.450 -1.7058 -0.3535 -0.7052
 1961SOL     OW17515   3.982   4.174   7.088  0.3948  0.2451  0.2053
 1961SOL    HW117516   3.902   4.160   7.139  0.5578  0.3009  0.4770
 1961SOL    HW217517   3.953   4.130   7.008  0.9307  3.6476 -1.8731
 1962SOL     OW17518   1.501   3.527   3.019 -0.2874  0.1356 -0.4030
 1962SOL    HW117519   1.430   3.560   3.074  0.9111 -0.0995  1.3217
 1962SOL    HW217520   1.448   3.477   2.957 -0.3455 -0.3814  0.0519
 1963SOL     OW17521   0.881   0.081  15.236  0.0299  0.1969  0.0874
 1963SOL    HW117522   0.933   0.078  15.156 -0.5716 -0.1689 -0.2875
 1963SOL    HW217523   0.836   4.728  15.233 -1.8359  1.1890  0.3312
 1964SOL     OW17524   2.355   4.139   7.696  0.0618  0.1597 -0.3613
 1964SOL    HW117525   2.378   4.046   7.696  1.8076  0.6033  0.3669
 1964SOL    HW217526   2.434   4.180   7.661  0.9260  0.5268  1.9972
 1965SOL     OW17527   3.002   1.666   9.123 -0.3224  0.3585  0.0584
 1965SOL    HW117528   3.088   1.681   9.083 -0.9864  1.2135 -1.0688
 1965SOL    HW217529   3.021   1.627   9.208  3.4487 -1.1071 -1.4856
 1966SOL     OW17530   1.404   3.332   8.479 -0.3967 -0.4852 -0.8219
 1966SOL    HW117531   1.412   3.259   8.418 -0.5207 -0.0447 -1.3661
 1966SOL    HW217532   1.353   3.287   8.547 -1.3555  0.1412 -1.1292
 1967SOL     OW17533   0.771   2.417   3.555 -0.2625  0.2564 -0.0967
 1967SOL    HW117534   0.778   2.322   3.569 -0.0086  0.1135 -1.2492
 1967SOL    HW217535   0.860   2.433   3.524  0.9556 -0.3755  3.0619
 1968SOL     OW17536   2.474   1.054  16.779 -0.1256  0.6443 -0.0595
 1968SOL    HW117537   2.444   1.057  16.689  0.5306 -0.5444 -0.3172
 1968SOL    HW217538   2.546   0.994  16.757 -2.3667 -1.3591 -1.8376
 1969SOL     OW17539   4.065   1.025   4.780 -0.5111  0.5465  0.0791
 1969SOL    HW117540   4.077   0.968   4.856  0.0895 -0.8368 -1.0624
 1969SOL    HW217541   3.971   1.030   4.769 -0.5474 -0.4988 -0.0186
 1970SOL     OW17542   0.796   3.302   5.039 -0.1489  0.0045 -0.1121
 1970SOL    HW117543   0.860   3.314   4.968  0.9350 -1.5394  0.6054
 1970SOL    HW217544   0.780   3.208   5.044 -0.6605  0.2053  1.7024
 1971SOL     OW17545   4.192   2.510   8.156 -0.2876 -0.2438 -0.3402
 1971SOL    HW117546   4.276   2.556   8.148  0.3607 -1.9259 -3.3115
 1971SOL    HW217547   4.130   2.583   8.158 -1.4169 -1.2046 -0.2042
 1972SOL     OW17548   2.164   1.550   5.950 -0.1674  0.0114  0.1458
 1972SOL    HW117549   2.151   1.457   5.929 -1.9549  0.3645 -0.3281
 1972SOL    HW217550   2.111   1.558   6.030 -1.0215 -1.5540 -0.2584
 1973SOL     OW17551   4.449   2.152   3.742 -0.3505 -0.0518  0.3081
 1973SOL    HW117552   4.458   2.111   3.828  0.0028 -0.1629  0.2156
 1973SOL    HW217553   4.378   2.212   3.769 -0.9105 -0.0286 -1.2366
 1974SOL     OW17554   3.690   1.846  14.908 -0.3499  0.0517 -0.0336
 1974SOL    HW117555   3.724   1.865  14.995 -0.6058 -1.1124  0.3249
 1974SOL    HW217556   3.595   1.840  14.924 -0.2912  0.2413  0.3783
 1975SOL     OW17557   2.132   2.336   4.652 -0.2104 -0.0371 -0.1595
 1975SOL    HW117558   2.141   2.332   4.557 -2.2514  0.0875 -0.3544
 1975SOL    HW217559   2.147   2.428   4.675 -0.4666 -0.0356  0.0010
 1976SOL     OW17560   4.421   3.781   6.328  0.5994 -0.3609 -0.2184
 1976SOL    HW117561   4.420   3.873   6.302 -2.7382 -0.0933  0.7812
 1976SOL    HW217562   4.483   3.797   6.399 -0.3796  1.6584  0.1877
 1977SOL     OW17563   2.630   0.541   3.182 -0.7508 -0.0138 -0.0412
 1977SOL    HW117564   2.621   0.446   3.189 -1.1727 -0.0951 -1.7003
 1977SOL    HW217565   2.721   0.541   3.153 -1.6284 -0.5240 -2.7505
 1978SOL     OW17566   4.530   2.910  11.807 -0.2770 -0.3622 -0.5165
 1978SOL    HW117567   4.448   2.928  11.853 -0.0216 -0.8426  0.1232
 1978SOL    HW217568   4.513   2.913  11.713  1.6907  1.2235 -0.8323
 1979SOL     OW17569   0.684   3.547  10.725 -0.0251 -0.0642 -0.1475
 1979SOL    HW117570   0.670   3.470  10.670 -0.5744 -0.2703  0.2784
 1979SOL    HW217571   0.681   3.612  10.655  1.4393 -0.2348 -0.3588
 1980SOL     OW17572   4.059   4.445   7.595 -0.1728 -0.2722 -0.2958
 1980SOL    HW117573   4.152   4.423   7.595 -0.0755  0.1374  1.2549
 1980SOL    HW217574   4.037   4.432   7.687  0.6020  2.0373  0.2111
 1981SOL     OW17575   4.332   2.143  16.195  0.2788 -0.2006  0.0615
 1981SOL    HW117576   4.306   2.054  16.218 -0.8612  0.3441  0.9018
 1981SOL    HW217577   4.412   2.137  16.143  0.9371 -0.7322  1.1207
 1982SOL     OW17578   2.392   2.278   3.420 -0.3179 -0.0845 -0.0533
 1982SOL    HW117579   2.455   2.337   3.460 -0.1994 -2.0472  2.6132
 1982SOL    HW217580   2.421   2.269   3.329 -0.1069 -2.2368  0.2253
 1983SOL     OW17581   1.917   1.231   9.931 -0.0286  0.2686 -0.3164
 1983SOL    HW117582   1.844   1.273   9.977 -0.6820 -0.7944 -0.4058
 1983SOL    HW217583   1.888   1.140   9.935 -1.5502  0.8175  0.8755
 1984SOL     OW17584   0.256   1.654   8.115 -0.9419  0.2376  0.2032
 1984SOL    HW117585   0.302   1.570   8.119  0.1271  0.8101 -0.2526
 1984SOL    HW217586   0.319   1.717   8.148  0.3258  0.3081 -2.3368
 1985SOL     OW17587   3.609   2.655   9.032  0.6342  0.0254  0.0496
 1985SOL    HW117588   3.523   2.649   9.074  0.5274  0.8834 -0.0489
 1985SOL    HW217589   3.673   2.644   9.102 -1.1208  1.0897  1.8292
 1986SOL     OW17590   4.433   1.910   9.704  0.1005 -0.8364  0.5528
 1986SOL    HW117591   4.482   1.892   9.623  0.1218 -3.1773  1.1076
 1986SOL    HW217592   4.381   1.830   9.707 -0.3043 -0.5837  0.2542
 1987SOL     OW17593   4.299   0.967   3.925  0.3356 -0.0153 -0.4090
 1987SOL    HW117594   4.394   0.982   3.924  0.4323 -0.7363 -1.7294
 1987SOL    HW217595   4.297   0.877   3.894 -2.1490  0.1137 -0.6002
 1988SOL     OW17596   3.500   2.150   3.043  0.1573  0.1850  0.3745
 1988SOL    HW117597   3.444   2.116   2.973  0.8500 -0.6150  0.2080
 1988SOL    HW217598   3.439   2.176   3.113 -0.3173  0.4315 -0.1334
 1989SOL     OW17599   0.673   1.076   6.159 -0.1135 -0.1498 -0.2887
 1989SOL    HW117600   0.587   1.069   6.117 -0.1026 -0.4488 -0.2586
 1989SOL    HW217601   0.657   1.042   6.247  0.1466  2.5880  0.8225
 1990SOL     OW17602   2.130   1.705   8.221  0.1332 -0.1635  0.1193
 1990SOL    HW117603   2.216   1.738   8.196 -0.8542  1.6369 -1.0053
 1990SOL    HW217604   2.161   1.624   8.260  2.6193  0.9783  0.5287
 1991SOL     OW17605   4.669   2.086   6.166 -0.0395  0.3891  0.0310
 1991SOL    HW117606   0.021   2.131   6.177  0.8980 -1.1502 -0.7001
 1991SOL    HW217607   4.618   2.156   6.125 -0.8994  0.1901  0.7630
 1992SOL     OW17608   3.650   1.867   3.710 -1.1896 -0.3367  0.7444
 1992SOL    HW117609   3.655   1.960   3.733 -2.0202  0.0340 -0.6189
 1992SOL    HW217610   3.742   1.842   3.700 -1.5490 -1.3514 -0.0110
 1993SOL     OW17611   2.415   2.166  16.132  0.0841  0.5181  0.2234
 1993SOL    HW117612   2.502   2.158  16.171  0.5510 -1.0145 -1.1410
 1993SOL    HW217613   2.419   2.089  16.075 -0.8050 -0.0780  0.9551
 1994SOL     OW17614   4.056   3.729   6.655 -0.1714 -0.0306  0.0443
 1994SOL    HW117615   4.114   3.705   6.584  0.5024  0.8147  0.3012
 1994SOL    HW217616   3.969   3.704   6.623 -1.5492  1.6002  2.4703
 1995SOL     OW17617   0.193   3.339   3.691  0.3066  0.2148 -0.5796
 1995SOL    HW117618   0.142   3.412   3.656 -1.3160 -0.6414 -0.0031
 1995SOL    HW217619   0.138   3.266   3.664  0.3706 -0.5152  1.2187
 1996SOL     OW17620   2.984   1.827   7.740 -0.1903 -0.0904  0.4778
 1996SOL    HW117621   3.033   1.865   7.667  2.7214 -1.8259  1.5243
 1996SOL    HW217622   3.042   1.858   7.810 -0.3160  0.5865  0.2777
 1997SOL     OW17623   2.272   4.441   1.021 -0.0891 -0.5943 -0.2352
 1997SOL    HW117624   2.211   4.514   1.035 -0.5861 -0.7465 -1.6103
 1997SOL    HW217625   2.215   4.366   1.037  1.4002 -1.3829  1.3245
 1998SOL     OW17626   2.742   3.428   3.534 -0.5953  0.2296 -0.2292
 1998SOL    HW117627   2.732   3.506   3.478  0.1567  0.5705  0.1111
 1998SOL    HW217628   2.829   3.397   3.507 -1.2932 -1.0468 -1.0027
 1999SOL     OW17629   0.755   1.812  12.082  0.8680  0.8599 -0.3285
 1999SOL    HW117630   0.766   1.907  12.089  0.8277  0.8855 -0.6199
 1999SOL    HW217631   0.793   1.790  12.167  2.5839  0.6772 -1.1311
 2000SOL     OW17632   2.119   2.331   5.037  0.8886 -0.4911 -0.2291
 2000SOL    HW117633   2.032   2.372   5.030 -0.3784 -3.1372  0.3023
 2000SOL    HW217634   2.114   2.319   5.132  0.9912 -0.5673 -0.2338
 2001SOL     OW17635   4.436   1.280   5.647 -0.2608 -0.1721 -0.2768
 2001SOL    HW117636   4.368   1.216   5.667  1.1681 -1.8974 -0.8993
 2001SOL    HW217637   4.398   1.302   5.562 -1.6366 -1.1912  0.0852
 2002SOL     OW17638   2.105   3.230   2.244  0.0073  0.0886  0.4029
 2002SOL    HW117639   2.072   3.299   2.187  0.7617 -0.0527 -0.2088
 2002SOL    HW217640   2.109   3.278   2.326  0.7311 -0.1559  0.5112
 2003SOL     OW17641   2.803   4.566   2.730 -0.7742 -0.1467  0.1183
 2003SOL    HW117642   2.776   4.656   2.747  0.2282  0.4184 -1.2028
 2003SOL    HW217643   2.892   4.570   2.766 -0.4419 -0.4811 -0.6530
 2004SOL     OW17644   1.681   4.164  16.507 -0.0473 -0.1291  0.1547
 2004SOL    HW117645   1.686   4.258  16.525 -2.5518  0.1607 -0.5945
 2004SOL    HW217646   1.739   4.156  16.432  1.2707 -0.5070  1.2224
 2005SOL     OW17647   4.053   3.128  14.322 -0.0560 -0.6097 -0.0787
 2005SOL    HW117648   4.043   3.132  14.417 -4.8613 -1.0980 -0.5653
 2005SOL    HW217649   3.994   3.198  14.295 -0.0368 -0.7312 -0.4436
 2006SOL     OW17650   4.217   1.091   5.669 -0.2851  0.1182 -1.0183
 2006SOL    HW117651   4.159   1.020   5.697 -0.7611  0.2581 -1.6508
 2006SOL    HW217652   4.248   1.066   5.582 -0.9726  0.8544 -1.4737
 2007SOL     OW17653   0.327   4.465   3.535  0.0041 -0.1778  0.1182
 2007SOL    HW117654   0.270   4.530   3.577 -1.3798 -0.5462 -1.1806
 2007SOL    HW217655   0.295   4.387   3.581 -3.2342  2.0989  1.7027
 2008SOL     OW17656   0.098   2.751   4.286 -0.0337  0.2127  0.0044
 2008SOL    HW117657   0.095   2.828   4.231 -1.1870 -1.1395 -1.8259
 2008SOL    HW217658   0.015   2.769   4.330  0.7358  2.4106  0.5293
 2009SOL     OW17659   3.592   4.680   9.569 -0.2640 -0.1721 -0.4413
 2009SOL    HW117660   3.533   4.605   9.567 -0.9602  0.2838  2.5152
 2009SOL    HW217661   3.628   4.678   9.658  0.5992  0.8571 -0.7710
 2010SOL     OW17662   0.284   0.041   5.549 -0.0481  0.2108  0.0087
 2010SOL    HW117663   0.234   4.698   5.580  2.6884 -2.2018 -1.3587
 2010SOL    HW217664   0.344   0.055   5.622  1.1891 -0.7437 -0.8295
 2011SOL     OW17665   3.531   0.907   8.851  0.2728 -0.1286  0.0502
 2011SOL    HW117666   3.470   0.926   8.780 -0.9426 -1.2689  0.7874
 2011SOL    HW217667   3.591   0.980   8.837  1.4450 -1.5589 -2.3732
 2012SOL     OW17668   1.930   0.854   9.366 -0.4474  0.5447 -0.0560
 2012SOL    HW117669   1.953   0.918   9.434 -2.0851 -0.2143  1.2041
 2012SOL    HW217670   1.997   0.787   9.381  0.3088  1.5111  0.8705
 2013SOL     OW17671   0.465   2.383  13.701 -0.1267  0.0227 -0.0811
 2013SOL    HW117672   0.514   2.357  13.623 -3.0202 -1.4668 -1.4157
 2013SOL    HW217673   0.461   2.307  13.760 -1.3367  0.0090 -0.1750
 2014SOL     OW17674   3.846   4.176  11.246 -0.0688  0.1472  0.3949
 2014SOL    HW117675   3.870   4.131  11.327  1.6156  0.2249 -0.0652
 2014SOL    HW217676   3.785   4.113  11.207 -0.9112  2.4735 -2.0091
 2015SOL     OW17677   4.304   3.741  12.434 -0.3002 -0.0715 -0.2959
 2015SOL    HW117678   4.211   3.746  12.457 -0.3268  0.6100 -0.5682
 2015SOL    HW217679   4.356   3.774  12.507  0.9977  1.2790 -1.8430
 2016SOL     OW17680   4.503   3.351  16.287 -0.0247  0.7142 -0.1222
 2016SOL    HW117681   4.521   3.261  16.261 -1.0307  0.9665 -1.7003
 2016SOL    HW217682   4.593   3.382  16.302  0.2056 -0.1982  0.3786
 2017SOL     OW17683   1.083   0.675   2.989 -0.0349  0.0420 -0.3599
 2017SOL    HW117684   1.040   0.705   2.910 -0.1372  0.1496 -0.2634
 2017SOL    HW217685   1.153   0.626   2.946  0.8306  0.6377  0.3441
 2018SOL     OW17686   2.877   0.754   9.904  0.0692  0.0046 -0.5252
 2018SOL    HW117687   2.868   0.814   9.830  1.2379  0.0017 -0.6663
 2018SOL    HW217688   2.965   0.763   9.940 -0.8709  0.3905  1.6440
 2019SOL     OW17689   1.455   3.955   8.457 -0.1121  0.0259 -0.4507
 2019SOL    HW117690   1.411   4.034   8.425 -3.0406 -1.3292  0.2171
 2019SOL    HW217691   1.480   3.925   8.370  1.0236  1.8857 -0.7535
 2020SOL     OW17692   1.815   0.718   2.053 -0.0801 -0.0890  0.1399
 2020SOL    HW117693   1.827   0.626   2.075  0.3541 -0.3084 -1.0249
 2020SOL    HW217694   1.719   0.710   2.050 -0.3840  2.7033  1.5808
 2021SOL     OW17695   0.757   2.828  14.744 -0.3225 -0.2616  0.3063
 2021SOL    HW117696   0.728   2.835  14.835  1.1143 -0.0905  0.7588
 2021SOL    HW217697   0.851   2.847  14.739 -0.1398 -0.7393  2.0655
 2022SOL     OW17698   1.550   1.123  16.893  0.1169 -0.1602 -0.0554
 2022SOL    HW117699   1.590   1.208  16.876 -2.9026  1.3506  0.3944
 2022SOL    HW217700   1.617   1.083  16.948 -0.6356 -1.0577  0.2071
 2023SOL     OW17701   2.363   1.091   9.452 -0.1256 -0.0872  0.2735
 2023SOL    HW117702   2.353   1.138   9.369  1.3605 -1.7793 -0.8743
 2023SOL    HW217703   2.389   1.162   9.511 -0.0864  0.7212 -0.7162
 2024SOL     OW17704   0.157   0.263   7.058 -1.2596 -0.0083  0.7223
 2024SOL    HW117705   0.172   0.228   6.970  0.1457 -0.5890  1.1988
 2024SOL    HW217706   0.062   0.262   7.053 -1.2311  2.0300 -0.4475
 2025SOL     OW17707   4.295   1.512  10.534 -0.3819 -0.0437  0.3534
 2025SOL    HW117708   4.341   1.596  10.534 -1.2720  0.4370 -4.2577
 2025SOL    HW217709   4.350   1.469  10.600  1.2439 -0.4567 -1.2620
 2026SOL     OW17710   4.132   2.240   3.534 -0.4058  0.1502 -0.2356
 2026SOL    HW117711   4.154   2.305   3.600  3.7804 -1.6247  0.1379
 2026SOL    HW217712   4.126   2.302   3.461  0.9062 -0.4209 -0.8266
 2027SOL     OW17713   0.085   3.151   2.924  0.4487  0.3259  0.1344
 2027SOL    HW117714   0.038   3.227   2.957  1.1780  0.3261  1.1873
 2027SOL    HW217715   0.027   3.078   2.945 -0.8472  1.1232 -0.7611
 2028SOL     OW17716   2.049   3.204   6.227  0.4126 -0.7544  0.2447
 2028SOL    HW117717   2.089   3.167   6.306 -0.8649  1.7187  2.0294
 2028SOL    HW217718   2.080   3.145   6.157 -0.5836 -0.3346 -0.5401
 2029SOL     OW17719   3.984   4.607   4.228  0.2312  0.0614 -0.4981
 2029SOL    HW117720   4.020   4.542   4.288  3.5786  2.6828  0.3275
 2029SOL    HW217721   3.923   4.652   4.287  0.2189 -0.6965  0.0720
 2030SOL     OW17722   0.024   3.768   8.406  0.5415 -0.2878  0.2786
 2030SOL    HW117723   0.056   3.776   8.316  1.1115 -2.0858  0.3218
 2030SOL    HW217724   0.055   3.852   8.440 -1.3583  0.0624  1.1416
 2031SOL     OW17725   0.524   2.087   6.224  0.4610  0.5370 -0.0019
 2031SOL    HW117726   0.619   2.088   6.215  0.5994 -1.2426  1.3028
 2031SOL    HW217727   0.486   2.094   6.137 -0.3407 -1.2490  0.1965
 2032SOL     OW17728   3.543   0.103   7.367 -0.1692 -0.0121 -0.5493
 2032SOL    HW117729   3.540   0.029   7.428 -2.2189 -0.4318 -1.1639
 2032SOL    HW217730   3.572   0.173   7.426  0.4513 -1.8741  1.3387
 2033SOL     OW17731   3.430   3.753   2.086 -0.1021 -0.3295  0.6501
 2033SOL    HW117732   3.360   3.808   2.121 -0.5044 -1.5178  1.7161
 2033SOL    HW217733   3.499   3.755   2.152  0.9796 -2.0635 -0.4375
 2034SOL     OW17734   0.147   4.266   4.822  0.3214 -0.1719 -0.1156
 2034SOL    HW117735   0.143   4.352   4.781 -0.1651 -1.4539 -2.7683
 2034SOL    HW217736   0.191   4.225   4.748 -0.6515 -2.3894  0.5417
 2035SOL     OW17737   0.849   0.125  15.543 -1.1061  0.4848  0.1203
 2035SOL    HW117738   0.873   0.100  15.453  0.4602  2.3105  0.0275
 2035SOL    HW217739   0.841   0.220  15.532  0.3923  0.4969 -0.8772
 2036SOL     OW17740   3.134   3.544  14.756  0.0273  0.0952 -0.2139
 2036SOL    HW117741   3.120   3.474  14.819  1.4394 -0.9523 -1.0654
 2036SOL    HW217742   3.071   3.612  14.781 -0.4156 -0.2895 -0.2814
 2037SOL     OW17743   1.828   3.767   7.953  0.0808  0.1325  0.1300
 2037SOL    HW117744   1.794   3.856   7.951  0.2764  0.1903 -0.7055
 2037SOL    HW217745   1.751   3.713   7.935 -0.6954  1.6279 -1.0316
 2038SOL     OW17746   0.496   0.294   3.972 -0.0026 -0.3424 -0.0397
 2038SOL    HW117747   0.573   0.238   3.968 -0.3798 -0.7045 -2.2071
 2038SOL    HW217748   0.494   0.336   4.059  0.9967 -1.7078  0.6381
 2039SOL     OW17749   1.348   3.717   3.795 -0.2311 -0.1288 -0.2328
 2039SOL    HW117750   1.329   3.771   3.872  2.2394 -0.8952  0.9085
 2039SOL    HW217751   1.256   3.695   3.786  0.2788 -1.4937 -2.1675
 2040SOL     OW17752   3.005   0.559   3.438 -0.0149 -0.3946 -0.0129
 2040SOL    HW117753   3.037   0.593   3.522  0.3488 -3.0029  0.9309
 2040SOL    HW217754   3.064   0.598   3.374 -0.2605  2.1620  1.3136
 2041SOL     OW17755   1.685   1.213   5.519  0.4007 -0.6341  0.0627
 2041SOL    HW117756   1.676   1.159   5.441 -3.5667 -0.5721  0.4510
 2041SOL    HW217757   1.736   1.151   5.570 -1.2558 -3.0739 -1.2542
 2042SOL     OW17758   0.175   2.325   4.886 -0.4765 -0.1161 -0.2496
 2042SOL    HW117759   0.237   2.396   4.874 -0.2198 -0.5637 -1.5677
 2042SOL    HW217760   0.201   2.289   4.971 -1.2033 -2.1137 -0.8614
 2043SOL     OW17761   4.596   0.906   2.011 -0.4896  0.3871 -0.1446
 2043SOL    HW117762   4.650   0.895   1.933 -2.7493  0.1444 -1.6938
 2043SOL    HW217763   4.596   0.813   2.033  3.0172  0.3234 -0.4379
 2044SOL     OW17764   2.247   4.198  15.018  0.4923 -0.0002  0.3623
 2044SOL    HW117765   2.249   4.215  14.924  0.2617  1.2016  0.5789
 2044SOL    HW217766   2.338   4.200  15.046 -0.2154  2.0571  2.4836
 2045SOL     OW17767   0.810   2.839   4.506 -0.3728  0.3865  0.3704
 2045SOL    HW117768   0.746   2.812   4.441  1.0759 -1.3101 -0.3515
 2045SOL    HW217769   0.795   2.785   4.584 -2.2908 -0.2462 -0.4310
 2046SOL     OW17770   4.619   4.214   7.064  0.1396  0.6051  0.4789
 2046SOL    HW117771   4.571   4.153   7.007 -0.7417  1.1937  0.5909
 2046SOL    HW217772   4.557   4.230   7.135 -0.4083 -1.6905  0.5286
 2047SOL     OW17773   3.949   3.551   1.736  0.3903  0.0374 -0.3818
 2047SOL    HW117774   3.995   3.481   1.689  0.7088 -0.9787  1.4528
 2047SOL    HW217775   3.927   3.508   1.819 -0.2425 -0.0229 -0.5806
 2048SOL     OW17776   3.744   2.894   8.316 -0.7986 -0.1664 -0.8115
 2048SOL    HW117777   3.719   2.934   8.399  1.0096 -1.2912  0.2933
 2048SOL    HW217778   3.666   2.839   8.302 -1.7105  0.6509  1.0462
 2049SOL     OW17779   2.413   0.408   3.937  0.1266 -0.1108  0.0872
 2049SOL    HW117780   2.470   0.336   3.964 -0.0472 -0.1231  0.4282
 2049SOL    HW217781   2.339   0.365   3.894  0.8383 -2.4251  1.1886
 2050SOL     OW17782   3.794   1.382   4.359 -0.5097 -0.3224 -0.1694
 2050SOL    HW117783   3.791   1.450   4.292 -0.7362 -0.9915 -0.8445
 2050SOL    HW217784   3.702   1.378   4.385 -0.7544 -0.3746 -1.0130
 2051SOL     OW17785   0.488   4.522   6.628  0.1857  0.4070  0.4133
 2051SOL    HW117786   0.575   4.545   6.597  0.6324  1.1300  2.1951
 2051SOL    HW217787   0.430   4.511   6.552 -1.2541 -0.4461  1.6370
 2052SOL     OW17788   0.059   0.664   0.532  0.1454  0.4575  0.0909
 2052SOL    HW117789   0.019   0.750   0.547 -0.1239 -0.0658  2.4127
 2052SOL    HW217790   0.008   0.635   0.458  0.3613  0.6075 -0.1181
 2053SOL     OW17791   2.843   2.677   4.682  0.4666  0.1172 -0.0371
 2053SOL    HW117792   2.912   2.743   4.673 -1.0675  1.4990 -1.4617
 2053SOL    HW217793   2.781   2.707   4.616 -2.4997 -4.3065  0.7813
 2054SOL     OW17794   4.615   0.792   0.198  0.4020 -0.3934  0.0729
 2054SOL    HW117795   4.575   0.705   0.194  1.7633 -1.0792  1.5578
 2054SOL    HW217796   4.642   0.800   0.106 -0.7966 -3.3539 -0.5350
 2055SOL     OW17797   4.017   3.142   8.071 -0.1313 -0.2648  0.0222
 2055SOL    HW117798   4.017   3.196   7.992  1.5215  0.1321  0.3085
 2055SOL    HW217799   4.105   3.165   8.100 -1.0696  0.8626  2.0191
 2056SOL     OW17800   3.133   3.640   9.744 -0.2052 -0.2212  0.0884
 2056SOL    HW117801   3.177   3.721   9.717 -0.0849  0.4066  2.1774
 2056SOL    HW217802   3.114   3.663   9.835  4.0468  1.7251  0.4774
 2057SOL     OW17803   0.832   2.134   3.547  0.4238 -0.2271 -0.3909
 2057SOL    HW117804   0.814   2.094   3.633 -1.2730 -0.6924 -0.9580
 2057SOL    HW217805   0.790   2.073   3.487  0.0579  1.0585 -1.4360
 2058SOL     OW17806   2.020   4.434   4.786 -0.0712  0.0478 -0.0073
 2058SOL    HW117807   2.003   4.439   4.692  1.7617 -1.5505 -0.4090
 2058SOL    HW217808   2.052   4.522   4.800  1.7420 -0.3144 -1.9316
 2059SOL     OW17809   0.323   2.049   1.735  0.5123 -0.1814 -0.0894
 2059SOL    HW117810   0.326   2.138   1.700  1.8933 -0.3870 -0.4786
 2059SOL    HW217811   0.394   2.053   1.799 -0.9554 -1.2300  1.5991
 2060SOL     OW17812   0.611   0.424   2.606  0.3326  0.4860  0.0015
 2060SOL    HW117813   0.669   0.370   2.659 -0.6938  1.5912  2.2407
 2060SOL    HW217814   0.583   0.502   2.656  1.0265 -0.6748  2.1891
 2061SOL     OW17815   2.833   0.312   3.435 -0.0561 -0.2640  0.1069
 2061SOL    HW117816   2.884   0.388   3.406  0.1118 -0.2574  0.4268
 2061SOL    HW217817   2.747   0.329   3.397  0.7059  2.0752 -0.5905
 2062SOL     OW17818   3.218   3.530   5.611  0.1093 -0.1762 -0.0797
 2062SOL    HW117819   3.269   3.571   5.681  1.8115 -1.2619 -0.6742
 2062SOL    HW217820   3.209   3.598   5.544 -1.6113  0.2383  0.5664
 2063SOL     OW17821   0.764   0.346   2.290 -0.3334  0.0016  0.4613
 2063SOL    HW117822   0.743   0.386   2.206  0.4506 -0.9262 -0.1577
 2063SOL    HW217823   0.687   0.289   2.297 -1.3001  1.2201 -0.3381
 2064SOL     OW17824   4.326   1.284   9.653 -0.2014 -0.5403  0.3124
 2064SOL    HW117825   4.317   1.376   9.679  0.3173 -0.4680  0.2465
 2064SOL    HW217826   4.388   1.294   9.581 -0.9957  0.1246 -0.2658
 2065SOL     OW17827   4.612   1.325  10.432 -0.2199  0.6261  0.4385
 2065SOL    HW117828   4.695   1.284  10.457 -1.8605 -1.9942  1.5968
 2065SOL    HW217829   4.559   1.308  10.510  0.6154  2.1674  1.3379
 2066SOL     OW17830   2.276   2.329   7.559  0.1091  0.1650 -0.7553
 2066SOL    HW117831   2.257   2.415   7.521 -1.9988  0.1391  0.2380
 2066SOL    HW217832   2.193   2.289   7.535  0.8314 -1.2996 -0.8447
 2067SOL     OW17833   0.707   0.825   6.066  0.0265 -0.9195 -0.0393
 2067SOL    HW117834   0.615   0.826   6.092  0.1290 -1.3577  0.3376
 2067SOL    HW217835   0.730   0.914   6.091 -1.5141 -0.7690  0.8293
 2068SOL     OW17836   3.353   3.773   1.724  0.1126  0.2890 -0.3704
 2068SOL    HW117837   3.308   3.707   1.776 -0.0489  1.3133  0.7982
 2068SOL    HW217838   3.321   3.853   1.767 -0.5971  1.2017 -2.6094
 2069SOL     OW17839   3.812   1.058   9.925 -0.2855 -0.5481 -0.2443
 2069SOL    HW117840   3.890   1.001   9.924 -1.2087 -1.8208  0.8222
 2069SOL    HW217841   3.844   1.112   9.997  1.2986 -1.9140  0.0857
 2070SOL     OW17842   1.965   0.967   3.529  0.0102 -0.6933  1.3099
 2070SOL    HW117843   1.915   0.983   3.609 -2.6286  0.9165 -0.6590
 2070SOL    HW217844   1.901   0.928   3.469  0.7762  0.7258 -0.4392
 2071SOL     OW17845   1.186   0.488   8.855 -0.1438 -0.0664  0.0327
 2071SOL    HW117846   1.207   0.554   8.789  1.2008 -0.1812  0.3457
 2071SOL    HW217847   1.118   0.525   8.910 -1.3056 -0.1531 -1.3503
 2072SOL     OW17848   2.361   0.679   8.223 -0.0816 -0.4141 -0.4361
 2072SOL    HW117849   2.308   0.699   8.300 -0.4045 -1.2077 -0.4443
 2072SOL    HW217850   2.447   0.697   8.260 -0.3568 -1.6799  0.8209
 2073SOL     OW17851   4.679   0.771  10.892  0.0020  0.0078  0.4023
 2073SOL    HW117852   0.033   0.758  10.850  0.4420  0.6273  1.1239
 2073SOL    HW217853   4.690   0.697  10.951 -2.6218 -0.2678  0.5159
 2074SOL     OW17854   0.000   4.430   9.176  0.5348  0.5125 -0.4715
 2074SOL    HW117855   0.026   4.450   9.266 -0.8214  0.5351 -0.0878
 2074SOL    HW217856   4.703   4.340   9.192  1.2808  0.3789  0.1563
 2075SOL     OW17857   3.618   4.375  14.488 -0.1736 -0.2162 -0.3165
 2075SOL    HW117858   3.640   4.435  14.560 -1.2140 -0.6024  0.3232
 2075SOL    HW217859   3.523   4.382  14.486 -0.0585  1.6270  0.4933
 2076SOL     OW17860   4.040   1.593   2.969  0.2815  1.2208 -0.3299
 2076SOL    HW117861   4.069   1.520   2.915  0.4429  1.3257 -0.3861
 2076SOL    HW217862   3.950   1.617   2.945 -0.0952  0.5197  0.4002
 2077SOL     OW17863   1.854   1.203   9.260  0.0644  0.1597  1.3953
 2077SOL    HW117864   1.871   1.173   9.170  0.7932  1.0032  1.2466
 2077SOL    HW217865   1.774   1.155   9.280  0.0431  0.1901  1.3845
 2078SOL     OW17866   3.317   4.179   3.751  0.1365 -0.8412  0.2035
 2078SOL    HW117867   3.268   4.097   3.749 -1.4522  0.0468  2.5415
 2078SOL    HW217868   3.299   4.213   3.838 -0.5609 -0.4775 -0.0812
 2079SOL     OW17869   1.702   1.421  10.604  0.1397 -0.2358  0.4423
 2079SOL    HW117870   1.738   1.495  10.554  1.9295 -0.3877  1.5189
 2079SOL    HW217871   1.760   1.360  10.560  1.8964  0.4089  1.8857
 2080SOL     OW17872   4.698   0.855   5.335  0.4206 -0.4534 -0.1830
 2080SOL    HW117873   0.013   0.844   5.252  0.3680 -1.7081 -0.0557
 2080SOL    HW217874   4.610   0.827   5.310  1.2448 -2.0229 -1.3606
 2081SOL     OW17875   1.440   4.563   9.163  0.4034 -0.1850  0.2238
 2081SOL    HW117876   1.443   4.612   9.080  1.6777 -0.3002  0.1946
 2081SOL    HW217877   1.368   4.609   9.206 -0.4627  0.0147 -1.4145
 2082SOL     OW17878   4.254   1.516   1.863  0.2577  0.6215  0.3785
 2082SOL    HW117879   4.310   1.589   1.836  2.1562 -1.5609 -1.6087
 2082SOL    HW217880   4.167   1.554   1.879  0.4784  0.6922  1.4099
 2083SOL     OW17881   1.963   1.460   2.135  0.4380 -0.1114  0.1304
 2083SOL    HW117882   1.910   1.529   2.095  0.4954  0.1194  0.4540
 2083SOL    HW217883   2.045   1.509   2.140  0.7231 -0.7411  1.6136
 2084SOL     OW17884   2.408   1.473   7.015 -0.2145  0.1067  0.1742
 2084SOL    HW117885   2.493   1.444   6.983  0.0627  3.1686 -1.9073
 2084SOL    HW217886   2.415   1.444   7.106 -0.0005  3.1743  1.1449
 2085SOL     OW17887   1.575   1.495  17.527  0.5660  0.2110  0.1508
 2085SOL    HW117888   1.514   1.433  17.487 -1.2839  0.6985  2.1989
 2085SOL    HW217889   1.640   1.499  17.457 -0.1508  2.7348 -0.3592
 2086SOL     OW17890   4.259   3.173  10.947 -0.1029  0.5857  0.1742
 2086SOL    HW117891   4.242   3.227  11.024  1.6302  0.5494  0.5960
 2086SOL    HW217892   4.169   3.148  10.927 -0.4756 -0.6105  3.4532
 2087SOL     OW17893   2.197   0.137   7.910  0.3660 -0.2446  0.1736
 2087SOL    HW117894   2.175   0.045   7.925  0.0158 -0.0813  0.6699
 2087SOL    HW217895   2.270   0.141   7.972 -1.5666 -0.0438  2.4639
 2088SOL     OW17896   1.796   2.887   6.657  0.0185 -0.0404 -0.1275
 2088SOL    HW117897   1.887   2.883   6.685 -0.2345 -0.1718  0.6805
 2088SOL    HW217898   1.763   2.821   6.719 -0.0938 -2.0730 -2.3314
 2089SOL     OW17899   0.283   3.694   5.178  0.1245 -0.5812  0.1517
 2089SOL    HW117900   0.269   3.710   5.085  1.3357 -1.6426 -0.2217
 2089SOL    HW217901   0.206   3.639   5.194  0.6538 -1.3525  0.0516
 2090SOL     OW17902   2.734   0.711   9.135  0.1799 -0.7689  0.5476
 2090SOL    HW117903   2.680   0.728   9.212 -0.4021 -2.1475  0.4355
 2090SOL    HW217904   2.765   0.621   9.145 -0.0555 -0.9826 -0.7081
 2091SOL     OW17905   1.518   4.293  12.577 -0.0584 -0.2065 -0.6603
 2091SOL    HW117906   1.546   4.365  12.520  0.2231 -1.8159 -2.5235
 2091SOL    HW217907   1.594   4.236  12.574  0.8025  0.9421 -0.7947
 2092SOL     OW17908   3.329   4.468  14.461  0.6549 -0.2192  0.2174
 2092SOL    HW117909   3.391   4.528  14.420  1.0004  0.1138  1.2238
 2092SOL    HW217910   3.276   4.440  14.386  0.9240 -1.3444  0.4417
 2093SOL     OW17911   3.951   3.733  13.355 -0.3595  0.1478 -0.1019
 2093SOL    HW117912   3.936   3.653  13.405  1.9374  1.5965  2.9329
 2093SOL    HW217913   4.037   3.752  13.393 -0.3835 -0.4417  0.2462
 2094SOL     OW17914   2.149   1.231  16.371 -0.1338  0.1652 -0.2863
 2094SOL    HW117915   2.182   1.292  16.436 -0.8875 -0.4848  0.7143
 2094SOL    HW217916   2.091   1.284  16.316 -1.5615 -0.7344  0.3481
 2095SOL     OW17917   2.954   3.110   6.377  0.4985  0.0017 -0.2339
 2095SOL    HW117918   3.048   3.121   6.394  0.6015 -1.6616  0.2852
 2095SOL    HW217919   2.934   3.203   6.377  0.6063  0.0254 -0.6451
 2096SOL     OW17920   0.906   2.369   0.726  0.7851 -0.2185  0.5306
 2096SOL    HW117921   0.900   2.465   0.718 -0.4958 -0.2423  1.2236
 2096SOL    HW217922   0.824   2.346   0.769 -0.0778  0.5165 -0.7094
 2097SOL     OW17923   2.505   3.512   5.383 -0.5536  0.7164 -0.4459
 2097SOL    HW117924   2.431   3.473   5.335 -0.6474  1.1935 -0.6854
 2097SOL    HW217925   2.550   3.438   5.424 -0.2535  1.5525  0.7134
 2098SOL     OW17926   4.467   2.917   9.117 -0.0741  0.1016 -0.2065
 2098SOL    HW117927   4.438   2.832   9.151  0.7729  0.4383  1.3612
 2098SOL    HW217928   4.427   2.943   9.034  0.6911  0.5654 -0.4249
 2099SOL     OW17929   1.781   4.725   8.724 -0.4206 -0.1163  0.2663
 2099SOL    HW117930   1.728   0.047   8.666 -1.4671 -2.8694 -1.3384
 2099SOL    HW217931   1.766   0.037   8.808  2.0756  1.4322 -0.1265
 2100SOL     OW17932   4.314   2.713   4.129 -0.7418  0.2255 -0.0623
 2100SOL    HW117933   4.271   2.784   4.178 -2.3772 -1.0441  0.3269
 2100SOL    HW217934   4.326   2.645   4.195 -1.2930  0.4570  0.2795
 2101SOL     OW17935   1.755   3.254   9.541  0.2993  0.3567 -0.7181
 2101SOL    HW117936   1.769   3.294   9.454  0.6635 -0.8327 -1.2005
 2101SOL    HW217937   1.794   3.326   9.591  0.7016  0.5145 -1.2544
 2102SOL     OW17938   4.610   1.674   9.330 -0.0934 -0.1744 -0.2577
 2102SOL    HW117939   4.561   1.651   9.251  0.5055 -0.7112 -0.4715
 2102SOL    HW217940   4.697   1.684   9.289 -1.1092 -1.1447 -2.6575
 2103SOL     OW17941   3.353   2.812   7.989 -0.3369  0.4382 -0.7997
 2103SOL    HW117942   3.285   2.747   7.970  1.0326 -1.0872 -0.4472
 2103SOL    HW217943   3.312   2.857   8.063  1.5008  0.4133  0.2233
 2104SOL     OW17944   2.541   4.429   5.766  0.4503  0.0158  0.0263
 2104SOL    HW117945   2.596   4.352   5.753 -1.6270 -1.1452 -1.8793
 2104SOL    HW217946   2.594   4.509   5.763  3.6334 -2.1503 -0.3432
 2105SOL     OW17947   3.138   0.107   3.685 -0.2836 -0.3155  0.4556
 2105SOL    HW117948   3.178   0.141   3.765  1.3153 -0.2893 -0.3771
 2105SOL    HW217949   3.139   0.180   3.623  0.5655 -0.5595  0.1860
 2106SOL     OW17950   1.646   4.180  15.280  0.4797 -0.3098 -0.2364
 2106SOL    HW117951   1.695   4.223  15.351  0.0332 -0.4330  0.1451
 2106SOL    HW217952   1.664   4.237  15.205 -0.3786  0.8794  0.4646
 2107SOL     OW17953   2.217   4.692   0.769 -0.1008  0.3312  0.5037
 2107SOL    HW117954   2.275   4.668   0.697 -0.4141  0.6104  0.1530
 2107SOL    HW217955   2.131   4.662   0.738 -0.4765  0.8010  1.0722
 2108SOL     OW17956   1.853   3.288   4.470  0.7024  0.1620  0.2750
 2108SOL    HW117957   1.771   3.316   4.509  0.3990  0.2810 -0.4423
 2108SOL    HW217958   1.820   3.268   4.382  0.4035  0.2032  0.3786
 2109SOL     OW17959   4.176   0.491   9.019  0.0934  0.5945 -0.0903
 2109SOL    HW117960   4.237   0.431   8.976 -0.7306 -0.0813 -0.3357
 2109SOL    HW217961   4.126   0.516   8.941  0.2971 -0.0861 -0.4389
 2110SOL     OW17962   2.622   1.752   5.537  0.1916  0.2594  0.1168
 2110SOL    HW117963   2.718   1.745   5.534  0.2674  1.6603 -0.9711
 2110SOL    HW217964   2.623   1.841   5.572 -0.9287 -0.2310  1.3904
 2111SOL     OW17965   3.990   3.972   5.736  0.0999  0.5677 -0.0323
 2111SOL    HW117966   4.078   4.007   5.748 -1.1322  3.7415 -0.1829
 2111SOL    HW217967   3.958   3.964   5.825 -0.6018 -2.7418 -0.5835
 2112SOL     OW17968   4.099   0.719   7.749 -0.1964  0.2235  0.4440
 2112SOL    HW117969   4.007   0.740   7.765 -0.5096  0.0095 -1.1370
 2112SOL    HW217970   4.099   0.714   7.654  1.6055 -0.0561  0.4603
 2113SOL     OW17971   2.022   4.237   2.329 -0.1634 -0.0466 -0.2129
 2113SOL    HW117972   2.050   4.173   2.395 -2.0113 -1.0362 -0.3719
 2113SOL    HW217973   2.032   4.320   2.376  0.8225  0.2796 -1.0142
 2114SOL     OW17974   1.488   3.597   7.965  0.0616 -0.3228  0.4780
 2114SOL    HW117975   1.493   3.624   8.057  1.4018 -0.7432  0.5235
 2114SOL    HW217976   1.474   3.503   7.975 -1.1393 -0.1150  0.8639
 2115SOL     OW17977   4.136   2.524   8.707  0.4081  0.4326 -0.2952
 2115SOL    HW117978   4.109   2.492   8.621  0.5685  0.0750 -0.2143
 2115SOL    HW217979   4.055   2.563   8.739  0.1869  0.3969 -0.8258
 2116SOL     OW17980   0.775   3.445   8.300 -0.0134  0.1263  0.0151
 2116SOL    HW117981   0.716   3.384   8.344  1.5052 -2.1895 -1.1266
 2116SOL    HW217982   0.714   3.510   8.266  0.6395 -0.3499 -2.0619
 2117SOL     OW17983   4.721   4.605   8.666 -0.7926 -0.2543 -0.3949
 2117SOL    HW117984   4.711   4.570   8.755 -1.7201 -1.4797 -0.9879
 2117SOL    HW217985   0.028   4.691   8.683  0.7374 -0.8266 -1.0382
 2118SOL     OW17986   3.837   2.337   8.411 -0.6020  0.4138  0.5976
 2118SOL    HW117987   3.852   2.331   8.505  0.6261  1.7182  0.4820
 2118SOL    HW217988   3.832   2.245   8.386 -0.2729 -0.1275  2.5534
 2119SOL     OW17989   1.902   0.841   8.736 -0.0172  0.1190 -0.5670
 2119SOL    HW117990   1.840   0.768   8.739 -0.4944  0.5331 -0.4033
 2119SOL    HW217991   1.852   0.900   8.679  1.4792  1.9341 -0.0002
 2120SOL     OW17992   2.368   2.224   1.846 -0.5973  0.3244 -0.4892
 2120SOL    HW117993   2.423   2.301   1.828  0.7809 -0.4389  0.5146
 2120SOL    HW217994   2.428   2.194   1.914 -1.1180 -2.5777 -1.3064
 2121SOL     OW17995   4.671   4.547  13.568 -0.2103  0.1096 -0.1965
 2121SOL    HW117996   0.010   4.518  13.510  0.2351  1.2440 -0.2241
 2121SOL    HW217997   4.603   4.483  13.548  0.0071 -0.1221 -0.1925
 2122SOL     OW17998   2.170   2.621   5.624 -0.0617 -0.0704  0.0019
 2122SOL    HW117999   2.248   2.586   5.581  0.4878  1.4494 -0.2447
 2122SOL    HW218000   2.108   2.552   5.602  1.0027 -0.6153 -1.2871
 2123SOL     OW18001   2.708   3.989   7.759 -0.0678 -0.1348  0.0416
 2123SOL    HW118002   2.770   3.923   7.788  0.2263 -0.3826 -1.1770
 2123SOL    HW218003   2.627   3.937   7.755  0.7202 -1.2115 -1.5722
 2124SOL     OW18004   0.997   4.496   9.120 -0.4276 -0.3185  0.6163
 2124SOL    HW118005   1.052   4.450   9.183 -0.7383  1.5535  2.2454
 2124SOL    HW218006   0.910   4.466   9.147 -1.0385  0.9953  0.0944
 2125SOL     OW18007   4.601   4.258  12.876 -0.0554  0.1857 -0.2754
 2125SOL    HW118008   4.617   4.300  12.960 -2.1464 -1.5501  0.9905
 2125SOL    HW218009   4.660   4.309  12.820  0.3544 -0.8531 -0.7797
 2126SOL     OW18010   2.695   3.557   6.361 -0.0968 -0.0491 -0.5919
 2126SOL    HW118011   2.698   3.615   6.285 -1.9565  0.0814 -0.5558
 2126SOL    HW218012   2.699   3.610   6.440 -1.5919 -1.0243  0.1318
 2127SOL     OW18013   3.900   4.574   9.500  0.4216 -0.5533 -0.3826
 2127SOL    HW118014   3.986   4.578   9.541  0.4308  1.5971 -0.5737
 2127SOL    HW218015   3.839   4.552   9.570 -0.3763 -2.1764 -1.6067
 2128SOL     OW18016   3.567   3.346   7.059 -0.0098  0.1987  0.0070
 2128SOL    HW118017   3.630   3.284   7.023  2.4547  2.9427 -0.4262
 2128SOL    HW218018   3.553   3.309   7.146  0.0713 -0.7047 -0.3685
 2129SOL     OW18019   2.573   2.523   8.328 -0.5653  0.4124  0.8082
 2129SOL    HW118020   2.580   2.532   8.423  0.2477 -1.5482  0.9442
 2129SOL    HW218021   2.486   2.481   8.322 -0.6182  0.4773  1.1187
 2130SOL     OW18022   2.284   1.040   5.928 -0.5654 -0.1517 -0.1170
 2130SOL    HW118023   2.314   0.975   5.865  0.4825  0.9448 -0.7458
 2130SOL    HW218024   2.330   1.019   6.010 -0.7177  0.4210  0.1157
 2131SOL     OW18025   1.286   3.468   4.886  0.4859  0.0294 -0.3908
 2131SOL    HW118026   1.350   3.532   4.917 -0.1955 -0.3543  1.8699
 2131SOL    HW218027   1.206   3.520   4.896  0.4337 -0.5074  2.1489
 2132SOL     OW18028   2.126   3.558  11.049  0.6674  0.1088 -0.4288
 2132SOL    HW118029   2.037   3.589  11.065  0.8886 -0.0259  1.0704
 2132SOL    HW218030   2.112   3.464  11.047 -0.3361  0.3074 -2.7011
 2133SOL     OW18031   0.218   1.999   4.864  0.3712  0.0534 -0.0979
 2133SOL    HW118032   0.126   2.015   4.843  0.4049  0.9370  0.4341
 2133SOL    HW218033   0.214   2.024   4.956  0.6964  0.8859 -0.3073
 2134SOL     OW18034   4.282   0.537   2.880 -0.4039  0.1576 -0.0902
 2134SOL    HW118035   4.295   0.503   2.968  0.1874 -1.3301 -0.7634
 2134SOL    HW218036   4.358   0.491   2.845 -0.9302 -0.1774 -0.7805
 2135SOL     OW18037   2.139   1.375   1.445  0.1103  0.4081  0.3345
 2135SOL    HW118038   2.109   1.374   1.354  3.8542 -0.9497 -0.8867
 2135SOL    HW218039   2.224   1.333   1.429 -0.4410 -0.0210 -1.4893
 2136SOL     OW18040   4.195   2.410   4.114 -0.1127 -0.0982 -0.2758
 2136SOL    HW118041   4.188   2.489   4.060  0.4219  0.8102  0.9919
 2136SOL    HW218042   4.258   2.433   4.182 -2.0660  2.0124  0.7977
 2137SOL     OW18043   3.459   1.138  14.494  0.6357 -0.2049  0.3473
 2137SOL    HW118044   3.542   1.169  14.528  0.5801  0.6671 -0.3139
 2137SOL    HW218045   3.451   1.202  14.423 -1.6805 -0.3942  0.4148
 2138SOL     OW18046   2.363   2.141   5.480  0.2639  0.4631 -0.2393
 2138SOL    HW118047   2.423   2.099   5.418  1.4900  1.6057  0.1755
 2138SOL    HW218048   2.349   2.062   5.532  0.9298  0.0701 -0.6579
 2139SOL     OW18049   2.162   4.429   0.500 -0.1914 -0.1224 -0.9950
 2139SOL    HW118050   2.162   4.396   0.590  1.4611  0.9595 -0.5892
 2139SOL    HW218051   2.186   4.348   0.455 -0.9887 -2.2466  2.4487
 2140SOL     OW18052   2.342   2.469   4.102 -0.0045 -0.0096 -0.1276
 2140SOL    HW118053   2.289   2.424   4.036 -0.1723  0.5137 -0.3524
 2140SOL    HW218054   2.382   2.391   4.141  0.3031 -0.1418 -0.6999
 2141SOL     OW18055   1.424   1.612   1.092  0.0520  0.3862 -0.2229
 2141SOL    HW118056   1.450   1.694   1.135 -1.2409 -0.5456  2.3410
 2141SOL    HW218057   1.329   1.623   1.091  0.0120  0.0084 -0.9347
 2142SOL     OW18058   3.821   2.696   4.781  0.2451 -0.3522  0.3983
 2142SOL    HW118059   3.790   2.624   4.836 -0.0455  1.6584  2.8572
 2142SOL    HW218060   3.905   2.666   4.748  0.5881 -0.0452  1.0061
 2143SOL     OW18061   3.872   1.859   2.539  0.0613 -0.3423 -0.3860
 2143SOL    HW118062   3.796   1.834   2.487 -0.5378  0.5053  0.0828
 2143SOL    HW218063   3.833   1.936   2.578  0.5659 -0.3505  0.1485
 2144SOL     OW18064   4.015   0.401   7.606 -0.2045 -0.4439 -1.3064
 2144SOL    HW118065   4.087   0.340   7.624  0.9765  1.0690 -0.9312
 2144SOL    HW218066   3.972   0.411   7.691  1.2277 -3.0387 -0.2668
 2145SOL     OW18067   3.213   1.396  10.318  0.2639 -0.3934  0.2887
 2145SOL    HW118068   3.261   1.422  10.239 -1.2164 -1.3468 -0.9131
 2145SOL    HW218069   3.198   1.483  10.356  0.9145 -0.3831  0.5107
 2146SOL     OW18070   1.056   1.136   6.026  0.1611 -0.1496 -0.1116
 2146SOL    HW118071   1.030   1.048   5.999 -0.4097 -0.7715  2.5570
 2146SOL    HW218072   0.971   1.179   6.034  0.5906  0.9920 -1.5542
 2147SOL     OW18073   0.792   2.278  14.061  0.3880 -0.1776 -0.2162
 2147SOL    HW118074   0.713   2.233  14.091  0.3203  0.2966  0.3011
 2147SOL    HW218075   0.762   2.368  14.051  1.9731  0.2830 -0.8823
 2148SOL     OW18076   2.761   3.370   2.597  0.3868  0.5452 -0.2068
 2148SOL    HW118077   2.772   3.360   2.692  2.9291 -0.7332 -0.6387
 2148SOL    HW218078   2.853   3.370   2.568  0.2505 -0.5826 -0.6210
 2149SOL     OW18079   1.806   2.904   2.722  0.1876  0.3743 -0.5774
 2149SOL    HW118080   1.829   2.994   2.697  1.3807  0.1856 -0.1610
 2149SOL    HW218081   1.740   2.884   2.656  0.1139  1.4300 -0.8286
 2150SOL     OW18082   3.500   4.569   7.441 -0.0655 -0.0406  0.8129
 2150SOL    HW118083   3.470   4.540   7.527 -2.0321 -1.6223 -0.3895
 2150SOL    HW218084   3.425   4.541   7.388 -0.2508  0.2202  0.9421
 2151SOL     OW18085   4.036   0.617  17.070  0.2833  0.1125  0.2395
 2151SOL    HW118086   3.957   0.568  17.093 -1.6285  2.5041 -1.2511
 2151SOL    HW218087   3.999   0.659  16.992  0.9575  0.7099  0.2358
 2152SOL     OW18088   2.399   0.059   1.614  0.8619  0.5661 -0.1304
 2152SOL    HW118089   2.389   4.696   1.604  2.4389  0.3178  0.5830
 2152SOL    HW218090   2.362   0.086   1.530  1.5300 -0.1723 -0.6586
 2153SOL     OW18091   4.728   2.986   9.122  0.2617  0.1512  0.3240
 2153SOL    HW118092   4.645   2.979   9.074  0.8608 -0.9733 -0.5315
 2153SOL    HW218093   4.719   2.905   9.172  1.5038 -1.0536 -1.4277
 2154SOL     OW18094   1.940   0.079   6.352 -0.0985 -0.3541  0.5791
 2154SOL    HW118095   1.882   0.082   6.276  1.1224 -1.8609 -0.4157
 2154SOL    HW218096   1.920   0.169   6.378 -0.4651  0.1549 -1.5328
 2155SOL     OW18097   3.130   2.770   3.121 -0.7601 -0.2018 -0.0892
 2155SOL    HW118098   3.149   2.685   3.081 -0.4733  0.5649 -1.5758
 2155SOL    HW218099   3.215   2.809   3.099 -1.1003 -0.3556 -1.6352
 2156SOL     OW18100   1.938   0.213   7.001  0.0273 -0.4761  0.6550
 2156SOL    HW118101   1.980   0.181   6.921 -3.5939 -0.2760 -1.2990
 2156SOL    HW218102   1.850   0.230   6.968 -0.2188  0.0329  1.5725
 2157SOL     OW18103   4.371   1.297  11.805  0.5043  0.7778 -0.1233
 2157SOL    HW118104   4.427   1.232  11.848 -0.2558 -0.0747 -0.4298
 2157SOL    HW218105   4.349   1.252  11.724  0.9708 -0.5799  0.5044
 2158SOL     OW18106   3.762   0.608   9.831  0.2467  0.1720  0.5370
 2158SOL    HW118107   3.843   0.571   9.866  0.7380  1.1502  0.4439
 2158SOL    HW218108   3.720   0.641   9.910  0.4031  1.2300  0.1845
 2159SOL     OW18109   3.919   4.183   5.532 -0.2623  0.7368  0.6342
 2159SOL    HW118110   3.941   4.102   5.578  2.3699  1.3932  0.5145
 2159SOL    HW218111   3.826   4.170   5.512 -0.4577  2.7859  0.2489
 2160SOL     OW18112   0.768   4.282  13.118  0.0426 -0.4631  0.5467
 2160SOL    HW118113   0.764   4.206  13.060  1.1996 -0.1021  0.0010
 2160SOL    HW218114   0.677   4.288  13.148 -0.1452  3.8501 -0.8231
 2161SOL     OW18115   3.922   0.171   4.425 -0.4090 -0.1814 -0.4993
 2161SOL    HW118116   3.858   0.231   4.465 -2.2172 -0.6733 -2.6247
 2161SOL    HW218117   3.945   0.219   4.346 -2.1532 -0.4864 -1.2023
 2162SOL     OW18118   3.043   2.852   3.708 -0.1899  0.1906 -0.0867
 2162SOL    HW118119   2.963   2.870   3.756 -0.3497  0.2443 -0.3742
 2162SOL    HW218120   3.055   2.758   3.721 -1.4985 -0.3124 -2.6344
 2163SOL     OW18121   1.678   3.146   1.703 -0.0927  0.0668  0.3744
 2163SOL    HW118122   1.740   3.194   1.759 -1.6793  1.4359  0.9448
 2163SOL    HW218123   1.631   3.111   1.779  0.1612 -3.0600 -0.9170
 2164SOL     OW18124   2.699   3.134   7.342  0.0717  0.3122 -0.0512
 2164SOL    HW118125   2.721   3.156   7.432 -1.6222 -0.3871  0.5455
 2164SOL    HW218126   2.611   3.171   7.331 -0.6753 -1.1970  0.8513
 2165SOL     OW18127   2.668   1.407   4.311  0.4900 -0.2539  0.2361
 2165SOL    HW118128   2.578   1.431   4.333  0.5730  2.1606 -1.9992
 2165SOL    HW218129   2.707   1.415   4.398 -1.1398 -0.0481  0.9530
 2166SOL     OW18130   0.106   0.479   3.231 -0.3348  0.4393  0.4168
 2166SOL    HW118131   0.053   0.503   3.155 -2.1787  0.2801  1.6209
 2166SOL    HW218132   0.077   0.553   3.285 -2.3601 -0.0457  0.0168
 2167SOL     OW18133   3.009   1.978   5.713 -0.2497 -0.5905  0.0709
 2167SOL    HW118134   2.971   2.023   5.638 -0.9256 -0.1606  0.6781
 2167SOL    HW218135   2.988   2.047   5.776  0.5571 -0.8945  0.6808
 2168SOL     OW18136   0.207   2.601   3.543 -0.0907 -0.5922 -0.2756
 2168SOL    HW118137   0.235   2.522   3.589  1.0595 -0.5803 -0.9561
 2168SOL    HW218138   0.125   2.567   3.507 -0.7553  0.2259  0.4686
 2169SOL     OW18139   0.774   0.999   4.625  0.2085 -0.4670 -0.0996
 2169SOL    HW118140   0.717   0.956   4.562 -0.1599 -0.6266  0.3391
 2169SOL    HW218141   0.720   1.074   4.652  1.5176  0.4661 -0.0627
 2170SOL     OW18142   1.671   0.745   3.610 -0.6444 -0.3728  0.0985
 2170SOL    HW118143   1.584   0.775   3.584 -1.7628 -1.8300  2.1116
 2170SOL    HW218144   1.672   0.662   3.562 -1.1611 -1.2826  1.6307
 2171SOL     OW18145   0.375   3.399   8.410  0.3238 -0.1229 -0.1432
 2171SOL    HW118146   0.414   3.485   8.400 -2.2059  0.8456 -1.7540
 2171SOL    HW218147   0.302   3.419   8.469  2.2136  1.5696  1.6171
 2172SOL     OW18148   1.335   3.172   3.118 -0.2333  0.1242 -0.3220
 2172SOL    HW118149   1.396   3.185   3.191  1.1947  0.0271 -1.4877
 2172SOL    HW218150   1.289   3.097   3.156 -0.6228  1.1645  1.3122
 2173SOL     OW18151   1.766   0.179   2.914  0.2529 -0.0039  0.3428
 2173SOL    HW118152   1.815   0.097   2.905 -1.2294 -0.9507  0.9835
 2173SOL    HW218153   1.781   0.218   2.827  0.5206  0.0466  0.4092
 2174SOL     OW18154   2.085   0.359   5.402  0.0018  0.2450 -0.3770
 2174SOL    HW118155   2.042   0.298   5.462  1.0764 -1.3154 -1.2020
 2174SOL    HW218156   2.058   0.327   5.316 -0.7524  3.0507 -1.1993
 2175SOL     OW18157   4.117   2.478   1.325  0.0647  0.9132 -0.3436
 2175SOL    HW118158   4.157   2.416   1.264 -2.6155  0.5650 -1.7414
 2175SOL    HW218159   4.190   2.492   1.386  0.4018  2.0341 -1.0131
 2176SOL     OW18160   3.113   1.692   3.064 -0.0731  0.1663  0.3188
 2176SOL    HW118161   3.157   1.610   3.085  0.4401  0.7903  1.6479
 2176SOL    HW218162   3.077   1.670   2.978 -0.9385 -0.7673  0.9152
 2177SOL     OW18163   1.066   3.091   5.201 -1.0271  0.1277 -0.5158
 2177SOL    HW118164   1.087   3.133   5.117  0.8377  0.7876  0.2730
 2177SOL    HW218165   0.973   3.067   5.195 -0.8098 -1.4308  2.7511
 2178SOL     OW18166   2.640   2.298   5.561 -0.2313 -0.5137 -0.2649
 2178SOL    HW118167   2.559   2.263   5.525 -1.0411  1.9863 -0.8949
 2178SOL    HW218168   2.612   2.306   5.652 -1.0628  1.9857 -0.7442
 2179SOL     OW18169   2.292   4.293   5.811 -0.5068  0.3165  0.3991
 2179SOL    HW118170   2.368   4.340   5.775 -0.2476 -1.4576 -1.3619
 2179SOL    HW218171   2.235   4.286   5.735  0.2260  1.8398 -0.3010
 2180SOL     OW18172   3.379   3.501   7.379 -0.9897 -0.2199 -0.2686
 2180SOL    HW118173   3.373   3.560   7.454  1.8885 -0.7101  0.3741
 2180SOL    HW218174   3.328   3.423   7.398 -1.1742 -0.9056 -3.6528
 2181SOL     OW18175   2.148   3.316   1.705 -0.0480 -0.5142  0.0959
 2181SOL    HW118176   2.223   3.280   1.660 -0.4186  0.4229 -1.2696
 2181SOL    HW218177   2.190   3.361   1.778  0.0065  1.6123 -1.2527
 2182SOL     OW18178   0.718   2.494  16.276  0.7052  0.2774 -0.5116
 2182SOL    HW118179   0.767   2.557  16.222  0.7264  0.4079 -0.3406
 2182SOL    HW218180   0.629   2.524  16.258  0.3027  1.1497  3.0047
 2183SOL     OW18181   3.752   3.098   9.636  0.2361  0.0758 -0.1677
 2183SOL    HW118182   3.771   3.137   9.722  0.6378 -0.8576  0.1659
 2183SOL    HW218183   3.659   3.116   9.621 -0.0345 -1.1241  0.1237
 2184SOL     OW18184   4.357   3.798   1.558 -0.3224  0.5160  0.6128
 2184SOL    HW118185   4.288   3.774   1.620 -1.6281  0.3958 -0.8925
 2184SOL    HW218186   4.319   3.778   1.472 -0.5686  1.7205  0.4446
 2185SOL     OW18187   2.630   2.549   7.517  0.0571 -0.1660 -0.3059
 2185SOL    HW118188   2.642   2.519   7.607  3.2774  1.3415 -0.2216
 2185SOL    HW218189   2.694   2.489   7.478 -0.0654 -0.9492  0.7151
 2186SOL     OW18190   1.626   3.576   9.092 -0.2649 -0.7361  0.0123
 2186SOL    HW118191   1.702   3.526   9.061  1.0505 -0.2355  2.3957
 2186SOL    HW218192   1.631   3.641   9.021 -1.1920 -1.0136 -0.2969
 2187SOL     OW18193   3.494   1.339  12.048 -0.0900  0.5858  0.1104
 2187SOL    HW118194   3.452   1.346  11.962 -1.1762  0.1859  0.6022
 2187SOL    HW218195   3.505   1.431  12.073 -2.2348  1.2436 -1.3551
 2188SOL     OW18196   0.342   1.797   6.022  0.1421  0.6873  0.3947
 2188SOL    HW118197   0.315   1.849   5.946 -2.4441 -1.1033  0.1299
 2188SOL    HW218198   0.430   1.773   5.992  0.6381  2.0211  0.7678
 2189SOL     OW18199   3.611   2.489   6.084  0.6504 -0.4442  0.1054
 2189SOL    HW118200   3.628   2.492   6.178  2.8404 -0.5050 -0.2885
 2189SOL    HW218201   3.640   2.402   6.056  1.7317 -0.6561  1.8662
 2190SOL     OW18202   0.748   2.209   0.245 -0.5072 -0.0340  0.0992
 2190SOL    HW118203   0.745   2.222   0.150 -2.3042 -0.4007  0.1065
 2190SOL    HW218204   0.836   2.244   0.260  0.0910 -0.5914 -2.0398
 2191SOL     OW18205   1.825   2.449   2.590 -0.2634  0.1676  0.0490
 2191SOL    HW118206   1.757   2.512   2.613  0.4777  0.4073  1.5717
 2191SOL    HW218207   1.800   2.425   2.501  0.6854 -1.2118  0.1586
 2192SOL     OW18208   4.728   0.647   8.481  0.1669 -0.3396  0.6459
 2192SOL    HW118209   4.699   0.677   8.394 -0.5673 -1.7287  0.4155
 2192SOL    HW218210   0.035   0.727   8.516  1.6365 -1.0141  0.5415
 2193SOL     OW18211   3.233   0.886  17.621  0.0434 -0.2330 -0.2108
 2193SOL    HW118212   3.142   0.877  17.651  0.6688  0.1648  1.7807
 2193SOL    HW218213   3.269   0.913  17.706  0.7035  0.2954 -0.6605
 2194SOL     OW18214   0.832   4.206   8.900  0.0530 -0.2544  0.1067
 2194SOL    HW118215   0.769   4.265   8.941 -1.4857 -0.7512 -1.5951
 2194SOL    HW218216   0.894   4.192   8.972 -0.4825  0.5351  0.7151
 2195SOL     OW18217   3.882   0.445   1.542  0.0890 -0.0522 -0.4580
 2195SOL    HW118218   3.796   0.436   1.501 -0.1803 -2.4538  0.6516
 2195SOL    HW218219   3.862   0.428   1.634 -1.3214 -0.5010 -0.8517
 2196SOL     OW18220   3.747   2.753  12.714  0.0562  0.2832 -0.4745
 2196SOL    HW118221   3.789   2.797  12.788  1.3655  1.7877 -2.0995
 2196SOL    HW218222   3.778   2.813  12.646 -0.6413  0.5631 -0.5402
 2197SOL     OW18223   3.246   2.964   0.225  0.2897 -0.8040  0.8029
 2197SOL    HW118224   3.230   2.951   0.319 -3.3381  0.2294  0.3092
 2197SOL    HW218225   3.255   2.873   0.197 -0.5265 -0.0209 -1.9764
 2198SOL     OW18226   3.388   4.222   3.341 -0.6375  0.0450 -1.0279
 2198SOL    HW118227   3.325   4.179   3.283  0.9292 -0.0206 -2.6901
 2198SOL    HW218228   3.458   4.156   3.343  1.7072  2.5358 -0.0484
 2199SOL     OW18229   0.922   1.522  15.854 -0.3311  0.0302 -0.1899
 2199SOL    HW118230   0.991   1.459  15.872  0.3152  0.6890 -0.3355
 2199SOL    HW218231   0.959   1.610  15.864  1.1461 -0.8694  2.0357
 2200SOL     OW18232   3.122   3.868   3.198 -0.7087  0.3508 -0.4727
 2200SOL    HW118233   3.142   3.782   3.161  1.0783  0.5637 -0.0128
 2200SOL    HW218234   3.038   3.866   3.243 -0.7480  0.7053 -0.5343
 2201SOL     OW18235   4.162   4.499   4.845 -0.0529  0.2869  0.4083
 2201SOL    HW118236   4.250   4.496   4.882 -0.5740 -0.8960  1.5422
 2201SOL    HW218237   4.127   4.412   4.862  0.8830  0.0225  0.9974
 2202SOL     OW18238   3.790   0.697  10.453 -0.2260  0.7088  0.3009
 2202SOL    HW118239   3.879   0.699  10.418 -1.0804  0.2746 -1.9115
 2202SOL    HW218240   3.782   0.612  10.496  2.9937  0.7715  1.0094
 2203SOL     OW18241   1.141   0.214  15.573  0.1815  0.2709  0.2703
 2203SOL    HW118242   1.200   0.274  15.616 -1.4455  1.5346  0.7538
 2203SOL    HW218243   1.123   0.151  15.643  1.3402 -1.4232 -0.9720
 2204SOL     OW18244   1.619   1.942   5.832 -0.0152 -0.1561  0.6458
 2204SOL    HW118245   1.602   2.000   5.758  1.4338  0.6503  0.9618
 2204SOL    HW218246   1.643   1.862   5.785  0.4829  0.0135  0.6181
 2205SOL     OW18247   0.785   4.025   3.901 -0.4030  0.2676 -0.3776
 2205SOL    HW118248   0.789   3.956   3.834  0.3516  1.8773 -2.0113
 2205SOL    HW218249   0.792   3.969   3.978  1.0042  0.1697 -0.5771
 2206SOL     OW18250   2.012   0.869   2.542 -0.3005 -0.2348 -0.2644
 2206SOL    HW118251   2.063   0.949   2.557 -0.4225 -0.1894 -0.0882
 2206SOL    HW218252   1.963   0.894   2.464  0.2772  0.4355 -0.4172
 2207SOL     OW18253   1.686   2.248   1.597 -0.3372  0.2911  0.2764
 2207SOL    HW118254   1.768   2.271   1.640 -0.5269  0.6740  0.4326
 2207SOL    HW218255   1.706   2.162   1.561  1.4757  0.1134  1.7448
 2208SOL     OW18256   4.247   3.116   2.083 -0.4785 -0.2253  0.2897
 2208SOL    HW118257   4.258   3.024   2.057 -0.7432 -0.7525  2.0567
 2208SOL    HW218258   4.332   3.153   2.056 -2.0012  3.5792  0.7984
 2209SOL     OW18259   1.520   1.163   4.450  0.3126 -0.4715  0.1044
 2209SOL    HW118260   1.526   1.249   4.407  4.1686 -0.4045  0.7844
 2209SOL    HW218261   1.426   1.144   4.450  0.5683 -1.7384  1.5521
 2210SOL     OW18262   0.001   2.402  14.396  0.2655  0.1679  0.1422
 2210SOL    HW118263   4.729   2.308  14.417 -0.4100  0.7356  2.5728
 2210SOL    HW218264   4.693   2.412  14.310 -0.2142 -3.3113 -0.0561
 2211SOL     OW18265   3.772   1.164   3.386 -0.0006  0.2733 -0.1256
 2211SOL    HW118266   3.864   1.189   3.375  0.3699 -0.0428  2.2449
 2211SOL    HW218267   3.737   1.243   3.425  0.7266  0.0764  0.9132
 2212SOL     OW18268   3.477   1.921   2.563  0.1480 -0.0449 -0.2950
 2212SOL    HW118269   3.525   1.843   2.591 -1.1538 -0.8543 -0.3124
 2212SOL    HW218270   3.392   1.886   2.590  0.6232 -0.0804  1.1522
 2213SOL     OW18271   0.878   3.376   7.999  0.1607  0.4898  0.3582
 2213SOL    HW118272   0.885   3.445   8.064  0.0425 -0.3278  1.2441
 2213SOL    HW218273   0.829   3.423   7.932 -2.6420  1.3217  2.9930
 2214SOL     OW18274   3.061   2.632  16.261 -0.2371  0.1526 -0.1679
 2214SOL    HW118275   3.154   2.615  16.275 -0.1850  1.0612  0.6443
 2214SOL    HW218276   3.062   2.712  16.208  1.1565  0.8650  0.9500
 2215SOL     OW18277   2.396   0.999   1.838  0.0454  0.0323  0.0323
 2215SOL    HW118278   2.340   1.071   1.810  2.1685  1.2288 -1.1462
 2215SOL    HW218279   2.468   1.061   1.856 -1.6314  1.1166  3.0821
 2216SOL     OW18280   4.629   3.058   8.565 -0.0550 -0.3513 -0.1951
 2216SOL    HW118281   4.537   3.047   8.590 -0.2921 -0.6527 -1.2152
 2216SOL    HW218282   4.656   3.129   8.624  0.5389 -1.0854  0.4201
 2217SOL     OW18283   3.296   4.133   5.122 -0.1182  0.3509 -0.0921
 2217SOL    HW118284   3.325   4.049   5.158 -0.9727 -0.6322 -1.6586
 2217SOL    HW218285   3.383   4.169   5.105  0.4516 -0.1078  1.8248
 2218SOL     OW18286   4.053   0.080   3.093  0.1782 -0.0579 -0.1859
 2218SOL    HW118287   3.998   0.158   3.093 -0.3843 -0.4508 -1.0687
 2218SOL    HW218288   3.993   0.015   3.129 -0.0028 -0.2563 -0.8335
 2219SOL     OW18289   3.146   0.889  14.561  0.0556 -0.2488  0.2470
 2219SOL    HW118290   3.104   0.882  14.475  1.8437 -0.1051 -0.6510
 2219SOL    HW218291   3.083   0.939  14.612  0.4593 -0.4604  0.9423
 2220SOL     OW18292   1.886   3.003  17.610 -0.4978  0.2311  0.0136
 2220SOL    HW118293   1.893   2.908  17.609 -0.8825  0.2065 -0.0050
 2220SOL    HW218294   1.875   3.007  17.515  1.1204 -2.2679 -0.2823
 2221SOL     OW18295   2.515   0.909   3.886 -0.0244  0.0908  0.0249
 2221SOL    HW118296   2.513   0.814   3.894  0.0267  0.1501  0.7389
 2221SOL    HW218297   2.607   0.907   3.859  0.5209 -1.3875  2.0328
 2222SOL     OW18298   2.933   0.786   7.835  0.5579  0.3360  0.5025
 2222SOL    HW118299   2.887   0.843   7.774 -1.9154 -0.2257  1.8196
 2222SOL    HW218300   2.858   0.749   7.883 -0.3358 -1.9803 -2.6594
 2223SOL     OW18301   0.080   0.581   6.360  0.0876 -0.0293  0.2851
 2223SOL    HW118302   0.164   0.547   6.392 -0.1869 -0.1464  0.8863
 2223SOL    HW218303   0.095   0.674   6.344 -2.4407  0.2557 -0.3982
 2224SOL     OW18304   1.519   2.046   6.593  0.0676 -0.2141 -0.4048
 2224SOL    HW118305   1.553   1.963   6.560  2.0293 -0.3868  2.1161
 2224SOL    HW218306   1.429   2.044   6.560 -0.6005  1.4744  1.3126
 2225SOL     OW18307   0.146   1.721   4.493  1.2588 -0.3579 -0.0318
 2225SOL    HW118308   0.174   1.630   4.497  2.5512  0.0577  0.4674
 2225SOL    HW218309   0.128   1.725   4.399 -1.4264 -0.2808  0.4792
 2226SOL     OW18310   3.473   0.540   7.279 -0.4270 -0.1043 -0.0761
 2226SOL    HW118311   3.408   0.607   7.257 -3.1945 -2.8791 -0.5127
 2226SOL    HW218312   3.543   0.562   7.218 -0.5762 -3.3149 -1.4323
 2227SOL     OW18313   1.296   0.717   3.905  0.0011  0.1543  0.1851
 2227SOL    HW118314   1.381   0.675   3.918  0.4597  0.6760 -1.0947
 2227SOL    HW218315   1.242   0.675   3.972  2.6379 -1.3376  1.3799
 2228SOL     OW18316   2.184   4.113   3.115  0.1790 -0.3763 -0.0007
 2228SOL    HW118317   2.095   4.123   3.149  0.4957  0.9211  0.4770
 2228SOL    HW218318   2.204   4.201   3.082  0.2411  0.7625  3.0103
 2229SOL     OW18319   1.956   0.920   5.890  0.0674 -0.3829  0.1595
 2229SOL    HW118320   1.890   0.892   5.953 -1.8234 -1.6709 -2.3666
 2229SOL    HW218321   1.899   0.966   5.829  0.6867  1.4771  0.9713
 2230SOL     OW18322   4.625   3.333   3.094  0.5860 -0.1416 -0.3068
 2230SOL    HW118323   4.571   3.387   3.153  1.8843  2.5626 -1.6180
 2230SOL    HW218324   4.690   3.393   3.058  2.2920 -2.1711 -0.5462
 2231SOL     OW18325   3.739   2.939   4.808  0.0001 -0.5435  0.4793
 2231SOL    HW118326   3.766   2.850   4.787  0.7850  0.2981 -2.0752
 2231SOL    HW218327   3.651   2.935   4.769 -0.4935  1.2484  1.3902
 2232SOL     OW18328   3.821   3.194   0.343 -0.8131  0.0229 -0.0860
 2232SOL    HW118329   3.774   3.120   0.303  0.0072 -0.4358 -0.2036
 2232SOL    HW218330   3.763   3.211   0.417 -0.9161 -0.7392  0.0084
 2233SOL     OW18331   1.807   4.039   9.799 -0.0265 -0.2998 -0.0118
 2233SOL    HW118332   1.895   4.047   9.836 -0.2167 -0.8952  0.5696
 2233SOL    HW218333   1.797   4.133   9.785 -1.7510 -0.7729 -1.9239
 2234SOL     OW18334   4.238   3.291   7.397 -0.3969 -0.6551 -0.3918
 2234SOL    HW118335   4.291   3.349   7.343 -0.9032 -0.5977 -0.8223
 2234SOL    HW218336   4.301   3.268   7.466  0.7714  2.2212 -0.5016
 2235SOL     OW18337   2.706   4.189   4.367 -0.0337  0.6943 -0.0538
 2235SOL    HW118338   2.621   4.149   4.349  2.2670 -2.9387 -2.6336
 2235SOL    HW218339   2.740   4.135   4.439  1.8378  1.1660 -0.5906
 2236SOL     OW18340   4.117   2.047  14.817 -0.3768 -0.3627  0.0539
 2236SOL    HW118341   4.083   2.113  14.877  0.7085 -0.3796  0.6795
 2236SOL    HW218342   4.201   2.024  14.856  0.4780 -1.0164 -2.1711
 2237SOL     OW18343   2.057   2.818   6.558  0.1768  0.1200 -0.0376
 2237SOL    HW118344   2.138   2.769   6.575 -0.2023 -0.6129 -0.3357
 2237SOL    HW218345   2.048   2.808   6.463  1.1240 -1.8371  0.0663
 2238SOL     OW18346   2.769   0.098   3.162  0.2118  0.1813  0.3369
 2238SOL    HW118347   2.797   0.008   3.178 -0.4407 -0.0347  0.2978
 2238SOL    HW218348   2.849   0.144   3.186 -0.1949  0.3464  1.3942
 2239SOL     OW18349   4.097   1.054  10.300  0.1901 -0.0434 -0.5106
 2239SOL    HW118350   4.019   1.059  10.246  0.0496  3.8157  0.0409
 2239SOL    HW218351   4.055   1.050  10.386  1.2834 -1.7674 -0.0529
 2240SOL     OW18352   3.356   2.293   9.904  0.4160  0.3224  0.4081
 2240SOL    HW118353   3.295   2.233   9.948  1.2262 -0.8774 -0.1465
 2240SOL    HW218354   3.380   2.345   9.981 -1.2965 -0.1013  1.2360
 2241SOL     OW18355   3.089   2.162   3.897 -0.3516 -0.1529 -0.0996
 2241SOL    HW118356   3.003   2.202   3.888  0.5559  2.3222  1.8927
 2241SOL    HW218357   3.061   2.075   3.870  0.3917 -0.6388  0.7020
 2242SOL     OW18358   0.215   3.037   7.700 -0.5760  0.5092 -0.4427
 2242SOL    HW118359   0.170   3.121   7.691 -1.4878  0.2628  1.9395
 2242SOL    HW218360   0.189   3.014   7.789  2.5451 -0.2175  0.2947
 2243SOL     OW18361   4.087   1.171   8.923 -0.0931  0.0569 -0.0138
 2243SOL    HW118362   4.065   1.083   8.954  0.0791 -0.2675 -0.8253
 2243SOL    HW218363   4.108   1.160   8.831 -2.1211 -1.0339 -0.3528
 2244SOL     OW18364   0.236   2.629   8.949  0.0958  0.0034 -0.4297
 2244SOL    HW118365   0.321   2.616   8.906  0.4732  2.5297 -0.4889
 2244SOL    HW218366   0.241   2.717   8.989 -0.9971  0.2712 -0.8795
 2245SOL     OW18367   3.582   3.256  16.179  0.2431 -0.5307 -0.3308
 2245SOL    HW118368   3.585   3.241  16.085  1.0052  1.9916 -0.7154
 2245SOL    HW218369   3.552   3.174  16.217 -1.7505 -0.0316 -0.8681
 2246SOL     OW18370   0.848   0.487   1.161  0.1877 -0.0593 -0.1623
 2246SOL    HW118371   0.798   0.414   1.124 -1.2387  1.6015 -1.5492
 2246SOL    HW218372   0.819   0.482   1.252  0.7083  2.0920  0.1212
 2247SOL     OW18373   1.598   1.824   5.410 -0.3509 -0.6518  0.1026
 2247SOL    HW118374   1.561   1.754   5.356 -2.9207  1.0333 -0.3283
 2247SOL    HW218375   1.572   1.904   5.364  0.3254  0.2608  1.3098
 2248SOL     OW18376   0.122   4.199  11.290  0.6629 -0.1373  0.1148
 2248SOL    HW118377   0.123   4.169  11.199 -2.7083  1.0091 -0.3320
 2248SOL    HW218378   0.137   4.115  11.332 -0.3612 -1.0450 -1.2990
 2249SOL     OW18379   1.010   4.671  14.405  0.5179  0.0516  0.2115
 2249SOL    HW118380   1.049   0.011  14.455 -0.7855 -1.0975  2.8782
 2249SOL    HW218381   0.920   4.700  14.388  0.7825  0.1369 -1.0132
 2250SOL     OW18382   2.038   4.276   3.648 -0.5992  0.0239 -0.0073
 2250SOL    HW118383   2.104   4.233   3.593  0.5872  0.5551  1.0201
 2250SOL    HW218384   1.966   4.215   3.632 -2.9170  2.5088  0.9080
 2251SOL     OW18385   4.485   0.829  11.127  0.0207  0.5054  0.2768
 2251SOL    HW118386   4.528   0.752  11.090 -2.4288 -0.1227 -1.3281
 2251SOL    HW218387   4.397   0.800  11.151  1.2138 -4.1669 -1.0285
 2252SOL     OW18388   0.913   0.503   8.955 -0.0906  0.1639  0.0830
 2252SOL    HW118389   0.883   0.585   8.994  0.7404  1.2677 -1.6498
 2252SOL    HW218390   0.846   0.437   8.975 -1.1695  1.8783  2.1404
 2253SOL     OW18391   3.914   2.545   6.781  0.2468  0.3173  0.1787
 2253SOL    HW118392   3.976   2.616   6.766  0.6162 -0.0583 -0.0804
 2253SOL    HW218393   3.959   2.486   6.840 -2.6780 -1.3266  0.7870
 2254SOL     OW18394   4.426   0.580   4.466 -0.3129 -0.3711  0.3392
 2254SOL    HW118395   4.515   0.579   4.429 -0.3203 -0.3243  0.3201
 2254SOL    HW218396   4.378   0.627   4.398 -1.2121 -1.7266  0.0359
 2255SOL     OW18397   1.160   2.007   1.007 -0.3573 -0.0694 -0.4564
 2255SOL    HW118398   1.104   2.025   1.082 -2.4059 -1.5238 -1.6396
 2255SOL    HW218399   1.206   1.928   1.034  0.2034 -0.5125 -2.6700
 2256SOL     OW18400   4.053   3.591   7.127 -0.0816 -0.3835  0.0598
 2256SOL    HW118401   4.089   3.623   7.210  1.3900 -1.8005 -0.0505
 2256SOL    HW218402   3.986   3.656   7.107 -1.6443 -2.4539 -1.4221
 2257SOL     OW18403   1.501   0.110  15.891  0.0811 -0.1368 -0.2783
 2257SOL    HW118404   1.561   0.054  15.842 -1.0354 -3.1233  1.7302
 2257SOL    HW218405   1.478   0.174  15.825  0.5804  0.7747  0.4305
 2258SOL     OW18406   0.288   4.087   7.053  0.1199 -0.0019 -0.8002
 2258SOL    HW118407   0.220   4.087   7.120 -2.6954 -2.2370 -3.6254
 2258SOL    HW218408   0.329   4.002   7.063  0.0310  0.2313  1.5428
 2259SOL     OW18409   4.462   0.310   3.253 -0.0132  0.0276 -0.0159
 2259SOL    HW118410   4.507   0.256   3.188  2.5668  2.3438 -0.2069
 2259SOL    HW218411   4.372   0.281   3.239  0.2188 -0.8730  0.3586
 2260SOL     OW18412   0.358   4.444  17.102 -0.1208  0.2241  0.1047
 2260SOL    HW118413   0.393   4.417  17.017 -2.1006  2.5368 -1.4507
 2260SOL    HW218414   0.387   4.535  17.101 -1.8398  0.7871  2.0553
 2261SOL     OW18415   1.320   1.524   6.361 -0.0207  0.1531  0.0813
 2261SOL    HW118416   1.254   1.508   6.294 -1.6880  0.1429  1.7138
 2261SOL    HW218417   1.361   1.438   6.351 -0.7906 -0.2957  0.8582
 2262SOL     OW18418   3.422   2.244  13.917 -0.6981 -0.7765  0.2707
 2262SOL    HW118419   3.456   2.156  13.903 -0.5181 -0.3462 -2.0639
 2262SOL    HW218420   3.343   2.223  13.966 -0.5339  1.1682  1.3423
 2263SOL     OW18421   2.049   3.754   9.059 -0.1509 -0.6763 -0.6575
 2263SOL    HW118422   2.019   3.726   8.972 -3.2248  0.4458  0.0097
 2263SOL    HW218423   2.037   3.849   9.047 -2.1613 -0.6179  1.8504
 2264SOL     OW18424   1.455   0.799   3.418  0.0952  0.2274 -0.5918
 2264SOL    HW118425   1.527   0.833   3.364  1.0294  0.0418  0.5270
 2264SOL    HW218426   1.399   0.761   3.351 -2.0415  3.0967 -0.4171
 2265SOL     OW18427   4.061   1.530   5.626  0.3031 -0.1714 -0.3257
 2265SOL    HW118428   3.966   1.530   5.637  0.5054 -1.3719  1.3641
 2265SOL    HW218429   4.083   1.452   5.677 -1.6110  0.2993  1.2397
 2266SOL     OW18430   1.999   3.968   8.092 -0.1841  0.0784  0.0216
 2266SOL    HW118431   1.934   3.898   8.089 -2.1090  1.8182  1.2258
 2266SOL    HW218432   2.003   3.993   8.000  0.0748  1.7523  0.4972
 2267SOL     OW18433   0.011   3.668   5.225 -0.3498 -0.1467 -0.1989
 2267SOL    HW118434   4.678   3.729   5.189  0.6746  0.8410 -0.3964
 2267SOL    HW218435   4.713   3.588   5.183  0.4017  0.3092 -1.6021
 2268SOL     OW18436   0.563   1.872   3.744  0.4217  0.0632  0.3435
 2268SOL    HW118437   0.544   1.942   3.681 -0.9514  1.2679  2.0892
 2268SOL    HW218438   0.589   1.804   3.683  0.3355 -0.7640  1.2309
 2269SOL     OW18439   0.138   0.409  10.494 -0.1012 -0.0354 -0.4849
 2269SOL    HW118440   0.215   0.413  10.436 -0.1891  0.9229 -0.5340
 2269SOL    HW218441   0.128   0.500  10.520 -0.2198 -0.1559 -0.1170
 2270SOL     OW18442   2.194   0.732  13.067 -0.0999 -0.1163 -0.1807
 2270SOL    HW118443   2.285   0.727  13.093 -0.0832  2.1109  0.2148
 2270SOL    HW218444   2.158   0.646  13.088 -0.8020  0.6574  1.7785
 2271SOL     OW18445   1.263   1.418   1.831  0.0829 -0.5153 -0.5484
 2271SOL    HW118446   1.276   1.447   1.921 -0.3213  1.9161 -1.2609
 2271SOL    HW218447   1.306   1.332   1.828  0.7099 -0.2468  0.9626
 2272SOL     OW18448   1.255   0.733   3.214  0.1880  0.2495  0.0780
 2272SOL    HW118449   1.213   0.669   3.271 -0.9739  1.5921  0.7439
 2272SOL    HW218450   1.186   0.719   3.149  1.4019 -1.4629 -0.8242
 2273SOL     OW18451   3.150   2.632   4.912 -0.7995  0.2369 -0.0304
 2273SOL    HW118452   3.057   2.639   4.934 -0.5497 -1.4106  1.5766
 2273SOL    HW218453   3.143   2.692   4.838  1.2296  0.1674 -0.3006
 2274SOL     OW18454   4.503   3.007   2.283  0.2896  0.0178  0.3135
 2274SOL    HW118455   4.591   3.041   2.267  0.3409 -0.1634  0.2102
 2274SOL    HW218456   4.448   3.081   2.308 -0.0149 -0.0303 -0.2390
 2275SOL     OW18457   4.532   1.325   4.161  0.4904  0.2911 -0.1471
 2275SOL    HW118458   4.454   1.374   4.136 -0.9096 -0.8363  1.9466
 2275SOL    HW218459   4.503   1.274   4.237 -0.2081 -0.7256 -1.1001
 2276SOL     OW18460   2.345   2.835  15.911  0.3483  0.4196 -0.1885
 2276SOL    HW118461   2.326   2.922  15.875  1.5856  1.3208  1.3404
 2276SOL    HW218462   2.423   2.804  15.864 -1.8998  0.9753 -4.2432
 2277SOL     OW18463   2.090   3.085   4.233 -0.2983  0.4596  0.5890
 2277SOL    HW118464   2.144   3.017   4.273  0.5846  0.3190 -0.8503
 2277SOL    HW218465   2.003   3.071   4.271 -1.4870  0.0352 -2.2669
 2278SOL     OW18466   4.546   0.513   6.810  0.1227 -0.5488  0.2472
 2278SOL    HW118467   4.468   0.460   6.828  0.2517 -0.3329  1.4820
 2278SOL    HW218468   4.592   0.446   6.760  1.8727  1.1202 -0.3924
 2279SOL     OW18469   1.635   3.679   5.226 -0.2860  0.4565  0.1533
 2279SOL    HW118470   1.543   3.695   5.250 -0.5576 -1.8346  0.6271
 2279SOL    HW218471   1.671   3.767   5.238 -0.3443  0.1708  2.4417
 2280SOL     OW18472   2.987   1.010   4.849 -0.4814  0.3005 -0.5630
 2280SOL    HW118473   2.947   1.040   4.767 -3.6284 -1.8082  0.2401
 2280SOL    HW218474   2.957   1.084   4.901 -0.2867 -0.2955  0.3802
 2281SOL     OW18475   3.465   2.519   3.975 -0.4959 -0.4295 -0.3825
 2281SOL    HW118476   3.439   2.529   4.066  2.2141 -1.1560  0.4746
 2281SOL    HW218477   3.394   2.462   3.947 -1.3038  0.4064 -0.0217
 2282SOL     OW18478   4.699   1.459  13.053  0.3345 -0.7587  0.2891
 2282SOL    HW118479   4.685   1.456  12.959 -1.5407 -0.6225  0.5713
 2282SOL    HW218480   4.623   1.505  13.089  1.1746  2.2312 -1.7823
 2283SOL     OW18481   2.765   0.788   7.060  0.3042 -0.1262  0.3693
 2283SOL    HW118482   2.741   0.714   7.116  0.7963  0.0833  0.8730
 2283SOL    HW218483   2.858   0.805   7.078  0.4029 -1.1966  0.9073
 2284SOL     OW18484   4.714   0.381  11.551 -0.4170 -0.0416 -0.8746
 2284SOL    HW118485   0.006   0.394  11.643 -1.0951 -1.1287 -0.5383
 2284SOL    HW218486   4.667   0.297  11.554  2.3089 -1.5943 -0.7818
 2285SOL     OW18487   1.998   1.538   6.488 -0.3241 -0.8660 -0.2385
 2285SOL    HW118488   2.044   1.546   6.572 -0.8789  2.2181 -0.2350
 2285SOL    HW218489   1.930   1.476   6.515 -1.2488  0.0907 -0.3976
 2286SOL     OW18490   0.572   0.923  11.202  0.4653  0.1827 -0.3789
 2286SOL    HW118491   0.569   0.853  11.137  0.5581 -0.9507  0.8332
 2286SOL    HW218492   0.533   0.991  11.147  0.7763  0.0930 -0.7030
 2287SOL     OW18493   2.652   3.488   2.336  0.1236 -0.0972  0.4696
 2287SOL    HW118494   2.679   3.565   2.286  0.2435 -0.5788 -0.1989
 2287SOL    HW218495   2.740   3.452   2.351  0.3698  0.2805 -0.0566
 2288SOL     OW18496   2.095   1.445   5.431 -0.0919  0.2217 -0.0428
 2288SOL    HW118497   2.060   1.524   5.472  0.7055  1.4015 -1.6444
 2288SOL    HW218498   2.124   1.475   5.345 -0.5754 -0.3109 -0.3922
 2289SOL     OW18499   2.563   3.342   1.600  0.2446 -0.3044  0.1541
 2289SOL    HW118500   2.483   3.289   1.598  1.0628 -1.5545  0.4072
 2289SOL    HW218501   2.539   3.427   1.635  1.2685  0.2326 -0.4453
 2290SOL     OW18502   3.210   0.994   6.603  0.4557  0.2197  0.0106
 2290SOL    HW118503   3.208   0.901   6.580  0.1706 -0.1230  1.4121
 2290SOL    HW218504   3.186   1.045   6.526 -0.6902  1.7350  1.3666
 2291SOL     OW18505   2.727   3.330  13.722 -0.3052  0.3999  0.1465
 2291SOL    HW118506   2.653   3.367  13.673  0.3747  1.8613  0.2292
 2291SOL    HW218507   2.690   3.249  13.758  0.3064  0.4920  0.9918
 2292SOL     OW18508   1.119   0.220   8.632  0.1392  0.5478 -0.4243
 2292SOL    HW118509   1.077   0.180   8.557 -0.9216  0.6292  0.1256
 2292SOL    HW218510   1.093   0.311   8.618 -2.2341  0.4151  3.1088
 2293SOL     OW18511   3.788   3.739   3.513 -0.1939  0.4745 -0.5498
 2293SOL    HW118512   3.722   3.731   3.582  0.0477  0.1719 -0.3495
 2293SOL    HW218513   3.749   3.804   3.455  2.1574  3.5418  1.2811
 2294SOL     OW18514   4.523   4.054  10.280 -0.0452  0.0458  0.2421
 2294SOL    HW118515   4.535   4.096  10.195 -1.9958  0.2551  0.0561
 2294SOL    HW218516   4.602   4.082  10.327  0.2721 -0.8783  0.2439
 2295SOL     OW18517   3.198   3.985   1.070  0.1177 -0.6505 -0.1486
 2295SOL    HW118518   3.262   3.957   1.136 -0.3650  0.6471  0.8644
 2295SOL    HW218519   3.161   3.900   1.047  0.2525 -0.2206 -1.9839
 2296SOL     OW18520   2.304   2.636   2.210 -0.0269 -0.1539 -0.0408
 2296SOL    HW118521   2.393   2.664   2.234 -0.6299  1.0676  0.7820
 2296SOL    HW218522   2.277   2.595   2.292 -0.2615  1.2543  0.5895
 2297SOL     OW18523   1.570   1.724   6.028 -0.0891  0.2897 -0.0574
 2297SOL    HW118524   1.594   1.756   6.115  0.7196 -0.6105  0.0460
 2297SOL    HW218525   1.587   1.800   5.973  0.7720 -0.1983 -0.4505
 2298SOL     OW18526   4.461   3.760  15.782 -0.3027 -0.2054 -0.3061
 2298SOL    HW118527   4.453   3.805  15.866 -4.0416 -1.1475 -0.1289
 2298SOL    HW218528   4.368   3.740  15.769 -0.1986  0.7327 -2.6254
 2299SOL     OW18529   4.000   1.259  13.537  0.8481  0.2125 -0.1679
 2299SOL    HW118530   3.916   1.239  13.496  1.9819 -1.7615 -1.5565
 2299SOL    HW218531   4.050   1.179  13.518  2.1160  1.2596 -1.2220
 2300SOL     OW18532   2.736   1.658  10.762  0.0416 -0.6101  0.0290
 2300SOL    HW118533   2.704   1.697  10.843  0.4971 -2.2177  0.9733
 2300SOL    HW218534   2.798   1.727  10.739 -0.1754 -0.0255  1.2263
 2301SOL     OW18535   3.834   0.437   1.808  0.5349 -0.0535 -0.0468
 2301SOL    HW118536   3.895   0.504   1.842  3.1645 -1.0687 -2.8240
 2301SOL    HW218537   3.770   0.442   1.879  0.2501 -3.5890 -0.0571
 2302SOL     OW18538   4.458   0.176   5.616  0.0284 -0.4225  0.6922
 2302SOL    HW118539   4.542   0.156   5.574  0.1308  1.8464 -0.1547
 2302SOL    HW218540   4.393   0.176   5.547  0.0251 -0.9943  0.6957
 2303SOL     OW18541   2.233   2.612   5.257  0.2833  0.3220 -0.6724
 2303SOL    HW118542   2.247   2.693   5.208 -1.1533  1.3307  0.6243
 2303SOL    HW218543   2.308   2.562   5.225  1.2700  2.1717 -1.2567
 2304SOL     OW18544   2.245   1.505   9.203 -0.0892 -0.3254 -0.3524
 2304SOL    HW118545   2.267   1.424   9.157 -0.2143  0.4572 -1.7627
 2304SOL    HW218546   2.237   1.472   9.293  0.2488  2.1940  0.5933
 2305SOL     OW18547   3.859   3.777   5.910  0.0780  0.3983 -0.0193
 2305SOL    HW118548   3.788   3.835   5.883  0.3467 -0.0539 -1.7233
 2305SOL    HW218549   3.853   3.715   5.837  0.6638  0.2844  0.0254
 2306SOL     OW18550   1.871   1.863   5.416  0.5609 -0.1293  0.7008
 2306SOL    HW118551   1.911   1.788   5.372  2.0109  1.2291 -0.2667
 2306SOL    HW218552   1.777   1.843   5.419  0.6762 -0.8368 -0.2373
 2307SOL     OW18553   1.936   3.546   2.855 -0.1270 -0.1890  0.4316
 2307SOL    HW118554   1.980   3.529   2.772 -0.2753  2.0093 -0.0885
 2307SOL    HW218555   1.992   3.488   2.907 -1.9745 -4.0899 -1.9128
 2308SOL     OW18556   1.585   1.509   1.873 -0.5953 -0.3595 -0.0298
 2308SOL    HW118557   1.610   1.419   1.856  0.2694 -0.0664 -0.2826
 2308SOL    HW218558   1.672   1.549   1.873 -1.9492  2.6430  1.3010
 2309SOL     OW18559   2.086   4.283   4.072 -0.1527 -0.2797 -0.0426
 2309SOL    HW118560   2.162   4.225   4.065  2.4049  3.0598  0.3328
 2309SOL    HW218561   2.024   4.226   4.118 -0.6148 -0.8492 -1.3630
 2310SOL     OW18562   4.522   0.437   9.104  0.6702  0.3457  0.8749
 2310SOL    HW118563   4.452   0.413   9.044  2.4661 -0.5192 -0.8499
 2310SOL    HW218564   4.592   0.382   9.069 -0.0471  0.8891 -1.3991
 2311SOL     OW18565   1.227   2.791   8.121  0.2323 -0.1168  0.0742
 2311SOL    HW118566   1.205   2.812   8.212  0.9030  1.4790 -0.1183
 2311SOL    HW218567   1.197   2.701   8.110  1.2693 -0.5540  0.8987
 2312SOL     OW18568   4.375   3.791  11.595  0.7730 -0.1223  0.4981
 2312SOL    HW118569   4.337   3.787  11.683 -2.9101  2.4950 -1.0221
 2312SOL    HW218570   4.421   3.707  11.585 -1.9943 -1.3929 -1.5250
 2313SOL     OW18571   1.304   1.496   7.261  0.5537 -0.3217  0.0371
 2313SOL    HW118572   1.382   1.480   7.209 -0.1290 -1.5145 -0.6203
 2313SOL    HW218573   1.287   1.587   7.236  1.0793  0.1133  1.2710
 2314SOL     OW18574   0.637   4.143   5.285 -0.0655 -0.8199 -0.1111
 2314SOL    HW118575   0.546   4.151   5.256  0.3361  2.2943 -0.5076
 2314SOL    HW218576   0.635   4.120   5.378 -0.6271 -0.4368 -0.0253
 2315SOL     OW18577   1.150   1.350  15.789 -0.1236  0.2899  0.2166
 2315SOL    HW118578   1.242   1.372  15.773 -0.5327  1.5843 -0.2708
 2315SOL    HW218579   1.111   1.374  15.705  1.0046  1.6771  0.0949
 2316SOL     OW18580   2.891   4.258   7.200  0.0114  0.3188 -0.1709
 2316SOL    HW118581   2.963   4.313   7.229  0.6991 -0.6130 -0.1121
 2316SOL    HW218582   2.917   4.171   7.230 -0.0119 -0.1878 -1.5723
 2317SOL     OW18583   1.907   3.500   5.848  0.4152  0.1631  0.2596
 2317SOL    HW118584   1.813   3.494   5.867  0.4083 -1.6762 -0.2971
 2317SOL    HW218585   1.928   3.410   5.823 -0.3645  0.5905 -1.8841
 2318SOL     OW18586   3.553   1.145   0.880  0.4604 -0.4606 -0.5449
 2318SOL    HW118587   3.588   1.056   0.885  1.7364  0.1570  1.6694
 2318SOL    HW218588   3.465   1.123   0.910 -0.4383  0.6680 -2.3723
 2319SOL     OW18589   2.659   1.042   3.508 -0.6261 -0.0001 -0.5512
 2319SOL    HW118590   2.743   1.046   3.552 -0.3639  2.2572 -1.2794
 2319SOL    HW218591   2.598   1.023   3.579 -0.7284  0.7098 -0.4581
 2320SOL     OW18592   4.569   0.913   5.616 -0.2309 -0.0189 -0.2531
 2320SOL    HW118593   4.626   0.837   5.606  0.1308  0.2449 -0.1884
 2320SOL    HW218594   4.537   0.906   5.707  1.8772  4.3335  0.8269
 2321SOL     OW18595   4.624   3.399   1.684 -0.0059  0.0512  0.1546
 2321SOL    HW118596   4.693   3.455   1.719  0.9111 -0.9795  0.0162
 2321SOL    HW218597   4.618   3.424   1.592  1.3291 -1.2013 -0.2949
 2322SOL     OW18598   2.438   2.252   4.254  0.0826  0.6143 -0.7395
 2322SOL    HW118599   2.519   2.215   4.219  0.5495 -0.1634  1.1782
 2322SOL    HW218600   2.383   2.175   4.245 -0.8101  1.1001  0.6041
 2323SOL     OW18601   0.404   2.923   7.192 -0.4218  0.3724  0.3621
 2323SOL    HW118602   0.492   2.949   7.218 -0.3054  1.9493 -1.5690
 2323SOL    HW218603   0.390   2.868   7.268  0.5045 -1.3558 -0.7128
 2324SOL     OW18604   2.516   3.867   6.541  0.3289 -0.5733 -0.0899
 2324SOL    HW118605   2.503   3.950   6.588  1.6888  1.0338 -2.5273
 2324SOL    HW218606   2.427   3.834   6.536  0.2502 -0.4099  0.2239
 2325SOL     OW18607   3.893   2.283   6.653 -0.2137  0.3786  0.1665
 2325SOL    HW118608   3.907   2.378   6.660  0.7914  0.1692  0.8971
 2325SOL    HW218609   3.932   2.242   6.730 -1.0189  0.8903  0.8578
 2326SOL     OW18610   1.693   2.318   0.581  0.2251  0.0950 -0.0954
 2326SOL    HW118611   1.712   2.298   0.489 -0.9120 -1.2198 -0.0608
 2326SOL    HW218612   1.650   2.236   0.609 -2.0274  1.7594  1.3177
 2327SOL     OW18613   3.441   3.720  11.367 -0.6657  0.3135 -0.1964
 2327SOL    HW118614   3.463   3.634  11.403 -0.9291 -0.5304 -2.0345
 2327SOL    HW218615   3.429   3.777  11.443  1.6645  2.8268 -1.7231
 2328SOL     OW18616   0.420   3.987   3.403  0.2662 -0.3032  0.2940
 2328SOL    HW118617   0.359   3.944   3.463 -0.5160  0.0980 -0.2188
 2328SOL    HW218618   0.372   4.063   3.370 -1.6484 -2.3221 -1.5937
 2329SOL     OW18619   2.014   4.646   6.577  0.4557 -0.2763 -0.4436
 2329SOL    HW118620   1.975   4.565   6.544 -2.8405  1.3861 -0.6346
 2329SOL    HW218621   2.032   4.701   6.501 -1.6870 -0.9316 -1.4449
 2330SOL     OW18622   1.008   2.095   6.980  0.1720 -0.2134 -0.1803
 2330SOL    HW118623   1.027   2.052   6.896 -2.6378  2.7129 -2.3045
 2330SOL    HW218624   1.029   2.033   7.050  2.8063 -0.2541 -0.9791
 2331SOL     OW18625   0.631   4.156   6.086 -0.1262 -0.0235 -0.3074
 2331SOL    HW118626   0.721   4.169   6.118  0.1191  0.5989 -1.2410
 2331SOL    HW218627   0.639   4.103   6.007  1.0014 -1.5226  0.8235
 2332SOL     OW18628   2.698   2.233  14.489  0.4647  0.5427 -0.7883
 2332SOL    HW118629   2.732   2.155  14.447  0.4825  0.4677 -0.6368
 2332SOL    HW218630   2.749   2.230  14.570 -1.2671 -1.9658  0.2073
 2333SOL     OW18631   4.052   2.728   3.153 -0.0948 -0.1458  0.4385
 2333SOL    HW118632   3.979   2.747   3.212  0.0592 -1.7604  1.1436
 2333SOL    HW218633   4.002   2.671   3.095  1.9908  0.7268 -2.2079
 2334SOL     OW18634   0.332   2.794   7.405  0.0715 -0.3436  0.6430
 2334SOL    HW118635   0.302   2.779   7.494  0.0363 -2.7256  0.2328
 2334SOL    HW218636   0.245   2.782   7.366  0.4399  0.3546 -0.4026
 2335SOL     OW18637   2.948   2.005   6.808  0.2004 -0.0630  0.0942
 2335SOL    HW118638   3.013   2.074   6.820 -0.1155 -0.0316  1.6139
 2335SOL    HW218639   3.009   1.934   6.788 -1.4497 -0.8881 -2.0958
 2336SOL     OW18640   1.555   2.215  17.081 -0.3237 -0.4690  0.3271
 2336SOL    HW118641   1.643   2.187  17.107  0.6081  1.1087 -1.1405
 2336SOL    HW218642   1.506   2.162  17.144  0.4111 -0.8305  0.5966
 2337SOL     OW18643   4.371   0.868   2.270  0.3864 -1.1312  0.1746
 2337SOL    HW118644   4.385   0.833   2.358 -0.3367 -0.5537  0.5204
 2337SOL    HW218645   4.357   0.781   2.231 -1.3118 -1.2574  1.0632
 2338SOL     OW18646   4.395   2.065   1.645 -0.1349  0.1532 -0.3063
 2338SOL    HW118647   4.475   2.012   1.645 -0.0224  0.3204 -0.1693
 2338SOL    HW218648   4.366   2.066   1.554 -1.0221  1.0020 -0.0099
 2339SOL     OW18649   0.015   4.019   7.478 -0.4815  0.3545 -0.5479
 2339SOL    HW118650   0.065   4.086   7.432 -0.1100 -0.3711 -1.2023
 2339SOL    HW218651   4.661   4.016   7.437 -0.8252  0.9704  0.1292
 2340SOL     OW18652   2.817   0.275  13.939 -0.0912  0.5678  0.2393
 2340SOL    HW118653   2.736   0.229  13.959  0.4947 -0.5000  0.1630
 2340SOL    HW218654   2.857   0.285  14.026  3.1710  3.5536 -1.5683
 2341SOL     OW18655   2.542   1.443   5.384  0.0954 -0.3046 -0.6534
 2341SOL    HW118656   2.474   1.450   5.316 -1.7438 -2.5164  0.9660
 2341SOL    HW218657   2.511   1.466   5.471 -0.0822  1.0541 -1.0807
 2342SOL     OW18658   3.637   1.501   8.683 -0.0860  0.0020 -0.0627
 2342SOL    HW118659   3.699   1.574   8.683 -2.4089  1.9507 -0.1804
 2342SOL    HW218660   3.676   1.457   8.758 -1.6601  1.4454  1.5861
 2343SOL     OW18661   0.566   1.906   4.153  0.2984 -0.0226  0.2293
 2343SOL    HW118662   0.545   1.816   4.176  2.5295 -0.1225  1.8141
 2343SOL    HW218663   0.660   1.906   4.165  0.4608  0.2649 -1.0060
 2344SOL     OW18664   2.412   0.421   8.136 -0.0223  0.2018 -0.6286
 2344SOL    HW118665   2.378   0.390   8.220  2.6988 -1.5684 -0.1774
 2344SOL    HW218666   2.377   0.510   8.137 -1.8471 -0.5202 -0.9561
 2345SOL     OW18667   1.925   4.408   6.451  0.3962 -0.0483 -0.7028
 2345SOL    HW118668   1.979   4.344   6.497  0.6158 -1.7794 -3.3269
 2345SOL    HW218669   1.840   4.365   6.446 -0.1932  0.9220  0.8713
 2346SOL     OW18670   3.636   0.024   2.528 -0.1236 -0.3681 -0.5326
 2346SOL    HW118671   3.547   0.025   2.564  0.2748 -1.5774  0.4811
 2346SOL    HW218672   3.638   4.666   2.497 -0.4635 -0.4874 -0.2005
 2347SOL     OW18673   4.410   1.241   8.611 -0.1102  0.1322  0.0652
 2347SOL    HW118674   4.449   1.154   8.612 -1.9409 -0.6620  1.5395
 2347SOL    HW218675   4.433   1.290   8.690  0.5478 -1.0530  0.5995
 2348SOL     OW18676   2.717   1.133   5.884  0.2461 -0.4961  0.3186
 2348SOL    HW118677   2.809   1.144   5.907 -0.6380  3.2846  2.0337
 2348SOL    HW218678   2.738   1.081   5.806  1.4803 -2.8940  2.2678
 2349SOL     OW18679   4.472   1.159   2.077 -0.0519  0.3556  0.0331
 2349SOL    HW118680   4.536   1.187   2.142  0.3561 -0.5125  0.0122
 2349SOL    HW218681   4.504   1.075   2.044 -1.4460 -1.6606  3.7626
 2350SOL     OW18682   1.671   1.548   9.473 -0.0381  1.0384 -0.2153
 2350SOL    HW118683   1.581   1.521   9.489  0.0087  1.7758  1.2933
 2350SOL    HW218684   1.673   1.642   9.454  1.3850  0.6067 -2.2515
 2351SOL     OW18685   0.884   1.004   6.448 -0.5822 -0.0364 -0.2725
 2351SOL    HW118686   0.941   0.927   6.439  1.0674  1.1699 -0.1169
 2351SOL    HW218687   0.808   0.986   6.392 -1.7104  1.5071  0.7407
 2352SOL     OW18688   4.490   2.724  13.745 -0.6199 -0.1489 -0.1799
 2352SOL    HW118689   4.546   2.798  13.721 -0.4370  0.2263  1.3977
 2352SOL    HW218690   4.479   2.690  13.656  1.5293 -0.7659 -0.2044
 2353SOL     OW18691   4.095   2.701   7.349 -0.2450 -0.0704 -0.1187
 2353SOL    HW118692   4.002   2.683   7.334 -0.1179 -1.6026  0.8679
 2353SOL    HW218693   4.083   2.781   7.399 -0.8062 -0.1923 -0.0566
 2354SOL     OW18694   4.060   2.893   9.926  0.5691  0.3421  0.1856
 2354SOL    HW118695   4.129   2.827   9.916 -2.0120 -2.6423  2.3418
 2354SOL    HW218696   3.984   2.841   9.902  0.2798  1.5675 -1.4903
 2355SOL     OW18697   1.934   4.057  10.280 -0.3687 -0.4824 -0.3818
 2355SOL    HW118698   1.915   4.034  10.371 -0.2845 -3.8347 -1.2370
 2355SOL    HW218699   1.855   4.106  10.257  1.1732  1.5760 -1.3051
 2356SOL     OW18700   2.148   0.738  11.151  0.0133 -0.0522  0.1220
 2356SOL    HW118701   2.192   0.666  11.196  1.1036  1.7199  1.9200
 2356SOL    HW218702   2.060   0.747  11.186 -0.0728  2.2564 -0.6379
 2357SOL     OW18703   3.253   3.939   3.475 -0.4802  0.1199 -0.3182
 2357SOL    HW118704   3.306   3.957   3.398 -0.6521 -2.4022 -0.9972
 2357SOL    HW218705   3.220   3.854   3.447 -0.1042 -0.0621 -0.2034
 2358SOL     OW18706   2.638   2.575   4.991 -0.2728  0.6710 -0.1296
 2358SOL    HW118707   2.686   2.649   5.029  1.1262  0.2975 -1.1777
 2358SOL    HW218708   2.553   2.609   4.965  0.8963  2.2051 -1.8900
 2359SOL     OW18709   2.006   2.491   5.269  0.0813  0.2675  0.0341
 2359SOL    HW118710   2.092   2.522   5.242 -0.3374  1.6192  0.2607
 2359SOL    HW218711   2.008   2.464   5.361 -0.6620 -1.8634 -0.5804
 2360SOL     OW18712   0.325   1.118   7.814  0.0386 -0.4228 -0.2442
 2360SOL    HW118713   0.302   1.092   7.903 -1.0010 -0.3497 -0.4903
 2360SOL    HW218714   0.279   1.044   7.773 -1.9214  0.4636  0.3425
 2361SOL     OW18715   2.871   1.414   0.273 -0.0666  0.2222 -1.0639
 2361SOL    HW118716   2.809   1.361   0.322  1.8093 -0.8653  0.1397
 2361SOL    HW218717   2.900   1.346   0.213  1.1359  0.5329 -0.8436
 2362SOL     OW18718   0.156   2.040  17.661 -0.1344 -0.1524 -0.1336
 2362SOL    HW118719   0.197   2.066  17.579 -0.7427  1.5614  0.0990
 2362SOL    HW218720   0.144   2.123  17.706  2.5614 -2.5304  4.9721
 2363SOL     OW18721   0.004   3.083   5.839 -0.3974  0.2720  0.2437
 2363SOL    HW118722   0.021   3.006   5.894 -0.1036 -1.4964 -2.3294
 2363SOL    HW218723   0.091   3.089   5.801 -0.6939  1.6546 -0.2243
 2364SOL     OW18724   3.616   2.318   7.862 -0.1095  0.0995 -0.2554
 2364SOL    HW118725   3.586   2.229   7.880  0.6411 -0.2778 -0.8841
 2364SOL    HW218726   3.551   2.336   7.794 -0.3422  1.4461  0.3214
 2365SOL     OW18727   2.329   2.665   2.990  0.1074 -0.3590  0.7375
 2365SOL    HW118728   2.306   2.583   2.948 -1.0782 -0.1080  0.8953
 2365SOL    HW218729   2.259   2.670   3.054 -0.2138  1.9646  0.2326
 2366SOL     OW18730   2.729   4.697   4.991 -0.1135  0.1388  0.1676
 2366SOL    HW118731   2.697   4.637   5.059  0.4201 -0.9287 -0.5305
 2366SOL    HW218732   2.790   4.639   4.946 -2.4804 -2.0698 -0.2209
 2367SOL     OW18733   0.685   2.543   8.041 -0.2182 -0.4652 -0.2297
 2367SOL    HW118734   0.647   2.528   8.128  0.1799  2.1289  0.3640
 2367SOL    HW218735   0.780   2.538   8.053 -0.4658 -1.8722  1.1002
 2368SOL     OW18736   1.888   4.288  10.056 -0.5435  0.3538  0.0424
 2368SOL    HW118737   1.953   4.358  10.050 -1.3737  0.9460 -1.8179
 2368SOL    HW218738   1.926   4.221  10.000 -0.5778 -1.1557  1.8057
 2369SOL     OW18739   3.677   0.691   1.552  0.1849 -0.1340  0.4708
 2369SOL    HW118740   3.765   0.728   1.559 -0.1613  0.5484  1.2178
 2369SOL    HW218741   3.647   0.727   1.468  0.4001  1.8029  1.2168
 2370SOL     OW18742   1.812   0.856   5.124 -0.6154 -0.1175  0.0397
 2370SOL    HW118743   1.899   0.825   5.147  1.0339  4.7200  0.1345
 2370SOL    HW218744   1.827   0.927   5.062  1.3408  0.2162  0.9189
 2371SOL     OW18745   3.215   2.236  14.119 -0.3778 -0.4118  0.1637
 2371SOL    HW118746   3.288   2.234  14.181 -0.3306  0.4556  0.1335
 2371SOL    HW218747   3.151   2.192  14.174  0.9678 -0.6378  1.5617
 2372SOL     OW18748   2.520   3.417  11.077 -0.5923  0.7664  0.3911
 2372SOL    HW118749   2.610   3.398  11.103  0.3276  0.0419 -3.4167
 2372SOL    HW218750   2.500   3.490  11.136 -1.4624  0.4323  0.5165
 2373SOL     OW18751   4.061   4.233  11.056 -0.0221 -0.0388  0.0059
 2373SOL    HW118752   4.097   4.315  11.090 -1.7716  0.3994  0.8270
 2373SOL    HW218753   3.984   4.226  11.113 -2.0337  1.5624 -2.5095
 2374SOL     OW18754   0.081   3.914   5.411 -0.0569 -0.2776  0.3349
 2374SOL    HW118755   0.019   3.845   5.386  0.2176 -0.0679 -0.9356
 2374SOL    HW218756   0.067   3.989   5.353  1.4735 -0.3269 -0.1101
 2375SOL     OW18757   2.290   3.758   1.751  0.7475 -0.4307  0.3057
 2375SOL    HW118758   2.270   3.684   1.693 -0.7305  3.2466 -3.8831
 2375SOL    HW218759   2.299   3.828   1.687 -0.9114 -1.1777 -0.7596
 2376SOL     OW18760   4.273   2.184   8.962  0.6343  0.0153 -0.1787
 2376SOL    HW118761   4.235   2.107   9.004  2.3429 -0.8579 -0.2315
 2376SOL    HW218762   4.290   2.247   9.032  0.2131  0.1564 -0.2019
 2377SOL     OW18763   3.283   1.850   2.828  1.0076 -0.2789 -0.0791
 2377SOL    HW118764   3.330   1.798   2.894  1.7433  1.3423  0.6653
 2377SOL    HW218765   3.200   1.803   2.817  1.1454 -0.7734  0.9348
 2378SOL     OW18766   1.949   1.999   7.522 -0.0625  0.2341  0.2986
 2378SOL    HW118767   1.890   1.931   7.490  0.4305  0.4707 -1.1156
 2378SOL    HW218768   1.999   1.946   7.584 -0.1291 -1.1847 -0.8716
 2379SOL     OW18769   0.902   0.871  16.384  0.5057 -0.3156  0.1372
 2379SOL    HW118770   0.823   0.924  16.372  0.5406  0.3804  2.8543
 2379SOL    HW218771   0.953   0.916  16.451 -0.2914 -0.8248  1.0949
 2380SOL     OW18772   4.522   4.447   2.442  0.1653  0.2441  0.7273
 2380SOL    HW118773   4.430   4.471   2.430 -0.0105 -1.1978 -0.8531
 2380SOL    HW218774   4.554   4.527   2.402  1.0661 -0.6180 -0.2568
 2381SOL     OW18775   4.695   0.572   7.508 -0.6561 -0.1129 -0.1193
 2381SOL    HW118776   0.006   0.655   7.487 -0.1596 -0.5248 -0.7275
 2381SOL    HW218777   4.657   0.565   7.421  1.0856  1.2344 -0.9961
 2382SOL     OW18778   1.554   1.138   8.943 -0.6302  0.4032  0.3136
 2382SOL    HW118779   1.561   1.074   9.015  1.6177 -0.7013 -0.9171
 2382SOL    HW218780   1.648   1.144   8.929 -0.8362 -0.4930 -1.4407
 2383SOL     OW18781   2.085   2.217   2.795 -0.1313  0.4907  0.0936
 2383SOL    HW118782   2.036   2.135   2.793 -0.1395  0.5023 -0.1789
 2383SOL    HW218783   2.164   2.198   2.744  1.0983  2.4966  1.2223
 2384SOL     OW18784   0.262   1.157  15.339 -0.6143  0.1693 -0.1040
 2384SOL    HW118785   0.201   1.126  15.405 -0.9272  0.3857 -0.2931
 2384SOL    HW218786   0.210   1.177  15.261 -1.0556  1.2743  0.4832
 2385SOL     OW18787   0.249   1.990   4.556  0.0748 -0.2611  0.0733
 2385SOL    HW118788   0.201   1.916   4.519 -0.7203 -0.8080  2.1991
 2385SOL    HW218789   0.278   1.949   4.638 -0.3089 -0.5951  0.0446
 2386SOL     OW18790   2.408   2.875   2.500  0.6006 -0.3420  0.3091
 2386SOL    HW118791   2.378   2.933   2.430 -1.5638  0.6630  2.1097
 2386SOL    HW218792   2.475   2.930   2.540 -1.8881  1.9657  1.2545
 2387SOL     OW18793   0.021   0.812   2.658  0.0886  0.8604 -0.2504
 2387SOL    HW118794   4.724   0.888   2.607  0.1057  0.8653 -0.2529
 2387SOL    HW218795   0.043   0.749   2.590 -2.8787 -0.2163 -0.1873
 2388SOL     OW18796   0.117   3.760   4.607 -0.4198  0.3883  0.3908
 2388SOL    HW118797   0.189   3.823   4.601  0.1349  0.0511  3.3718
 2388SOL    HW218798   0.050   3.804   4.554  0.0984  0.6951 -0.0110
 2389SOL     OW18799   2.535   1.411   5.085  0.2375 -0.3385  0.2966
 2389SOL    HW118800   2.506   1.339   5.140 -0.4027  0.7803  1.4149
 2389SOL    HW218801   2.468   1.422   5.018 -0.4146 -0.8002  0.8772
 2390SOL     OW18802   0.984   0.655   8.726  0.6411  0.0097 -0.0547
 2390SOL    HW118803   0.925   0.646   8.801 -1.5744 -6.3274 -2.6040
 2390SOL    HW218804   1.002   0.749   8.736  0.5259 -0.0124  0.3727
 2391SOL     OW18805   0.149   3.393  14.546  0.4655  0.4010  0.1174
 2391SOL    HW118806   0.054   3.401  14.545  0.2751 -1.8597  2.1191
 2391SOL    HW218807   0.164   3.347  14.463 -0.5737  0.6883 -0.2265
 2392SOL     OW18808   4.700   0.634   5.049 -0.2843 -0.1869 -0.2153
 2392SOL    HW118809   4.635   0.625   4.979  1.0630  1.7669 -1.7158
 2392SOL    HW218810   4.641   0.631   5.124 -1.0521  0.2738 -0.7978
 2393SOL     OW18811   3.858   1.141   2.607 -0.6196  0.3839 -0.4182
 2393SOL    HW118812   3.891   1.087   2.679 -1.3648 -1.1304 -1.2256
 2393SOL    HW218813   3.939   1.160   2.560 -0.8173  0.0551 -0.8851
 2394SOL     OW18814   3.950   0.137   3.391 -0.1790  0.3378 -0.3489
 2394SOL    HW118815   3.908   0.223   3.385 -1.0342 -0.0842 -0.4122
 2394SOL    HW218816   3.926   0.099   3.306 -1.4207  1.7319 -0.6256
 2395SOL     OW18817   4.686   4.001   6.097  0.3764  0.7755  0.2190
 2395SOL    HW118818   4.644   3.926   6.055 -2.6730  2.2693  0.5849
 2395SOL    HW218819   0.013   4.022   6.024  0.0293 -0.7820 -0.5116
 2396SOL     OW18820   1.600   0.822  12.775  0.1309 -0.1160 -0.5021
 2396SOL    HW118821   1.507   0.821  12.754  0.0076 -3.2245  0.1617
 2396SOL    HW218822   1.595   0.801  12.868  0.6576 -1.3667 -0.7485
 2397SOL     OW18823   1.509   2.620  15.674  0.1407  0.0658 -0.3117
 2397SOL    HW118824   1.573   2.678  15.633  0.9663  1.3075  2.7306
 2397SOL    HW218825   1.566   2.557  15.718 -1.0128  1.5626  3.2811
 2398SOL     OW18826   1.393   1.792   0.823 -0.2808 -0.2041 -0.2903
 2398SOL    HW118827   1.421   1.869   0.871  0.7962 -1.1289  0.5601
 2398SOL    HW218828   1.472   1.772   0.773 -0.4579 -1.3145 -0.1246
 2399SOL     OW18829   3.318   2.074   8.171 -0.3097 -0.2909 -0.1800
 2399SOL    HW118830   3.311   2.165   8.200  0.0169 -0.6152  0.9482
 2399SOL    HW218831   3.275   2.024   8.240  0.3243 -0.8226 -0.1692
 2400SOL     OW18832   1.031   2.291   4.556 -0.5146 -0.0937 -1.1451
 2400SOL    HW118833   1.093   2.363   4.569 -2.6988  1.9870 -2.2575
 2400SOL    HW218834   1.044   2.274   4.463  0.0603  1.4222 -1.3461
 2401SOL     OW18835   2.499   2.214   7.485  0.2935 -0.7746  0.0747
 2401SOL    HW118836   2.424   2.260   7.523 -1.5364 -1.2834 -2.9674
 2401SOL    HW218837   2.546   2.185   7.564  3.0836  5.1199  0.5529
 2402SOL     OW18838   3.877   2.511  16.131 -0.1338  0.2149 -0.1075
 2402SOL    HW118839   3.883   2.569  16.207 -1.4902  3.5722 -2.5624
 2402SOL    HW218840   3.958   2.460  16.133  0.1831  0.6657 -1.5629
 2403SOL     OW18841   4.241   4.714   1.868  0.2796 -0.1112  0.3248
 2403SOL    HW118842   4.217   4.634   1.821  1.2894 -1.1679  1.5814
 2403SOL    HW218843   4.161   0.034   1.866 -0.8760 -1.9161 -0.0871
 2404SOL     OW18844   2.347   0.810   9.809  0.2291  0.0107 -0.0518
 2404SOL    HW118845   2.380   0.796   9.898  0.9270 -1.0936 -0.4850
 2404SOL    HW218846   2.403   0.881   9.779  0.5134 -0.0773  0.2722
 2405SOL     OW18847   2.589   2.450   3.462  0.1766  0.3632  0.3721
 2405SOL    HW118848   2.598   2.484   3.550 -3.4999 -2.4593  1.8299
 2405SOL    HW218849   2.650   2.512   3.423 -0.9038  0.4238 -1.2775
 2406SOL     OW18850   2.462   1.740   3.181  0.2382 -0.4480 -0.0428
 2406SOL    HW118851   2.409   1.796   3.238 -0.6505 -0.6576 -0.6603
 2406SOL    HW218852   2.525   1.700   3.241  0.1945 -0.3444  0.0706
 2407SOL     OW18853   0.821   1.771   4.221 -0.3718  0.1605 -0.4429
 2407SOL    HW118854   0.862   1.782   4.307 -0.6000 -0.3641 -0.2666
 2407SOL    HW218855   0.782   1.684   4.229 -1.2699  0.6594  0.6714
 2408SOL     OW18856   3.030   4.706  15.701 -0.4788 -0.0443 -0.5973
 2408SOL    HW118857   3.044   0.025  15.780 -1.4225  0.5833 -0.8433
 2408SOL    HW218858   3.046   4.618  15.735 -1.9987 -0.3816 -0.7786
 2409SOL     OW18859   3.816   1.615   4.218 -0.1808  0.2452  0.0531
 2409SOL    HW118860   3.797   1.686   4.280 -0.0917  1.7118 -1.6042
 2409SOL    HW218861   3.808   1.658   4.133 -0.1570 -0.6348 -0.3835
 2410SOL     OW18862   3.798   1.448   3.405 -0.3031  0.5177 -0.2260
 2410SOL    HW118863   3.878   1.454   3.352  1.1474  1.0507  2.0093
 2410SOL    HW218864   3.742   1.510   3.359 -0.0314 -0.3086 -1.6621
 2411SOL     OW18865   4.588   4.339   1.888 -0.5520 -0.2280  0.0448
 2411SOL    HW118866   4.505   4.314   1.929  0.4440 -1.3706  1.3439
 2411SOL    HW218867   4.645   4.265   1.909 -0.8313 -0.5942 -0.4685
 2412SOL     OW18868   2.330   2.792   3.798  1.0810 -0.1114  0.4394
 2412SOL    HW118869   2.258   2.736   3.768  2.1408  0.7040 -3.6367
 2412SOL    HW218870   2.373   2.734   3.861  1.6707 -0.9253 -0.7131
 2413SOL     OW18871   3.665   4.258   2.906 -0.2241  0.1514  0.1640
 2413SOL    HW118872   3.655   4.180   2.959  0.8626  0.2803  0.5632
 2413SOL    HW218873   3.713   4.212   2.838 -0.3089  1.1154 -0.5483
 2414SOL     OW18874   3.198   3.198   4.367  0.4588  0.1315  0.2708
 2414SOL    HW118875   3.272   3.154   4.408 -0.3339 -0.2166  1.3484
 2414SOL    HW218876   3.227   3.288   4.383  1.5982 -0.4112  1.2018
 2415SOL     OW18877   1.833   0.445   4.685 -0.3362  0.3940 -0.3443
 2415SOL    HW118878   1.914   0.393   4.686 -0.4180  0.2962  0.7215
 2415SOL    HW218879   1.792   0.378   4.739 -0.0325  0.5208  0.0429
 2416SOL     OW18880   0.978   3.534   9.683 -0.2157  0.4599 -0.1914
 2416SOL    HW118881   0.976   3.490   9.598 -0.4738  0.9039 -0.4143
 2416SOL    HW218882   1.043   3.477   9.725 -0.6229  0.6665  0.7153
 2417SOL     OW18883   4.259   3.374  16.120  0.9909  0.1268 -0.1051
 2417SOL    HW118884   4.333   3.411  16.168 -0.8895  0.7326  2.3310
 2417SOL    HW218885   4.300   3.375  16.033 -1.5136 -1.0097 -1.2979
 2418SOL     OW18886   0.073   3.102   2.632 -0.1207  1.3068  0.2655
 2418SOL    HW118887   0.093   3.128   2.722  2.5820 -0.3875  0.1531
 2418SOL    HW218888   0.001   3.040   2.642  1.2961 -0.9098 -3.0285
 2419SOL     OW18889   1.227   0.636  12.918 -0.2859  0.1134 -0.1555
 2419SOL    HW118890   1.284   0.606  12.989 -2.2755 -3.5979 -0.0992
 2419SOL    HW218891   1.178   0.556  12.900 -1.5418  0.4329  1.7932
 2420SOL     OW18892   1.202   1.505   6.936  0.3031 -0.1797 -0.0910
 2420SOL    HW118893   1.226   1.550   7.017  3.8172 -2.4010  0.0869
 2420SOL    HW218894   1.110   1.477   6.937  0.0321  0.7277 -0.1384
 2421SOL     OW18895   2.744   3.997   0.049  0.4603  0.0063  0.4057
 2421SOL    HW118896   2.666   4.005  17.723  0.7593  1.2386  0.1696
 2421SOL    HW218897   2.779   4.086   0.040  0.0039  0.0729 -0.6119
 2422SOL     OW18898   2.537   0.735  12.621 -0.5890  0.0996  0.3992
 2422SOL    HW118899   2.581   0.777  12.547  1.5875  0.9404  2.1622
 2422SOL    HW218900   2.603   0.745  12.690 -0.3785 -1.1069  0.3825
 2423SOL     OW18901   3.056   1.146  12.515  0.0576  0.6425 -0.4366
 2423SOL    HW118902   3.027   1.226  12.472 -1.6840  0.3546  0.2292
 2423SOL    HW218903   3.147   1.160  12.488 -0.1638  2.7613 -0.1308
 2424SOL     OW18904   1.819   1.233  12.569 -0.0902 -0.3151 -0.3514
 2424SOL    HW118905   1.856   1.183  12.642  0.4084 -0.2233 -0.5386
 2424SOL    HW218906   1.729   1.201  12.573 -0.6178  0.7494 -3.5883
 2425SOL     OW18907   0.243   3.570  16.347  0.0427 -0.1987 -0.2005
 2425SOL    HW118908   0.314   3.617  16.303  0.4461 -0.7964 -0.1866
 2425SOL    HW218909   0.188   3.648  16.361  0.2075 -0.2720  0.8392
 2426SOL     OW18910   0.689   0.633  16.260 -0.7226 -0.2552  0.0513
 2426SOL    HW118911   0.624   0.573  16.298  2.5502 -3.0459  1.2427
 2426SOL    HW218912   0.668   0.627  16.167 -0.4674 -0.6032  0.0129
 2427SOL     OW18913   1.212   2.879   5.852  0.0693  0.3839  0.6730
 2427SOL    HW118914   1.262   2.897   5.931  0.6041 -1.5450  0.7671
 2427SOL    HW218915   1.147   2.814   5.879  1.7285 -0.7898  1.8286
 2428SOL     OW18916   3.011   2.240   8.806  0.4426 -0.2253 -0.2385
 2428SOL    HW118917   3.105   2.258   8.808  0.1172  1.4552  0.5651
 2428SOL    HW218918   2.994   2.266   8.716  2.2733  0.2097 -0.4580
 2429SOL     OW18919   0.723   0.026   4.322  0.2188 -0.1919 -0.0360
 2429SOL    HW118920   0.765   4.685   4.368  1.3153  0.2839 -0.2928
 2429SOL    HW218921   0.643   0.041   4.373 -0.1608 -0.6820 -0.4942
 2430SOL     OW18922   3.632   4.610   3.903  0.0507  0.3836  0.4745
 2430SOL    HW118923   3.709   4.617   3.960  0.0269 -0.4300  0.6133
 2430SOL    HW218924   3.659   4.533   3.853  0.2557 -1.7609  3.8437
 2431SOL     OW18925   0.224   4.491   5.655 -0.3898  0.5129  0.3768
 2431SOL    HW118926   0.313   4.456   5.664 -1.1548 -1.4636  0.3368
 2431SOL    HW218927   0.185   4.429   5.593 -0.5872 -0.0812  1.0874
 2432SOL     OW18928   2.821   3.082  10.750  0.2996  0.4929  0.1063
 2432SOL    HW118929   2.735   3.104  10.786 -1.2000 -2.2421 -1.8711
 2432SOL    HW218930   2.879   3.123  10.815  0.5655 -1.9909  1.4386
 2433SOL     OW18931   2.512   4.702   2.948  0.3032  0.3767 -0.1285
 2433SOL    HW118932   2.455   0.036   2.987  0.5092  0.6877 -0.3586
 2433SOL    HW218933   2.447   4.645   2.907  0.8856  0.2979 -0.9420
 2434SOL     OW18934   2.297   2.612   8.332  0.3544 -0.3914 -0.0742
 2434SOL    HW118935   2.294   2.687   8.272 -0.6346  0.6062  1.2398
 2434SOL    HW218936   2.207   2.581   8.323  0.2359  0.0449 -0.4204
 2435SOL     OW18937   1.146   3.975   5.440  0.1863 -0.7863  0.1943
 2435SOL    HW118938   1.082   3.997   5.508 -0.1883  0.5545 -0.5955
 2435SOL    HW218939   1.200   3.905   5.475  0.2924 -0.2992  1.0029
 2436SOL     OW18940   1.913   0.272   8.854  0.0572  0.7200 -0.2566
 2436SOL    HW118941   1.995   0.258   8.805 -0.4030 -0.3452 -0.7239
 2436SOL    HW218942   1.866   0.323   8.788 -0.4958 -3.2526 -2.9559
 2437SOL     OW18943   2.737   0.374   1.970  0.1438 -0.0025  0.5616
 2437SOL    HW118944   2.768   0.348   2.057  0.5070  0.8902  0.6911
 2437SOL    HW218945   2.661   0.316   1.967  0.7760 -0.6752 -2.3529
 2438SOL     OW18946   4.195   0.160   6.922 -0.3108  0.2051  0.1161
 2438SOL    HW118947   4.112   0.128   6.886 -1.7136  4.5030 -0.4609
 2438SOL    HW218948   4.176   0.117   7.006  0.4783  3.5696  2.0077
 2439SOL     OW18949   4.428   1.256   6.003 -0.0415  0.3925  0.3049
 2439SOL    HW118950   4.485   1.307   5.945 -0.2624  1.8492  1.3514
 2439SOL    HW218951   4.343   1.260   5.960  0.3498  2.4965 -0.3054
 2440SOL     OW18952   4.143   0.379   3.157 -0.0364  0.1403 -0.5164
 2440SOL    HW118953   4.184   0.392   3.242 -1.5434 -1.1130  0.3956
 2440SOL    HW218954   4.125   0.285   3.156 -0.7176  0.2711 -0.0729
 2441SOL     OW18955   4.569   2.609   9.004 -0.0938 -0.7703 -0.8549
 2441SOL    HW118956   4.570   2.634   8.911 -0.2378 -1.0700 -0.9383
 2441SOL    HW218957   4.476   2.587   9.016 -0.3501  1.8231  1.6997
 2442SOL     OW18958   1.241   3.017   5.434  0.0854 -0.1898  0.7528
 2442SOL    HW118959   1.325   3.034   5.390 -0.1636 -0.0733  0.3221
 2442SOL    HW218960   1.176   3.036   5.366 -0.8280  1.9504  2.2273
 2443SOL     OW18961   3.250   4.408   8.425  0.8791  0.1498  0.5878
 2443SOL    HW118962   3.224   4.330   8.374  2.4621 -0.1557  0.2636
 2443SOL    HW218963   3.172   4.407   8.481  2.0611  2.6792  2.2492
 2444SOL     OW18964   3.743   0.843  10.703  0.2893  0.2083 -0.4475
 2444SOL    HW118965   3.739   0.799  10.618 -1.4818 -1.7838  0.6679
 2444SOL    HW218966   3.659   0.888  10.705 -0.8762 -1.7934 -3.3515
 2445SOL     OW18967   0.571   2.662   1.486 -0.0020 -0.4407  0.6699
 2445SOL    HW118968   0.524   2.622   1.413  1.1336 -0.7484  0.0967
 2445SOL    HW218969   0.513   2.659   1.562 -1.5351  0.9438 -0.4536
 2446SOL     OW18970   0.048   1.235  16.486 -0.2607 -0.6293 -0.8408
 2446SOL    HW118971   0.029   1.259  16.395 -2.2666  1.6449  0.1894
 2446SOL    HW218972   0.011   1.147  16.484 -0.7326 -0.4562  0.3936
 2447SOL     OW18973   0.323   4.668   8.320  0.7653 -0.4731  0.1083
 2447SOL    HW118974   0.255   4.614   8.360 -0.1993 -1.7461 -3.2358
 2447SOL    HW218975   0.347   4.729   8.390 -1.6657  1.3486 -0.6245
 2448SOL     OW18976   3.051   2.639   6.637  0.5533  0.4495 -0.1849
 2448SOL    HW118977   3.063   2.732   6.656 -0.2264  0.3093  1.0115
 2448SOL    HW218978   3.049   2.629   6.542  0.1486 -2.0999  0.0954
 2449SOL     OW18979   2.073   2.412   6.903  0.4034  0.0078 -0.2797
 2449SOL    HW118980   2.153   2.392   6.952 -0.4733 -0.5262  0.9514
 2449SOL    HW218981   2.010   2.445   6.968  0.0687 -0.8529 -0.1711
 2450SOL     OW18982   2.593   0.092   6.639  0.0939  0.5763 -0.5116
 2450SOL    HW118983   2.501   0.111   6.653 -0.2485  2.5449 -5.2681
 2450SOL    HW218984   2.630   0.178   6.618 -0.7858  0.6702 -1.6749
 2451SOL     OW18985   3.105   2.173   7.018 -0.3745 -0.2551  0.4099
 2451SOL    HW118986   3.171   2.118   7.058 -1.0641 -0.9391  0.5986
 2451SOL    HW218987   3.156   2.191   6.939 -1.0835  2.4692  0.5450
 2452SOL     OW18988   0.499   1.562   7.585 -0.5980  0.3948  0.1050
 2452SOL    HW118989   0.445   1.489   7.556  0.4385 -0.3129 -0.0329
 2452SOL    HW218990   0.487   1.559   7.680 -1.4515  1.6649  0.0413
 2453SOL     OW18991   3.289   3.348   4.655  0.7086 -0.5195 -0.1381
 2453SOL    HW118992   3.368   3.390   4.689  1.7490 -0.5850 -2.5027
 2453SOL    HW218993   3.258   3.412   4.591 -0.5931  1.6434  2.6803
 2454SOL     OW18994   2.226   0.070   4.631  0.3657  0.5371 -0.2357
 2454SOL    HW118995   2.302   0.080   4.689 -0.3458 -0.4154  0.8540
 2454SOL    HW218996   2.211   4.708   4.637 -1.2072  0.6576 -2.1022
 2455SOL     OW18997   1.194   1.596   4.668 -0.4738  0.3100 -0.4438
 2455SOL    HW118998   1.246   1.667   4.632 -0.0967  0.9468  1.3586
 2455SOL    HW218999   1.194   1.619   4.761 -0.4810  0.2416 -0.4269
 2456SOL     OW19000   3.042   3.118   2.886  0.1999 -0.4027  0.2705
 2456SOL    HW119001   3.112   3.139   2.824 -2.5829  0.3263 -2.6242
 2456SOL    HW219002   3.012   3.031   2.859  1.9473 -1.0442  0.4379
 2457SOL     OW19003   4.369   0.774   2.515  0.5870 -0.0042 -0.2950
 2457SOL    HW119004   4.274   0.784   2.522  0.5814  0.4099 -0.9447
 2457SOL    HW219005   4.389   0.807   2.603  1.8158  0.6644 -0.8121
 2458SOL     OW19006   4.631   4.396   1.421  0.3330  0.2400  0.4331
 2458SOL    HW119007   4.630   4.333   1.349  0.2413  1.0284 -0.2555
 2458SOL    HW219008   4.602   4.462   1.358  2.9661 -1.8224 -2.9436
 2459SOL     OW19009   3.153   4.070   5.352 -0.2890  0.4046 -0.3711
 2459SOL    HW119010   3.190   4.129   5.287  2.4489 -2.7281 -1.6244
 2459SOL    HW219011   3.176   4.123   5.429  0.2890  1.0060 -0.9675
 2460SOL     OW19012   2.053   3.828   3.786 -0.0050  0.3133  0.4721
 2460SOL    HW119013   2.107   3.787   3.853  1.4072 -1.0119 -1.4865
 2460SOL    HW219014   2.117   3.844   3.717 -1.7949 -3.2767 -2.0725
 2461SOL     OW19015   4.275   1.549   8.115  0.3467  0.5185 -0.2563
 2461SOL    HW119016   4.352   1.598   8.085 -0.0512 -0.8314 -3.4976
 2461SOL    HW219017   4.210   1.605   8.158 -0.0759  0.8676 -1.3593
 2462SOL     OW19018   1.463   2.745   7.977  0.3730  0.5030  0.2949
 2462SOL    HW119019   1.377   2.778   8.005 -0.6372  0.6064 -2.9000
 2462SOL    HW219020   1.505   2.731   8.061 -0.1147 -1.4915  0.1971
 2463SOL     OW19021   1.824   4.430   2.627  0.0150  0.2002  0.2635
 2463SOL    HW119022   1.829   4.336   2.606  0.2856  0.3142 -0.1857
 2463SOL    HW219023   1.768   4.436   2.704  1.3589  0.3423  1.2399
 2464SOL     OW19024   4.225   4.200   4.839  0.6124 -0.3996 -0.6001
 2464SOL    HW119025   4.177   4.194   4.922 -0.5702 -0.0098 -1.2442
 2464SOL    HW219026   4.271   4.116   4.838  1.6187  0.1481  0.0507
 2465SOL     OW19027   1.940   1.039   4.137 -1.0626 -0.4048  0.0693
 2465SOL    HW119028   1.870   1.020   4.075 -0.7282 -0.6083 -0.2468
 2465SOL    HW219029   2.008   1.069   4.077 -0.7293 -1.0114  0.1452
 2466SOL     OW19030   2.456   1.500   6.011  0.1190 -0.4421  0.4367
 2466SOL    HW119031   2.478   1.449   5.933  2.2741 -1.4627  1.7151
 2466SOL    HW219032   2.371   1.539   5.990  0.5948 -0.4683 -1.5712
 2467SOL     OW19033   1.823   1.745   8.069 -0.2341  0.1408  0.4413
 2467SOL    HW119034   1.890   1.678   8.051  1.3070  1.8498 -0.1737
 2467SOL    HW219035   1.774   1.706   8.142 -1.2326  2.8437  1.2179
 2468SOL     OW19036   1.803   2.211   7.020 -0.0958 -0.2908 -0.2014
 2468SOL    HW119037   1.888   2.200   6.977  0.1729 -0.6385  0.4209
 2468SOL    HW219038   1.750   2.143   6.979  0.8885 -0.8554 -0.5319
 2469SOL     OW19039   3.196   1.803   1.357 -0.1788 -0.1854  0.1338
 2469SOL    HW119040   3.118   1.802   1.413 -0.4737 -1.7203 -0.3067
 2469SOL    HW219041   3.260   1.765   1.418  1.1681  0.5502 -0.8312
 2470SOL     OW19042   3.444   1.941   5.175  0.0326  0.6688 -0.5088
 2470SOL    HW119043   3.392   1.979   5.247  3.6873  1.2090  1.8637
 2470SOL    HW219044   3.442   2.012   5.112 -0.8978  0.7563 -0.3863
 2471SOL     OW19045   3.511   1.276   9.358 -0.4665  0.1163 -0.1047
 2471SOL    HW119046   3.511   1.356   9.410  2.2543  0.7001 -0.9562
 2471SOL    HW219047   3.515   1.316   9.271 -1.1024  1.9508  0.7035
 2472SOL     OW19048   2.591   2.376  11.506  0.0313  0.1803  0.0707
 2472SOL    HW119049   2.609   2.287  11.476 -1.9085  0.6746 -2.5453
 2472SOL    HW219050   2.647   2.425  11.446  1.3835 -2.0436 -0.4774
 2473SOL     OW19051   2.890   3.903   1.523 -0.3802  0.3161 -0.1078
 2473SOL    HW119052   2.811   3.935   1.567 -0.6149  0.6200 -0.7594
 2473SOL    HW219053   2.875   3.810   1.509  1.4402 -0.0802  0.5178
 2474SOL     OW19054   3.988   2.089   5.346  0.1131  0.0702  0.0556
 2474SOL    HW119055   3.975   2.092   5.441  1.3183 -1.5267  0.2724
 2474SOL    HW219056   3.898   2.112   5.323  0.7194  2.7315  0.3937
 2475SOL     OW19057   0.266   4.113   5.522  0.4308 -0.4893  0.2928
 2475SOL    HW119058   0.304   4.154   5.445 -1.7672  1.0982  0.0574
 2475SOL    HW219059   0.232   4.031   5.489 -1.9677  1.3463 -1.7893
 2476SOL     OW19060   0.167   1.022   5.497  0.0427  0.6097 -1.1750
 2476SOL    HW119061   0.092   0.970   5.469  3.4320 -4.3377 -1.0714
 2476SOL    HW219062   0.122   1.073   5.564  0.5937  0.4552 -0.6888
 2477SOL     OW19063   2.761   1.309  12.677  0.2515  0.1887  0.1700
 2477SOL    HW119064   2.852   1.338  12.688  0.8456 -1.3033 -0.9592
 2477SOL    HW219065   2.725   1.395  12.655 -0.9853  0.1367  1.9543
 2478SOL     OW19066   3.281   0.197   3.916 -0.3996  0.0152  0.3179
 2478SOL    HW119067   3.343   0.268   3.904 -2.0807  1.5563  0.7191
 2478SOL    HW219068   3.339   0.129   3.884 -1.3852 -0.6626 -0.0425
 2479SOL     OW19069   4.417   3.995   8.294  0.1336 -0.3552 -0.6771
 2479SOL    HW119070   4.438   4.041   8.375 -2.6445 -0.5282  0.1524
 2479SOL    HW219071   4.361   4.054   8.244  1.2621  0.7992 -0.5928
 2480SOL     OW19072   3.270   1.437   9.187 -0.3808 -0.0633 -0.5082
 2480SOL    HW119073   3.211   1.363   9.203  0.0713  0.2356  2.4560
 2480SOL    HW219074   3.337   1.385   9.141 -0.0249 -0.4405  0.4361
 2481SOL     OW19075   4.675   2.066   8.104  0.1771  0.0776  0.0929
 2481SOL    HW119076   4.643   2.104   8.022 -0.6976  1.4783  1.0906
 2481SOL    HW219077   4.717   1.984   8.080  0.2603  0.3490 -0.6929
 2482SOL     OW19078   0.835   2.435   9.767  0.4213 -0.1812 -0.2564
 2482SOL    HW119079   0.854   2.371   9.837 -0.0694 -0.9430 -0.8228
 2482SOL    HW219080   0.739   2.442   9.763  0.3745 -0.7032 -0.0732
 2483SOL     OW19081   0.385   3.257   4.060  0.3020  0.7405  0.1702
 2483SOL    HW119082   0.470   3.275   4.021  0.5074 -0.0379  0.2506
 2483SOL    HW219083   0.421   3.236   4.147  0.9976 -0.8371 -0.4938
 2484SOL     OW19084   0.763   2.133   2.104  0.7438 -0.0788  0.4548
 2484SOL    HW119085   0.814   2.117   2.183 -1.0380  0.4736  1.7124
 2484SOL    HW219086   0.835   2.128   2.042  0.6652 -2.6400  0.5931
 2485SOL     OW19087   4.595   2.967   4.009  0.0548 -0.0311  0.3716
 2485SOL    HW119088   4.683   2.983   4.042  0.3565 -1.2579  0.1563
 2485SOL    HW219089   4.550   2.939   4.089 -0.8914 -0.1937 -0.2141
 2486SOL     OW19090   1.832   2.937   8.839 -0.5054  0.1092  0.5848
 2486SOL    HW119091   1.820   3.018   8.888 -0.9544 -0.3313  1.2013
 2486SOL    HW219092   1.895   2.892   8.895  0.2931 -0.1537 -0.5259
 2487SOL     OW19093   2.728   1.371   3.576  0.0965 -0.3626  0.0876
 2487SOL    HW119094   2.652   1.367   3.635  0.3520 -1.7440  0.3167
 2487SOL    HW219095   2.724   1.295   3.518  3.2736 -0.9548  0.6594
 2488SOL     OW19096   0.624   1.645   6.961  0.3528 -0.2124  0.0352
 2488SOL    HW119097   0.580   1.600   7.034 -1.6604 -0.9594 -1.6438
 2488SOL    HW219098   0.694   1.588   6.930  0.2535  0.0916 -0.7365
 2489SOL     OW19099   2.032   2.042  15.193 -0.1216  0.7627 -0.3305
 2489SOL    HW119100   1.989   2.070  15.112  1.4761 -0.6033 -1.6619
 2489SOL    HW219101   2.105   2.105  15.197 -0.4368  0.9842  1.7518
 2490SOL     OW19102   1.814   1.478   8.122 -0.5817  0.2758  0.1603
 2490SOL    HW119103   1.907   1.462   8.108 -0.4239  0.6021  0.8301
 2490SOL    HW219104   1.793   1.439   8.037 -0.7487 -0.8605  0.7274
 2491SOL     OW19105   4.109   2.875  17.339 -0.1789  0.3028 -0.6613
 2491SOL    HW119106   4.160   2.795  17.342  0.5539  0.8039  0.1577
 2491SOL    HW219107   4.078   2.869  17.248 -0.8209 -1.6082 -0.3101
 2492SOL     OW19108   1.205   0.820   0.967 -0.7244  0.6128 -0.0691
 2492SOL    HW119109   1.253   0.772   1.035  0.6190 -1.1735 -2.2773
 2492SOL    HW219110   1.124   0.768   0.972  0.5192 -1.4052 -0.9044
 2493SOL     OW19111   1.527   4.556   5.966 -0.0681  0.0036 -0.2274
 2493SOL    HW119112   1.525   4.606   5.885  0.2267 -0.1405 -0.3238
 2493SOL    HW219113   1.587   4.482   5.954  1.9756  1.5143  0.6544
 2494SOL     OW19114   0.849   4.728   9.023 -0.3402 -0.3856  0.1551
 2494SOL    HW119115   0.899   4.647   9.034  1.7004  0.7626 -0.7191
 2494SOL    HW219116   0.894   0.062   9.075 -0.6629 -0.0351 -0.0122
 2495SOL     OW19117   0.460   4.046  17.234  0.2738 -0.3713 -0.1610
 2495SOL    HW119118   0.446   4.122  17.292  2.6873 -1.4039  1.7727
 2495SOL    HW219119   0.382   4.043  17.179 -0.7201  0.2416  1.2065
 2496SOL     OW19120   3.158   4.502   5.143 -0.0695 -0.2563 -1.2729
 2496SOL    HW119121   3.154   4.594   5.168 -1.3291 -1.2768  2.3280
 2496SOL    HW219122   3.239   4.506   5.093 -0.5104  1.4056 -1.8724
 2497SOL     OW19123   1.333   1.687   3.973  0.4776 -0.5703 -0.3797
 2497SOL    HW119124   1.267   1.668   3.906  0.2411  0.1594 -0.3454
 2497SOL    HW219125   1.421   1.662   3.944  0.1173 -0.6279 -1.4266
 2498SOL     OW19126   2.234   0.940   3.817  0.1059  0.3790 -0.0395
 2498SOL    HW119127   2.217   0.850   3.790 -0.5523  1.2511 -2.5806
 2498SOL    HW219128   2.311   0.920   3.870  1.3720 -0.1556 -2.0742
 2499SOL     OW19129   0.137   2.507   6.242  0.1499  0.2857  0.2304
 2499SOL    HW119130   0.172   2.569   6.306 -0.8411  1.6599 -0.5622
 2499SOL    HW219131   0.172   2.538   6.159  0.9046  2.6972  1.4417
 2500SOL     OW19132   1.618   0.400   8.999 -0.1456  0.4893  0.2307
 2500SOL    HW119133   1.549   0.466   8.994  0.9514  1.6135  0.0144
 2500SOL    HW219134   1.696   0.455   8.992 -0.3654  0.6984 -0.6211
 2501SOL     OW19135   2.328   1.965   2.379  0.1502 -0.5200 -0.6202
 2501SOL    HW119136   2.305   1.872   2.390  1.0037 -0.4305  1.8794
 2501SOL    HW219137   2.276   1.981   2.301 -1.1847 -0.6410  0.2480
 2502SOL     OW19138   2.834   3.305   1.525  0.1305  0.2394  0.3890
 2502SOL    HW119139   2.739   3.307   1.541  0.3636 -0.4835  1.8770
 2502SOL    HW219140   2.841   3.365   1.452  0.5323 -1.3862 -0.9155
 2503SOL     OW19141   4.446   3.230   0.883  0.3801  0.1104  0.0922
 2503SOL    HW119142   4.449   3.142   0.921  0.5551  0.8726  1.8353
 2503SOL    HW219143   4.540   3.249   0.878  0.5948 -0.6521  1.0760
 2504SOL     OW19144   1.227   1.885  14.788 -0.3048 -0.3272 -0.4087
 2504SOL    HW119145   1.139   1.866  14.756 -0.2834  1.6444 -1.5690
 2504SOL    HW219146   1.215   1.971  14.828 -0.4198 -0.5313  0.0017
 2505SOL     OW19147   2.855   3.505  12.880 -0.1320 -0.3165 -0.3182
 2505SOL    HW119148   2.832   3.597  12.893 -2.4437 -1.1866  1.6779
 2505SOL    HW219149   2.847   3.487  12.786  0.5354 -4.4037  0.4215
 2506SOL     OW19150   2.742   4.450   6.743 -0.0477  0.7037  0.0002
 2506SOL    HW119151   2.727   4.390   6.816  1.8076  1.0028  0.6229
 2506SOL    HW219152   2.788   4.397   6.677 -1.0686 -0.7948  0.5007
 2507SOL     OW19153   1.868   4.033   7.153 -0.0119 -0.1886 -0.0786
 2507SOL    HW119154   1.939   3.989   7.107 -1.1923 -2.6572  0.4776
 2507SOL    HW219155   1.932   4.094   7.190  1.0665 -0.8681 -0.8125
 2508SOL     OW19156   3.353   0.462   1.467  0.0512 -0.4823  0.1656
 2508SOL    HW119157   3.317   0.374   1.472  0.6183 -0.5521  3.3868
 2508SOL    HW219158   3.333   0.491   1.378 -1.6811 -1.3681  0.2865
 2509SOL     OW19159   1.108   4.003   8.875  0.5821  0.1185 -0.2195
 2509SOL    HW119160   1.081   4.054   8.951 -0.0480 -2.7111  1.4884
 2509SOL    HW219161   1.043   4.043   8.817  0.6462 -0.6626 -0.8386
 2510SOL     OW19162   1.857   3.959   2.061 -0.5548 -0.0852 -0.5127
 2510SOL    HW119163   1.798   3.916   1.998 -0.1130  0.7827 -1.5111
 2510SOL    HW219164   1.938   3.939   2.016  0.5797 -0.1676  1.5526
 2511SOL     OW19165   0.040   3.355  16.344 -0.0233  0.3357  0.3717
 2511SOL    HW119166   0.083   3.435  16.314 -2.1013  1.3199  0.0245
 2511SOL    HW219167   0.119   3.308  16.369 -0.1456 -0.0958 -0.0434
 2512SOL     OW19168   4.338   0.371  14.266  0.1802 -0.0220 -0.1447
 2512SOL    HW119169   4.412   0.414  14.310  1.1458 -1.7414 -0.0933
 2512SOL    HW219170   4.337   0.414  14.181 -0.7485 -0.7621 -0.5066
 2513SOL     OW19171   1.037   4.301   4.338  0.5081  0.3550  0.0669
 2513SOL    HW119172   1.058   4.271   4.427  0.9175  0.6558  0.0723
 2513SOL    HW219173   1.112   4.266   4.290  0.6415 -0.0308  0.5487
 2514SOL     OW19174   2.642   0.353  12.980 -0.6004 -0.4139  0.7269
 2514SOL    HW119175   2.660   0.446  12.992  2.5144 -0.5958 -2.3240
 2514SOL    HW219176   2.599   0.356  12.895 -2.0168 -0.2190  1.4601
 2515SOL     OW19177   4.100   2.637  10.788 -0.5436 -0.5215  0.3661
 2515SOL    HW119178   4.145   2.556  10.812 -0.5894 -0.1272  1.7999
 2515SOL    HW219179   4.177   2.679  10.751 -0.0759  0.3379  2.3175
 2516SOL     OW19180   3.588   3.009  10.525 -0.3312 -0.2418 -0.3941
 2516SOL    HW119181   3.653   2.955  10.571 -1.2003 -0.3802  0.6806
 2516SOL    HW219182   3.507   2.962  10.546 -0.5147 -0.5296 -1.7693
 2517SOL     OW19183   3.283   1.458  13.445  0.6208 -0.1435  0.3467
 2517SOL    HW119184   3.314   1.547  13.428 -1.7405  0.6391  0.1280
 2517SOL    HW219185   3.371   1.421  13.432  0.2246 -0.3779 -1.7038
 2518SOL     OW19186   1.264   4.720  17.051  0.2404 -0.5051 -0.0954
 2518SOL    HW119187   1.214   4.703  17.131 -2.1418 -3.0215 -2.1101
 2518SOL    HW219188   1.222   0.069  17.021  2.2196  1.2627  1.8388
 2519SOL     OW19189   1.646   4.724   6.212 -0.4459  0.5608 -0.6288
 2519SOL    HW119190   1.552   4.708   6.205 -0.4434  1.1318 -1.8536
 2519SOL    HW219191   1.680   4.635   6.218 -0.8561  0.4329 -0.2141
 2520SOL     OW19192   2.037   2.309  14.960  0.0127  0.0668 -0.5980
 2520SOL    HW119193   2.031   2.404  14.971  0.7517  0.2793 -2.0000
 2520SOL    HW219194   2.104   2.281  15.022 -0.3140 -0.9653 -0.7034
 2521SOL     OW19195   1.515   2.562   3.105 -0.2535  0.4598  0.2084
 2521SOL    HW119196   1.545   2.484   3.059  1.4524 -0.0853  2.1971
 2521SOL    HW219197   1.558   2.629   3.052  1.7123 -0.2918  0.8423
 2522SOL     OW19198   2.677   3.790   2.221  0.4636 -0.3050  0.0488
 2522SOL    HW119199   2.603   3.847   2.241  0.3609 -0.2966 -0.3667
 2522SOL    HW219200   2.749   3.852   2.235  0.8164 -0.7181  0.0639
 2523SOL     OW19201   1.547   0.828   2.576  0.2061  0.3022  0.9273
 2523SOL    HW119202   1.469   0.773   2.585  1.2943 -1.3887 -0.1386
 2523SOL    HW219203   1.559   0.872   2.660 -2.1899 -1.3736  2.1463
 2524SOL     OW19204   3.067   3.678  12.277 -0.2957 -0.7207 -0.5384
 2524SOL    HW119205   3.133   3.640  12.334  0.5108  1.6214  0.0741
 2524SOL    HW219206   3.134   3.728  12.231  1.2757 -1.9816  0.3773
 2525SOL     OW19207   3.956   0.056   9.200  0.4007 -0.3194 -0.3885
 2525SOL    HW119208   3.895   0.068   9.127  2.5980 -0.8646 -2.3270
 2525SOL    HW219209   4.004   0.139   9.200  0.9174 -0.6157  1.0434
 2526SOL     OW19210   3.142   3.630   2.892 -0.2721 -0.5601 -0.1646
 2526SOL    HW119211   3.141   3.534   2.893 -0.7713 -0.5505  3.2819
 2526SOL    HW219212   3.053   3.649   2.922 -0.5859 -1.5085 -0.5078
 2527SOL     OW19213   3.303   1.041   6.880 -0.4167  0.1038 -0.1486
 2527SOL    HW119214   3.387   1.084   6.865 -0.3787 -0.4210 -1.4686
 2527SOL    HW219215   3.278   0.998   6.798  0.5154  1.3153 -1.0725
 2528SOL     OW19216   3.520   2.774   8.288 -0.3491 -0.6500 -0.0562
 2528SOL    HW119217   3.451   2.766   8.354 -1.3927 -0.1376 -1.0724
 2528SOL    HW219218   3.519   2.688   8.245  1.0057 -0.3277 -0.7365
 2529SOL     OW19219   0.348   4.707  17.116  0.0727 -0.2131 -0.4639
 2529SOL    HW119220   0.279   0.024  17.160  1.5471  0.2029  1.3695
 2529SOL    HW219221   0.390   0.050  17.072 -0.4035 -0.6231 -1.6191
 2530SOL     OW19222   2.571   1.660   7.418  0.1317  0.0325 -0.0185
 2530SOL    HW119223   2.624   1.616   7.351  0.3873  0.8533 -0.3587
 2530SOL    HW219224   2.609   1.744   7.394  1.1214  0.3924  2.8588
 2531SOL     OW19225   2.512   3.546   1.745 -0.2573  0.1870 -0.4377
 2531SOL    HW119226   2.545   3.530   1.833 -0.4394 -2.1020 -0.7960
 2531SOL    HW219227   2.465   3.629   1.756 -2.2612 -1.2060  1.5801
 2532SOL     OW19228   0.143   1.865  15.730  0.3138  0.1283 -0.1827
 2532SOL    HW119229   0.225   1.819  15.709 -0.5568 -1.2920 -0.4749
 2532SOL    HW219230   0.100   1.811  15.795 -2.2295  0.7118 -1.3981
 2533SOL     OW19231   0.817   0.142   8.170  0.1475 -0.5894  0.2799
 2533SOL    HW119232   0.750   0.207   8.151  0.1510 -0.5342  0.4555
 2533SOL    HW219233   0.800   0.126   8.262  1.6173 -0.0546  0.6489
 2534SOL     OW19234   2.305   0.770   5.109  0.3762  0.0168 -0.5966
 2534SOL    HW119235   2.306   0.859   5.073  0.6078  0.4497  0.4875
 2534SOL    HW219236   2.372   0.776   5.177 -0.6930  1.2843  0.3392
 2535SOL     OW19237   2.818   1.006   8.829 -0.1458 -0.2617 -0.0980
 2535SOL    HW119238   2.911   1.019   8.845  0.3212  0.3115 -3.2897
 2535SOL    HW219239   2.784   1.095   8.829 -1.0121 -0.5859  0.3112
 2536SOL     OW19240   2.008   3.257   5.728  0.6530 -0.3140  0.2907
 2536SOL    HW119241   1.966   3.213   5.654  1.3774  2.0591 -1.5387
 2536SOL    HW219242   2.097   3.282   5.703  0.3783  0.4170  0.0191
 2537SOL     OW19243   3.820   1.979   9.616 -0.0599  0.3531  0.2937
 2537SOL    HW119244   3.784   2.001   9.530 -0.4718 -4.4724 -0.7833
 2537SOL    HW219245   3.749   1.949   9.673  0.7326 -2.2645 -0.0912
 2538SOL     OW19246   0.665   0.709  15.210  0.5542 -0.7659 -0.4576
 2538SOL    HW119247   0.652   0.662  15.127 -0.2799 -1.1541 -0.1068
 2538SOL    HW219248   0.707   0.784  15.168  0.9984 -0.8174 -0.1099
 2539SOL     OW19249   0.591   4.406   6.210  0.0945 -0.3011 -0.1098
 2539SOL    HW119250   0.606   4.478   6.149  0.8235  1.3726  2.0085
 2539SOL    HW219251   0.575   4.330   6.155  0.1138 -1.5057  1.5520
 2540SOL     OW19252   0.293   1.483  15.646 -0.3962  0.2004 -0.3384
 2540SOL    HW119253   0.294   1.491  15.741 -0.0388 -0.4578 -0.2857
 2540SOL    HW219254   0.292   1.578  15.634  1.1308 -0.2190 -3.8176
 2541SOL     OW19255   1.632   2.888   8.671  0.1767 -0.3421 -0.6038
 2541SOL    HW119256   1.690   2.924   8.738 -1.5551  1.0218  0.1881
 2541SOL    HW219257   1.594   2.813   8.717 -0.3711  1.1120  1.3023
 2542SOL     OW19258   1.288   3.773  15.957 -0.8161 -0.3652 -0.0460
 2542SOL    HW119259   1.240   3.758  16.038  0.3269 -2.5035  0.2230
 2542SOL    HW219260   1.209   3.779  15.903 -0.6869  0.2106 -0.1716
 2543SOL     OW19261   0.588   1.085  12.223 -0.2532 -0.7158 -0.2034
 2543SOL    HW119262   0.668   1.047  12.184 -0.2282 -1.1202  0.2381
 2543SOL    HW219263   0.519   1.043  12.171 -1.3641  0.1663  0.5684
 2544SOL     OW19264   0.476   4.330   7.426  0.0202  0.2238 -0.1646
 2544SOL    HW119265   0.415   4.256   7.423 -0.4456  0.7460 -2.8257
 2544SOL    HW219266   0.473   4.362   7.336 -1.4700  0.9279  0.1405
 2545SOL     OW19267   1.848   0.641   5.616 -0.0961  0.3634  0.3615
 2545SOL    HW119268   1.822   0.594   5.695 -1.5700  0.1841 -0.2222
 2545SOL    HW219269   1.766   0.667   5.573  1.5132  0.7148 -2.4624
 2546SOL     OW19270   4.288   0.008   9.293  0.2657 -0.0550 -0.5075
 2546SOL    HW119271   4.369   4.722   9.342  0.3273 -1.1655 -1.0256
 2546SOL    HW219272   4.267   0.102   9.294  0.7599  0.0638 -1.3357
 2547SOL     OW19273   0.978   1.152   8.878 -0.0202 -0.2411  0.1747
 2547SOL    HW119274   0.961   1.226   8.936 -1.4731  0.1403 -0.7400
 2547SOL    HW219275   0.898   1.144   8.827  0.2165  0.2210 -0.2597
 2548SOL     OW19276   3.966   1.193   0.407 -0.4426 -0.3222  0.6212
 2548SOL    HW119277   4.013   1.118   0.442  0.6015 -0.3459 -0.8396
 2548SOL    HW219278   3.957   1.256   0.479  1.5141 -1.1262  1.5654
 2549SOL     OW19279   1.806   0.546   7.476 -0.3888  0.1552  0.2871
 2549SOL    HW119280   1.868   0.604   7.522  1.6485 -1.4313 -0.4332
 2549SOL    HW219281   1.721   0.560   7.517 -1.1599 -0.4915 -1.1098
 2550SOL     OW19282   3.274   0.504  12.630 -0.1263  0.0977 -0.2720
 2550SOL    HW119283   3.230   0.487  12.546 -2.5161  1.4004  0.7220
 2550SOL    HW219284   3.213   0.480  12.700  0.3710 -2.2311 -0.6121
 2551SOL     OW19285   0.598   0.454   3.090  0.0886  0.4389  0.6030
 2551SOL    HW119286   0.646   0.523   3.045  1.7816 -1.0125  0.1858
 2551SOL    HW219287   0.652   0.376   3.074  0.2414  0.3861  1.3515
 2552SOL     OW19288   2.534   4.538  11.907 -0.4778  0.0212 -0.6770
 2552SOL    HW119289   2.448   4.532  11.948 -0.2738 -0.3507 -0.3051
 2552SOL    HW219290   2.541   4.451  11.869  2.6048  0.0823 -0.2800
 2553SOL     OW19291   4.239   4.615   9.924 -0.5925  0.5415  0.1152
 2553SOL    HW119292   4.286   4.656   9.996 -0.7543  2.1538 -0.6961
 2553SOL    HW219293   4.156   4.618   9.972 -1.3344  2.1129 -1.2518
 2554SOL     OW19294   1.996   3.846   0.271  0.0790  0.8088 -0.2756
 2554SOL    HW119295   2.074   3.831   0.218  0.7573  1.3832  0.5761
 2554SOL    HW219296   2.043   3.845   0.354 -0.1275  1.8953 -0.1356
 2555SOL     OW19297   4.330   0.506  12.375 -0.3584 -0.3462 -0.3017
 2555SOL    HW119298   4.377   0.427  12.401  1.1487  0.6907  0.1187
 2555SOL    HW219299   4.239   0.481  12.390 -0.4768 -0.2224 -0.8051
 2556SOL     OW19300   3.723   4.642  11.926 -0.3544 -0.0382  0.3586
 2556SOL    HW119301   3.749   4.550  11.936  1.1861  0.1621 -1.7681
 2556SOL    HW219302   3.724   4.684  12.012  0.1918  0.7320 -0.0305
 2557SOL     OW19303   4.105   3.208   9.110 -0.0513 -0.1807  0.1085
 2557SOL    HW119304   4.168   3.248   9.050  0.5772 -1.6443 -0.2020
 2557SOL    HW219305   4.081   3.286   9.160  0.9009  0.4359 -0.3892
 2558SOL     OW19306   1.119   1.810   8.917 -0.0854  0.0807  0.2724
 2558SOL    HW119307   1.212   1.792   8.904  0.3108  0.8979  2.0188
 2558SOL    HW219308   1.116   1.900   8.949  1.2051 -0.5202  2.0409
 2559SOL     OW19309   2.993   1.076   6.761 -0.0315  0.3307 -0.4285
 2559SOL    HW119310   3.077   1.038   6.735  1.5217  2.2665  1.7150
 2559SOL    HW219311   2.933   1.003   6.775  1.0734 -0.6872 -0.9714
 2560SOL     OW19312   2.951   2.419   2.078  0.2368 -0.1222  0.1133
 2560SOL    HW119313   2.859   2.425   2.053  0.3823  1.5662  0.0130
 2560SOL    HW219314   2.959   2.332   2.117  1.2931 -0.2410 -0.3705
 2561SOL     OW19315   2.320   3.441   5.198  0.1345  0.6182  0.3427
 2561SOL    HW119316   2.311   3.405   5.109  4.0648 -0.2173  0.3013
 2561SOL    HW219317   2.321   3.534   5.176  0.4453  0.4734 -0.2643
 2562SOL     OW19318   3.774   0.938  10.286 -0.5511  0.0708  0.4134
 2562SOL    HW119319   3.774   0.862  10.345 -0.0866  0.3489  0.7719
 2562SOL    HW219320   3.681   0.942  10.263 -0.5745  0.2831  0.5510
 2563SOL     OW19321   2.602   2.987   4.102 -0.6830 -0.3882 -0.2565
 2563SOL    HW119322   2.646   3.072   4.106  0.1292 -0.8614  1.0141
 2563SOL    HW219323   2.516   3.012   4.070  0.0267  2.6116  0.1423
 2564SOL     OW19324   2.550   3.715   7.526  0.0079 -0.4195  0.7202
 2564SOL    HW119325   2.582   3.777   7.461  1.4392 -1.1469  0.7244
 2564SOL    HW219326   2.543   3.645   7.461 -0.8189  0.2591  0.0783
 2565SOL     OW19327   3.071   1.527   4.864  0.1247 -0.7321 -0.4272
 2565SOL    HW119328   3.158   1.512   4.826  0.2756 -2.0982  0.4322
 2565SOL    HW219329   3.029   1.566   4.787 -0.9718  0.6236  0.8705
 2566SOL     OW19330   1.243   1.100   7.917  0.1285  0.1229 -0.3305
 2566SOL    HW119331   1.238   1.124   7.824  0.1602 -3.1857 -1.2142
 2566SOL    HW219332   1.317   1.153   7.945 -0.2133  1.2313 -1.5506
 2567SOL     OW19333   1.904   4.675   9.133 -0.0867  0.6716 -0.6053
 2567SOL    HW119334   1.831   4.613   9.140  0.2739  0.3901  0.7066
 2567SOL    HW219335   1.857   0.025   9.115  1.3004  1.7125  0.4182
 2568SOL     OW19336   1.448   2.318  12.181 -0.2495  0.2766 -0.4451
 2568SOL    HW119337   1.429   2.341  12.272 -2.5554  0.0716 -0.8705
 2568SOL    HW219338   1.522   2.257  12.182 -1.1103 -0.7492  1.1635
 2569SOL     OW19339   0.154   3.935  12.590  0.1590 -0.1711  0.5276
 2569SOL    HW119340   0.234   3.978  12.563  0.5163 -1.6676 -0.8061
 2569SOL    HW219341   0.198   3.854  12.616  0.5459 -0.3635 -0.6917
 2570SOL     OW19342   3.483   3.972   8.355  0.6264 -0.0680  0.0965
 2570SOL    HW119343   3.452   3.997   8.268 -0.2027  0.5521  0.5588
 2570SOL    HW219344   3.469   3.877   8.361 -3.0437  0.3671 -1.2085
 2571SOL     OW19345   1.008   3.296  17.295 -0.3095  0.0918 -0.4307
 2571SOL    HW119346   1.058   3.352  17.236  2.6342 -1.0299  1.0253
 2571SOL    HW219347   0.943   3.278  17.227 -1.1683  0.0263  0.4139
 2572SOL     OW19348   2.902   0.487   9.126  0.1844 -0.0104  0.5911
 2572SOL    HW119349   2.837   0.443   9.070  1.0798 -0.0242 -0.4295
 2572SOL    HW219350   2.984   0.462   9.085  0.4411 -0.4747  1.3949
 2573SOL     OW19351   1.434   3.204   4.371  0.2388 -0.1712  0.2533
 2573SOL    HW119352   1.343   3.233   4.363 -0.0493 -0.8683  0.9370
 2573SOL    HW219353   1.409   3.114   4.348 -0.8742 -0.1172  1.2170
 2574SOL     OW19354   4.580   2.629   4.714  0.5762  0.0125  0.2163
 2574SOL    HW119355   4.526   2.560   4.753 -0.9477  0.4211 -1.1575
 2574SOL    HW219356   4.589   2.590   4.626  0.2365  0.8858 -0.2055
 2575SOL     OW19357   3.921   0.493   4.425 -0.2331  0.4650 -0.0593
 2575SOL    HW119358   3.998   0.508   4.479 -0.1320 -0.9198  0.1828
 2575SOL    HW219359   3.867   0.459   4.496  0.1245  0.0104 -0.0048
 2576SOL     OW19360   3.960   1.925   4.104  0.4490  0.0563  0.4254
 2576SOL    HW119361   4.017   1.901   4.177  0.7156 -0.1618  0.1455
 2576SOL    HW219362   3.916   2.005   4.132 -0.5226  0.0919 -1.2146
 2577SOL     OW19363   4.696   3.587   1.061 -0.1915 -0.7651  0.7406
 2577SOL    HW119364   0.054   3.584   1.028 -0.3281 -1.4155  0.4279
 2577SOL    HW219365   4.692   3.496   1.091  1.3291 -0.8880  0.5837
 2578SOL     OW19366   1.137   4.403   3.200 -0.3758 -0.0959  0.0520
 2578SOL    HW119367   1.146   4.445   3.285 -0.5233 -0.0636  0.0523
 2578SOL    HW219368   1.227   4.415   3.169 -0.5285 -2.2204 -1.2683
 2579SOL     OW19369   2.035   1.739   5.209 -0.4586  0.0127 -0.3470
 2579SOL    HW119370   2.107   1.799   5.190  0.1019 -0.4827  0.2089
 2579SOL    HW219371   1.989   1.738   5.125 -0.3460  1.4022 -0.4216
 2580SOL     OW19372   2.748   0.869  12.756 -0.4411 -0.0059 -0.4884
 2580SOL    HW119373   2.761   0.947  12.702 -0.5752 -1.9988 -3.3897
 2580SOL    HW219374   2.702   0.919  12.823 -0.8274 -1.9631  0.7164
 2581SOL     OW19375   0.148   2.144  15.432  0.3570  0.0725 -0.5512
 2581SOL    HW119376   0.085   2.125  15.362  2.8996 -0.3967 -2.7168
 2581SOL    HW219377   0.096   2.108  15.504  1.7910 -0.9346 -0.0232
 2582SOL     OW19378   3.252   3.109   6.929 -0.0721 -0.3414 -0.2369
 2582SOL    HW119379   3.281   3.200   6.928 -1.5317  0.1325  0.4380
 2582SOL    HW219380   3.317   3.075   6.868 -0.1963  0.8391 -1.0258
 2583SOL     OW19381   2.038   3.076   4.674 -0.2493  0.2411 -0.4283
 2583SOL    HW119382   2.069   3.161   4.640  1.0513 -0.0908 -0.0759
 2583SOL    HW219383   1.988   3.043   4.599 -1.2724  0.2716  0.2540
 2584SOL     OW19384   0.205   2.911   3.704  0.4156 -0.0811  0.2457
 2584SOL    HW119385   0.131   2.853   3.691  0.3592  0.4900 -2.0010
 2584SOL    HW219386   0.151   2.990   3.699  0.7546  0.1920  0.8504
 2585SOL     OW19387   3.875   1.258   4.613  0.5070  0.2699 -0.1136
 2585SOL    HW119388   3.795   1.262   4.562 -0.3030  1.6287  1.2778
 2585SOL    HW219389   3.839   1.226   4.695 -0.5701 -3.8188 -2.1907
 2586SOL     OW19390   2.396   0.584  12.845  0.6820  0.3947  0.2560
 2586SOL    HW119391   2.420   0.583  12.752  0.3347 -0.6428  0.1791
 2586SOL    HW219392   2.397   0.674  12.876 -1.5876  0.4024  0.2461
 2587SOL     OW19393   2.453   0.218   7.110 -0.2538 -0.0679  0.3426
 2587SOL    HW119394   2.431   0.127   7.090  1.4901 -0.4945  0.3166
 2587SOL    HW219395   2.428   0.217   7.203  0.8003  0.2341  0.6358
 2588SOL     OW19396   3.276   4.385   6.602 -0.2537 -0.4473  0.1658
 2588SOL    HW119397   3.228   4.466   6.581  0.7387  0.1083  0.0326
 2588SOL    HW219398   3.215   4.335   6.655 -0.0044  0.1457  1.0171
 2589SOL     OW19399   0.852   3.310   7.627  0.4528 -0.3381  0.1948
 2589SOL    HW119400   0.909   3.287   7.701  1.2869  1.8374  0.2190
 2589SOL    HW219401   0.847   3.402   7.652 -0.6207 -0.9399  2.1677
 2590SOL     OW19402   1.250   0.107  10.681 -0.1894 -0.1902  0.0709
 2590SOL    HW119403   1.309   0.054  10.734  1.4270  1.7445  0.1574
 2590SOL    HW219404   1.186   0.137  10.746  1.0236  1.8881  0.2967
 2591SOL     OW19405   2.145   0.318   2.165  0.3848 -1.3153 -0.4039
 2591SOL    HW119406   2.228   0.363   2.150 -0.4587  0.1739 -0.6437
 2591SOL    HW219407   2.168   0.257   2.235 -0.9667  1.0826  2.1180
 2592SOL     OW19408   2.489   1.033   8.774 -0.2433 -0.0812 -0.1154
 2592SOL    HW119409   2.550   1.081   8.718  0.6997  0.6367  1.5508
 2592SOL    HW219410   2.533   0.948   8.767 -0.3376 -0.1785  0.5071
 2593SOL     OW19411   4.594   4.706   4.228 -0.0278  0.7533  0.4106
 2593SOL    HW119412   4.627   0.045   4.172 -0.0176  0.1553 -0.3374
 2593SOL    HW219413   4.510   0.012   4.252 -0.6738  0.2381 -1.0249
 2594SOL     OW19414   2.732   0.060   8.840  0.5275 -0.0268 -0.0674
 2594SOL    HW119415   2.732   4.713   8.894 -0.8250 -0.4435 -0.6928
 2594SOL    HW219416   2.825   0.058   8.818  1.0730 -0.0683  2.2379
 2595SOL     OW19417   3.767   2.265   7.427 -0.0791 -0.5798 -0.6014
 2595SOL    HW119418   3.739   2.340   7.479  2.1856 -0.5905  0.6550
 2595SOL    HW219419   3.694   2.203   7.423 -1.2604  0.8500 -0.8595
 2596SOL     OW19420   4.393   0.782   6.459  0.1203 -0.7452  0.1040
 2596SOL    HW119421   4.459   0.851   6.464  2.5270 -3.1214  0.3044
 2596SOL    HW219422   4.440   0.707   6.493  0.1760 -1.8305 -2.4046
 2597SOL     OW19423   1.460   0.517   4.283  0.0124  0.2807 -0.3078
 2597SOL    HW119424   1.370   0.542   4.302 -0.0104  0.7276 -1.0016
 2597SOL    HW219425   1.508   0.554   4.357  1.0489  0.5941 -1.1246
 2598SOL     OW19426   1.992   0.073   7.405 -0.4164  0.0831  0.6549
 2598SOL    HW119427   2.009   0.061   7.311  3.9777 -0.7649  1.5650
 2598SOL    HW219428   2.025   0.163   7.413 -1.3487  0.4735  0.1572
 2599SOL     OW19429   1.502   0.935   1.463  0.0029  0.5074 -0.3528
 2599SOL    HW119430   1.470   0.899   1.546  1.7186 -0.4946 -0.1144
 2599SOL    HW219431   1.525   1.024   1.489 -0.8419  0.3946  0.7936
 2600SOL     OW19432   4.448   0.863   9.364  0.8580 -0.1415  0.3714
 2600SOL    HW119433   4.407   0.806   9.299  2.9632 -1.4956  0.2383
 2600SOL    HW219434   4.522   0.886   9.308  2.5830 -0.1566  2.6388
 2601SOL     OW19435   1.307   4.375   2.072  0.7273 -0.0111 -0.2085
 2601SOL    HW119436   1.252   4.328   2.135 -0.8281  1.6490 -0.3232
 2601SOL    HW219437   1.332   4.307   2.008  0.0432  0.9723 -1.5152
 2602SOL     OW19438   1.607   0.954   8.380 -0.2948 -0.3419 -0.5126
 2602SOL    HW119439   1.648   0.927   8.463 -0.9316 -0.5901 -0.2767
 2602SOL    HW219440   1.560   1.035   8.398  1.1543  0.5853 -0.9389
 2603SOL     OW19441   3.380   4.135   2.614  0.0869  0.4076 -0.2278
 2603SOL    HW119442   3.465   4.117   2.574  0.1180 -0.2624  0.1397
 2603SOL    HW219443   3.373   4.229   2.599  3.2358  0.6415 -0.1140
 2604SOL     OW19444   1.935   1.642  11.468  0.6117  0.4312 -0.0171
 2604SOL    HW119445   2.001   1.669  11.533  1.7335 -0.9888 -0.5601
 2604SOL    HW219446   1.988   1.656  11.390  1.4205  0.9312  0.6127
 2605SOL     OW19447   0.480   0.295   1.301 -0.6439 -0.0721  0.0632
 2605SOL    HW119448   0.484   0.205   1.333  0.5566  0.5173  1.5817
 2605SOL    HW219449   0.539   0.294   1.226 -2.3364  1.7502 -1.2652
 2606SOL     OW19450   3.152   1.471   6.594 -0.2168 -0.1526 -0.2414
 2606SOL    HW119451   3.119   1.540   6.536  0.3468  0.9939  0.8189
 2606SOL    HW219452   3.242   1.497   6.608 -0.9260  0.9850  2.2326
 2607SOL     OW19453   1.375   2.373  12.441 -0.3895  0.3370 -0.3227
 2607SOL    HW119454   1.312   2.319  12.489 -1.3943  1.4914 -0.3280
 2607SOL    HW219455   1.438   2.400  12.509 -1.0441 -0.4094  0.5719
 2608SOL     OW19456   2.334   4.365   8.827 -0.2632  0.0233 -0.0635
 2608SOL    HW119457   2.270   4.381   8.897 -0.6126  0.5462 -0.4949
 2608SOL    HW219458   2.320   4.427   8.755  0.0804  0.9618  0.6726
 2609SOL     OW19459   0.364   2.582   0.238  0.1725 -0.2339  0.1061
 2609SOL    HW119460   0.347   2.661   0.186  1.3438 -0.5311 -0.7361
 2609SOL    HW219461   0.284   2.572   0.291 -0.9325 -1.1052 -1.6956
 2610SOL     OW19462   1.776   3.840   3.816 -0.0034  0.0682  0.2790
 2610SOL    HW119463   1.721   3.909   3.779 -0.5147 -0.1162  0.7013
 2610SOL    HW219464   1.850   3.837   3.756 -1.6698  0.8768 -1.8098
 2611SOL     OW19465   1.586   3.383   4.530  0.2199  0.4492  0.1961
 2611SOL    HW119466   1.540   3.301   4.512 -0.8304  1.0233  0.1973
 2611SOL    HW219467   1.551   3.448   4.469  0.0336  0.4904  0.3453
 2612SOL     OW19468   4.329   3.037  13.773 -0.6684  0.6543 -0.0634
 2612SOL    HW119469   4.375   3.121  13.769 -2.8849  1.8802  0.3240
 2612SOL    HW219470   4.367   2.992  13.848 -0.3410  1.3867  0.2139
 2613SOL     OW19471   1.336   4.172   8.083  0.1604  0.0372  0.0167
 2613SOL    HW119472   1.347   4.259   8.044  1.6931  0.1623  0.7287
 2613SOL    HW219473   1.274   4.187   8.154  0.5859 -0.3427  0.4639
 2614SOL     OW19474   4.587   3.315   5.883  0.3591 -0.7034  0.1327
 2614SOL    HW119475   4.628   3.230   5.869 -0.5058 -1.2119  0.7683
 2614SOL    HW219476   4.564   3.333   5.791 -0.7946 -2.8358  0.0176
 2615SOL     OW19477   3.061   1.229   0.977 -0.0254 -0.0368 -0.1268
 2615SOL    HW119478   3.010   1.299   1.017 -0.9741 -0.7540 -0.0561
 2615SOL    HW219479   3.136   1.282   0.951 -0.8187  1.8702  1.5125
 2616SOL     OW19480   2.548   1.834   8.883 -0.3552  0.3655  0.3262
 2616SOL    HW119481   2.512   1.791   8.960  0.3009  0.3309  0.6065
 2616SOL    HW219482   2.579   1.754   8.841 -0.9821  0.2233  0.1282
 2617SOL     OW19483   4.505   2.719   3.361  0.1479 -0.5412  0.4098
 2617SOL    HW119484   4.495   2.814   3.370  2.0419 -0.1884 -1.0541
 2617SOL    HW219485   4.596   2.714   3.329  0.5776 -0.2014  1.5671
 2618SOL     OW19486   1.631   3.105   4.727  0.0772 -0.3945 -0.4375
 2618SOL    HW119487   1.545   3.122   4.767  1.0569 -0.4038  1.7012
 2618SOL    HW219488   1.664   3.041   4.790  0.9092  0.1820 -0.2881
 2619SOL     OW19489   1.972   1.798   4.241  0.3759 -0.2088  0.3221
 2619SOL    HW119490   1.961   1.885   4.279  3.4276  0.2977  0.0732
 2619SOL    HW219491   1.907   1.812   4.172 -0.0422 -2.1759  0.3071
 2620SOL     OW19492   2.750   4.304   2.874  0.0512  0.2083  0.4056
 2620SOL    HW119493   2.764   4.388   2.829  1.6951 -0.5992 -0.5937
 2620SOL    HW219494   2.723   4.340   2.958 -2.3406 -0.9333  0.1052
 2621SOL     OW19495   1.704   3.568   4.280  0.2555  0.0976  0.2070
 2621SOL    HW119496   1.695   3.475   4.260  2.9526 -0.0999 -0.0647
 2621SOL    HW219497   1.729   3.595   4.192 -0.3411  0.6359  0.1999
 2622SOL     OW19498   1.348   2.768   2.460 -0.0068 -0.3143 -0.4692
 2622SOL    HW119499   1.254   2.754   2.444 -0.1731  0.5220 -0.2352
 2622SOL    HW219500   1.384   2.729   2.381 -1.2182 -0.0416 -1.1689
 2623SOL     OW19501   1.422   0.248   8.179  0.1163  0.2371  0.1672
 2623SOL    HW119502   1.373   0.315   8.226  0.4899 -1.0171  2.3297
 2623SOL    HW219503   1.506   0.257   8.224  1.4037  1.2199 -2.4207
 2624SOL     OW19504   1.429   3.616   7.702 -0.3646 -0.2009 -0.5523
 2624SOL    HW119505   1.418   3.703   7.665  2.0387 -0.3731 -1.6716
 2624SOL    HW219506   1.438   3.634   7.796  0.6554 -1.5666 -0.3895
 2625SOL     OW19507   0.278   3.893   6.709 -0.6342  0.2279 -0.5288
 2625SOL    HW119508   0.320   3.977   6.725 -1.2731  0.7589 -1.6746
 2625SOL    HW219509   0.283   3.885   6.613  1.6084  1.6527 -0.5259
 2626SOL     OW19510   0.819   0.676   5.779 -0.1329  0.2950  0.2976
 2626SOL    HW119511   0.888   0.621   5.744 -1.9090 -1.5989 -0.2227
 2626SOL    HW219512   0.822   0.661   5.873  0.3209  0.5653  0.3243
 2627SOL     OW19513   1.873   2.379  13.135 -0.3590  0.0893  0.2426
 2627SOL    HW119514   1.941   2.342  13.190  0.5179  0.5927 -0.4875
 2627SOL    HW219515   1.863   2.468  13.170  0.2407  1.0059 -1.9031
 2628SOL     OW19516   2.272   0.579   4.896  0.0818  0.0087  0.2300
 2628SOL    HW119517   2.281   0.624   4.980  0.4729 -1.0594  0.7682
 2628SOL    HW219518   2.229   0.497   4.921 -1.9128  1.3901  1.2589
 2629SOL     OW19519   3.822   0.257   3.052 -0.3086  0.3461 -0.5244
 2629SOL    HW119520   3.810   0.306   3.134  1.0551 -1.8629  0.9873
 2629SOL    HW219521   3.734   0.222   3.035 -0.4411 -0.5851  1.9884
 2630SOL     OW19522   0.859   1.398   2.512 -0.1872 -0.3115 -0.3425
 2630SOL    HW119523   0.875   1.418   2.420 -0.2530 -1.0978 -0.5316
 2630SOL    HW219524   0.903   1.312   2.511 -0.2400 -0.3403 -0.2514
 2631SOL     OW19525   0.923   1.352   6.434  0.3119 -0.7960  0.6612
 2631SOL    HW119526   0.979   1.304   6.373 -0.6282  0.6666 -1.3099
 2631SOL    HW219527   0.885   1.424   6.385  0.8925  1.6393  3.7422
 2632SOL     OW19528   0.502   0.005  14.986  0.0804 -0.1780 -0.2363
 2632SOL    HW119529   0.585   4.724  15.032 -0.0511  1.4457  0.4623
 2632SOL    HW219530   0.525   4.726  14.894  0.3968 -1.2386 -0.0332
 2633SOL     OW19531   4.522   2.677   5.982 -0.2112 -0.2435  0.0800
 2633SOL    HW119532   4.434   2.703   6.011  0.6464 -0.5898  2.9608
 2633SOL    HW219533   4.500   2.591   5.945  2.2065 -0.2910 -1.1962
 2634SOL     OW19534   1.991   2.694   8.799 -0.4464  0.0346 -0.2898
 2634SOL    HW119535   1.966   2.734   8.716 -0.8608  0.0619 -0.1502
 2634SOL    HW219536   1.908   2.705   8.845 -0.4703 -0.2251 -0.2659
 2635SOL     OW19537   2.943   2.276  13.366  0.4488  0.1759  0.2267
 2635SOL    HW119538   3.013   2.315  13.419  1.0761 -0.7861  0.1026
 2635SOL    HW219539   2.986   2.246  13.286 -1.5092 -1.4954 -0.1940
 2636SOL     OW19540   1.438   0.978   3.620  0.0189 -0.7561 -0.4370
 2636SOL    HW119541   1.427   0.904   3.560  0.0896 -1.7921  0.8162
 2636SOL    HW219542   1.458   1.045   3.555 -3.5212  0.1472 -0.6159
 2637SOL     OW19543   1.986   2.668  13.015  0.3827 -0.6249  0.5682
 2637SOL    HW119544   1.930   2.700  13.086 -0.3044  0.0160 -0.2657
 2637SOL    HW219545   2.029   2.746  12.979 -0.1223 -0.5803  0.0736
 2638SOL     OW19546   3.076   0.095  15.466  0.3451  0.1463 -0.3629
 2638SOL    HW119547   3.070   0.061  15.555  1.4999 -2.3009 -1.2325
 2638SOL    HW219548   3.167   0.067  15.455  1.4287  1.7591  4.1170
 2639SOL     OW19549   3.826   1.113   9.641  0.2907 -0.1323  0.0231
 2639SOL    HW119550   3.839   1.096   9.735  0.1988 -1.3600 -0.1909
 2639SOL    HW219551   3.909   1.151   9.613 -0.6095  1.2089 -0.7943
 2640SOL     OW19552   4.495   1.932   3.946  0.5003 -0.7089 -0.2138
 2640SOL    HW119553   4.433   1.951   4.016  1.1159  0.3048  0.0583
 2640SOL    HW219554   4.463   1.852   3.904  1.2608 -0.5435 -1.1114
 2641SOL     OW19555   0.407   1.324   1.927 -0.1838 -0.1901  0.0318
 2641SOL    HW119556   0.340   1.385   1.960 -0.1089 -1.4374  2.5287
 2641SOL    HW219557   0.357   1.246   1.906 -0.3732 -0.2293  0.6197
 2642SOL     OW19558   3.665   0.407   3.693  0.4091  0.4471  0.0831
 2642SOL    HW119559   3.693   0.454   3.614 -0.1949  0.7897  0.0698
 2642SOL    HW219560   3.691   0.472   3.758 -0.8282  1.9324 -0.8823
 2643SOL     OW19561   0.792   3.860   4.726 -0.0509 -0.2987 -0.0120
 2643SOL    HW119562   0.812   3.817   4.809  0.8385  0.8187  0.3488
 2643SOL    HW219563   0.711   3.909   4.743 -1.4084 -2.3974 -0.4227
 2644SOL     OW19564   3.944   1.011   2.821 -0.6679 -0.2186  0.2652
 2644SOL    HW119565   3.911   1.044   2.905 -0.0757 -3.5093  1.7914
 2644SOL    HW219566   4.000   0.936   2.839 -0.7910 -0.4704 -0.4109
 2645SOL     OW19567   3.387   0.621   6.045  0.1944 -0.2792  0.0563
 2645SOL    HW119568   3.481   0.602   6.047  0.3740  0.5421 -0.5922
 2645SOL    HW219569   3.358   0.556   6.109  0.7840 -4.1323 -3.5954
 2646SOL     OW19570   2.281   4.541   4.608  1.4992 -0.1568  0.4334
 2646SOL    HW119571   2.287   4.465   4.665  1.2866  0.3089  1.0717
 2646SOL    HW219572   2.374   4.538   4.586  1.1643  0.1582 -1.0447
 2647SOL     OW19573   1.656   2.185  11.657  0.4550  0.2863  0.0257
 2647SOL    HW119574   1.627   2.199  11.567 -1.5633 -2.1432  0.2779
 2647SOL    HW219575   1.661   2.276  11.686 -1.1931  1.1332 -2.2764
 2648SOL     OW19576   1.913   2.461  16.910  0.4358 -0.1586 -0.1062
 2648SOL    HW119577   1.826   2.428  16.933  0.5333 -0.0633  0.3973
 2648SOL    HW219578   1.965   2.388  16.943  1.5009  1.3693  1.5391
 2649SOL     OW19579   1.114   2.251   3.339  0.5718 -0.3231  0.1401
 2649SOL    HW119580   1.094   2.241   3.246 -2.2228 -2.6598  0.9992
 2649SOL    HW219581   1.089   2.171   3.385 -0.8842 -0.4954 -0.9285
 2650SOL     OW19582   4.693   2.322   1.603 -0.3224 -0.2155  0.1439
 2650SOL    HW119583   4.701   2.241   1.653  1.2877  0.2762  0.6770
 2650SOL    HW219584   0.007   2.388   1.654  0.8524 -1.5547  0.8223
 2651SOL     OW19585   2.090   3.894   1.929 -0.1306  0.5574  0.0816
 2651SOL    HW119586   2.174   3.913   1.970  0.5252 -1.6386 -0.2477
 2651SOL    HW219587   2.114   3.856   1.845  1.3798 -1.1903  1.2915
 2652SOL     OW19588   2.943   3.132   0.170  0.5120 -0.7813  0.2428
 2652SOL    HW119589   2.956   3.201   0.105 -1.4141  1.3165  2.0760
 2652SOL    HW219590   2.964   3.178   0.250  4.3514  2.7686 -2.8128
 2653SOL     OW19591   0.883   3.899  14.661 -0.1378 -0.1420  0.3529
 2653SOL    HW119592   0.925   3.825  14.616  0.9204  1.0243 -0.5470
 2653SOL    HW219593   0.897   3.972  14.601 -1.7181  0.6276  0.9280
 2654SOL     OW19594   0.224   2.826  12.518  0.2528 -0.0237  0.2693
 2654SOL    HW119595   0.133   2.854  12.528  0.9240  3.2370 -2.6225
 2654SOL    HW219596   0.210   2.732  12.522  0.8917 -0.1562 -0.7724
 2655SOL     OW19597   3.707   4.009   4.196  0.0222 -0.5842 -0.2904
 2655SOL    HW119598   3.614   4.029   4.200  0.3774  1.3364 -1.5884
 2655SOL    HW219599   3.742   4.078   4.140  0.8750  1.1517  2.3320
 2656SOL     OW19600   4.642   0.858   7.681  0.3916  0.2608 -0.0824
 2656SOL    HW119601   4.634   0.895   7.769 -0.1790  3.1433 -1.3434
 2656SOL    HW219602   4.548   0.844   7.673 -0.0519  2.3418  1.2161
 2657SOL     OW19603   1.104   2.639   2.422 -0.5919 -0.3679 -0.5481
 2657SOL    HW119604   1.015   2.628   2.456 -0.8870 -1.9602 -1.7997
 2657SOL    HW219605   1.097   2.576   2.350 -2.9747 -1.6017  0.7598
 2658SOL     OW19606   0.013   1.875  14.387 -0.0863 -0.2779 -0.0452
 2658SOL    HW119607   4.728   1.781  14.392 -1.3124  0.0435  1.7837
 2658SOL    HW219608   0.067   1.876  14.307  0.8428 -0.5274  0.5738
 2659SOL     OW19609   0.733   2.600   5.885  0.2081  0.1089  0.0103
 2659SOL    HW119610   0.786   2.670   5.922  1.1328 -0.1698 -0.8113
 2659SOL    HW219611   0.796   2.543   5.843  1.1737  0.1512  1.4037
 2660SOL     OW19612   4.027   0.078   2.152  0.0397  0.1727  0.4841
 2660SOL    HW119613   3.961   0.061   2.085 -0.3332 -1.7949  1.3672
 2660SOL    HW219614   3.971   0.104   2.226 -1.0462 -0.6013 -0.0679
 2661SOL     OW19615   3.335   2.295   3.915  0.4427  0.1133  0.0353
 2661SOL    HW119616   3.395   2.232   3.954  0.9074  2.9586  3.9647
 2661SOL    HW219617   3.250   2.251   3.913 -0.2392  1.5072 -1.7106
 2662SOL     OW19618   4.615   1.777  12.984 -0.1762 -0.1463 -0.0024
 2662SOL    HW119619   4.624   1.766  13.079 -0.5979 -0.0723  0.0509
 2662SOL    HW219620   4.589   1.689  12.957  1.4403 -0.6037 -0.0570
 2663SOL     OW19621   3.614   1.557   2.555  0.5121 -0.0552 -0.5378
 2663SOL    HW119622   3.596   1.618   2.626 -2.2409 -1.9562  0.4158
 2663SOL    HW219623   3.541   1.498   2.573 -0.6699  2.1381  1.9653
 2664SOL     OW19624   2.776   2.131   3.134 -0.2025  0.5563  0.3898
 2664SOL    HW119625   2.780   2.037   3.116 -2.7825  0.3369  0.9372
 2664SOL    HW219626   2.849   2.169   3.085 -1.3851  1.3335 -0.7814
 2665SOL     OW19627   0.599   2.957   2.171 -0.0803 -0.0714  0.0485
 2665SOL    HW119628   0.649   2.876   2.158  1.1573  0.4326  1.6389
 2665SOL    HW219629   0.507   2.935   2.157  0.5110 -1.9020 -0.9584
 2666SOL     OW19630   2.296   4.248   4.684  0.3168 -0.0022  0.2939
 2666SOL    HW119631   2.378   4.200   4.681 -0.8292 -2.0668  1.9889
 2666SOL    HW219632   2.257   4.206   4.607 -1.6619  1.5901  0.4177
 2667SOL     OW19633   2.889   0.405   8.736 -0.4066  0.1266  0.3165
 2667SOL    HW119634   2.806   0.437   8.701  0.0717  0.1885 -0.7634
 2667SOL    HW219635   2.937   0.487   8.746  2.4072 -1.3823 -0.8529
 2668SOL     OW19636   1.418   4.154   0.190  0.2207  0.5427 -0.3524
 2668SOL    HW119637   1.475   4.129   0.117  0.8952  0.3512  0.2330
 2668SOL    HW219638   1.336   4.144   0.142 -0.0247  0.1281  0.1614
 2669SOL     OW19639   4.537   0.984  15.141  0.1914  0.0213  0.1885
 2669SOL    HW119640   4.505   0.893  15.145  0.2328 -0.0480 -1.3274
 2669SOL    HW219641   4.608   0.984  15.206 -1.0210  2.5357  1.5134
 2670SOL     OW19642   3.427   1.082  10.928  0.1638  0.5190 -0.8295
 2670SOL    HW119643   3.487   1.145  10.888 -0.0069 -0.8352 -3.2166
 2670SOL    HW219644   3.367   1.050  10.860 -0.7965  0.0868  0.2287
 2671SOL     OW19645   0.015   1.369  16.257 -0.1191 -0.5900  0.0007
 2671SOL    HW119646   4.702   1.447  16.289 -0.4226 -0.4414 -0.8136
 2671SOL    HW219647   4.686   1.333  16.194 -0.5689 -1.2217  0.7868
 2672SOL     OW19648   4.552   2.366   0.789 -0.2172 -0.0241 -1.1248
 2672SOL    HW119649   4.566   2.342   0.880 -0.3565  0.7244 -0.9020
 2672SOL    HW219650   4.602   2.296   0.748  0.1342 -0.3764 -0.0894
 2673SOL     OW19651   3.352   0.467   6.839  0.1180  0.3099  0.0892
 2673SOL    HW119652   3.416   0.404   6.807  0.8860  1.0359  0.1825
 2673SOL    HW219653   3.274   0.437   6.794  1.2092 -0.7632 -1.0976
 2674SOL     OW19654   1.411   4.623   9.606  0.4623 -1.0777 -0.3990
 2674SOL    HW119655   1.478   4.691   9.611 -0.5072 -0.3157  2.1973
 2674SOL    HW219656   1.444   4.537   9.582 -0.7447 -1.7996  0.5008
 2675SOL     OW19657   2.250   3.987   4.941  0.6850  0.7882 -0.1407
 2675SOL    HW119658   2.345   3.987   4.941  0.6935 -1.2067  0.8665
 2675SOL    HW219659   2.227   4.080   4.942 -3.2156 -0.1659  1.1264
 2676SOL     OW19660   0.706   0.325  14.750  0.9801 -0.3056  0.0199
 2676SOL    HW119661   0.627   0.364  14.789  0.3264  0.4026 -1.9968
 2676SOL    HW219662   0.680   0.302  14.660  0.2329 -0.0529  0.1671
 2677SOL     OW19663   0.442   0.185  13.055 -0.1582  0.0403  0.2770
 2677SOL    HW119664   0.504   0.153  12.990  0.8594  0.8366  0.8528
 2677SOL    HW219665   0.499   0.221  13.123 -0.4878 -0.9666  1.1109
 2678SOL     OW19666   3.464   2.762   7.684  0.1003 -0.2642 -0.4451
 2678SOL    HW119667   3.442   2.786   7.774 -1.9343  1.4360 -1.3927
 2678SOL    HW219668   3.557   2.741   7.694  0.2941 -0.0924 -1.8921
 2679SOL     OW19669   3.226   2.576   8.331 -0.3519 -0.0242  0.3186
 2679SOL    HW119670   3.148   2.557   8.279 -1.0141  1.0210  0.9125
 2679SOL    HW219671   3.295   2.529   8.284 -2.1052 -2.8566  0.6368
 2680SOL     OW19672   3.987   4.296  16.397 -0.0875 -0.2786 -0.1975
 2680SOL    HW119673   4.021   4.373  16.442 -0.5126 -0.3198  0.1974
 2680SOL    HW219674   4.018   4.307  16.307 -0.5071 -2.8110 -0.6513
 2681SOL     OW19675   0.188   4.469   7.297  0.0675  0.2582 -0.0406
 2681SOL    HW119676   0.125   4.486   7.226 -3.7063 -1.0141  2.9798
 2681SOL    HW219677   0.151   4.384   7.321 -0.7035  1.0869  1.6908
 2682SOL     OW19678   2.120   4.137   6.255  0.5954 -0.4089  0.0769
 2682SOL    HW119679   2.190   4.200   6.244 -0.1549  0.3111 -0.5646
 2682SOL    HW219680   2.084   4.153   6.343  0.6159  0.5077 -0.0793
 2683SOL     OW19681   4.307   3.713  16.912 -0.1244 -0.8807  0.0929
 2683SOL    HW119682   4.310   3.733  16.819 -0.0905  0.0824  0.3043
 2683SOL    HW219683   4.215   3.687  16.917 -0.3456  0.2194  1.6900
 2684SOL     OW19684   0.999   2.455  14.011  0.6948  0.4039 -0.8358
 2684SOL    HW119685   0.914   2.412  14.023  0.7205  0.1570 -1.5436
 2684SOL    HW219686   1.028   2.482  14.098  0.2382 -1.4670 -0.0945
 2685SOL     OW19687   3.095   0.491   9.966 -0.3820 -0.4055 -0.1115
 2685SOL    HW119688   3.189   0.497   9.980 -0.3995  0.5744 -0.4007
 2685SOL    HW219689   3.087   0.517   9.875 -1.3119 -0.6297 -0.1002
 2686SOL     OW19690   0.054   3.115   3.606  0.3041  0.7730  0.1195
 2686SOL    HW119691   0.044   3.130   3.512  2.5598 -0.7471 -0.3611
 2686SOL    HW219692   4.698   3.128   3.641  0.0613  0.5666 -0.4094
 2687SOL     OW19693   3.405   3.079  16.330 -0.1616  0.0678  0.0963
 2687SOL    HW119694   3.422   3.088  16.424 -3.0283  3.1995  0.2911
 2687SOL    HW219695   3.356   3.156  16.302  1.1383 -0.2175 -2.9879
 2688SOL     OW19696   2.145   1.639   1.568  0.5269 -0.5880  0.5405
 2688SOL    HW119697   2.233   1.610   1.547 -0.4182 -1.1129 -2.6150
 2688SOL    HW219698   2.091   1.564   1.595 -0.1824  0.1047  1.0812
 2689SOL     OW19699   2.992   1.657   2.804  0.3905 -0.4532 -0.7346
 2689SOL    HW119700   3.010   1.602   2.727  1.7474  0.6278 -1.1786
 2689SOL    HW219701   2.898   1.679   2.802  0.3529 -0.6665 -1.3960
 2690SOL     OW19702   1.045   3.048   5.630  0.7368  0.6842 -0.1692
 2690SOL    HW119703   1.098   3.047   5.710  0.8171  1.4756 -0.2193
 2690SOL    HW219704   1.107   3.054   5.557 -1.4626 -1.7383 -2.2230
 2691SOL     OW19705   1.990   2.092   3.139  0.4140  0.2647  0.0758
 2691SOL    HW119706   2.034   2.024   3.090  0.5564  0.2629  0.2082
 2691SOL    HW219707   2.057   2.140   3.188  0.3779 -0.7355  1.1051
 2692SOL     OW19708   1.007   3.182  17.019  0.1890  0.4363  0.3333
 2692SOL    HW119709   1.009   3.130  16.939  0.1808  1.1147 -0.1068
 2692SOL    HW219710   1.058   3.257  16.989 -1.6986  2.0801  1.2663
 2693SOL     OW19711   3.642   1.620   4.564  0.2713  0.3450  0.1554
 2693SOL    HW119712   3.666   1.534   4.531  1.0399  1.0817 -1.2413
 2693SOL    HW219713   3.561   1.603   4.612  0.5033  0.7975  0.7114
 2694SOL     OW19714   2.885   1.866   2.991  0.5242  0.4490  0.2310
 2694SOL    HW119715   2.816   1.806   3.019 -0.3173  1.7876  1.0043
 2694SOL    HW219716   2.970   1.838   3.023  0.5970 -0.3000 -0.5939
 2695SOL     OW19717   2.480   0.244   6.046  0.6131  0.0212 -0.2641
 2695SOL    HW119718   2.414   0.177   6.032  0.7557 -0.3353  0.7738
 2695SOL    HW219719   2.428   0.321   6.024  0.9340  0.6689  1.2510
 2696SOL     OW19720   3.432   4.648   5.591  0.2258  0.3046 -0.3853
 2696SOL    HW119721   3.401   4.576   5.645 -0.4307  0.3930 -0.6396
 2696SOL    HW219722   3.490   4.601   5.532  0.1658 -1.7001  1.1395
 2697SOL     OW19723   0.887   3.538   1.683  0.2406  0.1131  0.2087
 2697SOL    HW119724   0.883   3.592   1.603 -1.6387 -0.0995  0.1712
 2697SOL    HW219725   0.976   3.502   1.679 -0.9773 -2.9810  1.4464
 2698SOL     OW19726   3.173   2.951   7.659 -0.1529  0.6650  0.2361
 2698SOL    HW119727   3.264   2.962   7.684  0.2934 -0.4536 -0.9124
 2698SOL    HW219728   3.170   2.955   7.563 -1.2761 -0.9839  0.1966
 2699SOL     OW19729   0.897   0.324   7.658  0.0824  0.3556  0.5705
 2699SOL    HW119730   0.835   0.319   7.586  2.1575  1.1529 -1.2610
 2699SOL    HW219731   0.938   0.238   7.650 -1.2301 -0.3597  1.4673
 2700SOL     OW19732   3.971   3.858   4.942  0.5371  0.3853  0.6391
 2700SOL    HW119733   4.043   3.817   4.990 -0.2266 -0.1186  1.3578
 2700SOL    HW219734   4.022   3.912   4.882 -0.5970  0.4889 -0.2563
 2701SOL     OW19735   1.540   1.390   0.508 -0.4041  0.4385  0.6816
 2701SOL    HW119736   1.535   1.298   0.480 -2.2921  0.9704 -0.7722
 2701SOL    HW219737   1.451   1.427   0.505 -0.1830  0.9733  0.7614
 2702SOL     OW19738   4.143   3.475   2.172  0.2992  0.5984 -0.0616
 2702SOL    HW119739   4.178   3.459   2.260 -0.4213  1.9328  0.4640
 2702SOL    HW219740   4.214   3.510   2.119  0.6174 -0.7535 -0.5228
 2703SOL     OW19741   1.532   4.398  11.007  0.0645  0.3992 -0.2584
 2703SOL    HW119742   1.571   4.337  11.070 -1.3590 -0.0596  0.1881
 2703SOL    HW219743   1.462   4.432  11.063  0.3591 -0.9796  0.9704
 2704SOL     OW19744   0.906   1.279   4.489  0.2079  0.0257  0.2273
 2704SOL    HW119745   0.885   1.201   4.438  0.9509 -1.3438  1.9967
 2704SOL    HW219746   0.980   1.248   4.541  0.1437  1.7729  1.3574
 2705SOL     OW19747   0.812   0.429   1.443 -0.8310  0.4563  0.2557
 2705SOL    HW119748   0.734   0.402   1.491  0.3727 -1.2297  1.2505
 2705SOL    HW219749   0.858   0.475   1.514 -0.7868  0.4215  0.2497
 2706SOL     OW19750   3.358   3.232   4.053  0.2492  0.1961  0.1552
 2706SOL    HW119751   3.263   3.220   4.041  0.3659  0.9398 -1.4405
 2706SOL    HW219752   3.382   3.267   4.138  1.6468  2.5709 -1.2408
 2707SOL     OW19753   1.899   4.049   7.501 -0.3661  0.3706  0.1123
 2707SOL    HW119754   1.969   3.985   7.517  0.1045  1.4866  2.5621
 2707SOL    HW219755   1.815   4.009   7.524 -0.5101  0.4253 -0.3215
 2708SOL     OW19756   0.056   2.873   8.740  0.2352 -0.4680 -0.0682
 2708SOL    HW119757   0.026   2.938   8.676 -1.5831 -1.3917 -0.1701
 2708SOL    HW219758   0.114   2.922   8.798  1.5841  1.1688 -2.7785
 2709SOL     OW19759   2.033   4.455   4.508  0.3414  0.0316  0.2103
 2709SOL    HW119760   2.125   4.463   4.533  0.8107 -2.8026 -0.6038
 2709SOL    HW219761   2.028   4.422   4.418  1.4259  0.4016  0.0161
 2710SOL     OW19762   4.365   4.328   2.056  0.0696 -0.0675  0.2798
 2710SOL    HW119763   4.286   4.363   2.098  1.2824  1.5699  1.1830
 2710SOL    HW219764   4.359   4.242   2.097  0.0389 -0.9080 -1.4790
 2711SOL     OW19765   1.599   1.224   8.477  0.7275 -0.0281 -0.5970
 2711SOL    HW119766   1.665   1.284   8.441  1.6391  0.1354  1.3344
 2711SOL    HW219767   1.524   1.284   8.475 -0.3607 -1.4198 -1.3465
 2712SOL     OW19768   0.146   1.454   4.481  0.1501  0.0566  0.8316
 2712SOL    HW119769   0.217   1.420   4.426 -1.5680 -2.4008  0.1533
 2712SOL    HW219770   0.086   1.380   4.471  1.4843 -0.9316  0.0908
 2713SOL     OW19771   3.821   0.846   9.662  0.3954  0.1840 -0.5261
 2713SOL    HW119772   3.783   0.932   9.646 -1.2932 -0.3509  0.5992
 2713SOL    HW219773   3.752   0.804   9.713  0.0285 -0.1221 -1.2949
 2714SOL     OW19774   1.591   2.375   8.830  0.1890 -0.1634 -0.3579
 2714SOL    HW119775   1.543   2.447   8.789  0.4931  0.0483 -0.3439
 2714SOL    HW219776   1.579   2.304   8.768 -1.3588  1.1732 -1.5978
 2715SOL     OW19777   1.755   3.874   4.961 -0.0562 -0.3458 -0.2038
 2715SOL    HW119778   1.816   3.942   4.932 -1.0676  1.0072  0.8674
 2715SOL    HW219779   1.755   3.881   5.056  0.5843 -0.6242 -0.1857
 2716SOL     OW19780   4.534   3.893   7.652 -0.3104  0.4558 -0.3231
 2716SOL    HW119781   4.582   3.952   7.593  2.2822 -1.5322 -0.2237
 2716SOL    HW219782   4.442   3.912   7.638  0.4052  4.3832  0.5137
 2717SOL     OW19783   2.551   3.823   4.296 -0.6115 -0.3699  0.1889
 2717SOL    HW119784   2.622   3.775   4.338  0.8706  0.3410 -1.4991
 2717SOL    HW219785   2.480   3.772   4.335 -0.9627 -0.9229 -1.1737
 2718SOL     OW19786   3.217   0.017   8.567 -0.8942 -0.0691  0.2521
 2718SOL    HW119787   3.144   4.704   8.610 -0.1810 -0.1470  1.3677
 2718SOL    HW219788   3.213   4.717   8.476  0.8865 -3.4882  1.4147
 2719SOL     OW19789   1.838   2.361   5.095  0.7502 -0.5824  0.5381
 2719SOL    HW119790   1.887   2.416   5.157 -0.6799  2.6197 -1.1660
 2719SOL    HW219791   1.815   2.285   5.148  0.7364  0.8958  2.6466
 2720SOL     OW19792   3.849   2.712  16.329  0.5452  0.0940 -0.1223
 2720SOL    HW119793   3.760   2.743  16.310  0.7316  1.6558  1.5701
 2720SOL    HW219794   3.841   2.727  16.423 -0.9928 -2.3073  0.1170
 2721SOL     OW19795   4.410   3.010   9.938  0.0626  0.1587  0.2679
 2721SOL    HW119796   4.490   2.975   9.978 -0.0852  0.5072  0.8752
 2721SOL    HW219797   4.369   2.929   9.909 -0.9509  1.6185 -2.3880
 2722SOL     OW19798   4.255   0.731  11.300  0.5995 -0.3954 -0.2320
 2722SOL    HW119799   4.257   0.767  11.389  0.9016  0.2541 -0.5049
 2722SOL    HW219800   4.177   0.675  11.292  0.0903  0.4253 -1.0101
 2723SOL     OW19801   0.281   2.706  16.336 -0.1812 -0.0936 -0.6645
 2723SOL    HW119802   0.317   2.723  16.424  0.1210  1.1707 -1.0368
 2723SOL    HW219803   0.200   2.665  16.367 -0.3776 -0.6780 -1.9973
 2724SOL     OW19804   3.875   1.016   5.416 -0.8775 -0.7040 -0.5294
 2724SOL    HW119805   3.947   1.077   5.430 -1.5305 -0.0716  0.0763
 2724SOL    HW219806   3.863   0.976   5.502  0.6154  0.0903  0.0501
 2725SOL     OW19807   0.939   1.463   7.008  0.3433  0.1148  0.0636
 2725SOL    HW119808   0.936   1.394   7.075  1.6764 -1.7805 -1.8061
 2725SOL    HW219809   0.873   1.445   6.940  2.1048 -0.1546 -1.5920
 2726SOL     OW19810   0.573   1.972   9.395  0.9416  0.2457 -0.0389
 2726SOL    HW119811   0.518   1.901   9.428  2.5299 -0.0052  2.0991
 2726SOL    HW219812   0.598   1.949   9.306 -2.1154  2.4175 -1.4585
 2727SOL     OW19813   0.119   1.949   9.447  0.5220 -0.0709 -0.6926
 2727SOL    HW119814   0.089   1.869   9.489  2.1707 -0.6855 -0.6975
 2727SOL    HW219815   0.042   1.975   9.396  0.2780 -0.1935 -0.3896
 2728SOL     OW19816   0.023   0.393  16.128  0.0835 -0.0807  0.1808
 2728SOL    HW119817   0.018   0.483  16.097 -0.4979  0.4836  1.9829
 2728SOL    HW219818   0.030   0.341  16.047  1.3686 -0.4184  0.5016
 2729SOL     OW19819   0.714   3.353  14.583 -0.4972  0.9347 -0.0317
 2729SOL    HW119820   0.789   3.320  14.632 -0.8588 -0.1277 -0.1976
 2729SOL    HW219821   0.650   3.288  14.612 -1.4023 -0.0135 -4.1843
 2730SOL     OW19822   1.923   2.594   7.084 -0.1240 -0.9820 -0.7471
 2730SOL    HW119823   1.857   2.607   7.152 -0.0713  0.3539 -0.9694
 2730SOL    HW219824   1.881   2.637   7.010 -0.9494  1.0829  0.9425
 2731SOL     OW19825   1.090   0.525   2.258 -0.3176  0.2303 -0.3637
 2731SOL    HW119826   1.134   0.448   2.220  1.9987  1.2404  0.2556
 2731SOL    HW219827   1.005   0.501   2.223 -0.7351  1.8161 -0.3977
 2732SOL     OW19828   2.748   0.991   2.753 -0.2924 -0.5142  0.0795
 2732SOL    HW119829   2.772   1.042   2.830 -0.1025 -0.4588 -0.0159
 2732SOL    HW219830   2.823   1.014   2.699  1.0689  1.4775  2.8059
 2733SOL     OW19831   1.125   0.251   2.788  0.2017 -0.3449  0.2733
 2733SOL    HW119832   1.100   0.159   2.777 -0.8641 -0.1610  1.1897
 2733SOL    HW219833   1.175   0.240   2.869 -0.2894  0.1962  0.6503
 2734SOL     OW19834   0.806   3.809   8.375  0.3226 -0.3387 -0.1939
 2734SOL    HW119835   0.853   3.770   8.302 -0.1994 -0.4486 -0.4727
 2734SOL    HW219836   0.822   3.903   8.365  2.2170 -0.7769 -1.2754
 2735SOL     OW19837   2.308   1.639   7.835  0.2839  0.3016  0.1455
 2735SOL    HW119838   2.365   1.572   7.873 -1.6900 -1.1543  0.5702
 2735SOL    HW219839   2.370   1.680   7.776 -0.0614 -3.4959 -2.8708
 2736SOL     OW19840   3.034   1.218  11.626 -0.0634 -0.5702  0.0829
 2736SOL    HW119841   3.116   1.253  11.591 -0.0195 -0.5610  0.1923
 2736SOL    HW219842   2.975   1.291  11.643 -0.6577 -1.1705  0.5745
 2737SOL     OW19843   1.123   1.250   2.275 -0.5991 -0.3843  0.2137
 2737SOL    HW119844   1.068   1.220   2.348  0.8199 -1.2955  0.8937
 2737SOL    HW219845   1.060   1.217   2.210  0.3786  1.0157 -1.4521
 2738SOL     OW19846   0.175   0.457   9.254  0.5515  0.1017  0.0167
 2738SOL    HW119847   0.189   0.510   9.333  3.2836  1.3194 -1.3120
 2738SOL    HW219848   0.095   0.410   9.278  0.8272  0.7108  2.1185
 2739SOL     OW19849   3.311   1.172   2.729 -0.7278 -0.0764  0.0085
 2739SOL    HW119850   3.242   1.141   2.788  0.1170 -3.0491 -0.5426
 2739SOL    HW219851   3.326   1.102   2.665  1.8926 -0.5807  1.1833
 2740SOL     OW19852   1.536   4.380   6.788  0.2438 -0.0937  0.1911
 2740SOL    HW119853   1.489   4.452   6.746  0.5602 -0.2502 -0.4222
 2740SOL    HW219854   1.506   4.380   6.879  0.7862  1.5043  0.3685
 2741SOL     OW19855   3.507   0.265  14.062 -0.0504 -0.6564  0.5823
 2741SOL    HW119856   3.529   0.332  13.997 -0.6953  1.0745  2.1418
 2741SOL    HW219857   3.414   0.285  14.062 -0.6269 -3.4796 -0.6843
 2742SOL     OW19858   1.650   0.748   5.844  0.0164 -0.4712  0.3680
 2742SOL    HW119859   1.567   0.765   5.801  0.7459 -0.7904 -1.1634
 2742SOL    HW219860   1.622   0.765   5.934 -1.8287  1.3496 -0.5550
 2743SOL     OW19861   3.923   4.630   7.030  0.4336 -0.2921 -0.0242
 2743SOL    HW119862   3.931   4.707   7.086 -1.5271 -0.4204  0.4678
 2743SOL    HW219863   3.849   4.594   7.080 -0.4559  1.3492 -0.1529
 2744SOL     OW19864   3.645   3.293   5.146  0.0027 -0.4891  0.3917
 2744SOL    HW119865   3.558   3.292   5.105 -0.7331  3.1414  1.8713
 2744SOL    HW219866   3.630   3.239   5.224  1.3321 -1.5387 -0.0786
 2745SOL     OW19867   4.084   3.649   7.994 -0.1767  0.5537 -0.2044
 2745SOL    HW119868   4.134   3.694   8.063  0.3099 -0.6109  0.2073
 2745SOL    HW219869   4.148   3.588   7.958  0.0123  1.4220 -1.3195
 2746SOL     OW19870   0.175   2.426   6.963  0.6106 -0.3408  0.2268
 2746SOL    HW119871   0.188   2.520   6.951  0.7529 -0.1595  1.6965
 2746SOL    HW219872   0.087   2.418   6.926  1.0857 -0.5034 -0.8407
 2747SOL     OW19873   1.264   0.878   5.490  0.5331 -0.0436 -0.1442
 2747SOL    HW119874   1.216   0.812   5.441  0.5550 -0.3455  0.2413
 2747SOL    HW219875   1.197   0.897   5.556  2.3758  1.7683  1.2302
 2748SOL     OW19876   3.464   2.937   5.116 -0.5099 -0.2734  0.4146
 2748SOL    HW119877   3.428   2.976   5.037  2.1153 -0.8590 -1.0821
 2748SOL    HW219878   3.429   2.850   5.098  1.1911 -0.5535 -1.6426
 2749SOL     OW19879   2.044   0.267   4.645 -0.0486  0.1594 -0.0173
 2749SOL    HW119880   2.099   0.191   4.624 -2.4434 -1.7623  0.6199
 2749SOL    HW219881   2.102   0.334   4.609 -1.8608  1.1993 -0.9788
 2750SOL     OW19882   4.195   4.635   7.052 -0.2052 -0.1130 -0.5498
 2750SOL    HW119883   4.116   4.586   7.027 -0.5008  0.6489 -1.1546
 2750SOL    HW219884   4.198   4.648   7.146 -0.4441  0.5436 -0.6298
 2751SOL     OW19885   1.686   4.211   7.046  0.2918  0.6568  0.0283
 2751SOL    HW119886   1.727   4.296   7.062 -2.0625  2.0429 -1.1865
 2751SOL    HW219887   1.767   4.161   7.053 -0.8789 -1.4118 -1.2097
 2752SOL     OW19888   2.954   2.430   8.558  0.3798  0.2780  0.4806
 2752SOL    HW119889   2.908   2.366   8.505  2.6765 -0.0322 -1.1118
 2752SOL    HW219890   2.894   2.505   8.560  0.0427  0.0067  0.5068
 2753SOL     OW19891   0.619   2.774   5.692 -0.6907 -0.2379  0.5568
 2753SOL    HW119892   0.632   2.742   5.603 -1.0559  0.2399  0.3330
 2753SOL    HW219893   0.651   2.698   5.741  2.4978  0.4567 -0.4314
 2754SOL     OW19894   0.561   4.413   2.052  0.3420 -0.1172  0.0420
 2754SOL    HW119895   0.570   4.349   1.982 -0.5411 -1.7886  1.4656
 2754SOL    HW219896   0.505   4.476   2.006  0.9540  1.0970  0.9505
 2755SOL     OW19897   1.787   0.560  14.825 -0.1612 -0.2983  0.0637
 2755SOL    HW119898   1.765   0.652  14.807  0.0317 -0.4454 -0.9353
 2755SOL    HW219899   1.862   0.548  14.766 -0.8491  0.0425 -0.8831
 2756SOL     OW19900   1.351   2.621   2.718 -0.9645  0.9247  0.1625
 2756SOL    HW119901   1.273   2.650   2.767  0.1988  2.3486  1.1706
 2756SOL    HW219902   1.350   2.672   2.637 -0.9833  0.2440 -0.2618
 2757SOL     OW19903   4.258   0.902   3.197 -0.3068  0.0850 -0.1969
 2757SOL    HW119904   4.245   0.875   3.106 -1.8023 -1.6508  0.5391
 2757SOL    HW219905   4.349   0.875   3.211 -0.3956 -0.0679  0.1004
 2758SOL     OW19906   3.553   3.798   4.077 -0.2610  0.9435  0.3092
 2758SOL    HW119907   3.477   3.812   4.021 -0.2266  1.5665  0.4205
 2758SOL    HW219908   3.622   3.856   4.046 -0.3980  0.0888 -1.6241
 2759SOL     OW19909   1.049   4.410  14.426  0.0808  0.4624 -0.4505
 2759SOL    HW119910   1.130   4.423  14.377  2.2054 -1.4458  2.5670
 2759SOL    HW219911   1.031   4.491  14.473 -0.1775 -0.1912  0.5835
 2760SOL     OW19912   4.350   2.113   0.107 -0.1453  0.2078 -0.3832
 2760SOL    HW119913   4.309   2.196   0.082 -2.1217  0.1094  2.5201
 2760SOL    HW219914   4.425   2.110   0.047 -0.3438 -1.5603 -0.5472
 2761SOL     OW19915   3.871   0.285   1.192  0.4313 -0.1457  0.7458
 2761SOL    HW119916   3.921   0.277   1.274 -0.6893  1.4879  1.5896
 2761SOL    HW219917   3.855   0.191   1.189  2.2443 -0.4513  0.5026
 2762SOL     OW19918   2.584   4.287  11.834 -0.0887  0.4320 -0.6652
 2762SOL    HW119919   2.656   4.225  11.824  1.0805  1.2788  2.2827
 2762SOL    HW219920   2.508   4.247  11.792 -1.7694  2.7321  0.1513
 2763SOL     OW19921   1.910   1.680   6.989 -0.8259  0.1312 -0.1121
 2763SOL    HW119922   1.972   1.643   7.052 -3.5231  1.6114  3.4341
 2763SOL    HW219923   1.834   1.676   7.048 -1.4091  0.3022 -0.8459
 2764SOL     OW19924   3.281   2.747  10.376  0.0078 -0.2325  0.0040
 2764SOL    HW119925   3.363   2.786  10.343 -0.4111 -0.7629 -1.6523
 2764SOL    HW219926   3.320   2.701  10.450  0.3812 -1.0650 -0.7153
 2765SOL     OW19927   0.246   4.550   8.882  0.1639 -0.3116  0.1808
 2765SOL    HW119928   0.296   4.548   8.964  0.0243  0.2550  0.2798
 2765SOL    HW219929   0.160   4.518   8.911  0.0026 -0.1334 -0.1013
 2766SOL     OW19930   3.374   0.391   2.910  0.4601  0.2687 -0.1848
 2766SOL    HW119931   3.314   0.464   2.920  1.1814  0.7850  0.4222
 2766SOL    HW219932   3.459   0.432   2.927  1.2167 -1.1285 -0.5238
 2767SOL     OW19933   3.404   4.511  10.320  0.0940 -0.0328 -0.1705
 2767SOL    HW119934   3.381   4.590  10.369  0.8509 -0.2654  0.5584
 2767SOL    HW219935   3.401   4.549  10.232  3.0856  2.3585  0.7565
 2768SOL     OW19936   3.083   4.146   9.147  0.0110 -0.3625 -0.1332
 2768SOL    HW119937   2.997   4.104   9.134  0.4974 -0.9274 -1.5518
 2768SOL    HW219938   3.127   4.097   9.216  0.7405  1.1679  0.4906
 2769SOL     OW19939   4.046   0.703   3.940 -0.6058 -0.2923  0.2689
 2769SOL    HW119940   4.079   0.644   4.008 -1.3534 -2.2869 -1.0745
 2769SOL    HW219941   4.013   0.764   4.005 -0.0213  0.4172 -0.0981
 2770SOL     OW19942   0.214   2.299   0.276  0.3321  0.8585  0.7079
 2770SOL    HW119943   0.184   2.386   0.301  3.1961  2.0149  0.1469
 2770SOL    HW219944   0.273   2.329   0.207 -0.5284  0.9032  0.0019
 2771SOL     OW19945   3.697   1.970   2.274  0.5346 -0.0331 -0.1671
 2771SOL    HW119946   3.651   1.891   2.302 -0.6626 -0.3802 -3.0850
 2771SOL    HW219947   3.674   1.977   2.181  1.4319  0.4505 -0.3534
 2772SOL     OW19948   1.708   2.595   1.154 -0.2408  0.1449 -0.3627
 2772SOL    HW119949   1.715   2.678   1.201 -1.8493  1.1086 -1.8182
 2772SOL    HW219950   1.638   2.613   1.091 -0.3475  2.1389  0.3294
 2773SOL     OW19951   3.893   2.382   4.939 -0.5267 -0.3377  0.7813
 2773SOL    HW119952   3.807   2.341   4.934 -0.4703 -0.2489 -0.9493
 2773SOL    HW219953   3.892   2.390   5.034 -0.9850  1.6591  0.6000
 2774SOL     OW19954   2.397   3.635   4.436  0.0287 -0.2384 -0.4157
 2774SOL    HW119955   2.344   3.578   4.381  0.4440  2.9141 -4.0677
 2774SOL    HW219956   2.346   3.640   4.517 -2.0038 -0.4842 -1.6986
 2775SOL     OW19957   1.509   2.250   7.474  0.3761  0.3331  0.2873
 2775SOL    HW119958   1.525   2.322   7.535 -0.4268  1.4820 -0.8623
 2775SOL    HW219959   1.591   2.240   7.427  0.2294  1.5549 -0.2388
 2776SOL     OW19960   4.355   0.970   5.455 -0.3456  0.2336 -0.4360
 2776SOL    HW119961   4.438   0.957   5.499 -2.0521  0.0437  2.7344
 2776SOL    HW219962   4.373   0.919   5.376  3.0430 -3.4245  2.7662
 2777SOL     OW19963   1.269   3.065   1.736  0.2843 -0.5065 -0.5562
 2777SOL    HW119964   1.314   3.080   1.819 -0.4854  1.2910 -0.4557
 2777SOL    HW219965   1.241   3.152   1.709  1.2804 -0.5333 -1.6614
 2778SOL     OW19966   2.993   3.312   4.202  0.5646  0.4337  0.7635
 2778SOL    HW119967   3.058   3.242   4.213 -0.4886 -0.2883  2.4465
 2778SOL    HW219968   2.997   3.313   4.107 -1.9373  3.0330  0.6938
 2779SOL     OW19969   0.064   4.148  14.460  0.0294 -0.2967 -0.0516
 2779SOL    HW119970   0.046   4.164  14.367 -0.3928  0.9853  0.2546
 2779SOL    HW219971   4.706   4.164  14.488  0.3137 -0.1519  0.7766
 2780SOL     OW19972   1.610   0.955  17.575  0.7890 -0.5873 -0.1100
 2780SOL    HW119973   1.659   0.959  17.492  0.0123  3.2775 -0.3810
 2780SOL    HW219974   1.631   1.039  17.614  2.7088 -0.7468 -0.7605
 2781SOL     OW19975   1.821   1.025  11.534  0.3620  0.4347  0.0362
 2781SOL    HW119976   1.797   1.114  11.511  0.6276  0.9732  1.8524
 2781SOL    HW219977   1.917   1.025  11.528  0.4359 -1.6969  1.1381
 2782SOL     OW19978   2.352   2.589   7.488  0.0122 -0.6323  0.5539
 2782SOL    HW119979   2.346   2.669   7.436 -1.5183 -1.3247 -0.3365
 2782SOL    HW219980   2.448   2.586   7.495 -0.1269  2.3195  3.6682
 2783SOL     OW19981   4.355   3.926   5.547  0.0454 -0.2466 -0.1395
 2783SOL    HW119982   4.352   4.021   5.532  1.4935 -0.5810 -2.5623
 2783SOL    HW219983   4.263   3.905   5.562 -0.2168  2.0085  1.4058
 2784SOL     OW19984   0.723   3.940  11.493 -0.4987  0.0210 -0.7804
 2784SOL    HW119985   0.759   3.872  11.437 -0.3507 -0.5764  0.0494
 2784SOL    HW219986   0.770   3.913  11.571  0.4662  2.8504 -0.3797
 2785SOL     OW19987   2.947   3.060   6.091  0.3372  0.6024 -0.3658
 2785SOL    HW119988   2.940   3.078   6.185  0.0158 -1.6934  0.0429
 2785SOL    HW219989   2.932   3.147   6.054 -1.3046  0.6459  0.3883
 2786SOL     OW19990   3.770   2.991   6.798 -0.1177  0.2444  0.0576
 2786SOL    HW119991   3.822   2.934   6.855 -1.3443 -2.7839 -1.8256
 2786SOL    HW219992   3.775   2.943   6.715 -0.6265 -1.3024  0.9300
 2787SOL     OW19993   3.252   1.979   4.555 -0.3665  0.0263  0.2010
 2787SOL    HW119994   3.275   2.017   4.470  0.8002 -0.9832  0.0734
 2787SOL    HW219995   3.160   1.974   4.527 -0.1050 -2.0181 -0.2833
 2788SOL     OW19996   0.923   2.228   9.949 -0.1964 -0.3490 -0.3255
 2788SOL    HW119997   0.857   2.185  10.004  1.7002  1.2801  3.1579
 2788SOL    HW219998   0.909   2.177   9.869 -0.5548  0.5010 -0.8085
 2789SOL     OW19999   0.683   0.597   4.896 -0.2977 -0.5330  0.0834
 2789SOL    HW120000   0.720   0.525   4.948 -1.1334  0.1911  1.6905
 2789SOL    HW220001   0.614   0.631   4.953  2.6576  1.3558  2.5478
 2790SOL     OW20002   2.463   3.137   1.873 -0.2013  0.2002 -0.0923
 2790SOL    HW120003   2.419   3.221   1.884  0.4649  0.7168 -1.3202
 2790SOL    HW220004   2.389   3.077   1.859 -0.0768  0.5336 -2.2749
 2791SOL     OW20005   3.580   0.994   4.275 -0.3224  0.3878  0.1466
 2791SOL    HW120006   3.589   0.901   4.252 -1.6843  0.1880  0.3670
 2791SOL    HW220007   3.580   0.982   4.370  1.0264  1.2206  0.2443
 2792SOL     OW20008   3.216   4.182   2.372 -0.1696  0.3266 -0.1380
 2792SOL    HW120009   3.179   4.205   2.287 -0.3753  0.4308 -0.0206
 2792SOL    HW220010   3.212   4.267   2.416 -0.1802 -0.2663  0.9924
 2793SOL     OW20011   0.608   4.706   1.915  0.2360 -1.2916  0.6383
 2793SOL    HW120012   0.562   4.695   1.998  1.1062 -1.0740  1.1589
 2793SOL    HW220013   0.564   4.639   1.863 -0.0608 -1.6465  1.3466
 2794SOL     OW20014   1.267   1.669  15.305  0.5273  0.0925  0.0453
 2794SOL    HW120015   1.180   1.634  15.322 -0.2166  0.6468 -2.5958
 2794SOL    HW220016   1.247   1.711  15.221  0.5885  0.7043  0.3358
 2795SOL     OW20017   3.600   2.648  14.494  0.7944  0.0112 -0.3855
 2795SOL    HW120018   3.543   2.677  14.423 -2.0309 -2.9494  0.6726
 2795SOL    HW220019   3.676   2.631  14.437  1.1680 -0.6482  0.3097
 2796SOL     OW20020   0.414   2.922  15.589  0.3081  0.4989 -0.4476
 2796SOL    HW120021   0.504   2.900  15.567 -0.0290 -1.2395 -0.0884
 2796SOL    HW220022   0.383   2.832  15.586  1.1521  0.1837  0.3723
 2797SOL     OW20023   2.475   3.069   4.360 -0.6820  0.4500  0.0931
 2797SOL    HW120024   2.423   3.022   4.295 -1.3786  0.3885  0.6878
 2797SOL    HW220025   2.528   3.133   4.313 -1.5631 -1.1160 -3.0450
 2798SOL     OW20026   3.966   3.694  16.333  0.1249  0.2385  0.6102
 2798SOL    HW120027   4.013   3.730  16.409 -0.8972 -0.8745  1.7730
 2798SOL    HW220028   3.918   3.774  16.311 -2.1491 -1.6011 -1.1664
 2799SOL     OW20029   2.155   1.553   0.955 -0.2247  0.3423 -0.0885
 2799SOL    HW120030   2.118   1.619   1.013 -0.9716 -0.7520  0.6895
 2799SOL    HW220031   2.237   1.591   0.924 -0.2411  2.5693  2.7003
 2800SOL     OW20032   0.308   2.196   6.806  0.3425 -0.2752  0.2675
 2800SOL    HW120033   0.317   2.265   6.741  0.8291 -0.5368  0.0614
 2800SOL    HW220034   0.273   2.232   6.888 -0.9319  0.6455 -0.6855
 2801SOL     OW20035   2.204   1.128   2.257 -0.3635 -0.7586 -0.6472
 2801SOL    HW120036   2.117   1.139   2.295 -0.5012  0.4748 -1.3293
 2801SOL    HW220037   2.213   1.033   2.258 -0.2704 -0.7589 -1.6061
 2802SOL     OW20038   0.204   2.483   1.505 -0.0540 -0.1534 -0.0554
 2802SOL    HW120039   0.265   2.509   1.436 -0.4260 -1.1024 -0.7505
 2802SOL    HW220040   0.168   2.568   1.530 -0.6935 -0.3894 -0.1710
 2803SOL     OW20041   1.541   2.183   2.058 -0.0501  0.4503  0.0386
 2803SOL    HW120042   1.554   2.107   2.000  1.5807 -1.4000  2.8100
 2803SOL    HW220043   1.610   2.185   2.124 -0.3326 -1.9852  0.4190
 2804SOL     OW20044   1.933   2.785   5.249  0.6081 -0.1730  0.3435
 2804SOL    HW120045   1.936   2.825   5.336 -1.2868 -0.0526  0.3385
 2804SOL    HW220046   1.953   2.695   5.275  0.2260  0.0214  1.3402
 2805SOL     OW20047   4.546   1.000   4.473 -0.4169 -0.5616 -0.0899
 2805SOL    HW120048   4.578   1.039   4.554 -1.4584  0.1358 -0.0107
 2805SOL    HW220049   4.492   1.067   4.432  0.4849  0.3936  0.2948
 2806SOL     OW20050   0.555   3.001   4.807 -0.3683  0.0015  0.3789
 2806SOL    HW120051   0.475   2.952   4.786 -1.0015  1.7329 -1.1999
 2806SOL    HW220052   0.559   2.964   4.896 -1.2414 -1.3735 -0.1486
 2807SOL     OW20053   3.287   2.982   6.035 -0.2343 -0.4258 -0.3284
 2807SOL    HW120054   3.347   2.985   6.109  0.2546 -0.9791 -0.7063
 2807SOL    HW220055   3.211   3.030   6.070  0.8289  1.5809 -0.7662
 2808SOL     OW20056   4.439   3.769  10.309  0.3178 -0.1846  0.1831
 2808SOL    HW120057   4.512   3.712  10.282  0.4448 -1.2786  2.8871
 2808SOL    HW220058   4.479   3.848  10.273 -1.7323  0.5651 -0.4106
 2809SOL     OW20059   3.353   1.943  10.117  0.2713  0.7291  0.7570
 2809SOL    HW120060   3.436   1.989  10.125  1.5403 -1.2798 -0.9724
 2809SOL    HW220061   3.302   2.024  10.125 -0.4908  0.5872 -2.2688
 2810SOL     OW20062   0.592   0.995   6.395  0.0436 -0.3110  0.1352
 2810SOL    HW120063   0.531   1.057   6.436 -0.0566 -0.5237  0.3096
 2810SOL    HW220064   0.562   0.915   6.438  2.5104 -1.4923 -0.3229
 2811SOL     OW20065   2.340   1.072   4.128 -0.3367 -0.3082 -0.4135
 2811SOL    HW120066   2.378   1.141   4.073  0.5565 -0.0410  0.5301
 2811SOL    HW220067   2.365   0.995   4.077  1.1230 -0.4439  0.4756
 2812SOL     OW20068   0.940   4.447  12.971  0.2812 -0.3823 -0.0479
 2812SOL    HW120069   0.883   4.405  13.035  0.8795 -1.4506 -0.2124
 2812SOL    HW220070   0.940   4.538  13.001  0.5948  0.0549 -1.3959
 2813SOL     OW20071   1.870   2.308   6.716 -0.0975 -0.2649  0.1161
 2813SOL    HW120072   1.946   2.347   6.760  1.2543  0.5915 -3.0211
 2813SOL    HW220073   1.857   2.223   6.757 -1.0526  0.0627  0.4834
 2814SOL     OW20074   3.950   1.822   2.169 -0.5652 -0.2140  0.1708
 2814SOL    HW120075   3.871   1.851   2.216  0.4459 -0.3483  1.9457
 2814SOL    HW220076   3.906   1.761   2.109 -1.7926  0.5989  0.2239
 2815SOL     OW20077   2.816   3.976  12.008 -0.1950 -0.6960 -0.0663
 2815SOL    HW120078   2.732   4.003  12.043  0.6235  2.3790 -0.4252
 2815SOL    HW220079   2.830   4.052  11.952  0.7781 -0.1439  0.9154
 2816SOL     OW20080   4.720   3.309  17.131  0.4257  0.0718  0.1151
 2816SOL    HW120081   0.037   3.227  17.123  0.1524  0.0951 -1.9552
 2816SOL    HW220082   4.639   3.285  17.085  0.9197 -0.9333 -0.2428
 2817SOL     OW20083   0.797   2.673  16.110 -0.1622 -0.1025 -0.4615
 2817SOL    HW120084   0.829   2.762  16.095 -1.3689  0.7866  2.2651
 2817SOL    HW220085   0.797   2.652  16.016  2.3494 -1.1495 -0.2224
 2818SOL     OW20086   3.713   3.351   6.304  0.1242 -0.2476  0.2090
 2818SOL    HW120087   3.764   3.312   6.233  0.5628  0.4958  0.1161
 2818SOL    HW220088   3.731   3.301   6.383  0.9517  0.0603  0.2161
 2819SOL     OW20089   3.313   1.186  15.985 -0.4880  0.4545 -0.1442
 2819SOL    HW120090   3.339   1.138  16.064  0.6806 -0.4265 -1.0601
 2819SOL    HW220091   3.383   1.162  15.924 -1.3452 -1.2347 -0.4418
 2820SOL     OW20092   0.828   2.470   3.838 -0.6978 -0.1992  0.4738
 2820SOL    HW120093   0.909   2.521   3.845 -1.1937  0.4129  1.7173
 2820SOL    HW220094   0.811   2.476   3.744  2.6652 -1.1498 -0.1901
 2821SOL     OW20095   4.577   1.822   7.535  0.2203 -0.1645  0.1386
 2821SOL    HW120096   4.638   1.816   7.609 -2.2311  0.9058  2.2688
 2821SOL    HW220097   4.591   1.914   7.514 -1.3811  0.1073  0.2325
 2822SOL     OW20098   2.146   2.155   5.324  0.6091  0.4636  0.1775
 2822SOL    HW120099   2.202   2.115   5.258  0.1450  1.3067 -0.7228
 2822SOL    HW220100   2.207   2.184   5.392  0.4280  0.7599  0.2164
 2823SOL     OW20101   3.319   1.685   7.017 -0.2256  0.0000 -0.2847
 2823SOL    HW120102   3.357   1.696   6.929 -1.3418  0.8615 -0.6574
 2823SOL    HW220103   3.380   1.740   7.066 -1.6708  0.6609  0.7417
 2824SOL     OW20104   3.490   1.805   4.156  0.3048  0.1632  0.0444
 2824SOL    HW120105   3.575   1.815   4.198  0.2726  2.2236 -0.3686
 2824SOL    HW220106   3.513   1.729   4.102  1.0253 -0.0351  0.6325
 2825SOL     OW20107   3.337   2.270   7.812 -0.3091  0.1303 -0.3186
 2825SOL    HW120108   3.309   2.361   7.821 -2.1840 -0.4101 -0.7518
 2825SOL    HW220109   3.253   2.227   7.829 -1.0097  1.6520  0.0139
 2826SOL     OW20110   1.205   3.704   7.956  0.1018 -0.3156  0.3521
 2826SOL    HW120111   1.163   3.681   7.873 -1.4770  0.5867  0.8951
 2826SOL    HW220112   1.214   3.799   7.946 -2.1346 -0.2118 -0.8215
 2827SOL     OW20113   1.876   0.512  13.166  0.3299 -0.0603 -0.5093
 2827SOL    HW120114   1.786   0.480  13.169 -0.2729  1.6986  0.2435
 2827SOL    HW220115   1.893   0.489  13.075 -0.1570  1.4437 -0.9803
 2828SOL     OW20116   1.932   2.094   4.360 -0.1133 -0.4632 -0.2012
 2828SOL    HW120117   1.966   2.182   4.374 -0.0098 -0.1847 -2.2149
 2828SOL    HW220118   1.838   2.110   4.351 -0.1375  0.4156  1.7069
 2829SOL     OW20119   4.448   1.703   9.092 -0.1536 -0.3503  0.4642
 2829SOL    HW120120   4.386   1.775   9.103 -0.6400 -0.7924  0.6413
 2829SOL    HW220121   4.461   1.695   8.998 -0.3398  2.0487  0.2454
 2830SOL     OW20122   2.694   3.910   3.783  0.1449 -0.1653  0.5505
 2830SOL    HW120123   2.621   3.915   3.844 -0.1660  1.0745  0.0680
 2830SOL    HW220124   2.741   3.991   3.803 -0.3883 -0.5239  3.2492
 2831SOL     OW20125   0.844   1.380   2.837  0.0948  0.0522  0.9018
 2831SOL    HW120126   0.874   1.319   2.905  0.8315 -0.8369 -0.2211
 2831SOL    HW220127   0.851   1.324   2.759 -2.4083 -0.1693  0.8205
 2832SOL     OW20128   0.392   1.701  10.866 -0.2435 -0.1364  0.6078
 2832SOL    HW120129   0.477   1.674  10.901 -1.1980 -0.6773  2.4648
 2832SOL    HW220130   0.407   1.795  10.869  0.1204 -0.1335 -1.0001
 2833SOL     OW20131   0.534   0.176   6.892  0.8721 -0.2942 -0.5260
 2833SOL    HW120132   0.532   0.201   6.985  0.5359  0.6943 -0.7947
 2833SOL    HW220133   0.628   0.183   6.880  0.7602  1.4552 -0.4288
 2834SOL     OW20134   1.245   3.561   8.364 -0.0237 -0.2959 -0.5665
 2834SOL    HW120135   1.173   3.506   8.395  0.4026  0.0558  1.0578
 2834SOL    HW220136   1.310   3.493   8.346  2.2271  1.4997  0.8532
 2835SOL     OW20137   3.756   2.086  10.066  0.2484 -0.5653 -0.2442
 2835SOL    HW120138   3.682   2.100  10.125  0.6643 -0.5317  0.2701
 2835SOL    HW220139   3.734   2.150   9.999  0.9012  0.3026  0.3806
 2836SOL     OW20140   0.943   1.029   2.736 -0.5922 -0.0907  0.1545
 2836SOL    HW120141   1.036   1.007   2.736 -0.5216  0.1488 -1.7285
 2836SOL    HW220142   0.928   1.091   2.807  0.1148  0.5309 -0.2443
 2837SOL     OW20143   1.966   3.589   8.487  0.0932  0.1459 -0.2174
 2837SOL    HW120144   1.916   3.524   8.535  0.8945 -1.7628 -1.9454
 2837SOL    HW220145   1.899   3.642   8.443  0.7226  0.2908 -1.0028
 2838SOL     OW20146   3.562   4.682   3.306 -0.1955  0.0600 -0.3816
 2838SOL    HW120147   3.516   4.606   3.268 -0.7786  1.0186 -1.5999
 2838SOL    HW220148   3.544   4.657   3.397 -0.9939 -0.6658 -0.7339
 2839SOL     OW20149   1.642   1.716   5.688 -0.0492 -0.5870 -0.7051
 2839SOL    HW120150   1.701   1.641   5.684 -0.3981 -0.9613  1.2691
 2839SOL    HW220151   1.627   1.729   5.594  1.5385  0.2565 -0.8454
 2840SOL     OW20152   2.325   1.537   9.792  0.6024 -0.1520  0.0719
 2840SOL    HW120153   2.255   1.554   9.730  0.7873  0.9223  0.1674
 2840SOL    HW220154   2.275   1.532   9.873  0.9132 -0.4087  0.2483
 2841SOL     OW20155   3.826   3.786   1.651 -0.0694  0.2516 -0.3119
 2841SOL    HW120156   3.769   3.755   1.581  2.1095 -1.1247 -1.4782
 2841SOL    HW220157   3.872   3.703   1.666 -0.8183 -0.5360 -2.3599
 2842SOL     OW20158   0.978   1.047   3.961 -0.9371 -0.1158  0.4217
 2842SOL    HW120159   1.058   1.035   3.910  0.1014  2.1780  1.5049
 2842SOL    HW220160   1.002   1.001   4.041  1.1605 -0.7085 -0.5714
 2843SOL     OW20161   3.868   3.541   2.916  0.2655 -0.5474 -0.4178
 2843SOL    HW120162   3.906   3.468   2.965 -1.0270 -1.0678 -0.1904
 2843SOL    HW220163   3.823   3.501   2.841  0.0238 -0.2200 -0.4456
 2844SOL     OW20164   4.714   1.620   4.951  0.4582 -0.1164  0.4950
 2844SOL    HW120165   0.005   1.674   5.026  0.0048 -1.1896  1.3908
 2844SOL    HW220166   4.641   1.673   4.918  0.1881 -1.5908 -1.3008
 2845SOL     OW20167   1.782   0.649   7.863  0.0639  0.0881  0.0452
 2845SOL    HW120168   1.782   0.739   7.828  3.7524  0.2966  0.5106
 2845SOL    HW220169   1.872   0.650   7.896  0.3638 -0.9577 -0.7331
 2846SOL     OW20170   0.038   3.069  16.035  0.3332 -0.0845  0.1469
 2846SOL    HW120171   0.074   3.157  16.027  1.0442 -0.6247 -2.7734
 2846SOL    HW220172   0.003   3.082  16.123 -1.0296  1.6421 -0.6367
 2847SOL     OW20173   4.323   2.955   0.956  0.4054  0.2451  0.4193
 2847SOL    HW120174   4.312   2.862   0.937 -0.7650  0.3352  0.6559
 2847SOL    HW220175   4.241   2.992   0.986 -0.8080 -1.0335 -1.2901
 2848SOL     OW20176   3.102   1.715   5.660  0.0408  0.3945  0.1101
 2848SOL    HW120177   3.070   1.801   5.684  1.5773  0.5828  1.4776
 2848SOL    HW220178   3.162   1.721   5.585  0.8138  0.9526  0.7746
 2849SOL     OW20179   0.364   3.260  12.721  0.5653  0.2697 -0.4246
 2849SOL    HW120180   0.449   3.304  12.727  0.1859  0.7981  1.1553
 2849SOL    HW220181   0.391   3.192  12.659  0.8319 -1.8324  2.0483
 2850SOL     OW20182   2.538   3.051  10.644 -0.0686 -0.5945  0.2077
 2850SOL    HW120183   2.491   3.113  10.699 -0.1612 -1.2830  0.8871
 2850SOL    HW220184   2.530   3.079  10.552  1.6538 -2.4206 -0.5045
 2851SOL     OW20185   3.159   1.923   7.915  0.7657  0.5225  0.6464
 2851SOL    HW120186   3.174   1.990   7.982 -1.5213  1.7328 -0.0618
 2851SOL    HW220187   3.246   1.882   7.914  0.7534  0.4012  2.9225
 2852SOL     OW20188   2.693   1.083  16.498  0.6362 -0.2405 -0.1640
 2852SOL    HW120189   2.611   1.132  16.501  0.1289 -1.1892  1.7066
 2852SOL    HW220190   2.721   1.077  16.590  1.4890 -0.1104 -0.4167
 2853SOL     OW20191   3.249   1.716  16.544 -0.3861  0.2729  0.5356
 2853SOL    HW120192   3.158   1.699  16.521 -0.1407 -0.8662  0.3759
 2853SOL    HW220193   3.273   1.795  16.496 -0.6755  0.7572  1.1921
 2854SOL     OW20194   2.506   3.840  13.153  0.0229  0.0165 -0.3519
 2854SOL    HW120195   2.568   3.777  13.190  1.7118  0.8825 -1.6792
 2854SOL    HW220196   2.489   3.796  13.069  0.0491 -2.2852  0.8607
 2855SOL     OW20197   0.095   0.120   8.621  0.0420 -0.5015 -0.2933
 2855SOL    HW120198   0.064   0.201   8.580  1.9602 -0.0341 -0.8329
 2855SOL    HW220199   0.174   0.092   8.575 -0.3214  0.8911 -1.7900
 2856SOL     OW20200   4.688   1.780   7.810 -0.7045  0.0662 -0.0824
 2856SOL    HW120201   0.036   1.752   7.765 -1.1887 -0.7937 -0.3992
 2856SOL    HW220202   4.655   1.696   7.840 -2.8623  0.5373 -1.0792
 2857SOL     OW20203   4.347   2.631   1.485 -0.3085 -0.9295 -0.4392
 2857SOL    HW120204   4.303   2.692   1.544  1.5233 -2.1777  2.2117
 2857SOL    HW220205   4.382   2.572   1.552  0.9216  1.6301  1.1612
 2858SOL     OW20206   3.896   3.219   8.633 -0.4245  0.1775 -0.5109
 2858SOL    HW120207   3.878   3.157   8.704 -2.6598 -0.4981 -1.6834
 2858SOL    HW220208   3.940   3.159   8.574 -2.6583 -0.0642 -1.9063
 2859SOL     OW20209   0.647   3.308  11.058 -0.4368  0.1042  0.6014
 2859SOL    HW120210   0.733   3.267  11.069 -1.2377 -0.8434  3.4296
 2859SOL    HW220211   0.615   3.278  11.143  0.6248 -0.1553  0.9195
 2860SOL     OW20212   1.625   3.656  13.283  0.4352  0.0853 -0.3926
 2860SOL    HW120213   1.538   3.624  13.259  1.0077  0.4601 -2.9951
 2860SOL    HW220214   1.662   3.667  13.196  2.6070  0.1869  0.5515
 2861SOL     OW20215   3.349   4.666   6.167 -0.2601  0.3213 -0.1734
 2861SOL    HW120216   3.356   4.587   6.221 -1.1239  0.5060  0.2187
 2861SOL    HW220217   3.339   4.627   6.080 -3.3618 -0.1314  0.3767
 2862SOL     OW20218   2.864   0.427   6.175 -0.5339 -0.3997  0.4244
 2862SOL    HW120219   2.895   0.352   6.226  0.4733 -0.8192 -0.7794
 2862SOL    HW220220   2.947   0.470   6.152  0.2076 -1.4482  1.1055
 2863SOL     OW20221   0.241   1.263   1.388 -0.1740 -0.1368  0.5842
 2863SOL    HW120222   0.154   1.300   1.374  0.5796  0.4555 -2.3844
 2863SOL    HW220223   0.238   1.184   1.334  1.1945  1.2113 -1.4501
 2864SOL     OW20224   0.199   4.546  13.911  0.2982  0.5239 -0.2236
 2864SOL    HW120225   0.232   4.489  13.841  1.3748  3.2493 -1.9049
 2864SOL    HW220226   0.170   4.622  13.862  0.8771 -0.5508 -2.2380
 2865SOL     OW20227   3.159   0.767   7.985  0.4015 -0.1642  0.6380
 2865SOL    HW120228   3.077   0.758   7.937  0.9438 -1.1034 -0.1129
 2865SOL    HW220229   3.134   0.743   8.074 -0.4102  0.6454  0.6307
 2866SOL     OW20230   4.028   1.396   7.283 -0.3633  0.0919  0.1061
 2866SOL    HW120231   4.025   1.322   7.343  1.9847  1.3196  1.7348
 2866SOL    HW220232   4.013   1.362   7.194  1.3084  0.4798 -0.3137
 2867SOL     OW20233   1.926   4.238  15.949  0.6598  0.1268  0.5416
 2867SOL    HW120234   1.858   4.234  15.882  1.0695  0.2890  0.1115
 2867SOL    HW220235   1.972   4.321  15.934  3.0959 -1.0514  1.3690
 2868SOL     OW20236   0.293   4.617   6.083  0.3266 -0.3256 -0.1824
 2868SOL    HW120237   0.258   4.580   6.165 -2.4999  0.6359 -0.9391
 2868SOL    HW220238   0.363   4.553   6.072  0.1151 -0.7968  1.1616
 2869SOL     OW20239   4.647   0.080   6.090  0.0495  0.3370 -0.0203
 2869SOL    HW120240   4.649   0.158   6.146 -0.1278  0.8887 -0.7852
 2869SOL    HW220241   4.656   0.121   6.004 -0.7137 -0.3842 -0.4518
 2870SOL     OW20242   0.137   4.486   5.284 -0.2189 -0.2870  0.3275
 2870SOL    HW120243   0.218   4.522   5.247 -0.9635  0.2379 -0.7860
 2870SOL    HW220244   0.082   4.482   5.206 -1.5716 -0.6407  1.3040
 2871SOL     OW20245   4.679   4.099   9.991 -0.2605  0.2893  0.1039
 2871SOL    HW120246   4.638   4.107   9.905  1.4687 -1.0818 -0.8669
 2871SOL    HW220247   4.681   4.005  10.010 -0.1537  0.2737  0.0159
 2872SOL     OW20248   3.525   1.310   4.025 -0.3719 -0.0695  0.7287
 2872SOL    HW120249   3.535   1.276   3.937  1.6628  0.3496  0.8121
 2872SOL    HW220250   3.594   1.262   4.071  0.0225  2.3125  2.6471
 2873SOL     OW20251   1.650   1.630   4.942 -0.4811 -0.3990  0.2666
 2873SOL    HW120252   1.620   1.625   4.851  0.2621 -1.9044  0.1012
 2873SOL    HW220253   1.585   1.689   4.980  0.4531  0.1375  1.0345
 2874SOL     OW20254   0.017   0.671   9.127  0.3118 -0.2410  0.2823
 2874SOL    HW120255   0.040   0.614   9.200  2.1226  0.7861  0.5166
 2874SOL    HW220256   0.044   0.609   9.058  0.3468  0.8481 -0.6827
 2875SOL     OW20257   2.082   4.639   9.324  0.1716  0.5201 -0.0849
 2875SOL    HW120258   2.012   4.636   9.260 -1.4046  0.7903  1.6180
 2875SOL    HW220259   2.128   4.720   9.302 -1.6929  1.4084 -0.6667
 2876SOL     OW20260   3.740   1.652   5.508  0.0596  0.5436  0.7512
 2876SOL    HW120261   3.734   1.644   5.603  2.4723 -1.7309  0.7066
 2876SOL    HW220262   3.662   1.706   5.495  0.2177  1.0034  1.7121
 2877SOL     OW20263   3.091   4.275   4.936 -0.1858  0.1792  0.2794
 2877SOL    HW120264   3.167   4.315   4.894  0.5060 -0.5335  0.8620
 2877SOL    HW220265   3.113   4.265   5.029  1.4658 -2.7753 -0.4308
 2878SOL     OW20266   0.935   1.145   1.841  0.0215  0.4264 -0.0775
 2878SOL    HW120267   0.948   1.239   1.845 -1.0356  0.5783 -0.3369
 2878SOL    HW220268   0.861   1.143   1.780  0.6427 -0.2021 -0.8187
 2879SOL     OW20269   0.980   4.555   4.187 -0.3865 -0.4624  0.1264
 2879SOL    HW120270   1.036   4.482   4.159  0.5175  1.8039 -4.0324
 2879SOL    HW220271   1.029   4.577   4.266  0.0540 -1.1445  0.0474
 2880SOL     OW20272   3.863   0.123   8.221 -0.5846  0.2803  0.2119
 2880SOL    HW120273   3.901   0.054   8.168 -0.8557 -0.3017  0.7772
 2880SOL    HW220274   3.775   0.094   8.244 -0.2687 -1.2921 -0.5777
 2881SOL     OW20275   2.548   3.809   4.745  0.1378 -0.4489 -0.2364
 2881SOL    HW120276   2.593   3.826   4.827  1.1976 -0.4536 -0.8179
 2881SOL    HW220277   2.469   3.765   4.777  0.1852 -0.4380 -0.1054
 2882SOL     OW20278   1.778   0.204   2.631 -0.0183  0.7818 -0.5042
 2882SOL    HW120279   1.702   0.230   2.579  1.3621 -0.5005 -3.1587
 2882SOL    HW220280   1.834   0.280   2.614 -1.3310  1.6491 -1.0020
 2883SOL     OW20281   2.000   3.600  12.061 -0.6386 -0.0638  0.0436
 2883SOL    HW120282   2.012   3.513  12.021 -0.0662 -0.5382  1.2304
 2883SOL    HW220283   1.917   3.610  12.015 -0.5002  2.4295  0.3457
 2884SOL     OW20284   2.976   1.894   3.832 -0.5927 -0.2912 -0.0471
 2884SOL    HW120285   2.928   1.831   3.885 -2.1593  2.0354  1.3038
 2884SOL    HW220286   2.954   1.865   3.744  0.9268 -2.3029  0.2365
 2885SOL     OW20287   0.329   1.731   2.789  0.5630  0.2558 -0.2499
 2885SOL    HW120288   0.398   1.745   2.854 -0.8997 -1.2970  1.6675
 2885SOL    HW220289   0.298   1.821   2.793  1.3777  0.4859  0.9567
 2886SOL     OW20290   2.815   2.525   7.233 -0.2960 -0.5502  0.1121
 2886SOL    HW120291   2.786   2.615   7.248 -3.1567 -1.2339 -1.3503
 2886SOL    HW220292   2.891   2.525   7.290 -1.6434  1.9588  1.9045
 2887SOL     OW20293   3.429   2.697   3.048  0.2085 -0.0335 -0.5351
 2887SOL    HW120294   3.438   2.623   3.107 -0.5091  1.4534  1.4256
 2887SOL    HW220295   3.480   2.671   2.971 -0.2051 -0.8132 -0.5370
 2888SOL     OW20296   1.569   2.087   6.867  0.3448  0.2236 -0.1837
 2888SOL    HW120297   1.585   1.994   6.883 -1.4765  0.1359  1.0536
 2888SOL    HW220298   1.544   2.084   6.774 -0.9479 -1.8823  0.2289
 2889SOL     OW20299   2.972   2.206  11.760  0.3468 -0.4891 -0.2569
 2889SOL    HW120300   3.031   2.258  11.814 -1.7946  1.0432  0.6268
 2889SOL    HW220301   2.949   2.267  11.690  1.5314 -2.2026 -2.1530
 2890SOL     OW20302   1.170   2.174   5.922  0.2611  0.0341 -0.1667
 2890SOL    HW120303   1.256   2.135   5.938 -0.2070 -0.0011  2.2645
 2890SOL    HW220304   1.125   2.117   5.860 -0.7100 -0.3303  0.8696
 2891SOL     OW20305   2.632   0.313   8.401  0.6568  0.0218 -0.3345
 2891SOL    HW120306   2.693   0.249   8.437 -2.3669 -1.9258  1.3476
 2891SOL    HW220307   2.630   0.382   8.467 -0.7272 -1.1194  0.8282
 2892SOL     OW20308   2.026   4.653  10.230 -0.1099  0.4663  0.1859
 2892SOL    HW120309   2.074   0.002  10.247 -0.3088  0.6331 -0.0419
 2892SOL    HW220310   1.940   4.692  10.212 -0.9133 -1.2402  0.3103
 2893SOL     OW20311   2.767   1.553   5.125 -0.2313  0.0994 -0.3358
 2893SOL    HW120312   2.688   1.514   5.089 -0.8029 -0.6034  1.6590
 2893SOL    HW220313   2.767   1.527   5.217 -2.9347 -2.1442 -0.9739
 2894SOL     OW20314   4.130   3.976  13.252  0.4305 -0.7877 -0.6617
 2894SOL    HW120315   4.187   3.900  13.263  1.4467  0.0685 -0.0820
 2894SOL    HW220316   4.130   3.993  13.158  0.5105 -1.6921 -0.8235
 2895SOL     OW20317   3.581   1.349  11.763  0.2111 -0.1353 -0.3668
 2895SOL    HW120318   3.665   1.365  11.807 -0.3624 -0.0850  0.7015
 2895SOL    HW220319   3.616   1.328  11.676  1.2156 -0.5975  0.1490
 2896SOL     OW20320   0.776   0.090   1.417 -0.0118  0.3978  0.6953
 2896SOL    HW120321   0.856   0.057   1.457  0.7359  0.0229 -1.0843
 2896SOL    HW220322   0.712   0.036   1.463 -0.5471  0.3653 -0.0858
 2897SOL     OW20323   2.674   0.700   6.427  0.6345 -0.0388  0.0767
 2897SOL    HW120324   2.695   0.630   6.489 -0.0726 -0.5333 -0.2381
 2897SOL    HW220325   2.765   0.722   6.408  0.2453  0.7289 -0.8698
 2898SOL     OW20326   1.139   2.137   0.111 -0.0979 -0.0425  0.2128
 2898SOL    HW120327   1.079   2.182   0.051 -0.6091  1.8263  2.1276
 2898SOL    HW220328   1.076   2.072   0.143 -2.0575  1.3214 -0.8625
 2899SOL     OW20329   3.816   1.519   9.323  0.5457 -0.0932 -0.3255
 2899SOL    HW120330   3.880   1.558   9.382  1.8749 -2.0153 -0.4998
 2899SOL    HW220331   3.875   1.453   9.286  0.3572  0.6338 -1.9482
 2900SOL     OW20332   3.538   2.602  16.987  0.1926  0.6288  0.2709
 2900SOL    HW120333   3.453   2.607  17.031 -0.7652  0.6049 -1.5848
 2900SOL    HW220334   3.515   2.629  16.898  1.4359  1.8747  0.3466
 2901SOL     OW20335   3.117   1.574  11.630 -0.7925  0.0975  0.2564
 2901SOL    HW120336   3.134   1.524  11.550 -0.7082 -1.2340  1.1081
 2901SOL    HW220337   3.064   1.514  11.682 -1.0835  1.5473  1.6187
 2902SOL     OW20338   0.160   1.650   2.355 -0.1508 -0.3601  0.1710
 2902SOL    HW120339   0.182   1.558   2.345 -0.9414 -0.5323  0.0172
 2902SOL    HW220340   0.147   1.670   2.262 -0.8399 -0.2628  0.2898
 2903SOL     OW20341   0.901   4.121   5.190  0.0758  0.6658 -0.1174
 2903SOL    HW120342   0.821   4.171   5.206 -0.4494  0.3752 -1.8039
 2903SOL    HW220343   0.874   4.045   5.241 -1.2339  0.5350 -1.0009
 2904SOL     OW20344   0.071   2.342   3.729 -0.0043 -0.7891  0.1341
 2904SOL    HW120345   0.031   2.256   3.719 -0.7257 -0.6079  1.4913
 2904SOL    HW220346   0.051   2.365   3.820 -2.5119 -2.2283 -0.0660
 2905SOL     OW20347   1.855   1.698   0.798 -0.2414 -0.3563  0.0398
 2905SOL    HW120348   1.880   1.663   0.884 -1.4882  2.8353  1.6864
 2905SOL    HW220349   1.886   1.788   0.803  2.4715 -1.3633  1.4056
 2906SOL     OW20350   0.855   4.469   2.106 -0.6277  0.5531  0.0307
 2906SOL    HW120351   0.898   4.425   2.033  0.0931 -2.1881  2.1134
 2906SOL    HW220352   0.769   4.428   2.097 -0.7338  1.1853 -1.8203
 2907SOL     OW20353   0.194   1.060   1.672  0.5159 -0.8237 -0.3169
 2907SOL    HW120354   0.172   1.018   1.754  3.4159  0.1613  0.9563
 2907SOL    HW220355   0.284   1.030   1.661  0.4288 -0.6374 -1.5908
 2908SOL     OW20356   3.142   0.669   3.718  0.5019 -0.1746 -0.4670
 2908SOL    HW120357   3.158   0.711   3.803  0.3995 -1.9126  0.4046
 2908SOL    HW220358   3.205   0.717   3.664  1.0872  0.1379  0.4944
 2909SOL     OW20359   3.564   3.225   4.745  0.2612 -0.4193  0.4657
 2909SOL    HW120360   3.652   3.189   4.743  0.3613 -0.0688 -1.3477
 2909SOL    HW220361   3.575   3.313   4.708  2.0485 -0.7759  0.1705
 2910SOL     OW20362   0.295   1.108   3.525  0.6223  0.4835 -1.0156
 2910SOL    HW120363   0.372   1.063   3.561 -1.1750 -1.3510  0.5660
 2910SOL    HW220364   0.311   1.193   3.565  2.3571  0.6217 -2.0133
 2911SOL     OW20365   2.536   3.866  12.874 -0.0977  0.3156  0.7039
 2911SOL    HW120366   2.529   3.961  12.865  0.8192  0.2138 -1.1368
 2911SOL    HW220367   2.508   3.840  12.786  0.7116  0.0022  0.5383
 2912SOL     OW20368   3.998   3.168   2.567  0.0668 -0.0176  0.0514
 2912SOL    HW120369   3.954   3.252   2.561  1.3597  0.6094 -0.4720
 2912SOL    HW220370   4.023   3.152   2.476 -1.3737  0.5579 -0.4313
 2913SOL     OW20371   1.984   1.261   9.667  0.3729  0.0645 -0.2623
 2913SOL    HW120372   1.970   1.234   9.758 -2.1631 -0.6539 -0.8627
 2913SOL    HW220373   1.940   1.346   9.668  0.1583 -0.0492 -0.0651
 2914SOL     OW20374   3.822   1.479   3.941  0.8129 -0.1619 -0.0168
 2914SOL    HW120375   3.831   1.574   3.942  1.2405 -0.1906 -0.9978
 2914SOL    HW220376   3.805   1.455   3.849 -0.7257  1.1091 -0.0552
 2915SOL     OW20377   0.851   0.999  14.089 -0.6223 -0.4667 -0.2474
 2915SOL    HW120378   0.890   1.083  14.063  0.5051 -0.7364  0.5645
 2915SOL    HW220379   0.770   1.036  14.123  0.2784  0.6759  0.6821
 2916SOL     OW20380   4.534   2.062   3.271  0.2213  0.2327  0.2587
 2916SOL    HW120381   4.453   2.028   3.234 -0.0296  1.2977 -0.1602
 2916SOL    HW220382   4.545   1.988   3.331 -0.2638 -0.2249 -0.2127
 2917SOL     OW20383   1.420   3.153   7.746  0.1429  0.9206 -0.2581
 2917SOL    HW120384   1.358   3.102   7.694 -1.1325  0.7992  1.3645
 2917SOL    HW220385   1.471   3.181   7.671 -0.5050 -1.5540 -1.6470
 2918SOL     OW20386   2.421   0.200   3.044 -0.2887  0.0191  0.4234
 2918SOL    HW120387   2.481   0.238   2.980  0.5617  0.7064  1.6360
 2918SOL    HW220388   2.351   0.265   3.049  0.1972  0.5398  0.4446
 2919SOL     OW20389   2.159   2.332   3.228  0.0460 -0.5148 -0.1310
 2919SOL    HW120390   2.124   2.417   3.201  0.7153 -1.1225 -2.9335
 2919SOL    HW220391   2.247   2.318   3.195  1.9383  2.5033  3.6290
 2920SOL     OW20392   4.702   3.361   0.801  0.5968 -0.3476  0.3378
 2920SOL    HW120393   0.017   3.301   0.743 -0.6881 -1.2196  0.1998
 2920SOL    HW220394   4.714   3.444   0.756  1.5781  0.8447  2.7651
 2921SOL     OW20395   4.145   4.078   6.583 -0.1381 -0.3390  0.0855
 2921SOL    HW120396   4.090   4.156   6.575 -0.8485 -0.8073  0.4241
 2921SOL    HW220397   4.218   4.095   6.524  1.0817  1.2590  2.0437
 2922SOL     OW20398   4.322   1.789   0.476 -0.1573  0.3279  0.2323
 2922SOL    HW120399   4.357   1.878   0.482  1.5280 -0.4202  1.8360
 2922SOL    HW220400   4.232   1.810   0.453  0.1361  1.5247  0.1346
 2923SOL     OW20401   0.155   4.032   9.754 -0.4218  0.1074  0.3130
 2923SOL    HW120402   0.082   4.040   9.693  0.0046  0.7164 -0.1212
 2923SOL    HW220403   0.141   3.943   9.787 -0.2669 -0.2402 -0.5658
 2924SOL     OW20404   1.456   4.517  11.547  0.0946  0.4471 -0.3029
 2924SOL    HW120405   1.526   4.463  11.583 -0.5192  0.6660  1.2151
 2924SOL    HW220406   1.490   4.604  11.569  1.3130 -0.5492  1.7510
 2925SOL     OW20407   3.085   2.111  16.053  0.0475  0.7030 -0.1813
 2925SOL    HW120408   3.083   2.161  16.135  2.5507  2.3454 -1.1194
 2925SOL    HW220409   3.031   2.160  15.991  1.5111 -1.6596 -3.3169
 2926SOL     OW20410   3.462   3.335   1.774  0.1957 -0.4092 -0.0812
 2926SOL    HW120411   3.555   3.325   1.758 -0.0361 -0.9872 -1.0747
 2926SOL    HW220412   3.455   3.415   1.827 -1.5861 -0.4707 -0.1977
 2927SOL     OW20413   4.717   2.700   2.410 -0.1951  0.0721  0.0942
 2927SOL    HW120414   0.005   2.728   2.321 -0.0705 -0.6941 -0.1180
 2927SOL    HW220415   4.696   2.608   2.396 -0.3747 -0.2443  2.4174
 2928SOL     OW20416   1.414   2.517   8.678 -0.0065  0.4605 -0.0814
 2928SOL    HW120417   1.341   2.454   8.681  0.1313  0.2084 -2.4721
 2928SOL    HW220418   1.382   2.567   8.603 -1.9470 -0.2733  0.2393
 2929SOL     OW20419   1.984   1.409   1.676  0.5223 -0.0445 -0.6149
 2929SOL    HW120420   2.034   1.378   1.600  1.5736 -3.7496  1.5976
 2929SOL    HW220421   1.898   1.393   1.637  0.1918  0.6547 -0.1627
 2930SOL     OW20422   2.257   4.287   7.496 -0.1640 -0.1665  0.2606
 2930SOL    HW120423   2.267   4.224   7.567 -0.4027  0.1580  0.5838
 2930SOL    HW220424   2.350   4.310   7.495  0.6196 -3.3183 -0.7042
 2931SOL     OW20425   2.091   4.210  15.244 -0.0684  0.3106  0.1174
 2931SOL    HW120426   2.149   4.200  15.168 -0.0436 -3.7091  0.6854
 2931SOL    HW220427   2.000   4.206  15.216 -0.1229  0.2860  0.2953
 2932SOL     OW20428   3.961   1.556  17.203 -0.1937 -0.1342  0.1710
 2932SOL    HW120429   3.928   1.639  17.237  3.2907  1.7844 -1.0426
 2932SOL    HW220430   4.055   1.574  17.198  0.3998 -3.1082  0.6820
 2933SOL     OW20431   3.487   3.825   4.790 -0.1687 -0.6610 -0.3956
 2933SOL    HW120432   3.501   3.736   4.758 -0.3032  0.5372 -3.7342
 2933SOL    HW220433   3.401   3.815   4.831 -0.5168  1.6243 -0.5523
 2934SOL     OW20434   2.826   0.128   8.488 -0.0263  0.6776 -0.0426
 2934SOL    HW120435   2.802   0.083   8.408 -1.3300 -1.8670  1.8121
 2934SOL    HW220436   2.833   0.052   8.545  0.4263  1.8559  1.4813
 2935SOL     OW20437   0.299   0.648  17.597  0.2849 -0.2551 -0.1032
 2935SOL    HW120438   0.337   0.660  17.683 -0.3975 -1.5816  0.3932
 2935SOL    HW220439   0.369   0.630  17.534  1.8947 -1.8023  2.1206
 2936SOL     OW20440   0.637   0.924   0.404  0.1586 -0.0870 -0.5136
 2936SOL    HW120441   0.702   0.986   0.371  0.9989 -1.2360 -0.9921
 2936SOL    HW220442   0.677   0.841   0.379 -0.4695 -0.4071 -0.4641
 2937SOL     OW20443   3.161   0.515   2.211  0.2672 -0.1983  0.3608
 2937SOL    HW120444   3.130   0.562   2.134 -2.4508 -1.1025  0.8926
 2937SOL    HW220445   3.084   0.515   2.267  1.1816  1.2086  1.5947
 2938SOL     OW20446   1.100   4.180   1.067  0.6130  0.1421 -0.1989
 2938SOL    HW120447   1.127   4.271   1.079 -2.6655  0.8201  1.9229
 2938SOL    HW220448   1.108   4.162   0.974 -1.1757  1.5579 -0.6242
 2939SOL     OW20449   1.106   0.923   8.796  0.6315 -0.3789  0.0548
 2939SOL    HW120450   1.082   0.964   8.713 -0.7011 -0.4627  0.3926
 2939SOL    HW220451   1.090   0.992   8.861  0.7981 -0.4899  0.2153
 2940SOL     OW20452   2.091   2.650   5.876 -0.7715  0.2929 -0.1381
 2940SOL    HW120453   2.068   2.557   5.884 -0.4454  0.2623  0.4002
 2940SOL    HW220454   2.110   2.646   5.782  0.3792  1.6935  0.0353
 2941SOL     OW20455   2.476   0.128   4.225 -0.1735 -0.1570  0.0996
 2941SOL    HW120456   2.516   0.045   4.199  1.7288  1.1497 -1.1505
 2941SOL    HW220457   2.384   0.102   4.234  0.3089 -2.1716 -0.7383
 2942SOL     OW20458   1.598   1.948   4.861 -0.0152  0.3464 -0.7832
 2942SOL    HW120459   1.686   1.950   4.823  0.6103  0.5495  0.6715
 2942SOL    HW220460   1.565   2.024   4.813  0.0004 -0.4997 -2.1449
 2943SOL     OW20461   4.617   1.106   3.317  0.6227  0.2019 -0.3576
 2943SOL    HW120462   4.710   1.089   3.304  0.8864  1.3500  0.0461
 2943SOL    HW220463   4.603   1.175   3.252  0.3978 -1.2630 -1.8553
 2944SOL     OW20464   1.841   0.338  14.435 -0.2303 -0.0117  0.0412
 2944SOL    HW120465   1.890   0.308  14.358 -0.8016  1.6165 -0.9594
 2944SOL    HW220466   1.888   0.299  14.509 -0.6914  0.6971  0.6977
 2945SOL     OW20467   1.285   3.513   5.255  0.1032 -0.6874 -0.3632
 2945SOL    HW120468   1.350   3.444   5.249  1.0667  0.2354 -0.6206
 2945SOL    HW220469   1.243   3.498   5.340 -1.9685  1.3634 -1.0125
 2946SOL     OW20470   2.562   3.444   4.273  0.0388  0.4331  0.1704
 2946SOL    HW120471   2.619   3.516   4.301  0.8575  0.0333 -0.4824
 2946SOL    HW220472   2.485   3.458   4.329  0.4041 -0.7420  0.9448
 2947SOL     OW20473   0.915   0.695   3.185  0.5115 -0.4127  0.3021
 2947SOL    HW120474   0.972   0.666   3.256 -2.4236 -1.2089  2.2980
 2947SOL    HW220475   0.970   0.680   3.108  0.1758  0.8385 -0.1859
 2948SOL     OW20476   2.534   3.128  16.147 -0.2046  0.4679  0.1602
 2948SOL    HW120477   2.460   3.112  16.088 -0.6424 -0.7494  1.0458
 2948SOL    HW220478   2.494   3.175  16.219  1.8147  1.7929  0.4033
 2949SOL     OW20479   4.025   3.074  14.579 -0.9084  0.0636 -0.5973
 2949SOL    HW120480   4.043   3.081  14.673 -2.4662 -0.9955 -0.2170
 2949SOL    HW220481   4.075   2.995  14.559  0.8043  1.2953 -1.2161
 2950SOL     OW20482   0.419   3.829   1.883  0.2049 -0.9764 -0.2471
 2950SOL    HW120483   0.421   3.736   1.860  0.7326 -1.1808  0.6030
 2950SOL    HW220484   0.506   3.844   1.919  0.3129 -2.3387  0.0553
 2951SOL     OW20485   3.024   2.307  16.246  0.2397 -0.4028  0.1201
 2951SOL    HW120486   3.055   2.398  16.255  0.3911 -0.4279 -0.1745
 2951SOL    HW220487   2.936   2.332  16.217  0.3591  0.9391  0.8673
 2952SOL     OW20488   3.434   0.279  15.396 -0.2885  0.0037  0.5545
 2952SOL    HW120489   3.376   0.286  15.321  0.7999 -0.0011 -0.2834
 2952SOL    HW220490   3.414   0.194  15.436 -1.5588 -0.2886 -0.7022
 2953SOL     OW20491   1.454   4.511   6.546  0.0368 -0.3240  0.3388
 2953SOL    HW120492   1.504   4.488   6.468  0.2900  1.0824  0.1017
 2953SOL    HW220493   1.366   4.490   6.515 -0.8795  0.4238  2.4256
 2954SOL     OW20494   3.921   4.406   1.904  0.0378  0.1415 -0.1722
 2954SOL    HW120495   3.903   4.322   1.862  0.3954 -0.4792  0.9486
 2954SOL    HW220496   3.842   4.416   1.958 -0.9766  2.5211 -2.0641
 2955SOL     OW20497   4.207   1.166  17.110  0.2929 -0.0401  0.6694
 2955SOL    HW120498   4.124   1.209  17.095  1.0989  1.2746 -0.0302
 2955SOL    HW220499   4.242   1.209  17.188 -2.0830  1.4743  0.8709
 2956SOL     OW20500   1.687   0.302   6.902  0.0445 -0.0889  0.5872
 2956SOL    HW120501   1.722   0.367   6.841 -0.1904 -0.2545  0.2786
 2956SOL    HW220502   1.598   0.323   6.931 -0.4963 -1.4329 -0.0554
 2957SOL     OW20503   0.473   3.743  12.289  0.4555 -0.3542  0.3702
 2957SOL    HW120504   0.431   3.674  12.341  2.6126  0.0365  2.6386
 2957SOL    HW220505   0.566   3.722  12.291  0.7736  0.7387 -3.0386
 2958SOL     OW20506   0.129   1.816   2.124 -0.1488 -0.6635  1.1392
 2958SOL    HW120507   0.113   1.855   2.038  1.4160 -0.0406  1.1318
 2958SOL    HW220508   0.046   1.767   2.131  0.0346 -1.2906 -1.1562
 2959SOL     OW20509   3.927   3.144  10.675  0.6275  0.3625  0.1384
 2959SOL    HW120510   4.001   3.205  10.671  0.9973 -0.0899 -0.0956
 2959SOL    HW220511   3.921   3.114  10.584  1.4071 -0.1452  0.2436
 2960SOL     OW20512   1.840   2.887   8.256 -0.5742  0.1249  0.3298
 2960SOL    HW120513   1.917   2.939   8.281  2.0636 -3.0796 -1.0707
 2960SOL    HW220514   1.870   2.862   8.168 -0.8663 -0.5465  0.4193
 2961SOL     OW20515   0.877   2.808   8.344  0.8860  0.4139 -0.1036
 2961SOL    HW120516   0.918   2.868   8.281 -0.5868  0.2272 -1.2355
 2961SOL    HW220517   0.952   2.748   8.354 -0.2065 -0.7545  1.0824
 2962SOL     OW20518   2.641   3.018  13.283 -0.1408  0.2228 -0.0225
 2962SOL    HW120519   2.555   3.043  13.317 -1.0619 -1.3993 -1.1482
 2962SOL    HW220520   2.670   2.948  13.341 -1.3568  0.5655  1.0017
 2963SOL     OW20521   2.581   1.932   6.156 -0.0819 -0.0257  0.2204
 2963SOL    HW120522   2.603   1.940   6.249  1.3914  1.0380 -0.2177
 2963SOL    HW220523   2.614   1.844   6.137 -0.7523  0.1108 -1.5348
 2964SOL     OW20524   2.053   2.506   2.145  0.0016 -0.0287  0.5414
 2964SOL    HW120525   2.138   2.532   2.180  0.2927  0.0966 -0.2446
 2964SOL    HW220526   2.020   2.460   2.221  1.9362  1.8679  2.5349
 2965SOL     OW20527   3.019   3.833   5.273 -0.2300  0.2135  0.3238
 2965SOL    HW120528   2.987   3.782   5.347 -0.7964  2.6868  1.7987
 2965SOL    HW220529   3.040   3.920   5.307  0.5458 -0.6146  1.9309
 2966SOL     OW20530   2.786   4.057   4.619 -0.0870  0.5388 -0.2771
 2966SOL    HW120531   2.850   4.113   4.662  0.0073  0.0621  0.2074
 2966SOL    HW220532   2.827   3.971   4.626  0.5525  0.6131 -3.3528
 2967SOL     OW20533   1.062   0.892   1.890  0.0366  0.2701  0.1038
 2967SOL    HW120534   1.020   0.978   1.885 -1.0365 -0.3029 -0.6963
 2967SOL    HW220535   1.057   0.866   1.982  0.5631 -0.6405 -0.1180
 2968SOL     OW20536   2.491   2.856   1.830  0.1256 -0.4750  0.0301
 2968SOL    HW120537   2.583   2.862   1.856 -0.7891 -0.0677  3.0945
 2968SOL    HW220538   2.457   2.874   1.917  0.6938 -0.6655  0.2906
 2969SOL     OW20539   2.217   3.039   5.514  0.4528 -0.1295  0.2247
 2969SOL    HW120540   2.255   3.126   5.500 -0.9556  0.7253  1.6253
 2969SOL    HW220541   2.290   2.984   5.487  1.2846 -0.6240  3.5031
 2970SOL     OW20542   3.067   0.968   5.661 -0.1977  0.1134 -0.2579
 2970SOL    HW120543   3.098   0.878   5.664 -0.0992  0.2070  1.2881
 2970SOL    HW220544   3.127   1.018   5.605 -0.5063  0.4806 -0.2597
 2971SOL     OW20545   2.289   1.585   8.507 -0.2592 -0.3081 -0.5067
 2971SOL    HW120546   2.284   1.545   8.594  1.7132 -0.1252 -0.3011
 2971SOL    HW220547   2.245   1.667   8.531  1.4263  1.1089 -2.2924
 2972SOL     OW20548   1.754   0.948   9.701  0.1897  0.1576 -0.1132
 2972SOL    HW120549   1.795   0.894   9.768  0.5929  0.6051 -0.0035
 2972SOL    HW220550   1.757   1.038   9.735  0.6657  0.1972 -0.2704
 2973SOL     OW20551   1.874   3.176   8.551 -0.4558  0.3152 -0.2472
 2973SOL    HW120552   1.953   3.134   8.518 -0.8142  0.0063 -0.6982
 2973SOL    HW220553   1.801   3.124   8.518 -2.4688  2.8702  0.1217
 2974SOL     OW20554   1.952   4.516   5.583 -0.1258 -0.6276  0.1400
 2974SOL    HW120555   1.897   4.438   5.581  0.2022 -0.9211  2.1306
 2974SOL    HW220556   1.947   4.544   5.675 -2.0394 -1.5844  0.3334
 2975SOL     OW20557   2.277   0.611   4.092 -0.3012 -0.1130 -0.1935
 2975SOL    HW120558   2.233   0.651   4.016  0.1090  1.7703  0.5455
 2975SOL    HW220559   2.336   0.548   4.051  0.4515 -0.9252  2.1922
 2976SOL     OW20560   1.758   1.123   5.048  0.1584  0.9957 -0.4392
 2976SOL    HW120561   1.670   1.098   5.078  0.3834 -0.8838 -1.3794
 2976SOL    HW220562   1.746   1.218   5.044 -0.2194  1.0298  1.3051
 2977SOL     OW20563   2.415   2.752   9.223  0.5414 -0.1872 -0.2493
 2977SOL    HW120564   2.370   2.674   9.191 -2.1149  0.7890  1.0549
 2977SOL    HW220565   2.352   2.789   9.285  0.2851 -0.2828 -0.4541
 2978SOL     OW20566   1.727   1.211   6.844  0.2249 -0.1106 -0.1746
 2978SOL    HW120567   1.700   1.144   6.781  0.0012 -1.0053  0.8595
 2978SOL    HW220568   1.667   1.279   6.815 -1.9391 -0.9675  2.2838
 2979SOL     OW20569   2.917   3.996   6.667  0.3193 -0.2334  0.2790
 2979SOL    HW120570   2.992   3.976   6.611  0.3701 -3.6628  1.5810
 2979SOL    HW220571   2.908   3.915   6.717 -3.2030  1.0768  1.7447
 2980SOL     OW20572   2.329   2.232   9.183 -0.2793  0.2239 -0.3276
 2980SOL    HW120573   2.294   2.314   9.219  0.4133  0.1157  0.6057
 2980SOL    HW220574   2.407   2.272   9.144 -1.0482  0.0001 -2.0789
 2981SOL     OW20575   4.665   1.823   6.257 -0.4883  0.1118 -0.6133
 2981SOL    HW120576   4.575   1.790   6.253  0.5718 -2.8568 -0.3512
 2981SOL    HW220577   4.642   1.913   6.236  0.4481  0.2002 -1.2547
 2982SOL     OW20578   4.301   2.242   0.673 -0.0766 -0.1003 -0.0021
 2982SOL    HW120579   4.341   2.316   0.627  1.0909 -1.1576 -0.6806
 2982SOL    HW220580   4.246   2.290   0.736  3.1589 -1.3416  3.7411
 2983SOL     OW20581   4.346   1.136   5.029  0.1450  0.6331 -0.2913
 2983SOL    HW120582   4.325   1.046   5.003  1.0716  0.1685  0.5740
 2983SOL    HW220583   4.294   1.156   5.107 -0.0661 -2.7505  0.4786
 2984SOL     OW20584   3.130   3.620  13.795  0.0654  0.2467 -0.0600
 2984SOL    HW120585   3.128   3.585  13.884 -0.2957  0.2077 -0.0827
 2984SOL    HW220586   3.163   3.542  13.749 -3.4472  0.2672 -2.6094
 2985SOL     OW20587   4.556   3.065  10.771 -0.1493  0.0885 -0.7697
 2985SOL    HW120588   4.639   3.074  10.818  0.3371  2.1804 -2.0230
 2985SOL    HW220589   4.502   3.138  10.801 -1.5241 -1.2933  0.1303
 2986SOL     OW20590   1.537   4.577   3.089 -0.7634  0.2221  0.2067
 2986SOL    HW120591   1.586   4.648   3.046  2.3944 -2.4436 -0.5784
 2986SOL    HW220592   1.585   4.567   3.171 -1.2362 -0.8374  0.3555
 2987SOL     OW20593   3.510   3.910   1.540  0.2186  0.3781  0.2319
 2987SOL    HW120594   3.487   3.838   1.599 -1.6669  1.7940  1.2032
 2987SOL    HW220595   3.472   3.985   1.586 -1.8127  0.0942 -0.9678
 2988SOL     OW20596   4.290   1.840  11.407 -0.1396 -0.1687  0.1529
 2988SOL    HW120597   4.321   1.854  11.317 -2.4528 -0.9748 -0.7592
 2988SOL    HW220598   4.256   1.751  11.407  0.2548 -0.3310 -0.8428
 2989SOL     OW20599   2.701   0.003  11.961  0.0474  0.4145  0.1808
 2989SOL    HW120600   2.626   4.687  11.926  0.4763  0.4541 -0.8156
 2989SOL    HW220601   2.660   0.079  12.003  0.0859  2.1483 -2.8742
 2990SOL     OW20602   2.328   2.531   0.705  0.5371  0.4446 -0.1559
 2990SOL    HW120603   2.243   2.537   0.751  0.8605 -2.1444  0.8077
 2990SOL    HW220604   2.311   2.605   0.647 -0.2225  0.2121 -0.2415
 2991SOL     OW20605   0.623   2.486   4.026  0.1213 -0.4408  0.3056
 2991SOL    HW120606   0.594   2.397   4.047  2.0293 -1.4268 -1.1697
 2991SOL    HW220607   0.664   2.483   3.939 -1.0736  1.8838 -0.3182
 2992SOL     OW20608   4.473   0.535  11.166 -0.9165 -0.4515 -0.7448
 2992SOL    HW120609   4.398   0.514  11.222 -0.4148 -0.5411 -0.1052
 2992SOL    HW220610   4.533   0.528  11.240 -0.7049  0.2169 -0.8484
 2993SOL     OW20611   2.477   2.898   3.025 -0.0020  0.6250 -0.2430
 2993SOL    HW120612   2.509   2.877   3.113  0.4063 -0.3334 -0.6246
 2993SOL    HW220613   2.428   2.822   2.996  0.4268 -0.0707  0.8510
 2994SOL     OW20614   2.397   3.313  16.316 -0.1931 -0.3866  0.1818
 2994SOL    HW120615   2.375   3.397  16.275 -1.2625 -0.2364  1.0673
 2994SOL    HW220616   2.352   3.328  16.400 -0.4369 -1.5065  0.2450
 2995SOL     OW20617   4.658   2.127  17.196 -0.4573  0.4073  0.9183
 2995SOL    HW120618   4.597   2.073  17.147  0.2239  0.1971  0.2984
 2995SOL    HW220619   4.600   2.154  17.266  0.0742 -0.6572  1.7618
 2996SOL     OW20620   2.970   4.249   4.700 -0.5133  0.8347  0.0045
 2996SOL    HW120621   3.030   4.298   4.643 -0.8441  0.6870 -0.4618
 2996SOL    HW220622   3.024   4.242   4.779  2.2716  0.4670 -1.9099
 2997SOL     OW20623   0.794   1.665   5.668  0.0815 -0.1498  0.1990
 2997SOL    HW120624   0.730   1.596   5.651 -0.1020  0.2696 -0.7998
 2997SOL    HW220625   0.869   1.608   5.688  0.6619  1.0699  1.5168
 2998SOL     OW20626   0.224   0.680  15.763  0.4514 -0.1490 -1.0479
 2998SOL    HW120627   0.285   0.679  15.837 -0.9714  0.7691  0.1427
 2998SOL    HW220628   0.240   0.589  15.741 -1.0617 -0.6963  0.0832
 2999SOL     OW20629   1.158   0.389   1.028 -0.2114  0.0628 -0.4095
 2999SOL    HW120630   1.080   0.434   0.995 -0.1734  0.7443  0.4103
 2999SOL    HW220631   1.204   0.467   1.060 -0.6896  0.9531 -1.8976
 3000SOL     OW20632   2.456   1.857   2.889 -0.0602  0.5372  0.1438
 3000SOL    HW120633   2.498   1.819   2.966 -1.3418 -0.4226  0.3593
 3000SOL    HW220634   2.481   1.950   2.897  1.1746  0.1004  1.3547
 3001SOL     OW20635   4.345   4.245  13.009  0.3965 -0.1523 -0.5573
 3001SOL    HW120636   4.422   4.247  12.951 -0.5967  3.6047 -1.7523
 3001SOL    HW220637   4.303   4.323  12.972 -0.7402 -0.8929 -0.8287
 3002SOL     OW20638   0.280   4.168  16.064  0.2472  0.0772 -0.0552
 3002SOL    HW120639   0.219   4.115  16.013 -0.8411 -0.9307  2.2870
 3002SOL    HW220640   0.304   4.238  16.003 -1.5131  1.7795  1.2069
 3003SOL     OW20641   4.356   1.923   7.948  0.0025 -0.0699 -0.0069
 3003SOL    HW120642   4.399   1.872   8.017  0.1558  0.2779  0.1544
 3003SOL    HW220643   4.430   1.942   7.890 -0.4940  1.5342 -0.1027
 3004SOL     OW20644   2.261   2.059   8.163 -0.4609  0.3251  0.0840
 3004SOL    HW120645   2.299   1.974   8.140 -1.9423 -1.1451  3.2037
 3004SOL    HW220646   2.204   2.037   8.236 -0.7062  0.8239  0.0399
 3005SOL     OW20647   4.378   3.490  17.619  0.3334  0.3604  0.0881
 3005SOL    HW120648   4.305   3.551  17.633 -0.9111 -1.1277  0.1514
 3005SOL    HW220649   4.336   3.404  17.611 -0.0445  0.6278 -0.7902
 3006SOL     OW20650   3.086   1.719   7.173  1.0144  0.2992 -0.2305
 3006SOL    HW120651   3.147   1.718   7.100  1.6875  1.5926  0.2972
 3006SOL    HW220652   3.114   1.650   7.233 -1.8427 -2.6033 -2.2579
 3007SOL     OW20653   1.949   1.978   8.140  0.2265  0.4268  0.6549
 3007SOL    HW120654   2.006   1.999   8.066  0.4952  0.8093  0.9727
 3007SOL    HW220655   1.914   1.891   8.118  0.3592  0.5433 -0.0165
 3008SOL     OW20656   1.789   3.185   8.945  0.8034 -0.1951  0.1499
 3008SOL    HW120657   1.800   3.271   8.984 -0.8127 -0.0951  0.4023
 3008SOL    HW220658   1.724   3.210   8.879 -0.4622 -0.1357  1.4065
 3009SOL     OW20659   4.585   2.102   8.352  0.3547  0.3180  0.5720
 3009SOL    HW120660   4.616   2.082   8.264  1.9685 -1.9650  1.6545
 3009SOL    HW220661   4.616   2.028   8.405  2.1784  0.4062 -0.3802
 3010SOL     OW20662   3.964   2.962   7.801 -0.1697  0.4410  0.6309
 3010SOL    HW120663   3.877   3.002   7.792 -1.2937 -1.8673  1.2356
 3010SOL    HW220664   3.960   2.910   7.882  0.6817 -2.3663 -1.1539
 3011SOL     OW20665   0.247   2.218   3.494  0.0135 -0.6108  0.0926
 3011SOL    HW120666   0.208   2.217   3.407  1.2433  0.1706 -0.4674
 3011SOL    HW220667   0.173   2.232   3.553  0.4109  0.3888  0.3439
 3012SOL     OW20668   1.892   4.643   5.827 -0.6151 -0.1203 -0.3978
 3012SOL    HW120669   1.962   4.621   5.890  0.2886 -1.4573 -1.8571
 3012SOL    HW220670   1.941   4.706   5.775  0.8073 -1.6966 -0.9749
 3013SOL     OW20671   3.687   2.255   3.557  0.0406 -0.1116  0.5722
 3013SOL    HW120672   3.674   2.184   3.620 -1.1918 -0.8448 -0.5080
 3013SOL    HW220673   3.725   2.207   3.483 -1.2122 -0.9495  0.4714
 3014SOL     OW20674   1.645   0.694   5.431  0.1052 -0.2383  0.5557
 3014SOL    HW120675   1.699   0.636   5.378 -2.4270 -1.5777 -0.5450
 3014SOL    HW220676   1.591   0.736   5.365  0.1269  1.0662  1.3502
 3015SOL     OW20677   1.396   3.768   5.296 -0.3045  0.1049 -0.3980
 3015SOL    HW120678   1.378   3.780   5.390 -1.1108  3.3740 -0.9409
 3015SOL    HW220679   1.338   3.696   5.274 -0.2830  0.3664 -1.3023
 3016SOL     OW20680   1.823   2.514   4.532  0.0623 -0.3557 -0.4557
 3016SOL    HW120681   1.845   2.577   4.463 -0.5406 -1.1219 -1.3439
 3016SOL    HW220682   1.769   2.570   4.587  1.9764  0.7577  0.3093
 3017SOL     OW20683   0.328   2.178   3.841  0.4308  0.4455  0.2474
 3017SOL    HW120684   0.302   2.182   3.749  2.7597  3.0911 -0.3244
 3017SOL    HW220685   0.383   2.100   3.839  0.7993  0.6854  0.9700
 3018SOL     OW20686   4.038   2.684   4.194 -0.1582 -0.0170 -0.0243
 3018SOL    HW120687   4.089   2.640   4.126  0.1085  1.5277 -0.8126
 3018SOL    HW220688   3.997   2.748   4.137  0.2176  0.0163 -0.2600
 3019SOL     OW20689   2.379   3.570   4.062  0.2778 -0.1586 -0.1804
 3019SOL    HW120690   2.428   3.517   4.125  1.1377  1.1932  0.2793
 3019SOL    HW220691   2.447   3.633   4.041 -1.4897  1.6731 -0.3854
 3020SOL     OW20692   1.536   1.288   9.243 -0.2043  0.4761 -0.1988
 3020SOL    HW120693   1.463   1.277   9.181  0.3745  0.8860 -0.9669
 3020SOL    HW220694   1.530   1.384   9.241 -3.4708  0.2374 -2.5111
 3021SOL     OW20695   2.479   4.473   3.944  0.1138 -0.1332  0.3022
 3021SOL    HW120696   2.385   4.463   3.957  0.5264 -1.2743  2.3799
 3021SOL    HW220697   2.482   4.465   3.849 -0.8080  0.7595  0.1919
 3022SOL     OW20698   0.255   1.465   6.964  0.1605 -0.6449 -0.2382
 3022SOL    HW120699   0.276   1.532   7.029 -2.7964  1.3311 -1.3418
 3022SOL    HW220700   0.296   1.506   6.888 -1.0755  4.1618  1.7472
 3023SOL     OW20701   0.514   3.290   6.858 -0.5873  0.1137 -0.0498
 3023SOL    HW120702   0.509   3.199   6.884  0.9835  0.4036  1.2624
 3023SOL    HW220703   0.444   3.318   6.917 -0.8017  0.8202 -0.6291
 3024SOL     OW20704   2.782   1.377   2.884 -0.1911 -0.2316  0.4176
 3024SOL    HW120705   2.688   1.370   2.901 -0.1436 -0.1545  0.7186
 3024SOL    HW220706   2.783   1.382   2.789 -0.0072 -1.7491  0.3305
 3025SOL     OW20707   3.703   2.448  15.954 -0.0803 -0.0793  0.0277
 3025SOL    HW120708   3.770   2.463  15.888 -0.3807  1.4761  0.0834
 3025SOL    HW220709   3.763   2.479  16.022  0.3915 -2.1606  0.5824
 3026SOL     OW20710   0.025   2.838   6.002 -0.1035 -0.2678  0.3249
 3026SOL    HW120711   4.680   2.791   5.970  1.6218 -1.8297 -1.5799
 3026SOL    HW220712   0.084   2.767   6.026 -0.7036 -0.3307  1.5793
 3027SOL     OW20713   3.569   0.613   9.381 -0.5696 -0.6047  0.1840
 3027SOL    HW120714   3.491   0.556   9.381 -2.2294  1.6649 -0.4931
 3027SOL    HW220715   3.600   0.600   9.471 -1.4077  0.5863  0.6432
 3028SOL     OW20716   0.310   4.369   7.911 -0.0775  0.4464  0.0169
 3028SOL    HW120717   0.348   4.323   7.836 -0.1851  0.3866 -0.0015
 3028SOL    HW220718   0.315   4.303   7.981  0.0119 -0.4567 -0.8387
 3029SOL     OW20719   0.615   1.820   7.737 -0.0491 -0.1600 -0.6158
 3029SOL    HW120720   0.566   1.746   7.773 -1.7787  0.5164 -1.5647
 3029SOL    HW220721   0.589   1.888   7.799  0.8086  1.1407 -1.6767
 3030SOL     OW20722   1.754   3.353   6.794  0.2401 -0.0900 -0.5414
 3030SOL    HW120723   1.668   3.379   6.827  0.2130 -0.9661  0.0806
 3030SOL    HW220724   1.726   3.270   6.757  0.3405 -0.9419  1.3088
 3031SOL     OW20725   0.415   4.595   9.353 -0.3208 -0.3240 -0.6477
 3031SOL    HW120726   0.429   4.688   9.333  2.0244 -0.2408  1.3633
 3031SOL    HW220727   0.443   4.591   9.444 -1.2979  0.9754 -0.2885
 3032SOL     OW20728   0.027   4.661   2.227  0.5100  0.2246  0.5439
 3032SOL    HW120729   4.721   4.711   2.299 -0.6604 -1.0488  0.8287
 3032SOL    HW220730   4.676   4.643   2.182 -1.1561  0.9920  3.3129
 3033SOL     OW20731   4.499   1.584  17.016  0.0312  0.0308 -0.0883
 3033SOL    HW120732   4.548   1.512  17.054  0.1260 -0.0603 -0.3815
 3033SOL    HW220733   4.508   1.560  16.924  0.1666 -1.4901  0.3197
 3034SOL     OW20734   2.286   0.594   5.583 -0.0626  0.0623  0.6940
 3034SOL    HW120735   2.218   0.588   5.516 -0.0380  1.8400  0.5081
 3034SOL    HW220736   2.357   0.637   5.537 -1.1370  1.3657  0.2543
 3035SOL     OW20737   4.356   2.066   3.509 -0.2214  0.0606  0.0841
 3035SOL    HW120738   4.270   2.109   3.500 -0.1876  0.6720  2.6100
 3035SOL    HW220739   4.384   2.082   3.599  0.2484  0.9296 -0.2165
 3036SOL     OW20740   3.407   1.072   3.542  0.0656 -0.0518 -0.0638
 3036SOL    HW120741   3.342   1.142   3.551  0.8566  0.7624 -0.7063
 3036SOL    HW220742   3.440   1.091   3.454 -1.9527 -1.6212 -1.1593
 3037SOL     OW20743   0.621   1.345   3.398 -0.6637 -0.0325  0.1858
 3037SOL    HW120744   0.670   1.288   3.339  0.5030  0.2216  0.9111
 3037SOL    HW220745   0.544   1.364   3.344 -0.6025 -2.6167 -0.8431
 3038SOL     OW20746   2.538   2.947   6.007  0.6839 -0.2285  0.7682
 3038SOL    HW120747   2.518   2.856   5.984  1.8301  0.1026 -1.5388
 3038SOL    HW220748   2.480   3.006   5.959 -1.3372 -1.9264  1.1095
 3039SOL     OW20749   3.117   4.554   4.630  0.4809 -0.6324  0.3101
 3039SOL    HW120750   3.130   4.611   4.553  0.2523  1.3952  1.7653
 3039SOL    HW220751   3.205   4.535   4.663  0.9183  0.8601 -0.0012
 3040SOL     OW20752   0.248   4.294  13.318 -0.4819  0.1519 -0.8226
 3040SOL    HW120753   0.322   4.257  13.365 -1.0506  0.8643  0.6232
 3040SOL    HW220754   0.182   4.263  13.381  1.6588 -0.2827  1.1912
 3041SOL     OW20755   1.171   4.477   6.472  0.0298 -0.3446  0.4742
 3041SOL    HW120756   1.093   4.482   6.416 -0.4676 -0.8453  1.1198
 3041SOL    HW220757   1.150   4.400   6.526 -3.5253  0.0284 -0.3790
 3042SOL     OW20758   0.054   1.755  17.220 -0.2227 -0.0842  0.1019
 3042SOL    HW120759   4.700   1.715  17.222 -1.4368  2.4867 -0.2516
 3042SOL    HW220760   0.051   1.803  17.303  0.8749  1.2545 -0.6145
 3043SOL     OW20761   1.218   0.620  10.411 -0.2820  0.0679  0.7869
 3043SOL    HW120762   1.178   0.572  10.483  1.0643 -1.0711  0.7778
 3043SOL    HW220763   1.298   0.637  10.460 -0.4860  1.2769  0.6954
 3044SOL     OW20764   4.154   2.959   9.634 -0.4088  0.1778 -0.3517
 3044SOL    HW120765   4.226   2.957   9.570  1.1473 -1.2173  1.4444
 3044SOL    HW220766   4.201   2.954   9.717  1.1364 -1.4389 -1.2950
 3045SOL     OW20767   4.465   2.578   2.135  0.6071 -0.0386 -0.8990
 3045SOL    HW120768   4.480   2.514   2.204 -0.5891 -0.0804 -0.6809
 3045SOL    HW220769   4.554   2.579   2.099  0.8958  1.2416 -0.1424
 3046SOL     OW20770   1.948   0.424   2.573  0.3282 -0.4988  0.2341
 3046SOL    HW120771   1.920   0.504   2.529  0.3573 -0.6526 -0.0701
 3046SOL    HW220772   2.026   0.462   2.613  0.8279 -2.6368  1.3045
 3047SOL     OW20773   3.630   2.176   9.136  0.2933  0.2768  0.4551
 3047SOL    HW120774   3.615   2.143   9.048  2.7143 -0.7576  0.4334
 3047SOL    HW220775   3.540   2.190   9.167 -0.3653  0.6344 -1.6077
 3048SOL     OW20776   3.548   0.209   3.508  0.3379 -0.4494  0.9269
 3048SOL    HW120777   3.603   0.142   3.550  2.1865  0.7329  0.3964
 3048SOL    HW220778   3.565   0.285   3.564  0.4740  1.5477 -1.8504
 3049SOL     OW20779   2.298   4.282   7.896  0.2575 -0.4477  0.1194
 3049SOL    HW120780   2.210   4.297   7.862  0.2527 -3.4041 -1.2173
 3049SOL    HW220781   2.320   4.225   7.822 -0.9012 -0.8303  0.0627
 3050SOL     OW20782   3.701   2.479  12.622  0.0046 -0.4225  0.2310
 3050SOL    HW120783   3.686   2.560  12.670 -1.8152 -0.8784  0.4675
 3050SOL    HW220784   3.762   2.432  12.679  1.0193 -2.3139 -2.4195
 3051SOL     OW20785   3.643   3.806   8.043  0.4547  0.2813 -0.9280
 3051SOL    HW120786   3.704   3.740   8.009 -1.3140 -1.1856 -1.2504
 3051SOL    HW220787   3.666   3.805   8.136 -0.4134 -1.5467 -0.7264
 3052SOL     OW20788   2.289   3.627   7.304 -0.0958 -0.2803  0.5848
 3052SOL    HW120789   2.265   3.632   7.396 -1.8071  0.0824  0.1084
 3052SOL    HW220790   2.301   3.533   7.289  1.0645  0.1240 -1.0801
 3053SOL     OW20791   0.164   0.844   3.505  0.1009 -0.1932 -0.5059
 3053SOL    HW120792   0.194   0.810   3.590  0.8118  1.0824 -0.2558
 3053SOL    HW220793   0.221   0.919   3.487  0.6079 -0.1868  1.0659
 3054SOL     OW20794   2.339   3.694   5.903 -0.1587  0.6586  0.1669
 3054SOL    HW120795   2.337   3.729   5.993  0.4199  1.0722  0.0166
 3054SOL    HW220796   2.306   3.773   5.862  0.1211  0.4359 -0.4746
 3055SOL     OW20797   4.446   2.989   1.329  0.1959 -0.6648 -0.5512
 3055SOL    HW120798   4.358   3.024   1.311  1.5913  2.9422 -0.4491
 3055SOL    HW220799   4.440   2.959   1.420 -1.0866  1.0545 -0.0512
 3056SOL     OW20800   4.389   2.442   4.827  0.6483 -0.0139 -0.3967
 3056SOL    HW120801   4.430   2.369   4.779  0.2049  0.2061 -1.1012
 3056SOL    HW220802   4.298   2.417   4.814  0.7222 -0.3561 -0.2530
 3057SOL     OW20803   2.750   3.056  11.849 -0.7672  0.5663 -0.1155
 3057SOL    HW120804   2.671   3.006  11.870  0.0222 -0.2509  0.8710
 3057SOL    HW220805   2.782   2.992  11.785 -0.0247  1.4843 -0.6562
 3058SOL     OW20806   1.989   0.528  14.625  0.6837 -0.5104 -0.1088
 3058SOL    HW120807   1.943   0.468  14.567  1.8556 -1.7693  0.2597
 3058SOL    HW220808   2.012   0.607  14.577 -2.3771  0.6305  0.2631
 3059SOL     OW20809   0.152   4.295   5.977 -0.1475  0.7292  0.0954
 3059SOL    HW120810   0.177   4.353   6.049  3.1959  0.0360 -0.5020
 3059SOL    HW220811   0.163   4.211   6.020  0.8001  0.6777 -0.2370
 3060SOL     OW20812   3.031   1.115  15.557  0.1320  0.2055  0.2845
 3060SOL    HW120813   3.075   1.075  15.482  0.9697  1.0853  0.3146
 3060SOL    HW220814   3.025   1.205  15.524 -0.3061  0.3197  0.6739
 3061SOL     OW20815   2.743   3.644  10.712 -0.0604 -0.3652 -0.0450
 3061SOL    HW120816   2.713   3.719  10.764  1.1401  0.5544 -0.6832
 3061SOL    HW220817   2.775   3.696  10.639 -0.7264 -1.5412 -1.1612
 3062SOL     OW20818   2.192   4.172  16.365  0.3393  0.4277  0.6387
 3062SOL    HW120819   2.194   4.221  16.283 -1.4525 -0.5904 -0.0245
 3062SOL    HW220820   2.213   4.085  16.332  1.2164  0.0923  2.1010
 3063SOL     OW20821   4.618   1.742   2.597  0.9498 -0.1817 -0.2989
 3063SOL    HW120822   4.660   1.777   2.676  0.1504 -0.9248  0.4545
 3063SOL    HW220823   4.641   1.649   2.601 -0.6548 -0.4942  1.8195
 3064SOL     OW20824   2.445   1.681  12.829  0.6748 -0.1588 -0.0198
 3064SOL    HW120825   2.531   1.723  12.822  0.3903  0.5405  0.6525
 3064SOL    HW220826   2.458   1.618  12.758 -1.3115  1.1865 -1.5743
 3065SOL     OW20827   4.115   0.318   4.215  0.1101  0.4387  0.1988
 3065SOL    HW120828   4.087   0.285   4.130 -0.0934  0.0835  0.4028
 3065SOL    HW220829   4.091   0.411   4.215  0.3216  0.4929 -0.1456
 3066SOL     OW20830   0.046   3.144   3.331  0.4805 -0.0301  0.3101
 3066SOL    HW120831   0.125   3.184   3.294 -0.6522  1.2203 -0.7577
 3066SOL    HW220832   4.717   3.177   3.265 -0.8287 -1.1353  0.9650
 3067SOL     OW20833   3.601   0.512  10.298 -0.0896  0.4479  0.1827
 3067SOL    HW120834   3.642   0.477  10.377  0.2694  2.3238  0.8326
 3067SOL    HW220835   3.641   0.599  10.293 -1.1615  0.8472 -1.4553
 3068SOL     OW20836   4.486   2.922   4.901 -0.0462 -0.1158 -0.7632
 3068SOL    HW120837   4.481   2.835   4.939 -2.8925 -0.1541 -1.2181
 3068SOL    HW220838   4.493   2.982   4.975  1.1782 -2.0651  0.6888
 3069SOL     OW20839   4.681   3.658   4.838 -0.2315 -0.1478 -0.0117
 3069SOL    HW120840   0.013   3.663   4.767  0.0769 -1.5171  0.1537
 3069SOL    HW220841   0.001   3.611   4.904  1.8424  0.5817 -1.1199
 3070SOL     OW20842   0.450   2.748   6.372  0.3871  0.3690 -0.0688
 3070SOL    HW120843   0.479   2.670   6.325 -0.4383  0.6765 -1.0905
 3070SOL    HW220844   0.374   2.714   6.419 -0.5470  2.3885 -0.1500
 3071SOL     OW20845   3.254   3.580   2.637  0.2653  0.4103 -0.6811
 3071SOL    HW120846   3.222   3.586   2.727 -0.9276 -3.1786 -0.8789
 3071SOL    HW220847   3.308   3.502   2.643  0.2041  0.5653  1.7335
 3072SOL     OW20848   1.944   0.583  12.670  0.3935 -0.0372 -0.1466
 3072SOL    HW120849   1.865   0.592  12.618  0.2495 -2.5413 -0.3647
 3072SOL    HW220850   1.996   0.582  12.590 -1.4571  0.4980 -1.3472
 3073SOL     OW20851   1.499   0.778   9.689 -0.9442  0.5105 -0.5668
 3073SOL    HW120852   1.452   0.851   9.648  0.4927  1.2562 -0.8902
 3073SOL    HW220853   1.579   0.826   9.710  1.6741 -3.0272 -2.3000
 3074SOL     OW20854   4.590   2.178   2.269 -0.4363  0.0212 -0.3237
 3074SOL    HW120855   4.502   2.200   2.240  0.9714  2.0018 -3.1364
 3074SOL    HW220856   4.570   2.100   2.321  0.7086  0.6010  0.9861
 3075SOL     OW20857   3.168   1.286   4.683 -0.4205 -0.1227  0.5548
 3075SOL    HW120858   3.099   1.222   4.699  0.0347 -1.2527 -1.9906
 3075SOL    HW220859   3.207   1.265   4.598 -1.2855 -1.0863  0.4053
 3076SOL     OW20860   4.268   1.806   5.426 -0.1735  0.3513  0.2885
 3076SOL    HW120861   4.213   1.880   5.452  1.9331  1.6207  1.0663
 3076SOL    HW220862   4.198   1.742   5.410 -0.5298  1.3514 -2.0912
 3077SOL     OW20863   0.365   2.121  10.118 -0.1142 -0.0671 -0.0974
 3077SOL    HW120864   0.293   2.068  10.085 -0.8916  0.0514  1.3807
 3077SOL    HW220865   0.393   2.183  10.051  1.5648 -0.0219  0.6286
 3078SOL     OW20866   1.453   0.397   2.132 -0.0563  0.5810  0.3679
 3078SOL    HW120867   1.405   0.335   2.187  0.6869  0.2169  0.6032
 3078SOL    HW220868   1.534   0.350   2.113 -0.2521 -0.3953  2.0024
 3079SOL     OW20869   2.984   2.632   5.808 -0.1304 -0.3483 -0.0240
 3079SOL    HW120870   2.959   2.589   5.726  0.6943  0.1367 -0.5229
 3079SOL    HW220871   3.029   2.558   5.849  1.2565  0.3373 -0.3362
 3080SOL     OW20872   0.258   0.732   4.797 -0.1949  0.0440  0.1529
 3080SOL    HW120873   0.170   0.771   4.798  0.2325  1.0224 -0.2567
 3080SOL    HW220874   0.304   0.783   4.730 -1.0122 -2.5362 -2.3405
 3081SOL     OW20875   0.474   2.259  11.541 -0.6384 -0.1144 -0.6974
 3081SOL    HW120876   0.516   2.338  11.506 -1.3270  0.3911 -0.3947
 3081SOL    HW220877   0.484   2.270  11.635  0.7655  0.1101 -0.8670
 3082SOL     OW20878   2.703   4.413  17.360  0.6146  0.0036  0.4274
 3082SOL    HW120879   2.680   4.360  17.437 -0.7523 -0.5315 -0.3525
 3082SOL    HW220880   2.669   4.496  17.396  0.7411  0.0990  0.3253
 3083SOL     OW20881   0.294   1.380  16.134 -0.1455  0.2682  0.0665
 3083SOL    HW120882   0.215   1.347  16.176  0.7130 -2.4968 -0.4902
 3083SOL    HW220883   0.341   1.407  16.213  1.8531  0.0098 -1.0266
 3084SOL     OW20884   3.160   2.995   5.500  0.4974 -0.6038  0.5912
 3084SOL    HW120885   3.188   2.905   5.480  0.3922 -0.5815  0.3449
 3084SOL    HW220886   3.169   3.002   5.595 -3.1312  1.1442  0.8155
 3085SOL     OW20887   0.376   3.243   4.411  0.8890 -0.1680 -0.6978
 3085SOL    HW120888   0.378   3.335   4.439  1.5246 -0.0157 -1.2505
 3085SOL    HW220889   0.303   3.204   4.459  0.1990  0.7197 -1.0261
 3086SOL     OW20890   1.120   0.914   4.818 -0.3982 -0.2881 -0.4514
 3086SOL    HW120891   1.185   0.982   4.835 -0.4300 -0.3756  0.0128
 3086SOL    HW220892   1.105   0.914   4.723 -1.0985 -1.2604 -0.3373
 3087SOL     OW20893   0.072   0.689   1.317  0.1614 -0.2524  0.4347
 3087SOL    HW120894   4.710   0.693   1.336 -0.3184 -1.2430 -1.7385
 3087SOL    HW220895   0.088   0.596   1.333  0.0799 -0.2790  0.3604
 3088SOL     OW20896   2.452   0.133   3.441  0.5012  0.3455 -0.4810
 3088SOL    HW120897   2.501   0.131   3.523  1.9728  2.2514 -1.3193
 3088SOL    HW220898   2.435   0.039   3.436 -0.2199  0.3574  1.5977
 3089SOL     OW20899   0.992   2.468   3.412 -0.1882  0.6770  0.1988
 3089SOL    HW120900   0.941   2.468   3.331 -0.0590  0.6111  0.1177
 3089SOL    HW220901   1.051   2.396   3.390 -0.9785 -0.0522  0.4508
 3090SOL     OW20902   3.111   0.066   6.279 -0.4057  0.3790  0.3921
 3090SOL    HW120903   3.189   0.028   6.238 -0.6780 -0.3820  0.5782
 3090SOL    HW220904   3.062   0.088   6.200  0.0431  0.2798  0.0806
 3091SOL     OW20905   1.601   0.998   3.303 -0.2308  0.2169 -0.3467
 3091SOL    HW120906   1.566   1.069   3.357  0.6827  0.9674 -0.7573
 3091SOL    HW220907   1.693   1.021   3.292  0.0187 -0.2967  0.6703
 3092SOL     OW20908   1.244   3.042   2.758 -0.2656 -0.6364 -0.8130
 3092SOL    HW120909   1.223   2.953   2.787  0.0484 -0.8699 -1.3079
 3092SOL    HW220910   1.183   3.089   2.815 -1.1500 -3.3467  0.4860
 3093SOL     OW20911   4.207   4.154  16.930  0.2219 -0.5346 -0.2548
 3093SOL    HW120912   4.293   4.187  16.904  0.5565 -0.6971  0.6378
 3093SOL    HW220913   4.152   4.193  16.862  1.4892 -1.4546 -1.8108
 3094SOL     OW20914   4.478   1.255  16.678 -0.1584  0.1826 -0.5844
 3094SOL    HW120915   4.440   1.284  16.595  1.1342  1.0751 -0.8661
 3094SOL    HW220916   4.406   1.213  16.724 -1.3362  3.5207  0.5485
 3095SOL     OW20917   0.019   1.661  15.914  0.3078  0.2179  0.4874
 3095SOL    HW120918   4.662   1.626  15.906  0.3452  1.3839 -4.9521
 3095SOL    HW220919   0.061   1.575  15.902  0.9146  0.2864  2.1040
 3096SOL     OW20920   0.459   2.631  13.487  0.2450 -0.3787  0.1592
 3096SOL    HW120921   0.389   2.669  13.434  0.6786  0.6749  0.3403
 3096SOL    HW220922   0.407   2.609  13.565  0.4672 -1.0733  0.1129
 3097SOL     OW20923   1.728   1.852   2.932 -0.1185 -0.5574 -0.1282
 3097SOL    HW120924   1.651   1.796   2.940  1.2931 -2.6987 -1.7094
 3097SOL    HW220925   1.794   1.798   2.977  0.2978 -0.6541 -0.8588
 3098SOL     OW20926   0.642   1.034   6.694 -0.3300  0.0843  0.2175
 3098SOL    HW120927   0.706   1.073   6.635  0.7723 -2.2395 -0.1212
 3098SOL    HW220928   0.572   1.099   6.682  2.1566  2.6394 -0.4637
 3099SOL     OW20929   2.685   1.386  10.760 -0.0464  0.3350 -0.0706
 3099SOL    HW120930   2.703   1.373  10.667  0.9847  3.7886 -0.3613
 3099SOL    HW220931   2.711   1.478  10.769  0.2011  0.5696 -3.3137
 3100SOL     OW20932   2.591   2.315   0.325  0.2304  0.0148 -1.0019
 3100SOL    HW120933   2.596   2.407   0.350  0.8471  0.0543 -1.2698
 3100SOL    HW220934   2.500   2.294   0.348  1.4370 -3.4564  0.7438
 3101SOL     OW20935   1.878   2.056   6.812 -0.4981  0.2055  0.4730
 3101SOL    HW120936   1.810   1.990   6.818 -0.2111  0.0242  1.7212
 3101SOL    HW220937   1.954   2.010   6.848  0.6356  1.6223 -0.0876
 3102SOL     OW20938   1.073   0.036   8.407  0.6326  0.0361 -0.2329
 3102SOL    HW120939   0.993   0.032   8.459  0.0600  1.4176 -1.0149
 3102SOL    HW220940   1.045   0.102   8.344 -0.2993  0.5510  0.7161
 3103SOL     OW20941   0.264   2.241   5.414  0.0223 -0.2595  0.3646
 3103SOL    HW120942   0.337   2.278   5.365 -0.3355  0.8637  0.6877
 3103SOL    HW220943   0.310   2.177   5.468 -0.8628  0.7477  2.3189
 3104SOL     OW20944   3.389   0.693  14.828 -0.2487 -0.2593  0.3245
 3104SOL    HW120945   3.302   0.729  14.848 -0.6013  0.0843 -1.7466
 3104SOL    HW220946   3.396   0.625  14.894  0.5066 -1.6095 -1.1467
 3105SOL     OW20947   3.554   4.033   0.973 -0.2277  0.5683 -0.3786
 3105SOL    HW120948   3.504   4.072   0.901 -0.9354 -1.5251 -1.0123
 3105SOL    HW220949   3.568   4.110   1.028 -0.7452 -0.2957  0.9771
 3106SOL     OW20950   2.770   1.409   2.618  0.6370  0.1617  0.1522
 3106SOL    HW120951   2.771   1.327   2.569  1.2302  1.6071 -2.2599
 3106SOL    HW220952   2.776   1.471   2.545  0.2998  0.2721  0.2189
 3107SOL     OW20953   3.052   3.019   3.463  0.1857 -0.2772 -1.2519
 3107SOL    HW120954   2.977   3.010   3.405 -0.8929  1.3190 -0.1067
 3107SOL    HW220955   3.032   2.966   3.540  2.8633  1.2794  0.4978
 3108SOL     OW20956   0.123   4.480   4.086 -0.2052 -0.2909 -0.0130
 3108SOL    HW120957   0.069   4.556   4.067  1.6335  0.8403 -0.7497
 3108SOL    HW220958   0.206   4.524   4.107 -0.8413  2.1647 -2.5937
 3109SOL     OW20959   1.522   4.531   3.786 -0.3095  0.1459 -0.0987
 3109SOL    HW120960   1.489   4.560   3.871  0.9907  1.9300 -0.1992
 3109SOL    HW220961   1.572   4.610   3.765  1.9864 -1.5731 -1.1153
 3110SOL     OW20962   2.504   4.498   7.158 -0.4556  0.1964 -0.9088
 3110SOL    HW120963   2.581   4.547   7.130  0.5376 -1.5259 -1.1667
 3110SOL    HW220964   2.539   4.435   7.220  0.0480  0.7290 -0.6543
 3111SOL     OW20965   3.645   2.986   0.238 -0.2344 -0.5213  0.9430
 3111SOL    HW120966   3.666   2.892   0.233  1.7198 -0.0668  0.5198
 3111SOL    HW220967   3.590   2.994   0.160  0.5452 -1.9789  0.2193
 3112SOL     OW20968   1.436   2.624   7.033 -0.9039  0.3867  0.0491
 3112SOL    HW120969   1.476   2.580   6.958 -1.7467  0.8582 -0.6737
 3112SOL    HW220970   1.455   2.716   7.016  0.3553  0.0025 -0.6454
 3113SOL     OW20971   1.484   3.588   7.381  0.3123 -0.6873 -0.1293
 3113SOL    HW120972   1.400   3.554   7.351 -1.1670  1.9935  0.9187
 3113SOL    HW220973   1.443   3.674   7.392  0.6397 -0.6992  1.0753
 3114SOL     OW20974   0.513   2.464  15.525 -0.2268  0.1491  0.6064
 3114SOL    HW120975   0.447   2.531  15.505  0.5050  0.2988 -1.3575
 3114SOL    HW220976   0.556   2.496  15.604  1.4428  1.0842 -0.6661
 3115SOL     OW20977   1.827   3.035  13.412 -0.6974  0.7466 -0.9841
 3115SOL    HW120978   1.759   2.986  13.459  0.7300  1.5364  1.8965
 3115SOL    HW220979   1.814   3.128  13.430 -0.6947  0.6460 -0.4633
 3116SOL     OW20980   3.565   2.370  14.126 -0.6085  0.5388  0.1819
 3116SOL    HW120981   3.520   2.340  14.047 -1.1544 -2.2045  1.5332
 3116SOL    HW220982   3.506   2.333  14.192  1.1841 -1.1991  0.7784
 3117SOL     OW20983   3.209   3.090   4.731  0.9384  0.7773  0.1002
 3117SOL    HW120984   3.239   3.175   4.700  3.3335 -2.1660 -5.7705
 3117SOL    HW220985   3.262   3.088   4.810  2.8883 -0.6611 -1.2337
 3118SOL     OW20986   0.168   1.458   8.746 -0.2324  0.2439  0.0296
 3118SOL    HW120987   0.212   1.506   8.676 -0.4793 -0.8314 -0.8697
 3118SOL    HW220988   0.234   1.396   8.778 -0.8782 -0.6016 -0.2689
 3119SOL     OW20989   0.809   2.909   5.422 -0.5527 -0.3132 -0.2864
 3119SOL    HW120990   0.879   2.862   5.467 -0.8407 -0.4675  0.0020
 3119SOL    HW220991   0.748   2.836   5.406  1.5063 -2.3762  1.3008
 3120SOL     OW20992   1.059   2.676   5.976 -0.1974  0.2645  0.3379
 3120SOL    HW120993   1.117   2.600   5.970  0.0985  0.3554  2.0297
 3120SOL    HW220994   1.012   2.659   6.057  0.8247  0.5084  0.9777
 3121SOL     OW20995   0.027   0.622   5.475 -0.6934  0.3956  0.1008
 3121SOL    HW120996   0.118   0.604   5.453 -0.8462  0.7846 -0.8299
 3121SOL    HW220997   0.013   0.708   5.436  2.4211 -0.4292 -2.8433
 3122SOL     OW20998   3.419   3.096   1.668  1.2966 -0.1287  0.4463
 3122SOL    HW120999   3.514   3.083   1.674  0.9902 -0.5817  4.1264
 3122SOL    HW221000   3.411   3.184   1.705  0.7173 -0.8861  2.0967
 3123SOL     OW21001   2.202   3.297   2.924 -0.8264  0.5824  0.2059
 3123SOL    HW121002   2.216   3.211   2.885 -1.7228 -0.1439  1.5008
 3123SOL    HW221003   2.225   3.280   3.015  0.5025 -1.4475 -0.5320
 3124SOL     OW21004   0.758   4.303  12.683 -0.3305 -0.5421 -0.1157
 3124SOL    HW121005   0.696   4.321  12.754 -0.3102  0.4541 -0.3613
 3124SOL    HW221006   0.816   4.236  12.721 -1.0167 -0.6195  0.7859
 3125SOL     OW21007   2.109   0.864   4.859 -0.0882 -0.2441 -0.0778
 3125SOL    HW121008   2.170   0.797   4.891 -1.3303 -0.8657  0.9522
 3125SOL    HW221009   2.111   0.837   4.767  0.4747 -3.3518  0.8259
 3126SOL     OW21010   3.906   3.323  11.525  0.1858 -0.2408  0.3032
 3126SOL    HW121011   3.938   3.397  11.473  0.5292 -1.4309 -1.1916
 3126SOL    HW221012   3.811   3.338  11.531  0.0798 -1.1405  0.7432
 3127SOL     OW21013   0.625   2.967   7.362 -0.1374 -0.4986 -0.1205
 3127SOL    HW121014   0.658   2.977   7.452 -0.6499 -0.8527  0.1037
 3127SOL    HW221015   0.664   3.041   7.315  1.6524 -1.3928 -0.0245
 3128SOL     OW21016   3.213   2.461   3.112 -0.4696 -0.5889 -0.0940
 3128SOL    HW121017   3.273   2.510   3.169 -0.1081  0.2930 -1.2147
 3128SOL    HW221018   3.267   2.440   3.036 -1.4092 -1.8858 -0.3973
 3129SOL     OW21019   1.389   0.162   2.241 -0.7749  0.2393  0.0010
 3129SOL    HW121020   1.408   0.074   2.207 -1.3671 -0.1215  0.5951
 3129SOL    HW221021   1.384   0.157   2.337 -0.2329  0.0516  0.0186
 3130SOL     OW21022   0.497   0.039  15.456 -0.0521  0.1297  0.4232
 3130SOL    HW121023   0.465   4.704  15.396 -1.7435  0.4667  0.9436
 3130SOL    HW221024   0.573   4.724  15.489 -1.0023 -0.5844  1.5921
 3131SOL     OW21025   4.302   0.669   7.910  0.0548  0.2466  0.3185
 3131SOL    HW121026   4.217   0.659   7.868  0.6294 -1.0489 -0.5301
 3131SOL    HW221027   4.307   0.582   7.949 -0.8413 -0.5690 -1.3867
 3132SOL     OW21028   0.009   0.180   1.615 -0.4974 -0.0223  0.0822
 3132SOL    HW121029   4.674   0.115   1.638 -0.4596 -0.2378 -0.4303
 3132SOL    HW221030   4.718   0.204   1.525 -2.4943  2.3071  1.2066
 3133SOL     OW21031   4.706   0.669   8.216  0.1248 -0.5345  0.5011
 3133SOL    HW121032   4.730   0.760   8.202  0.0398 -0.4803  0.7059
 3133SOL    HW221033   4.641   0.647   8.149  0.5775 -1.3948  0.3397
 3134SOL     OW21034   4.139   3.968   7.420 -0.3660  0.6710 -0.2803
 3134SOL    HW121035   4.112   3.889   7.466 -2.7195  1.6929  0.0589
 3134SOL    HW221036   4.133   4.034   7.490  2.3307 -0.0268  0.6173
 3135SOL     OW21037   3.685   3.995   4.784  0.4894  0.0282 -0.2568
 3135SOL    HW121038   3.603   3.965   4.822  0.9039  0.9981  1.3732
 3135SOL    HW221039   3.697   3.932   4.712  1.5738  0.5498 -0.5297
 3136SOL     OW21040   1.211   2.734   2.066  0.0156 -0.1595  0.2299
 3136SOL    HW121041   1.248   2.670   2.128  0.0057  1.1376  1.5775
 3136SOL    HW221042   1.288   2.777   2.030 -1.6466  1.2202 -1.6884
 3137SOL     OW21043   0.303   1.381  10.387  0.1572 -0.0023  0.1582
 3137SOL    HW121044   0.391   1.407  10.359  0.3477 -2.2889 -1.3808
 3137SOL    HW221045   0.270   1.447  10.447  0.4771  0.9825 -0.7433
 3138SOL     OW21046   1.585   1.452   6.092  0.8018  0.2713  0.1955
 3138SOL    HW121047   1.579   1.545   6.070  0.0391  0.2763  0.4111
 3138SOL    HW221048   1.498   1.432   6.056 -0.0355 -0.8718  2.8158
 3139SOL     OW21049   3.675   3.193  10.791 -0.4705 -0.0118  0.3473
 3139SOL    HW121050   3.758   3.160  10.759 -0.6525  0.4694 -0.6133
 3139SOL    HW221051   3.706   3.269  10.840  1.2165 -1.4067  1.4135
 3140SOL     OW21052   2.891   4.342   5.551  0.0112  0.1894 -0.2797
 3140SOL    HW121053   2.863   4.314   5.464 -1.4746 -3.0334  1.2119
 3140SOL    HW221054   2.904   4.259   5.598 -2.3910 -0.9348 -1.6048
 3141SOL     OW21055   2.383   0.140   9.641  0.5028 -0.3659  0.0608
 3141SOL    HW121056   2.478   0.131   9.649  0.5400  1.4768  1.8848
 3141SOL    HW221057   2.350   0.071   9.699  1.0783 -0.4879  0.2512
 3142SOL     OW21058   4.089   1.331   8.357 -0.0076 -0.4554  0.5096
 3142SOL    HW121059   4.157   1.262   8.354 -0.2780 -0.6138 -2.1711
 3142SOL    HW221060   4.081   1.339   8.262  1.7382 -1.1230  0.2827
 3143SOL     OW21061   4.516   2.928   7.241 -0.3110  0.2225  0.3648
 3143SOL    HW121062   4.588   2.957   7.297  0.8531 -0.9778 -0.5072
 3143SOL    HW221063   4.443   2.915   7.301 -0.3560  0.5721  0.3871
 3144SOL     OW21064   3.235   0.224   8.747 -0.0623  0.7005  0.4018
 3144SOL    HW121065   3.326   0.212   8.771 -0.3313 -1.9696  0.0908
 3144SOL    HW221066   3.239   0.172   8.667  1.5166  2.7293 -0.8198
 3145SOL     OW21067   4.414   2.679  13.495  0.0525  0.1146 -0.3229
 3145SOL    HW121068   4.474   2.719  13.433 -0.6218  0.3730 -0.8147
 3145SOL    HW221069   4.327   2.703  13.462  0.5540  1.1124 -0.9091
 3146SOL     OW21070   1.037   3.276   3.222 -0.0096  0.2264  0.4696
 3146SOL    HW121071   0.977   3.266   3.148 -1.0909 -2.0425  1.6597
 3146SOL    HW221072   1.037   3.370   3.239 -1.4733 -0.0955  2.2244
 3147SOL     OW21073   2.930   2.260   4.221 -0.2966 -0.1295  0.0234
 3147SOL    HW121074   2.935   2.244   4.127 -0.9144  0.7156 -0.1506
 3147SOL    HW221075   2.911   2.353   4.232  1.7498  0.1024  1.7340
 3148SOL     OW21076   4.160   0.052   3.553  0.0982 -0.1799 -0.5892
 3148SOL    HW121077   4.073   0.066   3.514 -0.8258  3.1581  2.7215
 3148SOL    HW221078   4.126   4.713   3.607 -0.0643 -0.0978 -0.5825
 3149SOL     OW21079   3.080   2.229  11.229  0.0221  0.0872 -0.1217
 3149SOL    HW121080   3.067   2.304  11.171  0.7067 -0.8454 -1.4537
 3149SOL    HW221081   3.005   2.178  11.198 -0.6629  0.6698  0.5409
 3150SOL     OW21082   4.452   4.219  16.859 -0.2038  0.2577 -0.6625
 3150SOL    HW121083   4.510   4.176  16.796 -0.8070 -0.9077 -0.4198
 3150SOL    HW221084   4.485   4.184  16.942 -0.0257  0.1327 -0.7837
 3151SOL     OW21085   3.960   3.798   7.550  0.7139  0.3201 -0.5625
 3151SOL    HW121086   3.999   3.797   7.637 -0.6849  3.2364  0.1019
 3151SOL    HW221087   3.880   3.746   7.561 -0.9518  2.8357 -0.5755
 3152SOL     OW21088   3.492   3.527   1.967  0.4501 -0.1007 -0.2172
 3152SOL    HW121089   3.458   3.603   2.013 -0.8270  1.3389 -3.5621
 3152SOL    HW221090   3.582   3.558   1.959  0.4887  0.2821  1.7070
 3153SOL     OW21091   0.679   2.903   6.967  0.1890  0.2248  0.1099
 3153SOL    HW121092   0.758   2.890   6.915 -0.3010  0.0872 -0.6177
 3153SOL    HW221093   0.696   2.843   7.039  1.6065  0.5060  0.0088
 3154SOL     OW21094   1.082   0.892   7.869 -0.0275  0.2535 -0.5347
 3154SOL    HW121095   1.121   0.969   7.910  1.7977 -1.5289  1.0396
 3154SOL    HW221096   1.007   0.884   7.929  2.4231  0.3184  2.5312
 3155SOL     OW21097   0.687   0.792   3.060 -0.1243  0.1070 -0.2976
 3155SOL    HW121098   0.607   0.750   3.089 -0.6289  0.4989 -1.1087
 3155SOL    HW221099   0.747   0.762   3.128 -0.0491  0.0096 -0.4065
 3156SOL     OW21100   1.618   3.208   3.962  0.4024 -0.0271  0.1687
 3156SOL    HW121101   1.667   3.252   3.891  0.2400  2.2413  1.4540
 3156SOL    HW221102   1.543   3.266   3.949  0.1717 -0.7753 -1.7346
 3157SOL     OW21103   2.192   2.873   7.984  1.1339 -0.2005 -0.1323
 3157SOL    HW121104   2.156   2.817   8.053  0.5601 -0.8968 -1.0024
 3157SOL    HW221105   2.235   2.934   8.044  0.6200 -1.6748  1.7488
 3158SOL     OW21106   0.629   2.439   7.768  0.2594 -0.0263  0.5265
 3158SOL    HW121107   0.657   2.486   7.847  1.9281  1.8932 -1.1964
 3158SOL    HW221108   0.627   2.502   7.696 -0.8893  0.0644  0.6443
 3159SOL     OW21109   1.888   1.586   4.479 -0.5616  0.3963 -0.4357
 3159SOL    HW121110   1.806   1.602   4.433  0.3413  3.3504 -0.9667
 3159SOL    HW221111   1.949   1.645   4.436 -0.0370  0.4160  0.3304
 3160SOL     OW21112   2.228   2.057   4.311 -0.2586  0.7355  0.2098
 3160SOL    HW121113   2.180   2.034   4.231  0.1566 -2.0146  0.7460
 3160SOL    HW221114   2.159   2.033   4.373 -1.5824  1.0907 -1.1029
 3161SOL     OW21115   4.032   4.664   2.488  0.7605 -0.0295 -0.4161
 3161SOL    HW121116   3.989   0.004   2.442 -0.2273  0.9225  2.0157
 3161SOL    HW221117   4.026   4.691   2.579 -4.7151 -0.1057 -0.7605
 3162SOL     OW21118   1.739   2.581   5.530  0.2842  0.0568  0.0225
 3162SOL    HW121119   1.748   2.599   5.624 -2.2347  1.8916 -0.0674
 3162SOL    HW221120   1.707   2.669   5.510  2.6789  0.4718 -1.9099
 3163SOL     OW21121   4.051   4.117   3.733  0.3205  0.2115 -0.5175
 3163SOL    HW121122   4.061   4.177   3.807 -3.2022 -0.4161  0.4664
 3163SOL    HW221123   4.120   4.051   3.730  0.4858  0.3410  0.5957
 3164SOL     OW21124   2.191   3.967  12.833  0.2901 -0.2938  0.5821
 3164SOL    HW121125   2.258   3.934  12.772  0.0906  1.4320 -0.5660
 3164SOL    HW221126   2.109   3.929  12.803 -0.0322  2.4165 -1.9399
 3165SOL     OW21127   3.288   4.257   7.814 -0.8614 -0.8118 -0.1144
 3165SOL    HW121128   3.214   4.318   7.810 -0.4292 -0.2679  0.2533
 3165SOL    HW221129   3.261   4.194   7.881 -1.4861  0.2354  0.6103
 3166SOL     OW21130   3.806   0.731   6.677 -0.6951  0.0296  0.1838
 3166SOL    HW121131   3.803   0.725   6.582  2.0688  0.3961  0.0889
 3166SOL    HW221132   3.733   0.790   6.698  2.0068  3.0027  1.1180
 3167SOL     OW21133   3.237   4.227  16.368  0.6368 -0.5346 -0.1911
 3167SOL    HW121134   3.309   4.219  16.305  0.5969 -1.2697 -0.1477
 3167SOL    HW221135   3.183   4.304  16.350 -0.7180 -1.0663  1.6177
 3168SOL     OW21136   0.819   3.175   7.237  0.4258  1.2000 -0.0237
 3168SOL    HW121137   0.852   3.254   7.195  2.3527  0.4303  0.0379
 3168SOL    HW221138   0.871   3.103   7.200 -0.5630 -0.8011  2.5042
 3169SOL     OW21139   3.682   0.195   7.128  0.0236 -0.2075  0.3656
 3169SOL    HW121140   3.703   0.282   7.161  1.4937 -0.0596 -0.9803
 3169SOL    HW221141   3.627   0.168   7.202  0.6507 -1.5871  0.3313
 3170SOL     OW21142   3.333   1.841   2.050 -0.0192  0.1765  0.3549
 3170SOL    HW121143   3.341   1.751   2.083  1.8963 -0.5547 -2.1256
 3170SOL    HW221144   3.281   1.884   2.118  0.0271  0.0583  0.4653
 3171SOL     OW21145   2.874   0.870   1.939 -1.2064 -0.2455  0.1938
 3171SOL    HW121146   2.811   0.802   1.964 -2.3386  0.7259 -0.0438
 3171SOL    HW221147   2.862   0.854   1.845 -1.2528 -0.6521  0.2679
 3172SOL     OW21148   0.597   4.470   3.526 -0.0275 -0.1920 -0.3125
 3172SOL    HW121149   0.589   4.379   3.500 -2.8350  0.3972 -1.4329
 3172SOL    HW221150   0.508   4.494   3.551  0.1777 -0.5766  0.7625
 3173SOL     OW21151   2.126   0.551   8.636  0.4126  0.0509 -0.6066
 3173SOL    HW121152   2.109   0.623   8.697 -1.9058 -1.2282  0.2709
 3173SOL    HW221153   2.202   0.513   8.680  0.8794  1.5998 -0.0505
 3174SOL     OW21154   3.544   4.390   8.041  0.0112  0.4025 -0.3706
 3174SOL    HW121155   3.505   4.417   8.124 -0.1849 -0.5649 -0.1425
 3174SOL    HW221156   3.604   4.317   8.059  0.9982  1.5121  0.8473
 3175SOL     OW21157   1.314   1.405   2.109 -0.9145 -0.2324 -0.6981
 3175SOL    HW121158   1.345   1.318   2.134 -1.8301 -0.1779  0.6371
 3175SOL    HW221159   1.221   1.392   2.130 -1.4003 -0.0787 -2.6929
 3176SOL     OW21160   0.834   3.047   6.322  0.1064 -0.3426 -0.5472
 3176SOL    HW121161   0.894   3.022   6.251  1.2103  2.4108 -0.6235
 3176SOL    HW221162   0.834   2.965   6.370 -5.1433  0.9011  1.5107
 3177SOL     OW21163   1.965   1.608  15.030 -0.1008  0.0240  0.0622
 3177SOL    HW121164   1.967   1.701  15.008  0.2846 -0.4389 -1.8533
 3177SOL    HW221165   1.890   1.613  15.089 -0.6627  3.0649 -0.8658
 3178SOL     OW21166   2.721   2.757   7.347  0.1274 -0.6415  0.3700
 3178SOL    HW121167   2.652   2.748   7.282  0.5839  1.2811 -0.3558
 3178SOL    HW221168   2.694   2.705   7.423 -1.5564  2.0105  1.5401
 3179SOL     OW21169   0.221   2.135  11.483 -0.0042 -0.4470  0.2707
 3179SOL    HW121170   0.248   2.048  11.453  2.0987  0.1509  0.4170
 3179SOL    HW221171   0.306   2.166  11.515 -0.0020 -1.7336  1.5094
 3180SOL     OW21172   0.427   4.602   2.484  0.3927 -0.6868  0.4475
 3180SOL    HW121173   0.446   4.696   2.484 -0.7248 -0.4543 -2.4342
 3180SOL    HW221174   0.491   4.554   2.431  1.5775  1.4610 -0.0639
 3181SOL     OW21175   1.947   4.532   7.255 -0.6658 -0.0900  0.3979
 3181SOL    HW121176   2.015   4.479   7.297  1.6762  4.4950  2.4173
 3181SOL    HW221177   2.002   4.606   7.229 -0.2973  0.0751  1.6287
 3182SOL     OW21178   3.365   3.934   7.299  0.0476  0.0869  0.3367
 3182SOL    HW121179   3.281   3.890   7.282  0.7049 -1.5359  1.3224
 3182SOL    HW221180   3.360   3.923   7.394 -0.8047 -0.4492  0.2288
 3183SOL     OW21181   3.518   0.226   9.394  0.7226  0.1322 -0.1643
 3183SOL    HW121182   3.558   0.142   9.418  3.7250  1.1846 -1.5036
 3183SOL    HW221183   3.596   0.281   9.393  1.8985 -1.5058  1.6537
 3184SOL     OW21184   1.762   4.461   7.096  0.2181 -0.0832 -0.1823
 3184SOL    HW121185   1.815   4.509   7.032  0.6896  0.2401  0.4466
 3184SOL    HW221186   1.830   4.468   7.163  0.1523 -3.2660  0.1999
 3185SOL     OW21187   0.958   2.644   7.282 -0.8723  0.1182  0.0543
 3185SOL    HW121188   1.051   2.656   7.260 -1.1462  0.2012 -1.0449
 3185SOL    HW221189   0.927   2.587   7.212 -0.1234  0.0441 -0.2158
 3186SOL     OW21190   1.404   2.593   6.248 -0.0028  0.4579  0.5244
 3186SOL    HW121191   1.465   2.544   6.302  0.6679  0.0258 -0.6313
 3186SOL    HW221192   1.342   2.529   6.213  0.7281 -1.0951  2.1467
 3187SOL     OW21193   1.928   3.471   7.664  0.7359 -0.0958 -0.3272
 3187SOL    HW121194   1.931   3.444   7.572 -0.3767  1.5257 -0.8557
 3187SOL    HW221195   1.836   3.466   7.690  1.6020 -0.3660  2.6527
 3188SOL     OW21196   1.839   1.267   6.501 -0.2370  0.5641 -0.0555
 3188SOL    HW121197   1.923   1.223   6.487 -0.1421 -0.0155  2.2880
 3188SOL    HW221198   1.770   1.205   6.480  1.1898 -0.8688 -0.4795
 3189SOL     OW21199   1.876   3.452  12.310  0.3327  0.2965 -0.1452
 3189SOL    HW121200   1.877   3.369  12.262 -1.0982  0.0697  0.2265
 3189SOL    HW221201   1.788   3.447  12.347 -0.0073 -0.0995 -0.9952
 3190SOL     OW21202   2.653   2.102   0.939 -0.1715 -0.4857 -0.1306
 3190SOL    HW121203   2.657   2.083   0.845 -1.0089 -0.1006 -0.2430
 3190SOL    HW221204   2.578   2.162   0.945 -0.4340 -0.4267 -4.0591
 3191SOL     OW21205   3.337   1.006   6.170 -0.1625  0.4586 -0.2612
 3191SOL    HW121206   3.406   1.050   6.121 -0.4637  0.5486 -0.6012
 3191SOL    HW221207   3.391   0.944   6.219  0.4854  0.4217 -1.0356
 3192SOL     OW21208   2.086   1.563   9.670  0.1167 -0.0864  0.2520
 3192SOL    HW121209   1.999   1.533   9.646 -0.7948  3.4105 -0.6931
 3192SOL    HW221210   2.085   1.658   9.660  1.4625 -0.1432 -0.4402
 3193SOL     OW21211   4.412   4.117   8.527  0.0509  0.0412  0.5481
 3193SOL    HW121212   4.501   4.152   8.516 -0.2071  0.5340  0.0293
 3193SOL    HW221213   4.372   4.183   8.583 -1.2100  0.9654 -1.4528
 3194SOL     OW21214   2.460   4.468  16.501 -0.1725  0.1578  0.3872
 3194SOL    HW121215   2.491   4.404  16.438  1.9040  1.9276 -0.3685
 3194SOL    HW221216   2.499   4.547  16.464  0.1765  0.8025  2.1303
 3195SOL     OW21217   1.953   0.888   8.007 -0.1152 -0.3286 -0.2776
 3195SOL    HW121218   1.968   0.801   7.970  2.3149  1.0336 -2.5098
 3195SOL    HW221219   1.954   0.868   8.100  0.3807  0.3496 -0.1297
 3196SOL     OW21220   1.956   1.862   6.215  0.7063 -0.0896  0.3658
 3196SOL    HW121221   1.909   1.836   6.294  0.2350 -0.2397  0.0380
 3196SOL    HW221222   1.890   1.931   6.209  0.0209 -0.7193  0.6736
 3197SOL     OW21223   4.508   3.748   8.522  0.9735  0.5240 -0.6029
 3197SOL    HW121224   4.543   3.693   8.592 -0.7471  0.2933  0.0703
 3197SOL    HW221225   4.591   3.756   8.475  0.4818 -0.6226 -1.6750
 3198SOL     OW21226   1.583   1.896   2.159  0.2983  0.0455 -0.1975
 3198SOL    HW121227   1.516   1.951   2.200  0.0904 -0.0376 -0.4221
 3198SOL    HW221228   1.537   1.870   2.079 -0.6854 -2.2256  1.0958
 3199SOL     OW21229   1.364   4.705   5.684  0.3055  0.2051  0.1304
 3199SOL    HW121230   1.452   4.689   5.653  0.1101 -1.8414  0.6717
 3199SOL    HW221231   1.314   4.647   5.627  1.1101 -0.3180 -0.0323
 3200SOL     OW21232   3.400   4.020   4.582 -0.4818  0.2417  0.2932
 3200SOL    HW121233   3.434   3.956   4.644 -0.2686 -1.7321 -1.8942
 3200SOL    HW221234   3.324   3.974   4.547  1.4596 -1.6452 -1.4233
 3201SOL     OW21235   2.411   4.057   1.794  0.7008  0.0173  0.2948
 3201SOL    HW121236   2.402   4.126   1.728  0.0156 -1.7409 -1.4174
 3201SOL    HW221237   2.352   4.097   1.857  1.1144 -0.1658  0.7994
 3202SOL     OW21238   3.508   1.230  16.999  0.2342  0.8215  0.3497
 3202SOL    HW121239   3.581   1.171  17.016  0.0103  0.1171 -1.0765
 3202SOL    HW221240   3.504   1.251  16.905 -0.5128 -0.4637  0.0848
 3203SOL     OW21241   2.459   0.986   8.081  0.9011 -0.2421  0.5047
 3203SOL    HW121242   2.484   0.970   8.172  2.6422  0.7065  0.2017
 3203SOL    HW221243   2.365   0.991   8.096  1.0570  1.4702  0.8857
 3204SOL     OW21244   3.417   0.691   9.845  0.0625  0.5150 -0.4263
 3204SOL    HW121245   3.358   0.722   9.914  1.2366 -1.1296  1.3306
 3204SOL    HW221246   3.494   0.748   9.850 -1.1997  2.0939  0.8888
 3205SOL     OW21247   2.316   1.688   4.934  0.6126 -0.2625 -0.1740
 3205SOL    HW121248   2.234   1.727   4.966  1.5853 -0.0118  1.9979
 3205SOL    HW221249   2.303   1.595   4.953 -0.1795 -0.2490 -0.6134
 3206SOL     OW21250   4.657   4.074   8.182 -0.3199 -0.3088 -0.1082
 3206SOL    HW121251   4.635   4.052   8.091  1.2991 -1.1913 -0.2856
 3206SOL    HW221252   4.570   4.077   8.223 -0.3427 -1.5492 -0.0603
 3207SOL     OW21253   2.366   2.706   8.750  0.0110  0.1574 -0.7665
 3207SOL    HW121254   2.416   2.710   8.831  0.5113  1.2497 -1.1309
 3207SOL    HW221255   2.314   2.787   8.757  1.2648  0.8661  0.2216
 3208SOL     OW21256   3.860   4.658   3.207  0.5864  0.1095 -0.2480
 3208SOL    HW121257   3.776   4.655   3.254  1.2891  1.4342  1.1043
 3208SOL    HW221258   3.878   4.565   3.195  0.1040 -0.0553  0.2942
 3209SOL     OW21259   2.906   2.423  11.606 -0.3176  0.1207 -0.5392
 3209SOL    HW121260   2.880   2.383  11.523 -0.3033  0.6601 -0.8041
 3209SOL    HW221261   2.977   2.475  11.568 -1.2351  2.4638  1.0061
 3210SOL     OW21262   3.913   2.233   7.787  0.0432 -0.0758 -0.2198
 3210SOL    HW121263   3.826   2.268   7.768  1.3267  3.1479 -0.0786
 3210SOL    HW221264   3.962   2.277   7.718 -0.7498  1.1452 -0.0040
 3211SOL     OW21265   0.637   0.850   4.463 -0.5900  1.1299  0.1358
 3211SOL    HW121266   0.676   0.774   4.508  0.4748  0.7675 -1.4035
 3211SOL    HW221267   0.656   0.839   4.370 -2.0691 -1.4648  0.1379
 3212SOL     OW21268   2.268   2.886   5.149 -0.0293  0.1908 -0.2194
 3212SOL    HW121269   2.231   2.931   5.073  0.8463 -2.4197 -2.1694
 3212SOL    HW221270   2.194   2.910   5.205 -0.0216 -1.5385  0.5468
 3213SOL     OW21271   1.317   0.305   9.580  0.1732 -0.2226 -0.1998
 3213SOL    HW121272   1.394   0.253   9.599  2.0039  2.1011 -1.2767
 3213SOL    HW221273   1.357   0.387   9.607 -1.7245  0.3604  0.8711
 3214SOL     OW21274   4.103   4.723   0.406 -0.7368 -0.3454 -0.0645
 3214SOL    HW121275   4.085   0.011   0.498  3.3566 -0.0404  0.6683
 3214SOL    HW221276   4.111   4.628   0.413  0.2551 -0.3569 -1.3172
 3215SOL     OW21277   2.878   3.727   2.946 -0.0518  0.0395  0.2351
 3215SOL    HW121278   2.830   3.755   3.024  1.4049 -1.2704  1.6233
 3215SOL    HW221279   2.807   3.704   2.886 -0.6272  0.3061  0.8139
 3216SOL     OW21280   1.125   0.457   5.971 -0.5627  0.1799  0.5391
 3216SOL    HW121281   1.139   0.414   5.887  0.0704  2.1157 -0.3325
 3216SOL    HW221282   1.041   0.421   5.999 -0.9352  0.1328 -0.6531
 3217SOL     OW21283   2.708   3.089   3.529 -0.1549  0.2746 -0.0547
 3217SOL    HW121284   2.671   3.008   3.494  2.3994 -1.5400  1.3940
 3217SOL    HW221285   2.769   3.110   3.458 -1.0408  2.2270 -0.2360
 3218SOL     OW21286   1.742   1.840  11.760  0.2757 -0.3705  0.4620
 3218SOL    HW121287   1.724   1.903  11.829  0.5768 -0.2346  0.4159
 3218SOL    HW221288   1.825   1.875  11.729  0.0874 -1.1539 -0.9648
 3219SOL     OW21289   1.082   0.802  10.629 -0.7538 -0.0765  0.2068
 3219SOL    HW121290   1.104   0.833  10.716 -0.8305 -0.2497  0.2879
 3219SOL    HW221291   1.094   0.709  10.645 -0.1794 -0.1307 -0.5519
 3220SOL     OW21292   2.057   2.802   6.297  0.4022  0.2873  0.2285
 3220SOL    HW121293   1.970   2.814   6.261  0.7164  0.3303 -0.5138
 3220SOL    HW221294   2.085   2.717   6.264 -0.2214  1.9668 -4.5716
 3221SOL     OW21295   2.382   2.185  11.666 -0.4379 -0.0109  0.4368
 3221SOL    HW121296   2.412   2.139  11.745  1.1607 -0.8173 -0.6363
 3221SOL    HW221297   2.322   2.124  11.623  0.4347  1.3505 -2.7190
 3222SOL     OW21298   1.769   0.887  14.795  0.1665  0.2662 -0.0631
 3222SOL    HW121299   1.819   0.875  14.875 -2.9009 -1.4320  1.6285
 3222SOL    HW221300   1.762   0.982  14.805 -1.5137  0.3204 -1.7620
 3223SOL     OW21301   2.752   0.713  16.193 -0.4361  0.4347  0.1595
 3223SOL    HW121302   2.730   0.802  16.221 -0.4358 -0.3669  2.6887
 3223SOL    HW221303   2.764   0.736  16.101  3.2777  1.5778  0.9308
 3224SOL     OW21304   4.665   2.711   3.941  0.0948 -0.1529 -0.1832
 3224SOL    HW121305   4.663   2.804   3.962  2.1377  0.2913 -1.9399
 3224SOL    HW221306   4.645   2.721   3.848 -1.8291  0.3140  0.2666
 3225SOL     OW21307   1.364   2.800   7.404  1.3177 -0.4736 -0.3430
 3225SOL    HW121308   1.330   2.760   7.323 -1.3197  0.2146  0.4172
 3225SOL    HW221309   1.293   2.770   7.461  1.6300  1.2983  0.9654
 3226SOL     OW21310   3.953   2.845  10.573  0.2390  0.4479  0.1150
 3226SOL    HW121311   3.941   2.921  10.516 -0.0113  1.3520  1.3646
 3226SOL    HW221312   4.044   2.857  10.601  0.4264  0.6106 -0.5670
 3227SOL     OW21313   2.146   2.559   8.621 -0.1809 -0.1843 -0.5953
 3227SOL    HW121314   2.228   2.586   8.664 -0.7653  2.5507 -1.2135
 3227SOL    HW221315   2.086   2.610   8.675  1.6972  0.4595  0.9274
 3228SOL     OW21316   3.088   1.761   8.151  0.3742 -0.2671 -0.4310
 3228SOL    HW121317   3.072   1.833   8.090  3.3015  2.4806  1.9968
 3228SOL    HW221318   3.182   1.757   8.135  0.5484  0.8456  0.3176
 3229SOL     OW21319   3.968   1.122  11.577  0.1142 -0.1325  0.9180
 3229SOL    HW121320   3.922   1.202  11.603  0.2399  0.9569 -2.2277
 3229SOL    HW221321   4.057   1.137  11.607 -0.7995 -0.5157  3.7920
 3230SOL     OW21322   3.784   4.361  12.029 -0.7582 -0.3158  0.5227
 3230SOL    HW121323   3.743   4.275  12.020  0.9220 -0.9315 -1.1903
 3230SOL    HW221324   3.750   4.393  12.112  1.0748  0.2189  1.0653
 3231SOL     OW21325   3.457   1.261   1.719 -0.0063  0.1752 -0.1268
 3231SOL    HW121326   3.363   1.276   1.712  0.0427  1.3095  1.7627
 3231SOL    HW221327   3.492   1.349   1.731  0.9326 -0.4588  1.8347
 3232SOL     OW21328   1.294   4.703   2.837  0.1888  0.0867 -0.2131
 3232SOL    HW121329   1.385   4.678   2.822 -0.2121 -1.3593 -0.2458
 3232SOL    HW221330   1.292   0.020   2.920  3.5597  0.7237 -0.5114
 3233SOL     OW21331   2.675   2.673   2.512  0.3393  0.0337 -0.0480
 3233SOL    HW121332   2.618   2.685   2.436  1.0964 -2.3076 -0.9698
 3233SOL    HW221333   2.762   2.677   2.473 -0.2586 -0.9357 -1.4494
 3234SOL     OW21334   4.015   1.622   7.124 -0.4639 -0.1270  0.6413
 3234SOL    HW121335   4.050   1.547   7.172  2.0640  0.0319 -0.9477
 3234SOL    HW221336   4.079   1.630   7.053 -0.9680 -2.0157 -0.0393
 3235SOL     OW21337   1.153   0.972   3.363 -0.2627  0.6876  0.2525
 3235SOL    HW121338   1.230   1.029   3.365 -0.8520  1.4742  0.1698
 3235SOL    HW221339   1.185   0.904   3.303 -0.7879 -0.5748  1.4061
 3236SOL     OW21340   4.623   1.360  11.143 -0.3856  0.0081 -1.0190
 3236SOL    HW121341   4.584   1.274  11.127  1.1278 -1.1486  1.5309
 3236SOL    HW221342   4.603   1.409  11.063 -0.5800 -2.7639 -2.6578
 3237SOL     OW21343   1.756   3.470   3.093 -1.1527 -0.1964 -0.5959
 3237SOL    HW121344   1.661   3.473   3.079 -1.2935 -2.0267 -0.0854
 3237SOL    HW221345   1.768   3.498   3.003 -0.4095 -1.1018 -0.7806
 3238SOL     OW21346   0.113   3.816  16.373  0.5152 -0.6202 -0.0257
 3238SOL    HW121347   0.030   3.863  16.366  0.9118 -0.1360 -1.4634
 3238SOL    HW221348   0.173   3.864  16.316 -1.4190 -0.1155 -1.5929
 3239SOL     OW21349   0.046   3.852   6.887 -0.1041 -0.2301  0.3753
 3239SOL    HW121350   0.127   3.842   6.837 -1.1689 -3.1155 -0.7833
 3239SOL    HW221351   0.001   3.927   6.848  0.8217  0.8915  1.4758
 3240SOL     OW21352   2.196   3.660   4.622  0.2675  0.1199  0.4921
 3240SOL    HW121353   2.107   3.653   4.587  1.5514  2.0082 -3.2031
 3240SOL    HW221354   2.195   3.753   4.645  0.3644  0.2825 -0.1466
 3241SOL     OW21355   4.317   3.538   5.485 -0.7979  0.2612  0.2176
 3241SOL    HW121356   4.272   3.481   5.547  0.7890  0.2472  1.3523
 3241SOL    HW221357   4.239   3.570   5.440 -2.9540 -1.6109  2.6236
 3242SOL     OW21358   1.175   3.307   4.339  0.9856 -0.1207 -0.6003
 3242SOL    HW121359   1.125   3.348   4.410  2.7800  0.8040  0.1311
 3242SOL    HW221360   1.118   3.237   4.307  0.4958 -1.2086  2.6667
 3243SOL     OW21361   0.269   3.569   5.654 -0.1183  0.2832 -0.3543
 3243SOL    HW121362   0.177   3.568   5.680  0.1848  3.0664  0.8421
 3243SOL    HW221363   0.267   3.651   5.606  2.3239  0.3195 -0.4026
 3244SOL     OW21364   2.066   3.747   7.175 -0.3663  0.0755  0.2606
 3244SOL    HW121365   2.028   3.728   7.261  0.5082 -1.6403  0.2677
 3244SOL    HW221366   2.142   3.690   7.187  0.4857  1.4138  1.2278
 3245SOL     OW21367   3.299   2.084   6.071 -0.1009 -0.1293  0.4023
 3245SOL    HW121368   3.244   2.061   6.146 -1.4754  2.3809  0.1570
 3245SOL    HW221369   3.314   1.995   6.039  0.8214 -0.0137  0.5189
 3246SOL     OW21370   3.860   1.655  10.275  0.8918 -0.1120  0.1642
 3246SOL    HW121371   3.886   1.567  10.247 -0.5284 -0.6259  0.4591
 3246SOL    HW221372   3.943   1.699  10.292  0.6259  0.0519  1.0079
 3247SOL     OW21373   3.264   4.017  14.984  0.0608  0.2955  0.1958
 3247SOL    HW121374   3.198   4.023  14.915  1.3420  0.0460 -1.0658
 3247SOL    HW221375   3.217   3.965  15.048  0.1012  3.0756  2.5161
 3248SOL     OW21376   1.110   0.469   5.356 -0.8233 -0.3151  0.7155
 3248SOL    HW121377   1.131   0.468   5.263  2.3119  1.7101  1.4295
 3248SOL    HW221378   1.197   0.462   5.394 -0.1945 -0.8138 -0.8056
 3249SOL     OW21379   1.638   0.253  16.121  0.2624  0.5089  0.4660
 3249SOL    HW121380   1.580   0.328  16.115  0.4973  0.6089 -0.6040
 3249SOL    HW221381   1.618   0.208  16.039 -1.9102 -1.6794  2.1807
 3250SOL     OW21382   0.627   0.655  13.665 -0.1903  0.6701  0.4169
 3250SOL    HW121383   0.717   0.687  13.661 -0.8314  2.2813 -1.2921
 3250SOL    HW221384   0.580   0.724  13.618  0.2119  1.7907  1.6530
 3251SOL     OW21385   2.792   0.982   5.662  0.3964 -0.8554  0.0015
 3251SOL    HW121386   2.754   0.922   5.597 -2.4572  0.6353  0.2985
 3251SOL    HW221387   2.887   0.975   5.655  0.5757 -0.9504  2.6765
 3252SOL     OW21388   2.608   4.427   2.597  0.3085  0.4968 -0.4281
 3252SOL    HW121389   2.657   4.351   2.565  0.3037  0.4657 -0.3618
 3252SOL    HW221390   2.680   4.485   2.623 -0.4245 -0.1569  3.0146
 3253SOL     OW21391   1.327   0.356   8.458  0.0751  0.1602  0.8457
 3253SOL    HW121392   1.320   0.261   8.448 -0.6284  0.2372  0.6080
 3253SOL    HW221393   1.237   0.372   8.485 -0.4575 -0.5192 -0.5449
 3254SOL     OW21394   4.084   0.494   4.668  0.3640  0.0875 -0.3361
 3254SOL    HW121395   4.015   0.448   4.717  1.0288 -0.5424  0.0056
 3254SOL    HW221396   4.153   0.507   4.732 -0.0279  3.3127 -0.5976
 3255SOL     OW21397   3.647   3.175   2.359  0.0471  0.4973  0.0177
 3255SOL    HW121398   3.618   3.211   2.275  1.4639  0.0116 -0.6863
 3255SOL    HW221399   3.656   3.253   2.414 -0.6824 -0.3289  1.3001
 3256SOL     OW21400   3.053   2.402  10.227  0.7743 -0.9873  0.0067
 3256SOL    HW121401   3.078   2.479  10.175  1.0802  1.0037  3.0803
 3256SOL    HW221402   3.100   2.418  10.309 -3.2871  0.5373  2.0379
 3257SOL     OW21403   3.419   1.632   9.319 -1.0199  0.2815  0.4772
 3257SOL    HW121404   3.364   1.640   9.397 -2.9582 -0.6216 -0.7780
 3257SOL    HW221405   3.377   1.563   9.267  1.6594 -0.5155 -0.6248
 3258SOL     OW21406   1.484   0.454   4.630 -0.4154 -0.3790  0.3470
 3258SOL    HW121407   1.513   0.443   4.721  0.2327 -1.8280 -0.0407
 3258SOL    HW221408   1.553   0.514   4.602 -0.9402 -1.1968 -2.6200
 3259SOL     OW21409   2.771   0.303   8.944 -0.0932 -0.6021  0.2818
 3259SOL    HW121410   2.833   0.335   8.879 -1.5242  1.9619  0.1699
 3259SOL    HW221411   2.740   0.225   8.898  1.0566  0.0588 -1.5807
 3260SOL     OW21412   2.018   2.106   3.639  0.3144  0.0189  0.1045
 3260SOL    HW121413   2.024   2.192   3.596 -1.3924 -1.0262 -2.1732
 3260SOL    HW221414   2.080   2.062   3.582  0.8639  0.0703  0.6651
 3261SOL     OW21415   0.547   2.136  17.708 -0.3688 -0.1989  0.2816
 3261SOL    HW121416   0.565   2.218  17.663 -0.1941  0.2592  1.1787
 3261SOL    HW221417   0.534   2.078  17.633  1.6456 -1.9606  1.2779
 3262SOL     OW21418   2.516   4.154   9.204  0.3572 -0.3957 -0.0022
 3262SOL    HW121419   2.587   4.214   9.181  1.3805 -0.8447  1.9720
 3262SOL    HW221420   2.486   4.126   9.118 -0.5407  0.6568 -0.0228
 3263SOL     OW21421   4.510   3.680   3.184  0.3887  0.1968  0.5552
 3263SOL    HW121422   4.471   3.620   3.248  1.6505 -0.5876  0.5877
 3263SOL    HW221423   4.450   3.754   3.184  0.2423  0.0786 -1.1241
 3264SOL     OW21424   1.755   3.858   7.367 -0.1656  0.0405  0.1594
 3264SOL    HW121425   1.704   3.808   7.303  1.0797  0.6809 -1.3109
 3264SOL    HW221426   1.784   3.933   7.315 -2.4465  1.0527  0.3683
 3265SOL     OW21427   2.521   3.287   7.144  0.0940 -0.0756  0.3484
 3265SOL    HW121428   2.464   3.232   7.197 -0.9169 -0.0451 -0.7033
 3265SOL    HW221429   2.461   3.304   7.071 -0.1431  1.6420  0.9473
 3266SOL     OW21430   3.600   0.433   6.433 -0.4321  0.1355 -0.0980
 3266SOL    HW121431   3.617   0.362   6.494  2.8263  1.4347  0.5034
 3266SOL    HW221432   3.665   0.499   6.458  1.2373 -0.8993 -1.7593
 3267SOL     OW21433   2.398   3.458  13.426 -0.2500  0.7968  0.1107
 3267SOL    HW121434   2.466   3.514  13.389  2.7231 -1.9012  1.3929
 3267SOL    HW221435   2.318   3.510  13.427 -0.7931 -0.0247 -0.3426
 3268SOL     OW21436   4.517   0.409  11.821 -0.1603 -0.0887  0.2374
 3268SOL    HW121437   4.599   0.439  11.862  0.2563 -2.7706  1.3697
 3268SOL    HW221438   4.474   0.367  11.896 -3.7364  1.3113 -1.0571
 3269SOL     OW21439   0.223   1.718   3.434  0.1622  0.1038 -0.2614
 3269SOL    HW121440   0.191   1.793   3.484  0.6665 -0.6478  1.1875
 3269SOL    HW221441   0.235   1.753   3.345  1.9550 -0.7505 -0.3552
 3270SOL     OW21442   0.622   3.931   8.689  0.4986 -0.4445 -0.3740
 3270SOL    HW121443   0.671   3.998   8.642 -0.8975  0.5350 -0.4214
 3270SOL    HW221444   0.592   3.976   8.768  1.6207  1.2898 -0.9537
 3271SOL     OW21445   0.292   3.858  15.264 -0.1644 -0.6831  0.3803
 3271SOL    HW121446   0.277   3.891  15.175 -0.1801 -0.3904  0.4928
 3271SOL    HW221447   0.212   3.883  15.310 -0.7829 -0.8930 -0.5836
 3272SOL     OW21448   3.254   2.378   4.189 -0.2608 -0.2438 -0.4145
 3272SOL    HW121449   3.293   2.357   4.104  0.1267  0.2249 -0.3504
 3272SOL    HW221450   3.197   2.303   4.206 -3.3784  1.9005 -1.3839
 3273SOL     OW21451   3.076   4.111  12.376  0.4524 -0.2689 -0.8952
 3273SOL    HW121452   3.111   4.091  12.289 -0.1905  1.9221 -1.6583
 3273SOL    HW221453   3.093   4.206  12.378  1.1472 -0.4370  0.6671
 3274SOL     OW21454   1.818   0.918   6.912  0.0104 -0.0936 -0.2126
 3274SOL    HW121455   1.797   1.004   6.949 -0.7948  0.7074 -2.5290
 3274SOL    HW221456   1.756   0.923   6.839 -1.0486 -1.9047  0.5583
 3275SOL     OW21457   4.464   4.382   3.311  0.4513 -0.2335 -0.4521
 3275SOL    HW121458   4.516   4.341   3.381  0.0509  0.8578  0.4883
 3275SOL    HW221459   4.415   4.446   3.364  0.6127  0.6823 -1.4173
 3276SOL     OW21460   3.519   2.075  11.749 -0.1832  0.7085 -0.7275
 3276SOL    HW121461   3.606   2.091  11.711  0.9338  2.0333  2.3892
 3276SOL    HW221462   3.462   2.102  11.677 -1.6037 -0.1848  0.0584
 3277SOL     OW21463   0.780   0.345  13.216 -0.0459 -0.2685  0.5022
 3277SOL    HW121464   0.711   0.296  13.260 -1.8172  2.8253  1.1950
 3277SOL    HW221465   0.795   0.396  13.296 -1.0883 -1.0785  1.2183
 3278SOL     OW21466   4.044   0.754  10.666  0.0698  0.3524 -0.5133
 3278SOL    HW121467   4.082   0.724  10.583 -1.8301 -0.2357 -1.1597
 3278SOL    HW221468   3.953   0.731  10.652  0.7812 -1.3828 -2.3484
 3279SOL     OW21469   3.346   3.553  10.606 -0.7837  0.0478 -0.7629
 3279SOL    HW121470   3.379   3.467  10.632 -0.4322 -0.2957 -2.3668
 3279SOL    HW221471   3.256   3.527  10.584 -0.4311  0.5876 -2.8173
 3280SOL     OW21472   3.360   3.616   7.625  0.5897  0.3431 -0.0002
 3280SOL    HW121473   3.279   3.613   7.676 -0.6542 -0.6028 -2.0051
 3280SOL    HW221474   3.370   3.711   7.629 -3.2773  0.6850  1.9928
 3281SOL     OW21475   1.989   0.406  12.381 -0.6097  0.4333 -0.0920
 3281SOL    HW121476   1.908   0.453  12.362 -0.2739  0.6160 -1.1419
 3281SOL    HW221477   2.046   0.483  12.389  0.9461 -0.6565 -0.6847
 3282SOL     OW21478   3.558   2.163   6.134  0.2221  0.0826 -0.2520
 3282SOL    HW121479   3.475   2.140   6.175 -0.1558  1.0781 -0.4488
 3282SOL    HW221480   3.600   2.204   6.210  0.3147  0.7475 -0.6605
 3283SOL     OW21481   1.647   3.485  10.899  0.0955 -0.1984  0.0823
 3283SOL    HW121482   1.706   3.541  10.849 -1.1047  2.0707  1.2093
 3283SOL    HW221483   1.591   3.550  10.943 -0.4636 -0.6663  0.0677
 3284SOL     OW21484   3.813   4.403   8.657 -0.6403 -0.2166  0.0386
 3284SOL    HW121485   3.796   4.442   8.743 -0.1537 -1.0652  0.5157
 3284SOL    HW221486   3.834   4.311   8.675 -2.9728 -0.9727 -1.1920
 3285SOL     OW21487   2.618   0.245   1.649  0.1385 -0.3287 -0.4270
 3285SOL    HW121488   2.545   0.209   1.600 -1.5402  1.7023  0.5643
 3285SOL    HW221489   2.646   0.303   1.579  2.7736  1.6411  2.2055
 3286SOL     OW21490   2.310   4.279  15.404  0.0804  0.1968  0.2698
 3286SOL    HW121491   2.233   4.243  15.359  1.1832  2.6993 -3.6475
 3286SOL    HW221492   2.347   4.340  15.340  0.2381  0.5917  0.7443
 3287SOL     OW21493   1.433   4.702  10.816  0.0613  0.0103 -0.4834
 3287SOL    HW121494   1.519   4.677  10.852 -0.8828 -1.3586  0.8273
 3287SOL    HW221495   1.453   4.693  10.722 -1.2166  1.9211 -0.9243
 3288SOL     OW21496   4.098   3.893   4.306 -0.4127  0.4455 -0.0270
 3288SOL    HW121497   4.016   3.928   4.341  0.9657  3.2609  0.3524
 3288SOL    HW221498   4.152   3.866   4.380 -0.0907  0.8238 -0.1231
 3289SOL     OW21499   3.193   2.947   1.588 -0.2075  0.2507 -0.4839
 3289SOL    HW121500   3.282   2.978   1.605  0.0050 -1.6925  1.9031
 3289SOL    HW221501   3.156   3.025   1.547 -0.0652 -0.4806 -1.9996
 3290SOL     OW21502   3.181   1.533   9.829 -0.2103  0.3529 -0.0068
 3290SOL    HW121503   3.246   1.598   9.854  0.3404 -0.1640 -0.1117
 3290SOL    HW221504   3.176   1.480   9.909 -0.3090  0.6391  0.1745
 3291SOL     OW21505   2.150   4.729   5.165 -0.3668  0.3204  0.0287
 3291SOL    HW121506   2.145   4.648   5.216  0.2422  0.3250  0.0902
 3291SOL    HW221507   2.180   0.056   5.235 -0.8664  0.5194  0.0804
 3292SOL     OW21508   3.805   4.649   4.422 -0.3160  0.0003  0.3237
 3292SOL    HW121509   3.714   4.678   4.428 -0.1667  0.3143  1.0669
 3292SOL    HW221510   3.854   4.731   4.426  2.0493 -1.4323  0.4023
 3293SOL     OW21511   4.378   3.564  17.163  0.1903  0.2301 -0.0132
 3293SOL    HW121512   4.353   3.582  17.072 -1.4669 -0.4031  0.3278
 3293SOL    HW221513   4.300   3.588  17.213  0.9173  0.9458  0.7671
 3294SOL     OW21514   1.794   4.320   6.719 -0.1853 -0.4234  0.1836
 3294SOL    HW121515   1.705   4.324   6.752 -0.8894  1.6345 -1.9753
 3294SOL    HW221516   1.777   4.262   6.644  2.5276  0.5829 -1.2212
 3295SOL     OW21517   0.666   3.841   5.191  0.3856 -0.0033 -0.4581
 3295SOL    HW121518   0.616   3.919   5.212  0.0601  0.4139 -2.7245
 3295SOL    HW221519   0.743   3.861   5.244  0.2202 -2.1449  0.6035
 3296SOL     OW21520   2.342   2.215  16.733 -0.1494 -0.2571  0.3364
 3296SOL    HW121521   2.372   2.164  16.658 -0.2362  0.7408 -0.3651
 3296SOL    HW221522   2.375   2.167  16.809 -0.3767 -0.4796  0.2947
 3297SOL     OW21523   1.295   2.838   3.594 -0.0679  0.3843 -0.2977
 3297SOL    HW121524   1.234   2.778   3.552 -0.0906 -0.2813  0.6733
 3297SOL    HW221525   1.347   2.870   3.521  1.1416 -1.2045 -0.1385
 3298SOL     OW21526   3.754   1.228  13.451  0.0044 -0.0935 -0.0152
 3298SOL    HW121527   3.753   1.208  13.357  1.2733  1.4907 -0.3639
 3298SOL    HW221528   3.688   1.166  13.482  0.3150  0.7695  2.3591
 3299SOL     OW21529   3.319   1.230   3.073 -0.1909 -0.1820  0.4276
 3299SOL    HW121530   3.273   1.183   3.004  0.2104 -1.5380  1.0920
 3299SOL    HW221531   3.377   1.275   3.011 -1.2003  2.1056  1.1357
 3300SOL     OW21532   4.610   3.452  14.487  0.1672 -0.1818 -0.3519
 3300SOL    HW121533   4.527   3.496  14.506  1.0973  2.0605 -1.4341
 3300SOL    HW221534   4.621   3.462  14.393 -0.2696 -0.8056 -0.4677
 3301SOL     OW21535   3.376   0.971   2.217 -0.3134  0.1167  0.5032
 3301SOL    HW121536   3.363   1.025   2.139  0.6855 -0.3340  0.0292
 3301SOL    HW221537   3.384   0.884   2.178  0.9890  0.7350 -0.6123
 3302SOL     OW21538   2.988   1.964   1.702 -0.0107 -0.2386  0.2202
 3302SOL    HW121539   3.066   1.909   1.694 -0.1177 -0.2832 -0.5412
 3302SOL    HW221540   2.986   2.014   1.620  0.7394  0.0080  0.3587
 3303SOL     OW21541   2.089   4.636  11.088  0.1676 -0.6411 -0.4827
 3303SOL    HW121542   2.085   4.541  11.083 -0.7856 -0.5700 -0.9590
 3303SOL    HW221543   2.153   4.651  11.018  1.8774  1.3896  1.5059
 3304SOL     OW21544   3.874   3.190   3.844 -0.1923 -0.3541  0.6814
 3304SOL    HW121545   3.897   3.108   3.800  0.8273 -1.8352  4.0124
 3304SOL    HW221546   3.952   3.242   3.825 -1.6871  2.1155  1.4427
 3305SOL     OW21547   3.695   3.938   1.837  0.2753  0.7078  0.2132
 3305SOL    HW121548   3.608   3.931   1.797 -0.3979  0.3937  1.7368
 3305SOL    HW221549   3.749   3.874   1.791  2.4972  1.2480  2.0808
 3306SOL     OW21550   3.127   3.787   8.054 -1.1279 -0.2255  0.2475
 3306SOL    HW121551   3.218   3.786   8.024 -0.9723 -2.3679  0.8199
 3306SOL    HW221552   3.132   3.733   8.133 -1.3959  2.4094  2.0574
 3307SOL     OW21553   1.340   3.413  16.645 -0.1620  1.0755 -0.2988
 3307SOL    HW121554   1.408   3.468  16.684 -0.9644  1.2544  0.8621
 3307SOL    HW221555   1.381   3.402  16.560 -0.5529  0.1940 -0.3695
 3308SOL     OW21556   3.476   0.154  17.595  0.3113  0.0731  0.3521
 3308SOL    HW121557   3.525   0.119  17.669  1.9141  1.5019 -0.0445
 3308SOL    HW221558   3.456   0.242  17.629 -0.0555 -0.0924  0.5652
 3309SOL     OW21559   0.673   0.696  12.887  0.4124 -0.2563  0.4667
 3309SOL    HW121560   0.723   0.650  12.954  0.4591 -2.3482 -1.0224
 3309SOL    HW221561   0.746   0.747  12.851  1.7816 -0.3380  3.1417
 3310SOL     OW21562   4.158   0.868   2.921 -0.2406  0.2652  0.2841
 3310SOL    HW121563   4.142   0.777   2.945 -3.4376 -0.1463 -3.5028
 3310SOL    HW221564   4.227   0.851   2.857 -0.9074 -1.0366 -0.0787
 3311SOL     OW21565   4.718   4.620   1.588 -0.4372  0.3814  0.3311
 3311SOL    HW121566   0.002   4.544   1.532  1.6852  1.9692 -1.2372
 3311SOL    HW221567   0.008   4.592   1.677 -1.4369  0.4162  0.5831
 3312SOL     OW21568   3.254   2.716   7.269 -0.4017 -0.2972 -0.3294
 3312SOL    HW121569   3.174   2.664   7.262 -1.3329  0.9481  0.8318
 3312SOL    HW221570   3.269   2.741   7.178  1.4773 -1.0646 -0.2284
 3313SOL     OW21571   2.829   2.614  14.266  0.1945  0.1305 -0.3087
 3313SOL    HW121572   2.923   2.630  14.260  0.0128  0.7380 -1.4713
 3313SOL    HW221573   2.820   2.576  14.179 -0.6605  0.1467 -0.2249
 3314SOL     OW21574   1.887   1.413  13.920 -0.5485 -0.5918  0.1485
 3314SOL    HW121575   1.967   1.442  13.876  0.5573 -0.6798  2.0826
 3314SOL    HW221576   1.812   1.460  13.884 -1.2085 -1.4002  0.4733
 3315SOL     OW21577   2.766   2.320  12.251  0.1901  0.0951 -0.1136
 3315SOL    HW121578   2.765   2.300  12.158  0.5854 -0.2541 -0.0408
 3315SOL    HW221579   2.671   2.321  12.262  0.3164  3.3944  0.6163
 3316SOL     OW21580   2.850   3.498   7.863  0.1194 -0.0062  0.6923
 3316SOL    HW121581   2.754   3.500   7.862  0.0840 -1.6032  1.2406
 3316SOL    HW221582   2.869   3.406   7.882 -0.8728 -0.1403  1.0337
 3317SOL     OW21583   2.690   3.715   7.966 -0.0839  0.3971 -0.6945
 3317SOL    HW121584   2.631   3.777   8.009 -1.6841 -1.6234  0.0126
 3317SOL    HW221585   2.630   3.648   7.932 -0.5366  1.7717 -2.6450
 3318SOL     OW21586   2.820   1.892  10.706  0.4077 -0.0395  0.0721
 3318SOL    HW121587   2.857   1.902  10.794  0.2953  0.2042  0.0913
 3318SOL    HW221588   2.732   1.930  10.710  0.8176  0.8650  0.6406
 3319SOL     OW21589   0.579   2.362   9.817 -0.3320 -0.1257  0.0003
 3319SOL    HW121590   0.500   2.312   9.835 -1.2524  0.7361 -1.7070
 3319SOL    HW221591   0.547   2.448   9.846  0.6725  0.2050  0.1448
 3320SOL     OW21592   2.885   4.494   8.182  0.2271 -0.6779  0.0746
 3320SOL    HW121593   2.812   4.481   8.243 -1.5306 -1.1719 -2.1071
 3320SOL    HW221594   2.877   4.589   8.173 -0.2235 -0.4741  2.4750
 3321SOL     OW21595   0.533   0.963   3.525 -0.0439  0.2013  0.5891
 3321SOL    HW121596   0.621   1.001   3.527  0.4432 -0.8668 -0.9937
 3321SOL    HW221597   0.549   0.883   3.574 -1.5905 -0.2233  0.4064
 3322SOL     OW21598   0.211   0.056   4.443 -0.5738 -0.2454  0.4258
 3322SOL    HW121599   0.140   0.113   4.473 -1.1133 -0.8156  0.2370
 3322SOL    HW221600   0.176   4.703   4.469 -1.4008 -0.5100 -1.5009
 3323SOL     OW21601   1.161   1.737   0.703 -0.1770  0.3852 -0.2367
 3323SOL    HW121602   1.144   1.663   0.760 -1.2439  0.5647 -0.3269
 3323SOL    HW221603   1.247   1.766   0.733 -0.1869 -0.6522  0.7848
 3324SOL     OW21604   0.455   2.533  16.783  0.2297  0.2767 -0.2292
 3324SOL    HW121605   0.514   2.598  16.745  1.8614  0.3822  2.4625
 3324SOL    HW221606   0.382   2.547  16.723  0.4074  1.3596 -0.1870
 3325SOL     OW21607   2.420   4.085   1.352  0.2329 -0.9329 -0.1797
 3325SOL    HW121608   2.434   4.175   1.378  2.1621 -1.3177  0.0819
 3325SOL    HW221609   2.328   4.079   1.326  0.8473 -3.1093 -1.8914
 3326SOL     OW21610   3.750   4.688   7.913 -0.0050 -0.8383  0.2169
 3326SOL    HW121611   3.680   0.002   7.960  0.6246  0.8032 -0.4681
 3326SOL    HW221612   3.816   4.689   7.981  0.5964  2.4822 -0.4019
 3327SOL     OW21613   1.801   3.419   8.654  0.5589 -0.3582  0.5738
 3327SOL    HW121614   1.840   3.338   8.620  1.5617  0.1172  0.5701
 3327SOL    HW221615   1.733   3.393   8.715 -0.6158 -0.5123 -0.7923
 3328SOL     OW21616   1.815   2.816   6.196 -0.0473  0.0673 -0.2278
 3328SOL    HW121617   1.755   2.844   6.127  0.5351 -0.8695 -1.1188
 3328SOL    HW221618   1.767   2.738   6.225  0.2676 -0.0923 -0.1316
 3329SOL     OW21619   2.828   1.425   4.090 -0.0528  0.4754  0.2485
 3329SOL    HW121620   2.760   1.407   4.155  0.8430 -1.9477  0.5375
 3329SOL    HW221621   2.836   1.334   4.062  1.2910  0.3173  1.1480
 3330SOL     OW21622   2.049   1.413   0.161 -0.9976  0.3007  0.5630
 3330SOL    HW121623   2.027   1.351   0.091 -0.5665  2.4323 -1.4606
 3330SOL    HW221624   2.018   1.499   0.133 -0.1264 -0.0832 -1.6021
 3331SOL     OW21625   4.686   1.248   8.072  0.0539  0.1728  0.4555
 3331SOL    HW121626   4.616   1.308   8.099 -0.6512 -1.0731  1.3885
 3331SOL    HW221627   4.663   1.230   7.981  2.2896 -1.2122  0.1874
 3332SOL     OW21628   0.742   0.534  15.407 -0.2741  0.6181 -0.0171
 3332SOL    HW121629   0.753   0.618  15.363 -4.4697  1.8187  1.2179
 3332SOL    HW221630   0.731   0.554  15.500 -3.6664  2.2935 -0.7745
 3333SOL     OW21631   1.574   3.463   2.162  0.3615 -0.1264  0.3367
 3333SOL    HW121632   1.625   3.392   2.202 -1.2304 -2.8250 -2.4144
 3333SOL    HW221633   1.484   3.451   2.192  0.0247 -1.5660 -1.2312
 3334SOL     OW21634   1.116   1.885   6.789  0.0256 -0.4586  0.4593
 3334SOL    HW121635   1.182   1.817   6.803  0.5941  0.0230  0.1410
 3334SOL    HW221636   1.040   1.830   6.804 -1.4865  1.2021 -1.0569
 3335SOL     OW21637   2.011   1.228  17.692  0.5378  0.3223  0.4825
 3335SOL    HW121638   1.970   1.172  17.626 -0.7166  0.2100  1.3681
 3335SOL    HW221639   2.099   1.191  17.701  0.4870 -0.2346 -1.2745
 3336SOL     OW21640   4.123   2.362   5.695  0.1926 -0.0909 -0.3734
 3336SOL    HW121641   4.169   2.278   5.687  0.2819 -0.2020  1.3105
 3336SOL    HW221642   4.037   2.333   5.664 -0.7348  0.2787  1.8067
 3337SOL     OW21643   1.366   4.277   7.603  0.4611 -0.0892  0.3085
 3337SOL    HW121644   1.274   4.253   7.616 -0.2742  2.4858 -0.2010
 3337SOL    HW221645   1.355   4.344   7.537 -0.5653  0.4730  1.0446
 3338SOL     OW21646   3.618   0.103  16.256  0.4953 -0.1629 -0.1433
 3338SOL    HW121647   3.556   0.127  16.325  0.2814 -0.0245 -0.3848
 3338SOL    HW221648   3.640   0.011  16.273 -2.2034 -0.6974  0.4418
 3339SOL     OW21649   1.804   1.416   4.221 -0.0073 -0.2721  0.4491
 3339SOL    HW121650   1.859   1.469   4.279  1.4556  1.5616 -2.6357
 3339SOL    HW221651   1.881   1.367   4.195 -1.0964 -0.8808 -1.6152
 3340SOL     OW21652   0.212   1.467   3.540  0.3039  0.1806 -0.1987
 3340SOL    HW121653   0.126   1.441   3.505 -0.0217  2.0593 -0.8015
 3340SOL    HW221654   0.218   1.561   3.524 -0.4584  0.6407  2.1995
 3341SOL     OW21655   1.332   1.651  14.816  0.1534 -0.5785  0.5983
 3341SOL    HW121656   1.253   1.597  14.829 -1.0740  1.2978  0.9452
 3341SOL    HW221657   1.299   1.740  14.805 -0.7422 -0.8837  0.7880
 3342SOL     OW21658   1.513   3.163   6.934  0.2242  0.4862 -0.0270
 3342SOL    HW121659   1.505   3.068   6.939  2.1838  0.3536  0.7117
 3342SOL    HW221660   1.588   3.175   6.992 -0.8806  1.1019  1.2867
 3343SOL     OW21661   3.746   1.290   8.350  0.5108 -0.4824 -0.4080
 3343SOL    HW121662   3.762   1.353   8.280 -0.2988  0.8495  0.5976
 3343SOL    HW221663   3.743   1.206   8.304 -0.4595 -0.9893  0.5925
 3344SOL     OW21664   1.337   2.197   4.473  0.0934  0.1879 -0.4604
 3344SOL    HW121665   1.283   2.132   4.428  1.2321 -0.5290 -0.7875
 3344SOL    HW221666   1.277   2.241   4.533 -0.4759 -0.3436 -0.6432
 3345SOL     OW21667   4.638   2.778   7.757  0.0647  0.0999 -0.5364
 3345SOL    HW121668   4.619   2.686   7.773 -1.4160  0.6501  0.8425
 3345SOL    HW221669   4.695   2.791   7.832  0.1212  1.3918 -0.7991
 3346SOL     OW21670   0.586   0.264   3.539 -0.9534  0.9460 -0.6783
 3346SOL    HW121671   0.648   0.307   3.481  0.1794  1.6804  1.0790
 3346SOL    HW221672   0.517   0.330   3.544 -2.1088 -0.4211  1.6172
 3347SOL     OW21673   3.543   2.636  14.218  0.3669 -0.3519 -0.4499
 3347SOL    HW121674   3.629   2.675  14.227  0.2284  0.4804 -2.6653
 3347SOL    HW221675   3.563   2.550  14.182 -1.6184 -0.8770 -0.3088
 3348SOL     OW21676   2.616   4.047   7.282  0.5826 -0.4288 -0.1214
 3348SOL    HW121677   2.677   4.012   7.346  0.3655 -0.9874 -0.2245
 3348SOL    HW221678   2.539   3.992   7.294  0.3800 -0.3927 -1.2731
 3349SOL     OW21679   0.904   1.529   3.200  0.3749 -0.4673 -0.4770
 3349SOL    HW121680   0.982   1.530   3.143 -0.7775 -0.8186 -2.0635
 3349SOL    HW221681   0.840   1.597   3.182  0.7336  0.4901  1.8692
 3350SOL     OW21682   3.118   4.189   1.264 -0.6833 -0.0375  0.4380
 3350SOL    HW121683   3.095   4.267   1.213  0.2471  0.8772  1.4124
 3350SOL    HW221684   3.166   4.135   1.201 -0.2791 -1.4644  1.9525
 3351SOL     OW21685   4.488   2.227   1.880 -0.5465  0.2578 -0.0612
 3351SOL    HW121686   4.405   2.215   1.834 -0.4804 -0.3668 -0.0210
 3351SOL    HW221687   4.533   2.143   1.869  1.5482  1.5388 -1.2593
 3352SOL     OW21688   0.338   0.960   1.966 -0.0010 -0.2074 -0.0935
 3352SOL    HW121689   0.334   0.919   2.053  0.7381  0.9112  0.4612
 3352SOL    HW221690   0.431   0.982   1.976  0.2581 -0.7143 -1.3514
 3353SOL     OW21691   3.240   4.427  13.006 -0.5339  0.2966  0.3764
 3353SOL    HW121692   3.327   4.418  13.046 -0.2911  0.7977 -0.0372
 3353SOL    HW221693   3.275   4.469  12.927 -0.7401  1.9326  1.1420
 3354SOL     OW21694   3.419   4.507   1.622 -0.6597 -0.1220  0.6288
 3354SOL    HW121695   3.330   4.521   1.652  0.0196  0.1203  2.5320
 3354SOL    HW221696   3.446   4.598   1.635 -1.2871  0.1589 -0.0495
 3355SOL     OW21697   4.482   4.644   7.030 -0.0518  0.4898  0.4947
 3355SOL    HW121698   4.387   4.640   7.016 -0.2525  1.9331  1.4627
 3355SOL    HW221699   4.521   4.609   6.950  0.6264  0.2991  0.9127
 3356SOL     OW21700   2.676   0.555   3.568  0.2383 -0.3271  0.4721
 3356SOL    HW121701   2.720   0.603   3.637  1.2035  0.0649 -0.4144
 3356SOL    HW221702   2.732   0.478   3.566 -1.8144 -1.8154  0.7474
 3357SOL     OW21703   3.105   3.584   8.273  0.4259  0.2324  0.0478
 3357SOL    HW121704   3.039   3.548   8.215 -1.0578  3.5380 -0.2898
 3357SOL    HW221705   3.127   3.499   8.311 -0.6327 -0.5932 -1.2327
 3358SOL     OW21706   2.459   1.558  16.294  0.9997  0.2992 -1.0407
 3358SOL    HW121707   2.553   1.545  16.283  1.2983  1.2505  0.3005
 3358SOL    HW221708   2.413   1.548  16.211 -0.2420  1.1911 -0.4615
 3359SOL     OW21709   3.723   2.137   5.268  0.1664  0.1731  0.0210
 3359SOL    HW121710   3.658   2.203   5.242 -0.4361 -1.0248 -1.4908
 3359SOL    HW221711   3.679   2.075   5.326 -1.0429 -0.3456 -1.4367
 3360SOL     OW21712   3.559   4.317   5.924  0.4474  0.3211  0.2908
 3360SOL    HW121713   3.566   4.403   5.965  1.8915  0.6838 -0.6962
 3360SOL    HW221714   3.600   4.336   5.839 -0.9132 -0.7947 -0.6068
 3361SOL     OW21715   1.383   4.211   3.326  0.0200 -0.3184 -0.0943
 3361SOL    HW121716   1.450   4.252   3.379  0.8111 -1.6984 -0.0255
 3361SOL    HW221717   1.378   4.271   3.251  1.1541  1.4056  1.2400
 3362SOL     OW21718   0.394   3.244   2.198  0.3669  0.0789 -0.0970
 3362SOL    HW121719   0.481   3.253   2.237  0.3575  0.7191 -0.2307
 3362SOL    HW221720   0.367   3.167   2.248 -0.3346  0.8401  0.6770
 3363SOL     OW21721   1.585   2.841   7.218 -0.6179 -0.3227  0.2585
 3363SOL    HW121722   1.556   2.847   7.127 -0.7063  1.7165  0.4226
 3363SOL    HW221723   1.532   2.908   7.262 -1.3678 -0.4535 -0.4324
 3364SOL     OW21724   3.885   2.804  11.421 -0.7136  0.3903 -0.0271
 3364SOL    HW121725   3.828   2.881  11.415  0.9247  1.7646  2.0132
 3364SOL    HW221726   3.918   2.792  11.333  0.2707  2.3633  0.0880
 3365SOL     OW21727   1.351   4.136   4.055 -0.1653 -0.7971  0.5826
 3365SOL    HW121728   1.422   4.159   3.995 -0.9161  1.8084  0.7146
 3365SOL    HW221729   1.310   4.222   4.054 -1.8981 -1.6243 -0.1148
 3366SOL     OW21730   3.364   2.131   7.096 -0.3352 -0.0180 -0.0521
 3366SOL    HW121731   3.382   2.083   7.015  0.8705 -0.7498  0.6397
 3366SOL    HW221732   3.406   2.078   7.163 -0.0059 -0.9089 -0.9522
 3367SOL     OW21733   3.338   1.442   8.524  0.2388 -0.4706 -0.8450
 3367SOL    HW121734   3.423   1.411   8.493 -0.0061 -1.8080 -0.1632
 3367SOL    HW221735   3.328   1.377   8.593 -1.0852  2.0195  1.3389
 3368SOL     OW21736   0.201   0.820   7.715 -0.0152  0.0005  0.4691
 3368SOL    HW121737   0.265   0.851   7.650  0.8563 -0.5787  1.0603
 3368SOL    HW221738   0.125   0.819   7.656 -0.3043 -1.3881  0.8731
 3369SOL     OW21739   1.311   0.771   7.683 -0.0273  0.4675 -0.3558
 3369SOL    HW121740   1.351   0.728   7.608  0.2221  1.0618 -0.5622
 3369SOL    HW221741   1.381   0.826   7.717 -0.1963 -0.4369  1.4654
 3370SOL     OW21742   4.205   2.134   7.739  0.3855  0.1616 -0.4032
 3370SOL    HW121743   4.292   2.147   7.777  1.0638  2.2735 -2.6658
 3370SOL    HW221744   4.194   2.217   7.693 -0.6973  0.2064 -0.0735
 3371SOL     OW21745   4.003   0.862   7.503 -0.4329  0.0996 -0.2416
 3371SOL    HW121746   3.961   0.898   7.425  0.6654 -0.8850 -1.2763
 3371SOL    HW221747   3.954   0.901   7.576 -1.3584  0.1025 -0.8670
 3372SOL     OW21748   1.758   2.431   3.342  0.0728  0.8037  0.0323
 3372SOL    HW121749   1.777   2.364   3.277 -0.3087 -2.2571  3.1167
 3372SOL    HW221750   1.734   2.506   3.287  0.3755  1.6732  1.0799
 3373SOL     OW21751   3.958   3.701  15.887 -0.1313  0.4948  0.8368
 3373SOL    HW121752   3.893   3.631  15.883  2.0618 -1.4949  0.0917
 3373SOL    HW221753   3.913   3.770  15.936 -0.5710  0.7367  0.0831
 3374SOL     OW21754   2.759   4.373  11.002  0.2361  0.0318 -0.3388
 3374SOL    HW121755   2.680   4.381  10.949  1.9772 -1.3157 -3.1172
 3374SOL    HW221756   2.809   4.427  10.940 -0.2549  0.3182 -0.4893
 3375SOL     OW21757   1.363   4.403   3.084  0.2827 -0.0458  0.3178
 3375SOL    HW121758   1.423   4.476   3.097 -1.3653  1.3563  0.0814
 3375SOL    HW221759   1.373   4.378   2.992 -0.2966 -2.3893  0.8904
 3376SOL     OW21760   1.012   4.010   7.422  0.0952 -0.1489  0.1161
 3376SOL    HW121761   1.002   3.937   7.362  2.1082 -0.7292  0.4810
 3376SOL    HW221762   1.066   4.067   7.366  1.9187 -0.5775  1.4510
 3377SOL     OW21763   4.281   1.090   9.327 -0.3335  0.1660  0.1519
 3377SOL    HW121764   4.293   1.081   9.232 -1.3493 -1.3848  0.1725
 3377SOL    HW221765   4.345   1.028   9.361  1.1991  3.1703  2.7522
 3378SOL     OW21766   3.669   4.365  12.312 -0.0855  0.0434  0.2385
 3378SOL    HW121767   3.687   4.273  12.332  0.4091 -0.0633 -0.6930
 3378SOL    HW221768   3.728   4.410  12.373  0.0363  1.3180 -0.8317
 3379SOL     OW21769   1.201   2.861   5.098  0.4338  0.1693 -0.5389
 3379SOL    HW121770   1.168   2.855   5.008  0.0417 -0.9927 -0.3244
 3379SOL    HW221771   1.173   2.947   5.129  0.1620  0.0911 -0.5688
 3380SOL     OW21772   0.906   4.459   1.446 -0.4613  0.0168 -0.6392
 3380SOL    HW121773   0.909   4.377   1.396 -0.1612 -0.8503  0.7915
 3380SOL    HW221774   0.877   4.437   1.534  0.8659  0.5341 -0.0749
 3381SOL     OW21775   0.348   0.533  16.110 -0.4154 -0.0219 -0.2681
 3381SOL    HW121776   0.253   0.526  16.108 -0.4247  0.8690 -2.0232
 3381SOL    HW221777   0.357   0.507  16.202 -0.5022 -4.0728 -1.4176
 3382SOL     OW21778   3.176   3.018   5.777  0.5349  0.2603 -0.7579
 3382SOL    HW121779   3.214   2.985   5.859 -0.2084  1.9268  0.2629
 3382SOL    HW221780   3.082   3.001   5.789  0.7289 -1.0340 -1.0984
 3383SOL     OW21781   2.234   0.103   5.389 -0.0800 -0.6904  0.8696
 3383SOL    HW121782   2.236   0.197   5.371 -0.9274 -1.0214 -0.9014
 3383SOL    HW221783   2.310   0.091   5.445 -0.6380 -1.8357  1.3894
 3384SOL     OW21784   0.432   0.213   6.463  0.8053  0.3657 -0.0276
 3384SOL    HW121785   0.360   0.180   6.517  0.2174 -0.4840 -1.3148
 3384SOL    HW221786   0.410   0.171   6.379 -1.1003 -1.6078  1.4392
 3385SOL     OW21787   0.455   1.815   0.403  0.1349 -0.7410  0.2610
 3385SOL    HW121788   0.476   1.889   0.347 -0.0556 -0.6570  0.3004
 3385SOL    HW221789   0.360   1.819   0.399  0.2485  1.0220 -0.4554
 3386SOL     OW21790   0.406   2.722   7.837  0.5818  0.4045  0.4227
 3386SOL    HW121791   0.332   2.742   7.895 -1.0526 -1.9008 -0.8734
 3386SOL    HW221792   0.369   2.651   7.786 -0.9405  1.5845 -0.1108
 3387SOL     OW21793   1.908   4.154  16.318 -0.1478 -0.3263  0.5284
 3387SOL    HW121794   1.964   4.089  16.360  0.0244  0.3209  1.3034
 3387SOL    HW221795   1.956   4.187  16.242 -1.8035  0.2370 -0.2588
 3388SOL     OW21796   3.960   4.369   8.138  0.5269 -0.3990  0.2533
 3388SOL    HW121797   4.010   4.390   8.216  1.9408  2.9240 -1.5390
 3388SOL    HW221798   3.885   4.428   8.140  0.4117 -0.5383  0.0172
 3389SOL     OW21799   0.196   1.331  14.191 -0.2129  0.7355 -0.1884
 3389SOL    HW121800   0.250   1.337  14.270 -0.3974 -1.9356  0.1213
 3389SOL    HW221801   0.153   1.247  14.206  1.6175  0.0018  0.8992
 3390SOL     OW21802   4.228   2.478   7.420  0.9225 -0.1042  0.0257
 3390SOL    HW121803   4.312   2.524   7.422  0.2626  1.0797  0.4418
 3390SOL    HW221804   4.184   2.537   7.359  0.0382 -0.0552  0.7072
 3391SOL     OW21805   3.433   3.594   3.237 -0.1201 -0.6196  0.3261
 3391SOL    HW121806   3.448   3.651   3.162  1.4719  0.3205  1.3471
 3391SOL    HW221807   3.520   3.606   3.277 -0.4682  2.9576  0.0469
 3392SOL     OW21808   1.913   3.954   4.052  0.0860  0.4079  0.1116
 3392SOL    HW121809   1.883   3.916   4.135  0.2548  1.2123  0.5452
 3392SOL    HW221810   1.969   3.888   4.011  0.3643  1.0957 -0.6094
 3393SOL     OW21811   2.249   0.174   8.858 -0.2596 -0.4015 -0.2084
 3393SOL    HW121812   2.260   0.079   8.853 -0.8264 -0.5948  2.0738
 3393SOL    HW221813   2.309   0.201   8.928  2.3127 -1.8117 -1.8525
 3394SOL     OW21814   1.929   1.286   7.748  0.7434 -0.0906  0.5045
 3394SOL    HW121815   1.980   1.249   7.820  0.7161 -0.4217  0.3550
 3394SOL    HW221816   1.877   1.212   7.716  2.2367 -1.3942  1.1126
 3395SOL     OW21817   0.063   2.179   5.872 -0.0600 -0.5809 -0.2255
 3395SOL    HW121818   0.037   2.258   5.825  0.7166 -1.0235 -1.4071
 3395SOL    HW221819   0.128   2.144   5.810 -0.8085 -2.2394 -0.0643
 3396SOL     OW21820   4.247   3.921   4.885  0.5716  0.0556  0.1166
 3396SOL    HW121821   4.233   3.861   4.957 -1.0161 -0.5122 -0.6651
 3396SOL    HW221822   4.324   3.885   4.841  1.2208  1.0108  0.4810
 3397SOL     OW21823   3.015   2.460   8.115  0.2072 -0.3548 -0.7389
 3397SOL    HW121824   2.989   2.409   8.038 -1.3621 -1.2188  0.3474
 3397SOL    HW221825   2.928   2.451   8.155  0.4987  0.5770  0.0960
 3398SOL     OW21826   3.712   2.738  10.507 -0.1667 -0.2577 -0.1566
 3398SOL    HW121827   3.798   2.766  10.540  0.3927 -0.7929 -1.1585
 3398SOL    HW221828   3.725   2.702  10.420  2.6145 -0.7775  0.4585
 3399SOL     OW21829   2.691   4.649   9.372 -0.1195 -0.1618 -0.1356
 3399SOL    HW121830   2.613   4.685   9.329  2.0651  1.6751 -2.6085
 3399SOL    HW221831   2.689   4.713   9.443 -0.0561  0.3879 -0.6270
 3400SOL     OW21832   0.548   0.226   7.171  0.0480  1.1704 -0.4805
 3400SOL    HW121833   0.467   0.181   7.197 -0.4726  2.3312 -0.1188
 3400SOL    HW221834   0.522   0.313   7.202 -1.5240 -0.1896  2.0470
 3401SOL     OW21835   0.282   3.475   6.714  0.2573 -0.1445  0.1100
 3401SOL    HW121836   0.342   3.424   6.660  2.6841  0.7388  1.9848
 3401SOL    HW221837   0.208   3.471   6.654 -0.1133 -1.4084  0.6597
 3402SOL     OW21838   2.462   4.067   9.478 -0.0501 -0.1269  0.3408
 3402SOL    HW121839   2.516   4.121   9.421 -2.3161  0.2116 -1.5072
 3402SOL    HW221840   2.503   4.077   9.563 -0.0777 -0.2645  0.3702
 3403SOL     OW21841   1.691   4.496   7.391  0.0355 -0.3465  0.2503
 3403SOL    HW121842   1.625   4.556   7.425  0.9417 -0.0457  1.5122
 3403SOL    HW221843   1.740   4.548   7.327  1.3755 -2.6447 -0.5850
 3404SOL     OW21844   0.355   3.679   6.903  0.0650 -0.1520  0.0598
 3404SOL    HW121845   0.290   3.614   6.875 -0.2251  0.4001 -0.5631
 3404SOL    HW221846   0.348   3.732   6.823 -0.5705 -0.5938 -0.1795
 3405SOL     OW21847   0.922   3.560  14.782  0.2722 -0.0535  0.1196
 3405SOL    HW121848   0.961   3.500  14.845 -1.2358 -2.3483 -1.1223
 3405SOL    HW221849   1.005   3.603  14.760  0.8082 -0.6080  1.0997
 3406SOL     OW21850   1.517   3.895   6.014  0.1653 -0.1460 -0.3078
 3406SOL    HW121851   1.584   3.849   5.965  1.2882  0.7297  0.4047
 3406SOL    HW221852   1.571   3.939   6.080  0.2825 -0.4137 -0.2247
 3407SOL     OW21853   0.381   1.984  15.544  0.4920  0.0797  0.4778
 3407SOL    HW121854   0.301   2.033  15.521  0.9454  1.0877  1.0277
 3407SOL    HW221855   0.415   1.980  15.455 -0.8545  1.2621 -0.0958
 3408SOL     OW21856   0.364   0.414  13.631  0.0097  0.2008 -0.3816
 3408SOL    HW121857   0.303   0.340  13.628  0.8910 -0.4662 -1.9849
 3408SOL    HW221858   0.314   0.491  13.606  1.1407  0.9018 -0.4982
 3409SOL     OW21859   4.139   0.872   6.515 -0.5533 -0.1836  0.4809
 3409SOL    HW121860   4.137   0.853   6.609 -2.1038 -0.8478  0.3176
 3409SOL    HW221861   4.214   0.824   6.479  0.0546 -0.6681  2.3562
 3410SOL     OW21862   0.972   4.301   3.925 -0.5265  0.2539  0.3319
 3410SOL    HW121863   0.908   4.257   3.981  0.6729 -1.1755  0.5614
 3410SOL    HW221864   0.956   4.260   3.840  0.1883  0.9414 -0.1338
 3411SOL     OW21865   2.965   4.325   8.508 -0.0737  0.3364  0.3178
 3411SOL    HW121866   2.926   4.252   8.460 -0.5842  1.0109 -0.2824
 3411SOL    HW221867   3.011   4.268   8.570  2.5574  1.0291 -0.9898
 3412SOL     OW21868   0.840   0.726   7.763 -0.5761  0.1486  0.0984
 3412SOL    HW121869   0.787   0.778   7.823  2.1955  0.2127  2.5083
 3412SOL    HW221870   0.816   0.639   7.794 -0.8369  0.1150 -0.2018
 3413SOL     OW21871   3.449   0.744   1.109  0.1082  0.4182  0.0533
 3413SOL    HW121872   3.519   0.701   1.158 -1.0883  0.5495  1.8820
 3413SOL    HW221873   3.377   0.731   1.171 -0.7736  0.2864 -0.9999
 3414SOL     OW21874   1.878   0.902   2.299  0.4308 -0.1121 -0.4399
 3414SOL    HW121875   1.788   0.890   2.329  0.3024  0.9649 -0.3949
 3414SOL    HW221876   1.892   0.831   2.237 -3.1223  0.5672 -2.0641
 3415SOL     OW21877   2.515   2.466   4.433  0.4997 -0.5079 -0.1478
 3415SOL    HW121878   2.502   2.391   4.375  1.0856  0.2366 -1.2741
 3415SOL    HW221879   2.480   2.433   4.515 -0.5513  1.0787  0.0312
 3416SOL     OW21880   4.624   3.234   8.766 -0.2362 -0.4561  0.0524
 3416SOL    HW121881   4.581   3.285   8.834  2.9586 -0.9335  2.4067
 3416SOL    HW221882   4.707   3.280   8.757 -0.5842  0.3977  1.2829
 3417SOL     OW21883   1.172   1.344   7.700 -0.5479  1.1106  0.4515
 3417SOL    HW121884   1.122   1.384   7.629 -2.6021  0.7847  1.7209
 3417SOL    HW221885   1.182   1.254   7.667 -0.3816  0.5255  2.1160
 3418SOL     OW21886   4.632   3.229  11.136 -0.2477  0.1920 -0.5400
 3418SOL    HW121887   4.540   3.225  11.161  0.2778 -2.5161  0.9594
 3418SOL    HW221888   4.618   3.279  11.056 -3.2256  0.6880  0.2789
 3419SOL     OW21889   0.389   0.389   6.761 -0.7166 -0.0027 -0.5363
 3419SOL    HW121890   0.437   0.373   6.680  0.1944 -2.0933  0.4142
 3419SOL    HW221891   0.436   0.326   6.816 -0.2906  0.7276 -0.0624
 3420SOL     OW21892   3.264   3.389   6.021  0.1024 -0.3441  0.8520
 3420SOL    HW121893   3.189   3.408   6.077 -0.3737 -1.8391  0.7193
 3420SOL    HW221894   3.344   3.394   6.073  0.2747  2.9385  0.2272
 3421SOL     OW21895   2.521   0.801  16.992  0.2692 -0.0775 -0.2997
 3421SOL    HW121896   2.565   0.792  16.907 -0.9383  1.6486 -1.0915
 3421SOL    HW221897   2.488   0.712  17.001  0.0207  0.0551  0.1070
 3422SOL     OW21898   3.627   4.172   3.598  0.4550 -0.4144 -0.3289
 3422SOL    HW121899   3.688   4.206   3.532 -0.6243  2.4534  0.1566
 3422SOL    HW221900   3.681   4.099   3.629  0.4563  0.1096  0.8832
 3423SOL     OW21901   4.262   0.983   6.978  0.1518 -0.2402 -0.3773
 3423SOL    HW121902   4.339   0.928   6.963  0.0444 -0.3613 -0.4868
 3423SOL    HW221903   4.307   1.060   7.012  2.6547 -1.5485 -0.7309
 3424SOL     OW21904   1.369   0.831  13.737 -0.2898  0.0117  0.0568
 3424SOL    HW121905   1.327   0.795  13.659  1.5691  0.6085 -1.2291
 3424SOL    HW221906   1.308   0.798  13.803  0.5992  0.3566  1.0419
 3425SOL     OW21907   0.315   4.240  14.571 -0.0211  0.2724 -0.0271
 3425SOL    HW121908   0.288   4.329  14.592  2.5416  0.8306  0.8225
 3425SOL    HW221909   0.228   4.199  14.563  0.2920 -0.0097 -2.1514
 3426SOL     OW21910   2.280   3.707   5.098  0.1748 -0.1220  0.1610
 3426SOL    HW121911   2.313   3.765   5.029  1.7368 -0.8756  0.2795
 3426SOL    HW221912   2.197   3.681   5.057  1.5929 -1.9848 -1.5201
 3427SOL     OW21913   4.475   0.536  15.163  0.2262  0.0293  0.2317
 3427SOL    HW121914   4.500   0.624  15.134 -1.4761  0.1831 -0.7850
 3427SOL    HW221915   4.543   0.488  15.116  0.5211  1.2954 -0.6436
 3428SOL     OW21916   1.070   1.402  15.527 -0.1138 -0.8300 -0.3898
 3428SOL    HW121917   1.019   1.347  15.468 -0.6282 -0.4628 -0.2882
 3428SOL    HW221918   1.089   1.477  15.471 -0.6564 -0.4141 -0.0131
 3429SOL     OW21919   1.392   3.194   1.951  0.2068 -0.1168 -1.0622
 3429SOL    HW121920   1.407   3.275   2.000 -1.7126 -1.1033  1.1958
 3429SOL    HW221921   1.475   3.147   1.956 -1.8861 -3.7084 -0.0525
 3430SOL     OW21922   0.400   4.604  17.388  0.3106  0.2144 -0.2394
 3430SOL    HW121923   0.483   4.643  17.415  0.5633 -1.6586  1.7351
 3430SOL    HW221924   0.397   4.633  17.297  1.1004  0.0371 -0.3157
 3431SOL     OW21925   2.370   3.919   2.548 -0.3620  0.0372  0.0111
 3431SOL    HW121926   2.374   3.992   2.609  0.7021  0.3867 -0.4777
 3431SOL    HW221927   2.400   3.843   2.598  1.8212  0.6477 -0.3875
 3432SOL     OW21928   2.904   4.731  14.139  0.3302 -0.7659 -0.0116
 3432SOL    HW121929   2.947   4.658  14.094  0.3874 -0.9491  0.3388
 3432SOL    HW221930   2.942   0.073  14.092  3.3287 -1.7146  0.9429
 3433SOL     OW21931   2.659   4.616  13.870  0.3805 -0.0471 -0.0572
 3433SOL    HW121932   2.618   4.573  13.945  1.6324  0.7602  1.0831
 3433SOL    HW221933   2.649   4.702  13.909  0.9562 -0.0216  0.0376
 3434SOL     OW21934   3.457   3.238  11.078 -0.0598 -0.6912 -0.1947
 3434SOL    HW121935   3.371   3.235  11.036 -1.4134  1.3121  2.4749
 3434SOL    HW221936   3.500   3.164  11.035 -1.2695 -1.0545 -0.7846
 3435SOL     OW21937   1.465   0.689   6.417  0.0369 -0.0640  0.1973
 3435SOL    HW121938   1.400   0.644   6.362  0.3577  0.6009 -0.7225
 3435SOL    HW221939   1.414   0.751   6.470  0.4640  0.1311  0.3860
 3436SOL     OW21940   2.577   4.173   9.992 -0.3461  0.2059  0.6214
 3436SOL    HW121941   2.528   4.250  10.021 -1.7127 -0.7717  0.9159
 3436SOL    HW221942   2.645   4.164  10.059 -0.4425  1.6726  0.9188
 3437SOL     OW21943   1.441   4.140  16.391  0.1628  0.6059 -0.1476
 3437SOL    HW121944   1.476   4.144  16.302 -2.5799 -3.4604 -1.4000
 3437SOL    HW221945   1.528   4.128  16.431  0.4898 -0.9034 -1.2904
 3438SOL     OW21946   2.024   3.837   6.568 -0.0815 -0.5813  0.2311
 3438SOL    HW121947   1.993   3.921   6.602  0.5607 -0.5548  0.7362
 3438SOL    HW221948   2.027   3.784   6.647  0.2857  0.6467  1.0209
 3439SOL     OW21949   1.234   2.898   3.175  0.3469 -0.0202 -0.2140
 3439SOL    HW121950   1.157   2.895   3.118 -0.0751 -2.3866  0.5185
 3439SOL    HW221951   1.199   2.857   3.254  0.7352 -1.2179 -0.6623
 3440SOL     OW21952   4.714   0.347   6.668 -0.4858  0.7499 -0.1951
 3440SOL    HW121953   4.711   0.281   6.598  3.2233 -0.1045  0.5054
 3440SOL    HW221954   0.038   0.316   6.738 -2.1157 -0.9953  0.3396
 3441SOL     OW21955   0.163   4.394  17.288  0.7397 -0.0817  0.0590
 3441SOL    HW121956   0.116   4.330  17.236  0.9171  1.4423 -1.9530
 3441SOL    HW221957   0.233   4.419  17.228  0.6035 -1.7516 -0.7760
 3442SOL     OW21958   3.213   3.314   3.716 -0.0930 -0.2141 -0.7149
 3442SOL    HW121959   3.170   3.385   3.764 -1.0051 -1.4958  0.3582
 3442SOL    HW221960   3.168   3.234   3.744  0.2902  0.1943  1.1061
 3443SOL     OW21961   4.585   3.630   8.784 -0.1983  0.5601  0.3540
 3443SOL    HW121962   4.532   3.551   8.789  0.5940  0.0190  0.2505
 3443SOL    HW221963   4.543   3.683   8.851 -0.2039  0.2048  0.6297
 3444SOL     OW21964   2.455   2.733   4.800 -0.8935  0.1871  0.4625
 3444SOL    HW121965   2.449   2.805   4.736 -0.9149  0.4040  0.7090
 3444SOL    HW221966   2.468   2.783   4.880  1.3673  2.1933 -1.1410
 3445SOL     OW21967   3.965   4.280   6.552  0.6063 -0.4841 -0.0325
 3445SOL    HW121968   3.994   4.353   6.606 -2.6371  2.2612 -2.0115
 3445SOL    HW221969   3.877   4.270   6.587  0.1015  2.0523 -0.5583
 3446SOL     OW21970   1.060   1.982   6.524  0.3887 -0.3004  0.5079
 3446SOL    HW121971   0.984   2.017   6.569  0.9067 -0.2094  1.3100
 3446SOL    HW221972   1.104   1.962   6.607  1.5349  0.8351  0.1748
 3447SOL     OW21973   4.267   4.277   9.596  0.3867 -0.5700 -0.2234
 3447SOL    HW121974   4.182   4.254   9.636 -0.5038  2.5294 -0.3715
 3447SOL    HW221975   4.248   4.269   9.503  0.4343 -2.0443 -0.1148
 3448SOL     OW21976   2.215   3.859   3.019 -0.0030 -0.0347  0.1017
 3448SOL    HW121977   2.123   3.839   3.003 -0.1717  1.9179 -1.3709
 3448SOL    HW221978   2.217   3.945   3.061  2.5600  0.2228 -0.5354
 3449SOL     OW21979   2.682   1.962   5.682 -0.1199  0.5543 -0.3096
 3449SOL    HW121980   2.711   1.899   5.748 -3.8115  1.4032  2.1208
 3449SOL    HW221981   2.635   2.027   5.735 -2.6730 -0.9603 -0.7148
 3450SOL     OW21982   3.626   4.153  12.003  0.1961  0.1212 -0.4004
 3450SOL    HW121983   3.554   4.170  12.064  0.1659 -2.1874  0.2239
 3450SOL    HW221984   3.621   4.058  11.990  1.0429  0.1750 -1.0635
 3451SOL     OW21985   4.303   4.218   6.379  0.9798  0.3173 -0.6833
 3451SOL    HW121986   4.388   4.196   6.340  2.0689  1.4412  1.0210
 3451SOL    HW221987   4.338   4.291   6.430 -2.0853 -0.8256  3.0222
 3452SOL     OW21988   4.075   0.619   9.945  0.3367  0.5474  0.4258
 3452SOL    HW121989   4.058   0.712   9.938 -2.3453  0.0405  0.2470
 3452SOL    HW221990   4.124   0.604   9.863 -1.1691  0.4790 -0.4529
 3453SOL     OW21991   3.906   4.604   6.018 -0.1502 -0.4602 -0.2596
 3453SOL    HW121992   3.909   4.583   6.111  1.6735 -1.2816 -0.5184
 3453SOL    HW221993   3.978   4.668   6.016  0.5343 -1.2239  0.1686
 3454SOL     OW21994   3.793   3.780   9.119 -0.0511  0.2018  0.0490
 3454SOL    HW121995   3.874   3.759   9.073 -0.4667 -1.7859  0.2408
 3454SOL    HW221996   3.771   3.690   9.140 -2.9875  1.3978  2.1997
 3455SOL     OW21997   1.345   2.865   5.639 -0.1714  0.1048 -0.5510
 3455SOL    HW121998   1.287   2.908   5.576 -4.0210  0.3783  3.2035
 3455SOL    HW221999   1.313   2.880   5.728  0.7649  1.3620 -0.4284
 3456SOL     OW22000   1.778   0.613   6.111  0.5647 -0.1571 -0.2538
 3456SOL    HW122001   1.835   0.540   6.134 -0.3629 -0.6696  0.4138
 3456SOL    HW222002   1.698   0.576   6.149 -1.6840  2.2747 -2.6001
 3457SOL     OW22003   4.108   3.304   4.983  0.5077 -0.2788  0.3248
 3457SOL    HW122004   4.169   3.230   4.978 -1.4490 -1.7392 -1.6046
 3457SOL    HW222005   4.032   3.266   5.027 -0.4187 -0.0165 -1.0438
 3458SOL     OW22006   3.800   1.815   7.123 -0.1833 -0.3362 -0.4911
 3458SOL    HW122007   3.868   1.750   7.104  1.8266  1.9053 -1.0110
 3458SOL    HW222008   3.846   1.866   7.190  1.1028 -2.0058 -0.0762
 3459SOL     OW22009   2.228   1.540   5.212  0.3479 -0.7526  0.2322
 3459SOL    HW122010   2.208   1.453   5.178  1.2425 -0.6275 -0.6057
 3459SOL    HW222011   2.157   1.586   5.167  1.4340 -0.0979 -0.8112
 3460SOL     OW22012   4.412   4.708   1.553  0.3667  0.1652 -0.5052
 3460SOL    HW122013   4.423   4.615   1.573  0.1576  0.3720  0.5926
 3460SOL    HW222014   4.456   0.014   1.629  1.3475 -0.6804 -0.6510
 3461SOL     OW22015   0.270   1.742  16.086 -0.4071  0.5356 -0.4512
 3461SOL    HW122016   0.260   1.660  16.135  1.7975  0.4775 -0.0816
 3461SOL    HW222017   0.181   1.746  16.051 -0.4558 -1.5413 -0.5631
 3462SOL     OW22018   1.069   3.681   3.708 -0.0697 -0.1601 -0.1287
 3462SOL    HW122019   1.026   3.597   3.688  0.2856 -0.6401  1.1423
 3462SOL    HW222020   1.020   3.744   3.655 -1.2209 -0.8962  0.0532
 3463SOL     OW22021   2.423   2.867   5.523  0.2571  0.0008  0.2455
 3463SOL    HW122022   2.407   2.773   5.536  0.5856  0.2701  2.6801
 3463SOL    HW222023   2.512   2.887   5.552  0.5236 -0.1104 -0.5064
 3464SOL     OW22024   0.338   2.890  13.739  0.5979  0.1108  0.9319
 3464SOL    HW122025   0.350   2.903  13.833 -3.0038  0.1432  1.3855
 3464SOL    HW222026   0.325   2.796  13.744 -0.0174  0.0061 -2.9886
 3465SOL     OW22027   2.146   1.852   3.005  0.0242 -0.3835 -0.0316
 3465SOL    HW122028   2.125   1.915   2.936  0.1041 -0.8849 -0.5157
 3465SOL    HW222029   2.069   1.795   3.009 -0.3361  0.2607  2.1961
 3466SOL     OW22030   2.728   1.993   8.256 -0.0219 -0.3766  0.0258
 3466SOL    HW122031   2.674   1.953   8.325  2.0768  0.0218  1.9138
 3466SOL    HW222032   2.666   2.054   8.217  0.3063 -0.1426 -0.1266
 3467SOL     OW22033   1.212   1.825   7.517  0.5703 -0.1415 -0.0499
 3467SOL    HW122034   1.279   1.892   7.529 -1.7907  2.2701 -0.6265
 3467SOL    HW222035   1.257   1.747   7.550  0.8759 -0.2741 -0.7715
 3468SOL     OW22036   0.367   1.799   9.440  0.3611  0.3074 -0.4937
 3468SOL    HW122037   0.285   1.846   9.459  0.6242  1.2646 -1.7247
 3468SOL    HW222038   0.339   1.711   9.416  1.8242  0.3888 -2.4989
 3469SOL     OW22039   3.101   0.429  12.819 -0.6326 -0.4167 -0.2451
 3469SOL    HW122040   3.070   0.354  12.868 -1.0851 -0.0321  0.0584
 3469SOL    HW222041   3.020   0.474  12.795 -1.8734 -0.9640  2.8970
 3470SOL     OW22042   0.585   2.139   2.581 -0.3319  0.5834  0.7018
 3470SOL    HW122043   0.495   2.124   2.554  0.8610 -2.2349 -1.7441
 3470SOL    HW222044   0.609   2.047   2.565  0.9457  1.1516 -0.7241
 3471SOL     OW22045   1.667   4.165  10.317 -0.2359  0.5697 -0.6364
 3471SOL    HW122046   1.624   4.194  10.236 -2.7417 -1.3254  0.0144
 3471SOL    HW222047   1.617   4.217  10.381  2.9239  0.9517  1.5131
 3472SOL     OW22048   1.695   1.392   9.986 -0.2355  0.1900 -0.5748
 3472SOL    HW122049   1.624   1.395   9.922 -1.2767  1.7867  0.6441
 3472SOL    HW222050   1.647   1.424  10.063 -0.3170  0.5864 -0.7922
 3473SOL     OW22051   0.144   0.698   2.437 -0.9631  0.2790  0.1333
 3473SOL    HW122052   0.216   0.675   2.496  0.4491  0.9016 -1.3490
 3473SOL    HW222053   0.195   0.745   2.371  0.5006  0.2508  1.2455
 3474SOL     OW22054   1.606   4.062   4.633 -0.2460  0.0280 -0.0811
 3474SOL    HW122055   1.699   4.050   4.614  0.2269  1.1356  1.5305
 3474SOL    HW222056   1.565   4.028   4.554 -0.1005 -1.0942  0.3173
 3475SOL     OW22057   2.347   3.089   7.054 -0.4153  0.0045 -0.5243
 3475SOL    HW122058   2.269   3.106   7.106 -0.6069 -0.9378 -0.4989
 3475SOL    HW222059   2.361   2.994   7.062 -1.6982 -0.3214 -2.1486
 3476SOL     OW22060   2.971   1.002   8.431 -0.3428 -0.0281 -0.0861
 3476SOL    HW122061   3.028   0.988   8.508  1.7268  0.2331 -1.5708
 3476SOL    HW222062   3.016   1.068   8.378 -0.8234 -0.7332 -1.3745
 3477SOL     OW22063   3.316   2.500   6.603  0.0421  0.1091  0.3699
 3477SOL    HW122064   3.243   2.519   6.661  0.4275 -0.4302  1.0448
 3477SOL    HW222065   3.307   2.570   6.538 -2.1132 -0.4195  0.1308
 3478SOL     OW22066   4.411   2.027  10.197 -0.3748  0.1791 -0.4512
 3478SOL    HW122067   4.501   2.039  10.229 -0.3700  0.5630 -0.6125
 3478SOL    HW222068   4.415   2.054  10.106  0.0700  1.4086 -0.0787
 3479SOL     OW22069   0.764   2.540   6.549 -0.5423  0.3853  0.1014
 3479SOL    HW122070   0.815   2.474   6.595 -1.2692 -0.7978 -0.7979
 3479SOL    HW222071   0.702   2.554   6.620 -0.5072  0.9500  0.0257
 3480SOL     OW22072   2.011   4.719   8.393 -0.1904  0.0386  0.2692
 3480SOL    HW122073   2.039   0.078   8.405 -1.7708  0.6117 -0.4338
 3480SOL    HW222074   2.021   4.690   8.484 -0.7762  0.1401  0.3668
 3481SOL     OW22075   1.219   1.502  11.740 -0.3223  0.2157 -0.3206
 3481SOL    HW122076   1.208   1.409  11.763  1.3258  0.3616  1.0212
 3481SOL    HW222077   1.295   1.503  11.683 -0.1769  0.0955 -0.1302
 3482SOL     OW22078   3.268   3.586   7.120 -0.2790  0.1160  0.2145
 3482SOL    HW122079   3.330   3.544   7.180 -0.8128  2.2600  2.2943
 3482SOL    HW222080   3.205   3.523   7.085  0.0878 -0.2230  0.1681
 3483SOL     OW22081   3.727   4.652   8.511  0.3076  0.0638  0.4536
 3483SOL    HW122082   3.742   4.558   8.519  0.1746 -0.0097 -0.1013
 3483SOL    HW222083   3.815   4.688   8.501 -0.7875  2.4582 -0.7929
 3484SOL     OW22084   4.708   4.475   5.810  0.1545  0.0453  0.0300
 3484SOL    HW122085   0.049   4.512   5.761  1.2191  0.7345  2.1278
 3484SOL    HW222086   0.015   4.414   5.873 -2.0354 -0.8108  0.5662
 3485SOL     OW22087   1.789   4.563   4.536 -0.2390 -0.1248  0.0088
 3485SOL    HW122088   1.854   4.493   4.531 -1.5527 -1.2649 -1.2331
 3485SOL    HW222089   1.830   4.620   4.601 -1.0873  0.5414 -0.0461
 3486SOL     OW22090   4.177   2.610   7.831  0.1009 -0.0043  0.3857
 3486SOL    HW122091   4.201   2.700   7.810  0.1563 -0.6111 -2.1470
 3486SOL    HW222092   4.259   2.580   7.872  0.8337 -0.9983 -1.7939
 3487SOL     OW22093   4.479   1.599  14.746 -0.2674 -0.3612  0.3562
 3487SOL    HW122094   4.426   1.665  14.791  0.3869  0.6870 -0.4097
 3487SOL    HW222095   4.460   1.519  14.795 -1.1199 -1.1104 -1.2208
 3488SOL     OW22096   2.620   1.195   1.871 -0.0699 -0.1815 -0.1212
 3488SOL    HW122097   2.634   1.209   1.778  0.0368 -2.4966 -0.4726
 3488SOL    HW222098   2.660   1.272   1.911  0.2225 -0.8562  0.9146
 3489SOL     OW22099   2.589   2.804  17.383 -0.1528  0.0406 -0.3307
 3489SOL    HW122100   2.590   2.723  17.433  1.2310  0.3171  0.0597
 3489SOL    HW222101   2.679   2.823  17.407 -0.2972  0.5546 -0.1971
 3490SOL     OW22102   2.580   0.282   2.823  0.2500  0.0259 -0.3596
 3490SOL    HW122103   2.545   0.217   2.763 -1.3097 -1.2760  1.9366
 3490SOL    HW222104   2.585   0.362   2.770  0.4855  2.1172  2.7769
 3491SOL     OW22105   4.463   0.619  16.692 -0.6046 -0.2366  0.6149
 3491SOL    HW122106   4.465   0.702  16.738 -3.9353  0.5674 -0.6372
 3491SOL    HW222107   4.554   0.608  16.663 -0.6609  1.0701 -0.0596
 3492SOL     OW22108   1.516   0.791   6.095  0.5209 -0.7528 -0.4540
 3492SOL    HW122109   1.432   0.836   6.087  0.9267  0.2630  0.9677
 3492SOL    HW222110   1.515   0.751   6.182 -0.4588 -1.4995 -0.8098
 3493SOL     OW22111   1.825   1.905  10.327 -0.0297  0.1437  0.1444
 3493SOL    HW122112   1.749   1.961  10.312 -0.1091  0.0218  0.0937
 3493SOL    HW222113   1.840   1.866  10.241 -0.0160  1.6596 -0.5411
 3494SOL     OW22114   2.024   1.942   0.292  0.6722 -0.4290  0.3223
 3494SOL    HW122115   1.930   1.958   0.306  0.3031 -0.0464 -2.5357
 3494SOL    HW222116   2.043   1.912   0.381 -3.2554 -0.7342  1.0542
 3495SOL     OW22117   4.236   4.663   5.205  0.9710  0.1329 -0.2420
 3495SOL    HW122118   4.324   4.632   5.224  0.4713 -3.0032 -3.0112
 3495SOL    HW222119   4.178   4.594   5.238  0.4366  0.9924  0.6279
 3496SOL     OW22120   3.330   0.209  15.785  0.1140  0.2644  0.3107
 3496SOL    HW122121   3.294   0.295  15.766 -1.5653 -0.3433  0.7038
 3496SOL    HW222122   3.390   0.212  15.710 -1.0554  2.2959 -0.5429
 3497SOL     OW22123   1.654   2.331  16.658  0.3074 -0.4309  0.1310
 3497SOL    HW122124   1.702   2.375  16.587 -1.4285  0.0669 -0.7480
 3497SOL    HW222125   1.692   2.370  16.736 -1.8460  2.6003 -0.3232
 3498SOL     OW22126   2.472   4.038   3.217 -0.1660  0.2710 -0.5325
 3498SOL    HW122127   2.412   4.020   3.289  0.8653 -0.0583  0.2475
 3498SOL    HW222128   2.444   4.128   3.202  0.8860  0.4700 -1.3543
 3499SOL     OW22129   0.112   1.145  16.786  0.0377 -0.0391  0.1680
 3499SOL    HW122130   0.031   1.150  16.735  0.1383 -0.3465 -0.0215
 3499SOL    HW222131   0.167   1.090  16.731 -0.5424 -1.9668  1.4946
 3500SOL     OW22132   3.913   2.813   1.647 -0.3358 -0.1710 -0.6162
 3500SOL    HW122133   3.819   2.800   1.651 -0.3835  0.3273 -0.0178
 3500SOL    HW222134   3.939   2.721   1.652 -1.5999 -0.4678  0.3916
 3501SOL     OW22135   0.009   1.477   4.066  0.1343 -0.2234  0.1206
 3501SOL    HW122136   4.697   1.400   4.102  1.0499 -0.3752  0.9264
 3501SOL    HW222137   4.704   1.479   3.978  0.2025 -1.4751  0.0580
 3502SOL     OW22138   3.361   1.727   9.949  0.7405  0.2367 -0.0703
 3502SOL    HW122139   3.403   1.773   9.876  3.0801 -2.5617 -0.4907
 3502SOL    HW222140   3.349   1.798  10.012  0.1017  0.1324 -0.0833
 3503SOL     OW22141   4.355   4.714  10.149  0.1885 -0.6446 -0.1155
 3503SOL    HW122142   4.434   4.667  10.124 -0.3211 -0.7287 -1.5410
 3503SOL    HW222143   4.400   0.030  10.219  0.9792 -2.1528  0.3932
 3504SOL     OW22144   0.462   0.494   7.216  0.0560  0.1124  0.5312
 3504SOL    HW122145   0.389   0.508   7.276 -0.4701  1.0172 -0.3081
 3504SOL    HW222146   0.419   0.523   7.135  1.4003  2.2593  0.5791
 3505SOL     OW22147   2.514   1.577  12.554  0.1824 -0.4364 -0.1782
 3505SOL    HW122148   2.598   1.623  12.546 -0.2254  0.7512  2.3497
 3505SOL    HW222149   2.462   1.641  12.506 -1.3349 -1.3428  0.2768
 3506SOL     OW22150   4.170   2.361   5.192  0.4018  0.0503  0.1774
 3506SOL    HW122151   4.217   2.444   5.201  1.3968 -0.6922  1.7897
 3506SOL    HW222152   4.084   2.396   5.169  0.2526  0.6640  1.7216
 3507SOL     OW22153   0.279   2.093  13.562 -0.4797 -0.5517  0.0299
 3507SOL    HW122154   0.358   2.075  13.510 -0.7761  0.9386 -0.9184
 3507SOL    HW222155   0.317   2.072  13.647  0.0921 -0.5142 -0.2137
 3508SOL     OW22156   4.630   1.153   2.718  0.4179  0.1777 -0.2280
 3508SOL    HW122157   4.706   1.131   2.664 -1.0526 -1.2196 -1.7611
 3508SOL    HW222158   4.555   1.121   2.668 -0.2878 -0.3426  1.1738
 3509SOL     OW22159   1.224   4.537   2.451 -0.6616  0.0974  0.6063
 3509SOL    HW122160   1.262   4.469   2.507  1.1635 -1.5086 -2.5723
 3509SOL    HW222161   1.157   4.491   2.402  1.7662 -1.6863 -1.0570
 3510SOL     OW22162   1.732   1.363   3.718 -0.3793 -0.1837  0.3380
 3510SOL    HW122163   1.751   1.354   3.811 -1.3769 -0.6559  0.4970
 3510SOL    HW222164   1.669   1.435   3.717 -0.3493 -0.1512  0.9119
 3511SOL     OW22165   3.326   4.377   4.867  0.0271  0.6311 -0.1411
 3511SOL    HW122166   3.401   4.352   4.813  1.5894  1.5756  1.6002
 3511SOL    HW222167   3.359   4.457   4.908  0.4480 -0.2710  1.2814
 3512SOL     OW22168   1.931   2.341   0.749 -0.4019  0.3248  0.2154
 3512SOL    HW122169   1.920   2.245   0.752  1.1094  0.1512  0.3474
 3512SOL    HW222170   1.886   2.359   0.667 -3.6494 -1.8334  1.5225
 3513SOL     OW22171   4.138   1.544   7.508 -0.4843 -0.5556  0.0593
 3513SOL    HW122172   4.208   1.590   7.460  0.3958  0.0307  1.8873
 3513SOL    HW222173   4.089   1.498   7.440 -0.1243  1.1455 -1.3706
 3514SOL     OW22174   4.253   1.289   2.292  0.3599  0.4189 -0.2172
 3514SOL    HW122175   4.271   1.207   2.245  4.5969  1.7765 -0.9643
 3514SOL    HW222176   4.319   1.342   2.247 -2.4924  3.3245 -1.0041
 3515SOL     OW22177   0.317   1.662   5.673  0.1221  0.6726 -0.3101
 3515SOL    HW122178   0.270   1.628   5.597  1.5688  2.2870 -1.9256
 3515SOL    HW222179   0.251   1.643   5.739 -0.0835  1.8526 -0.1840
 3516SOL     OW22180   1.698   3.584   3.738 -0.5819  0.3022  0.0161
 3516SOL    HW122181   1.683   3.678   3.746  2.1343  0.6094  1.6980
 3516SOL    HW222182   1.792   3.586   3.720 -0.4808  0.8293  0.5923
 3517SOL     OW22183   3.778   2.341  11.480  0.0061 -0.5395 -0.1909
 3517SOL    HW122184   3.688   2.333  11.447 -0.0639  0.0160 -0.1413
 3517SOL    HW222185   3.828   2.321  11.401  1.1547 -0.5902  0.5470
 3518SOL     OW22186   0.777   2.663   4.724 -0.4075 -0.0060  0.0237
 3518SOL    HW122187   0.762   2.601   4.652  0.9876  1.5753 -1.6436
 3518SOL    HW222188   0.720   2.631   4.794 -1.8270  0.6331 -0.8177
 3519SOL     OW22189   4.669   3.484   1.405 -0.3626 -0.1234 -0.1296
 3519SOL    HW122190   0.031   3.501   1.399 -0.5533  0.9808  0.0991
 3519SOL    HW222191   4.640   3.451   1.319  0.0719 -3.4905  1.0111
 3520SOL     OW22192   3.478   4.352   2.231 -0.3787  0.0469 -0.3435
 3520SOL    HW122193   3.439   4.435   2.261  2.5037  1.2461  0.1056
 3520SOL    HW222194   3.403   4.332   2.175 -0.1959 -1.8603  0.0981
 3521SOL     OW22195   1.744   2.669   3.699  0.5303  0.1384 -0.1696
 3521SOL    HW122196   1.660   2.658   3.744  0.6510 -1.4457 -0.3341
 3521SOL    HW222197   1.746   2.760   3.672 -1.9951  0.2203 -0.0773
 3522SOL     OW22198   0.928   3.829   1.455 -0.9370 -0.4489  0.1887
 3522SOL    HW122199   0.852   3.871   1.414 -0.9814 -0.0836  0.6423
 3522SOL    HW222200   0.937   3.893   1.526 -0.6708  0.3990 -0.6086
 3523SOL     OW22201   3.215   2.382   5.159 -0.1064  0.1182  0.1832
 3523SOL    HW122202   3.147   2.343   5.214  0.7398 -1.0672  0.4002
 3523SOL    HW222203   3.216   2.309   5.097  1.8490  0.3593 -0.0652
 3524SOL     OW22204   2.684   2.308   7.976  0.0616 -0.2636 -0.1537
 3524SOL    HW122205   2.735   2.357   8.040 -2.5009  2.3052 -0.0534
 3524SOL    HW222206   2.644   2.236   8.025  0.3394 -1.4836 -1.7198
 3525SOL     OW22207   1.830   3.250   3.482  0.1904 -0.0769 -0.3858
 3525SOL    HW122208   1.792   3.285   3.401 -0.4457  1.3139  0.5098
 3525SOL    HW222209   1.921   3.243   3.455 -0.0433  0.3312 -1.2640
 3526SOL     OW22210   3.641   4.505   6.260 -0.1196 -0.0793 -0.5788
 3526SOL    HW122211   3.625   4.571   6.328  0.2798  0.3271 -0.8845
 3526SOL    HW222212   3.577   4.441   6.291  0.3428  0.2368  1.0794
 3527SOL     OW22213   0.143   2.882   6.312 -0.2482  0.5068  0.2690
 3527SOL    HW122214   0.203   2.867   6.239  0.4005  0.9882  0.7045
 3527SOL    HW222215   0.158   2.976   6.307 -0.0586  0.4398 -0.5686
 3528SOL     OW22216   0.336   0.319   7.868 -0.1761 -0.2773 -0.2822
 3528SOL    HW122217   0.264   0.368   7.828 -0.6693 -0.6848  0.0941
 3528SOL    HW222218   0.315   0.231   7.838  0.2931 -0.3778 -0.3005
 3529SOL     OW22219   4.170   1.063  15.360  1.0724  0.6350  0.4969
 3529SOL    HW122220   4.108   1.059  15.433 -2.7136  3.1720 -2.5645
 3529SOL    HW222221   4.154   0.990  15.301 -0.0288  1.0654  0.2556
 3530SOL     OW22222   3.490   3.025   6.772 -0.8993 -0.3338  0.4174
 3530SOL    HW122223   3.580   3.015   6.803 -0.7607  1.5500  0.6301
 3530SOL    HW222224   3.478   2.960   6.702 -0.2855 -0.4114  0.3883
 3531SOL     OW22225   3.682   2.108   3.794 -0.8691  0.6465  1.0464
 3531SOL    HW122226   3.749   2.174   3.812  1.8779 -2.2423  1.3690
 3531SOL    HW222227   3.620   2.113   3.866 -1.9478  1.4234  0.0763
 3532SOL     OW22228   1.617   3.306   3.293  0.1620 -0.2065  0.6997
 3532SOL    HW122229   1.579   3.380   3.339 -2.1253 -0.5722 -0.6009
 3532SOL    HW222230   1.668   3.355   3.228  1.6137  0.2087  2.1769
 3533SOL     OW22231   0.576   3.149   6.316 -0.2893  0.2483 -0.6516
 3533SOL    HW122232   0.666   3.117   6.309  0.1019  1.8054 -2.7318
 3533SOL    HW222233   0.553   3.138   6.408 -1.4787 -0.9064 -1.0958
 3534SOL     OW22234   0.990   2.334   0.259 -0.0335 -0.4594 -0.3181
 3534SOL    HW122235   1.050   2.380   0.317  0.6924 -0.4152 -1.1050
 3534SOL    HW222236   1.060   2.289   0.211  0.6248  0.0129  0.1953
 3535SOL     OW22237   3.244   4.593  16.885 -0.1002 -0.0858 -0.3956
 3535SOL    HW122238   3.183   4.537  16.933 -1.4629  1.3946 -0.3991
 3535SOL    HW222239   3.293   4.528  16.836  1.3391 -0.6909  1.8418
 3536SOL     OW22240   3.015   3.007   6.733  0.2009  0.0510  0.3855
 3536SOL    HW122241   3.073   3.083   6.725  0.3747  0.0142  1.3777
 3536SOL    HW222242   3.055   2.957   6.662  0.8240  1.0219  0.0405
 3537SOL     OW22243   4.078   3.374   3.405  0.2174 -0.2628  0.3683
 3537SOL    HW122244   4.068   3.460   3.444  2.2840 -0.2939  0.9535
 3537SOL    HW222245   3.988   3.365   3.374 -0.1272  0.9138  1.0476
 3538SOL     OW22246   3.613   1.757  10.804  0.7131 -0.1621 -0.0246
 3538SOL    HW122247   3.559   1.721  10.733  0.4013 -1.8831  1.0935
 3538SOL    HW222248   3.655   1.828  10.756 -0.5100 -0.1802 -1.1539
 3539SOL     OW22249   1.590   4.532  15.807  0.4339  0.8140  0.5626
 3539SOL    HW122250   1.501   4.499  15.799  0.5469 -0.3512  3.8229
 3539SOL    HW222251   1.602   4.567  15.719 -0.5673  0.3063  0.2245
 3540SOL     OW22252   2.936   4.499   2.089  0.0403 -0.2014  0.9489
 3540SOL    HW122253   2.979   4.473   2.007 -0.5944 -1.9210  1.1500
 3540SOL    HW222254   2.877   4.564   2.051  1.9216 -0.2137 -1.9702
 3541SOL     OW22255   1.618   0.904  12.332  0.0986  0.0052  0.4749
 3541SOL    HW122256   1.674   0.898  12.409 -0.8848  0.9469  1.2663
 3541SOL    HW222257   1.664   0.847  12.270 -1.6310 -2.0441  1.0823
 3542SOL     OW22258   0.771   3.042   2.966  0.1952  0.4365  0.3329
 3542SOL    HW122259   0.728   3.107   2.910 -0.5859 -0.2014  0.1870
 3542SOL    HW222260   0.757   2.959   2.920  0.2562  0.8766 -0.4794
 3543SOL     OW22261   2.089   3.728   9.749  0.4222  0.0393 -0.2355
 3543SOL    HW122262   2.051   3.796   9.804  2.3239  1.6814 -0.9336
 3543SOL    HW222263   2.117   3.662   9.812 -1.3188 -0.3553  0.1109
 3544SOL     OW22264   2.414   4.108  13.087 -0.3905 -0.4590  0.1818
 3544SOL    HW122265   2.432   4.014  13.092  0.6396 -0.1623  1.7568
 3544SOL    HW222266   2.497   4.140  13.050 -1.3153  0.6160 -0.9703
 3545SOL     OW22267   0.348   4.668  11.889 -0.4354 -0.1507 -0.0454
 3545SOL    HW122268   0.371   4.577  11.868  0.1639  0.4756 -2.1201
 3545SOL    HW222269   0.321   4.696  11.801 -0.5704 -2.3421 -0.6981
 3546SOL     OW22270   2.915   2.859  11.056 -0.1799  0.6168 -0.5298
 3546SOL    HW122271   2.937   2.942  11.014  0.3015 -0.5028 -2.4686
 3546SOL    HW222272   2.956   2.786  11.009  0.7063  0.0735  1.0869
 3547SOL     OW22273   1.538   0.603  15.947 -0.1938 -0.1459  0.2960
 3547SOL    HW122274   1.492   0.531  15.989 -4.4189  1.9331 -0.8325
 3547SOL    HW222275   1.533   0.588  15.852 -1.6695 -1.0426  0.5150
 3548SOL     OW22276   1.723   0.707  11.355  0.1656 -0.2407 -0.3884
 3548SOL    HW122277   1.723   0.640  11.287 -2.1759  1.1311 -1.7369
 3548SOL    HW222278   1.780   0.777  11.323 -1.5196  1.4060  0.2487
 3549SOL     OW22279   1.085   1.590   5.951  0.3728 -0.2982  0.1982
 3549SOL    HW122280   1.052   1.571   5.863 -0.4498 -0.0338  0.4508
 3549SOL    HW222281   1.031   1.538   6.010  0.7436 -0.5406  0.3229
 3550SOL     OW22282   3.398   3.616   3.774  0.3763  0.2624 -0.4612
 3550SOL    HW122283   3.397   3.687   3.839  0.6048  0.4228 -0.6318
 3550SOL    HW222284   3.371   3.660   3.693  1.5788  0.0107 -0.9988
 3551SOL     OW22285   2.239   1.426   0.347 -0.1425  0.5696  0.1959
 3551SOL    HW122286   2.168   1.445   0.285 -0.1388 -3.7675 -1.1618
 3551SOL    HW222287   2.265   1.337   0.324  0.2510  1.1059 -1.4640
 3552SOL     OW22288   3.880   4.261   4.608  0.0037  0.1592 -0.8612
 3552SOL    HW122289   3.972   4.267   4.582  0.6612  1.8548  1.8312
 3552SOL    HW222290   3.882   4.233   4.700 -0.5792  0.7559 -0.6693
 3553SOL     OW22291   1.440   3.117   7.270  0.1600 -0.0082 -0.1089
 3553SOL    HW122292   1.426   3.106   7.364  3.2090 -1.4358  0.1738
 3553SOL    HW222293   1.352   3.108   7.233 -0.6537 -1.2729  2.1569
 3554SOL     OW22294   1.927   3.800   2.974  0.7720 -0.0409  0.4141
 3554SOL    HW122295   1.835   3.796   3.002 -0.0247  0.5395 -2.1782
 3554SOL    HW222296   1.923   3.719   2.924  3.0575 -0.6000  1.1336
 3555SOL     OW22297   2.007   2.259   7.523  0.2365 -0.4596 -0.0360
 3555SOL    HW122298   1.920   2.291   7.542 -0.0083 -1.4385  0.4947
 3555SOL    HW222299   1.984   2.166   7.514 -3.0014  0.4431 -0.9059
 3556SOL     OW22300   2.827   2.647  17.177  0.4681  0.3758  0.3320
 3556SOL    HW122301   2.862   2.638  17.088 -2.3278 -0.2306 -0.6970
 3556SOL    HW222302   2.879   2.577  17.216 -0.4058 -0.0430  0.7491
 3557SOL     OW22303   4.482   2.562   7.318  0.0881 -0.3293 -0.4558
 3557SOL    HW122304   4.505   2.527   7.232 -2.2022 -1.8043 -0.4670
 3557SOL    HW222305   4.529   2.645   7.316 -0.5327 -0.0187 -1.7814
 3558SOL     OW22306   0.486   0.118   9.351 -0.1742 -0.2167 -0.0915
 3558SOL    HW122307   0.536   0.194   9.321 -1.7175  1.7755  2.4088
 3558SOL    HW222308   0.407   0.152   9.394  1.8332  1.3585  2.3063
 3559SOL     OW22309   4.573   0.952  14.065 -0.7192 -0.2173  0.1333
 3559SOL    HW122310   4.645   1.013  14.081 -0.4843 -1.3977  3.5966
 3559SOL    HW222311   4.623   0.872  14.083  1.5369  1.1671 -0.0004
 3560SOL     OW22312   1.535   0.212   7.909  0.1436  0.0264  0.5081
 3560SOL    HW122313   1.508   0.150   7.977 -0.0602 -3.3270 -2.6120
 3560SOL    HW222314   1.462   0.274   7.903 -1.3754 -1.7284  0.8877
 3561SOL     OW22315   3.562   1.216   9.677  0.1009 -0.2433  0.0754
 3561SOL    HW122316   3.642   1.265   9.695  0.1859 -0.6939  0.9118
 3561SOL    HW222317   3.593   1.147   9.619  1.7572  0.0993  0.5756
 3562SOL     OW22318   2.733   4.629   5.779 -0.0978 -0.3159 -0.2141
 3562SOL    HW122319   2.825   4.646   5.760  0.7343 -4.2335  0.4771
 3562SOL    HW222320   2.714   4.696   5.845  0.0313  0.1320 -0.6244
 3563SOL     OW22321   1.598   0.023   7.690  0.1865  0.1336 -0.4506
 3563SOL    HW122322   1.680   4.709   7.710  1.3835  1.4277 -2.3164
 3563SOL    HW222323   1.581   0.077   7.768  0.9161 -0.9038  0.4226
 3564SOL     OW22324   4.164   2.616   5.744  0.3094 -0.4304 -0.6529
 3564SOL    HW122325   4.137   2.533   5.705 -1.4236  0.1345 -0.6697
 3564SOL    HW222326   4.256   2.615   5.720  0.2514  1.8916 -0.9481
 3565SOL     OW22327   3.866   2.378   5.467 -0.1999  0.1203  0.1816
 3565SOL    HW122328   3.793   2.437   5.487 -0.8750  0.0887 -2.2269
 3565SOL    HW222329   3.862   2.299   5.521 -1.8796 -0.2421 -0.4624
 3566SOL     OW22330   3.875   1.023   1.685  0.0038 -0.9799 -0.3139
 3566SOL    HW122331   3.790   1.017   1.727 -0.6989  1.9523 -1.3604
 3566SOL    HW222332   3.875   1.119   1.682 -1.4547 -0.9096  2.1633
 3567SOL     OW22333   1.079   3.386   7.789 -0.6155  0.3706 -0.1401
 3567SOL    HW122334   1.169   3.362   7.814 -1.3455 -1.9288  0.2589
 3567SOL    HW222335   1.042   3.381   7.876  0.5397 -0.1941  0.3293
 3568SOL     OW22336   2.268   1.127   6.297 -0.1461 -0.0576  0.3222
 3568SOL    HW122337   2.317   1.062   6.246  1.7910  3.3489 -2.2339
 3568SOL    HW222338   2.206   1.174   6.241  0.9545  1.3359  0.2501
 3569SOL     OW22339   3.053   3.928  15.162 -0.1733  0.2603  0.9400
 3569SOL    HW122340   3.010   3.907  15.244  0.2042  1.2589  1.3956
 3569SOL    HW222341   3.035   4.022  15.152  0.8166  0.7595  4.0290
 3570SOL     OW22342   0.137   1.760  10.945  0.0217 -0.2543  0.0034
 3570SOL    HW122343   0.115   1.842  10.900 -1.9918  0.3057  1.9836
 3570SOL    HW222344   0.192   1.711  10.885  0.2086 -1.0251  0.8166
 3571SOL     OW22345   2.248   3.641   3.212 -0.1220  0.0273  0.0949
 3571SOL    HW122346   2.217   3.712   3.156 -1.0769 -1.4002 -1.1575
 3571SOL    HW222347   2.270   3.687   3.293 -0.6470  2.2021 -0.9877
 3572SOL     OW22348   0.674   3.873   1.962  0.5995 -0.0938  0.4790
 3572SOL    HW122349   0.694   3.911   2.047  0.0063  0.7615  0.2439
 3572SOL    HW222350   0.735   3.918   1.902 -0.2578  0.9577  0.4094
 3573SOL     OW22351   1.174   0.923  10.844 -0.0039  0.7892 -0.0158
 3573SOL    HW122352   1.260   0.922  10.801  0.2125  1.5718  0.3844
 3573SOL    HW222353   1.181   0.859  10.915  0.4671 -0.0026 -0.7849
 3574SOL     OW22354   2.544   0.088  12.425  0.3974  0.5156  0.3462
 3574SOL    HW122355   2.519   0.158  12.485  1.7418  1.7882 -0.5885
 3574SOL    HW222356   2.494   0.127  12.353 -0.9217  1.1352  1.6052
 3575SOL     OW22357   4.632   4.062  16.997  0.2752 -0.0435  0.0331
 3575SOL    HW122358   4.674   3.997  16.941  2.0087  1.4465 -0.4097
 3575SOL    HW222359   4.555   4.019  17.033  0.7386 -2.8263 -2.3219
 3576SOL     OW22360   3.423   2.134  14.784 -0.7256  0.5091 -0.0913
 3576SOL    HW122361   3.412   2.040  14.775 -0.7406  0.4474  0.5486
 3576SOL    HW222362   3.451   2.154  14.695 -2.6174  0.4900 -0.6958
 3577SOL     OW22363   2.771   3.133   7.073  0.0094  0.6237 -0.0805
 3577SOL    HW122364   2.765   3.161   7.165  0.6118 -1.2892  0.5619
 3577SOL    HW222365   2.684   3.159   7.045 -0.0665 -0.3135 -0.7032
 3578SOL     OW22366   0.632   0.113   2.672 -0.5678  0.0525  0.0293
 3578SOL    HW122367   0.654   0.061   2.748 -1.5601 -0.7005 -0.1871
 3578SOL    HW222368   0.662   0.056   2.601  1.0341  0.8976  0.0399
 3579SOL     OW22369   0.661   1.615  16.051  0.0082  0.1682 -0.0594
 3579SOL    HW122370   0.611   1.644  15.975 -0.2135  0.8169  0.3347
 3579SOL    HW222371   0.745   1.647  16.019  0.0210  0.9368  0.7482
 3580SOL     OW22372   4.541   3.498   8.142  0.3646 -0.2830  0.0303
 3580SOL    HW122373   4.571   3.477   8.230  0.7871  1.1426  0.2344
 3580SOL    HW222374   4.605   3.567   8.122 -1.1998  0.9548 -0.7279
 3581SOL     OW22375   4.056   2.446   9.002  0.0456  0.2223 -0.2603
 3581SOL    HW122376   4.013   2.532   9.000 -0.9113 -0.3252 -2.6460
 3581SOL    HW222377   3.991   2.391   9.045 -1.4455  2.6055  0.5613
 3582SOL     OW22378   1.263   1.525   5.162 -0.0915  0.1536 -0.2798
 3582SOL    HW122379   1.202   1.539   5.089 -0.3025 -0.3047 -0.1895
 3582SOL    HW222380   1.213   1.526   5.243 -0.0100  2.2432 -0.2576
 3583SOL     OW22381   3.862   4.477  12.486 -0.0078  0.1588  0.0965
 3583SOL    HW122382   3.947   4.437  12.507 -1.0325 -2.2257 -0.3138
 3583SOL    HW222383   3.850   4.540  12.557  0.9264 -1.0389  1.3082
 3584SOL     OW22384   0.607   0.203  10.956 -0.4053 -0.0964 -0.2910
 3584SOL    HW122385   0.607   0.140  11.028  0.1288  1.8904  1.4392
 3584SOL    HW222386   0.695   0.240  10.953  0.1706 -1.4351  0.0457
 3585SOL     OW22387   2.810   1.689   9.734 -0.6402 -0.2829 -0.1728
 3585SOL    HW122388   2.725   1.650   9.714 -2.2646  2.0831  2.0025
 3585SOL    HW222389   2.865   1.612   9.745  1.0137  0.7992 -0.7789
 3586SOL     OW22390   3.630   1.964   6.371  0.4484 -0.2295  0.1976
 3586SOL    HW122391   3.628   2.034   6.436  1.7664 -1.0333  1.1155
 3586SOL    HW222392   3.692   2.001   6.309  0.8690  1.0594  1.3871
 3587SOL     OW22393   1.746   4.548   8.338  0.0362 -0.7415 -0.2740
 3587SOL    HW122394   1.837   4.578   8.328 -0.6792  1.3174 -0.5669
 3587SOL    HW222395   1.751   4.490   8.414 -2.8231  0.1779  0.6230
 3588SOL     OW22396   3.412   4.028  10.061  0.0200 -0.4649 -0.5908
 3588SOL    HW122397   3.494   4.015  10.109  0.4245  3.4069 -0.2734
 3588SOL    HW222398   3.366   4.079  10.128 -0.1023 -1.0563 -0.2243
 3589SOL     OW22399   1.256   0.817   7.331 -0.3726 -0.2609 -0.3395
 3589SOL    HW122400   1.257   0.760   7.254 -0.8444 -1.2276  0.3804
 3589SOL    HW222401   1.324   0.774   7.383 -1.8121  0.9852  2.5494
 3590SOL     OW22402   1.771   3.196   5.887  0.2012 -0.0809  0.0021
 3590SOL    HW122403   1.862   3.224   5.872 -0.1380  1.2709  0.4266
 3590SOL    HW222404   1.746   3.175   5.797  0.1291  2.5275 -0.6054
 3591SOL     OW22405   3.843   2.703   2.380 -0.2269  0.2031  0.3665
 3591SOL    HW122406   3.881   2.790   2.395 -0.9651 -0.1937  4.5664
 3591SOL    HW222407   3.789   2.713   2.302 -1.2453  0.8481  1.1533
 3592SOL     OW22408   0.488   0.990  15.794  0.2728  0.4526  0.6058
 3592SOL    HW122409   0.478   0.984  15.699  0.4328  0.0941  0.6133
 3592SOL    HW222410   0.491   0.901  15.828  0.6394 -0.6125 -2.2827
 3593SOL     OW22411   4.465   1.731   7.191 -0.3194  0.3060 -0.4446
 3593SOL    HW122412   4.387   1.752   7.242  0.7002  0.2572  1.1340
 3593SOL    HW222413   4.472   1.797   7.122  1.6278  1.2534  0.6778
 3594SOL     OW22414   0.874   0.124   5.018 -0.0317  0.2148 -0.1374
 3594SOL    HW122415   0.931   0.050   5.036 -1.3690 -0.7270  0.2017
 3594SOL    HW222416   0.811   0.089   4.955 -0.9981  1.3923  0.1673
 3595SOL     OW22417   4.047   2.219   8.032  0.6094  0.0144 -0.4374
 3595SOL    HW122418   4.054   2.211   7.936 -0.2683 -2.3385 -0.3199
 3595SOL    HW222419   4.124   2.267   8.062  1.5321 -2.4185  1.0933
 3596SOL     OW22420   0.151   2.606   8.676  0.4151  0.2962 -0.0675
 3596SOL    HW122421   0.210   2.588   8.750 -1.1709  1.0197  1.3638
 3596SOL    HW222422   0.148   2.700   8.661  3.6440  0.7508  2.1719
 3597SOL     OW22423   0.213   3.503  14.859 -0.0627 -0.1799  0.8275
 3597SOL    HW122424   0.284   3.529  14.800 -0.7472  0.1437  0.1434
 3597SOL    HW222425   0.220   3.407  14.859  0.6077 -0.1302  1.3291
 3598SOL     OW22426   0.911   3.053   1.104 -0.2185 -0.4654 -0.4745
 3598SOL    HW122427   1.005   3.039   1.092  0.2947  0.6168  2.4133
 3598SOL    HW222428   0.864   3.016   1.029 -1.6354  0.0423  0.1750
 3599SOL     OW22429   2.738   0.555  17.137 -0.0119  0.3907 -0.1245
 3599SOL    HW122430   2.679   0.587  17.206  1.3138 -0.6052  1.4753
 3599SOL    HW222431   2.825   0.592  17.151 -0.6294  1.3513  1.1494
 3600SOL     OW22432   3.171   2.924   1.924  0.2518 -0.5666  0.0941
 3600SOL    HW122433   3.160   2.914   1.830  1.8866 -1.5947  0.0047
 3600SOL    HW222434   3.145   2.836   1.949  1.4512 -1.0730 -0.4112
 3601SOL     OW22435   1.067   1.548   8.582 -0.7431 -0.2432 -0.2969
 3601SOL    HW122436   0.975   1.528   8.564 -0.5433 -1.9972  0.6643
 3601SOL    HW222437   1.084   1.485   8.652 -1.5846 -0.5451 -0.3652
 3602SOL     OW22438   1.161   1.977   4.399  0.6755 -0.1414 -0.3044
 3602SOL    HW122439   1.146   2.022   4.315 -1.5263 -2.6964 -1.2887
 3602SOL    HW222440   1.072   1.984   4.435  0.6857 -1.4378 -0.0520
 3603SOL     OW22441   2.979   4.131   6.107 -0.1717 -0.2375  0.9239
 3603SOL    HW122442   2.961   4.055   6.162 -1.9809  1.6959  2.9694
 3603SOL    HW222443   3.030   4.192   6.160 -0.3217 -0.4775  1.3422
 3604SOL     OW22444   3.436   3.507   1.015 -0.7018  0.1933 -0.1658
 3604SOL    HW122445   3.353   3.510   0.967 -0.3559 -0.3119 -0.8026
 3604SOL    HW222446   3.450   3.599   1.036  0.1928  0.1488 -0.5527
 3605SOL     OW22447   4.562   2.254   8.883  0.8713  0.1197 -0.1243
 3605SOL    HW122448   4.564   2.172   8.834  1.6367 -1.3738  2.3914
 3605SOL    HW222449   4.467   2.262   8.890  0.7609  0.9623 -2.6988
 3606SOL     OW22450   4.557   0.976   3.870  0.1246  0.5134 -0.3272
 3606SOL    HW122451   4.570   1.031   3.792 -1.3289 -0.4751 -1.2683
 3606SOL    HW222452   4.644   0.939   3.884 -0.1377 -0.4417 -1.2428
 3607SOL     OW22453   4.495   1.741   1.171 -0.3654  0.1476  0.1688
 3607SOL    HW122454   4.459   1.676   1.110 -1.8395 -0.2639  1.4781
 3607SOL    HW222455   4.549   1.796   1.114 -0.1108 -0.3950 -0.1179
 3608SOL     OW22456   0.158   4.723  15.251  0.4752 -0.0498  0.0158
 3608SOL    HW122457   0.144   4.654  15.316  0.4999  1.4425  1.6100
 3608SOL    HW222458   0.241   0.035  15.270  1.5463 -1.1585 -2.1267
 3609SOL     OW22459   2.255   3.335   3.223 -0.5351 -0.1898 -0.0755
 3609SOL    HW122460   2.241   3.429   3.209 -0.3563 -0.2935 -0.9512
 3609SOL    HW222461   2.324   3.339   3.289 -0.5881  1.1511 -0.0895
 3610SOL     OW22462   0.988   4.245   6.568  0.0372  0.1052 -0.3234
 3610SOL    HW122463   0.935   4.315   6.531 -1.4425 -0.8259  0.0236
 3610SOL    HW222464   0.947   4.230   6.653 -0.7622  2.0481 -0.3798
 3611SOL     OW22465   3.023   1.688   5.137  0.4645 -0.2447 -0.4464
 3611SOL    HW122466   3.028   1.681   5.041 -0.1007 -0.7398 -0.4384
 3611SOL    HW222467   2.946   1.637   5.162 -0.0566  1.6349  1.7972
 3612SOL     OW22468   2.453   4.225  16.749  0.5656 -0.0917  0.3626
 3612SOL    HW122469   2.516   4.184  16.689 -0.8904 -1.6023 -0.1247
 3612SOL    HW222470   2.372   4.242  16.701  0.8203  0.7192  0.2247
 3613SOL     OW22471   2.525   0.361   9.984  0.0006  0.4023  0.4742
 3613SOL    HW122472   2.564   0.369  10.071 -1.2712  2.8718  0.7978
 3613SOL    HW222473   2.578   0.410   9.922  0.4918  0.4154  0.9028
 3614SOL     OW22474   2.367   1.372  11.704 -0.1183 -0.0686 -0.3796
 3614SOL    HW122475   2.341   1.463  11.714 -0.6985 -0.1452 -1.2415
 3614SOL    HW222476   2.460   1.380  11.683  0.5806  0.8925  2.9842
 3615SOL     OW22477   3.417   2.315  10.779 -0.5052 -0.2631  0.4374
 3615SOL    HW122478   3.499   2.364  10.779 -1.2416  0.9668  3.3470
 3615SOL    HW222479   3.433   2.268  10.697  0.8760 -0.9558  1.1170
 3616SOL     OW22480   2.393   2.800   9.590  0.9280  0.4596 -0.0153
 3616SOL    HW122481   2.457   2.799   9.661 -0.0064 -1.7096  0.8043
 3616SOL    HW222482   2.308   2.799   9.634  0.8000  1.1443 -0.2505
 3617SOL     OW22483   4.202   0.289   5.935 -0.0854  0.4262  0.4135
 3617SOL    HW122484   4.279   0.300   5.879  0.0934  2.1564  1.0052
 3617SOL    HW222485   4.129   0.341   5.901 -0.2455  1.1375  1.8442
 3618SOL     OW22486   2.252   4.057   9.140  0.9243 -0.1750 -0.0748
 3618SOL    HW122487   2.271   4.139   9.186  0.3320 -1.2128  1.9953
 3618SOL    HW222488   2.157   4.046   9.147  1.1110 -0.6900  1.6574
 3619SOL     OW22489   4.066   3.418  10.895 -0.0571  0.0768 -0.1487
 3619SOL    HW122490   4.092   3.505  10.865  0.1455  0.5408  1.3397
 3619SOL    HW222491   4.103   3.370  10.821  0.8773 -1.4109  1.2856
 3620SOL     OW22492   4.015   4.003   1.757 -0.3810  0.2610  0.7470
 3620SOL    HW122493   4.086   3.968   1.811 -2.9008 -0.9369  3.2788
 3620SOL    HW222494   3.967   3.929   1.721  1.7848 -0.0785 -1.4485
 3621SOL     OW22495   0.208   2.671   3.870 -0.0911  0.1611 -0.3871
 3621SOL    HW122496   0.125   2.703   3.905  0.3490 -0.8866  1.6003
 3621SOL    HW222497   0.219   2.736   3.800  0.1992  1.4832  0.8994
 3622SOL     OW22498   1.653   3.553  13.570 -0.0717 -0.3686 -0.0005
 3622SOL    HW122499   1.590   3.617  13.539 -0.1003 -0.6524 -0.5337
 3622SOL    HW222500   1.601   3.499  13.630 -1.1329  0.4960 -0.1520
 3623SOL     OW22501   0.139   1.322   1.757  0.3170 -0.6738 -0.2511
 3623SOL    HW122502   0.112   1.291   1.843  1.8477 -0.4947  0.2956
 3623SOL    HW222503   0.133   1.239   1.709  0.1335 -0.4417 -0.6297
 3624SOL     OW22504   1.262   2.304   7.710  0.6489  0.1495  0.0706
 3624SOL    HW122505   1.248   2.223   7.759  0.9591  0.6993  1.0531
 3624SOL    HW222506   1.329   2.345   7.765  0.6387 -0.6886  0.7143
 3625SOL     OW22507   0.612   4.394   8.469  0.5045 -0.4305 -0.3300
 3625SOL    HW122508   0.528   4.351   8.455 -0.1127  0.2332  1.4365
 3625SOL    HW222509   0.612   4.448   8.390  2.5984 -2.7062 -1.9076
 3626SOL     OW22510   1.899   1.898   5.918 -0.1206  0.1625  0.1052
 3626SOL    HW122511   1.820   1.942   5.951 -0.3355 -0.7676  0.8335
 3626SOL    HW222512   1.919   1.837   5.989 -0.1366 -0.0328 -0.0564
 3627SOL     OW22513   4.608   0.468   6.027  0.4968 -0.1516 -0.3785
 3627SOL    HW122514   4.688   0.483   5.977  1.7406 -1.2063  1.2954
 3627SOL    HW222515   4.642   0.411   6.096  0.1193  0.8937  0.6594
 3628SOL     OW22516   1.197   4.678   4.346 -0.0753  0.3120 -0.2252
 3628SOL    HW122517   1.265   0.010   4.366  0.3492 -0.2813  0.2121
 3628SOL    HW222518   1.229   4.601   4.393 -1.9078  1.3762  2.7304
 3629SOL     OW22519   1.391   4.723   9.934 -0.2620 -0.1955  0.1602
 3629SOL    HW122520   1.349   0.055   9.993  1.2752  0.2067  0.8267
 3629SOL    HW222521   1.371   4.633   9.958  0.0508 -0.8252 -1.9663
 3630SOL     OW22522   1.099   2.276   4.257 -0.4386  0.4216 -0.4795
 3630SOL    HW122523   1.044   2.324   4.197  1.3317  1.5861 -1.1722
 3630SOL    HW222524   1.130   2.213   4.192  0.7530 -0.3153  0.8030
 3631SOL     OW22525   0.550   0.733   5.817  0.3148 -0.7233 -0.4045
 3631SOL    HW122526   0.645   0.733   5.823  0.2157  0.5824  1.1868
 3631SOL    HW222527   0.534   0.827   5.825 -0.3732 -1.0883  2.6908
 3632SOL     OW22528   0.551   1.430  10.276 -0.4440 -0.0490 -0.3995
 3632SOL    HW122529   0.532   1.516  10.239 -0.1458 -0.4159 -1.3881
 3632SOL    HW222530   0.614   1.394  10.214  0.4027 -0.4864  0.7000
 3633SOL     OW22531   3.447   0.050   3.783 -0.4780 -0.6054 -0.3397
 3633SOL    HW122532   3.437   0.017   3.694 -3.1648  0.1671 -0.3336
 3633SOL    HW222533   3.504   4.717   3.825  1.1470 -0.1617 -1.8726
 3634SOL     OW22534   2.539   2.411  16.732 -0.0305  0.0448 -0.0726
 3634SOL    HW122535   2.585   2.346  16.678  1.5818  0.8896  0.2677
 3634SOL    HW222536   2.459   2.369  16.762 -0.4089  1.7766  1.3289
 3635SOL     OW22537   4.012   1.912   8.729  0.1395  0.3294 -0.0456
 3635SOL    HW122538   4.057   1.871   8.804 -1.0516 -1.0161 -0.0681
 3635SOL    HW222539   3.959   1.841   8.693  1.2774 -0.6248  0.1365
 3636SOL     OW22540   2.164   4.098   9.524 -0.1872  0.4352 -0.2060
 3636SOL    HW122541   2.238   4.065   9.474  0.1548  2.8807 -1.3089
 3636SOL    HW222542   2.096   4.068   9.463 -0.6182  0.3375  0.3241
 3637SOL     OW22543   4.695   0.293   8.223  0.3223 -0.2343  0.3136
 3637SOL    HW122544   4.705   0.201   8.203  1.3518 -0.1325  0.3789
 3637SOL    HW222545   4.681   0.326   8.134  1.9660 -1.5861 -0.4280
 3638SOL     OW22546   0.399   2.431  14.660 -0.5265 -0.5340 -0.0117
 3638SOL    HW122547   0.416   2.512  14.708 -1.8819 -0.4989  0.4132
 3638SOL    HW222548   0.327   2.461  14.605 -0.5359 -0.1880  0.1881
 3639SOL     OW22549   3.515   0.876  10.285  0.2833 -0.3175 -0.2446
 3639SOL    HW122550   3.479   0.933  10.216  1.9582  0.3015 -0.6133
 3639SOL    HW222551   3.488   0.795  10.243  0.0637 -0.5570  0.3620
 3640SOL     OW22552   2.708   2.616   9.200  0.0402  0.1975  0.4885
 3640SOL    HW122553   2.678   2.528   9.179  0.5536 -0.1999  1.4086
 3640SOL    HW222554   2.628   2.665   9.218  0.9313  1.7985  0.0704
 3641SOL     OW22555   0.594   4.369   2.340  0.4389  0.2283 -0.1704
 3641SOL    HW122556   0.534   4.352   2.267  1.7478 -0.4476 -1.0879
 3641SOL    HW222557   0.665   4.418   2.299  1.1338 -0.9877 -0.4478
 3642SOL     OW22558   1.067   1.414   0.323  0.3305  0.1154  0.0754
 3642SOL    HW122559   1.041   1.481   0.386 -4.1200 -2.0558  0.5204
 3642SOL    HW222560   1.136   1.382   0.381 -0.5294 -1.1987  0.3831
 3643SOL     OW22561   4.219   3.162   7.025  0.5108 -0.0839  0.1092
 3643SOL    HW122562   4.201   3.124   7.111  1.5362 -0.1398  0.2970
 3643SOL    HW222563   4.297   3.217   7.025  0.1134  0.4862  1.2379
 3644SOL     OW22564   2.466   1.225   2.196 -0.3663  0.4072 -0.7697
 3644SOL    HW122565   2.441   1.135   2.172 -1.6084  0.2243  1.2432
 3644SOL    HW222566   2.375   1.252   2.207  0.6726  2.5424  2.3857
 3645SOL     OW22567   3.833   2.657  10.746 -0.5483 -0.0468  0.2095
 3645SOL    HW122568   3.920   2.632  10.778  0.0360  2.0292  0.2441
 3645SOL    HW222569   3.861   2.709  10.671 -0.5678 -1.4873 -0.7972
 3646SOL     OW22570   0.464   3.609   2.285  0.1154  0.3039 -0.5050
 3646SOL    HW122571   0.509   3.541   2.235  0.0980  1.3706 -1.9435
 3646SOL    HW222572   0.520   3.614   2.363  1.2707 -1.2848 -1.2417
 3647SOL     OW22573   1.042   1.565   1.815 -0.3200  0.1950 -0.1710
 3647SOL    HW122574   1.115   1.503   1.818  0.7092  1.3790 -0.9114
 3647SOL    HW222575   1.067   1.628   1.748  0.3862  0.6511  0.5218
 3648SOL     OW22576   0.739   2.420   6.277  0.4971  0.3343 -0.1886
 3648SOL    HW122577   0.804   2.351   6.285  0.8464  0.6326 -0.4677
 3648SOL    HW222578   0.752   2.456   6.365 -0.0472  0.0779 -0.0055
 3649SOL     OW22579   0.685   1.620   3.896 -0.2037  0.3910 -0.2462
 3649SOL    HW122580   0.694   1.715   3.886 -0.4902  0.1264 -3.2074
 3649SOL    HW222581   0.662   1.590   3.808  1.0257 -3.5284  0.7776
 3650SOL     OW22582   4.326   0.932   4.208  0.1626 -0.4932  0.2288
 3650SOL    HW122583   4.308   0.939   4.115  0.5197 -3.5213 -0.0574
 3650SOL    HW222584   4.266   0.997   4.245  0.8250 -1.1441  2.4792
 3651SOL     OW22585   0.407   2.548   1.318  0.4514 -0.0816 -0.0724
 3651SOL    HW122586   0.407   2.475   1.255  3.0140  0.1782 -0.3557
 3651SOL    HW222587   0.362   2.615   1.266 -0.0351 -1.0870 -0.9825
 3652SOL     OW22588   3.551   1.413   5.558  0.3346 -0.0273  0.0783
 3652SOL    HW122589   3.473   1.461   5.585 -0.4880 -1.1777 -0.2295
 3652SOL    HW222590   3.537   1.331   5.605  3.3950 -0.9637 -0.6320
 3653SOL     OW22591   4.371   0.246   3.961 -0.5871  0.4128 -0.7241
 3653SOL    HW122592   4.396   0.268   3.872  1.1064  2.1237  0.1794
 3653SOL    HW222593   4.339   0.156   3.951  1.2944 -0.4520  0.9768
 3654SOL     OW22594   0.264   0.662  10.380  0.3741 -0.4609 -0.4284
 3654SOL    HW122595   0.350   0.636  10.346  0.3247 -1.5707  0.3120
 3654SOL    HW222596   0.210   0.641  10.304 -1.0952  0.6720  0.2967
 3655SOL     OW22597   1.392   4.324   5.111 -0.3849 -0.4417  0.2469
 3655SOL    HW122598   1.441   4.245   5.089  0.6909  0.0025  1.0862
 3655SOL    HW222599   1.314   4.289   5.154 -0.3788 -0.1099  0.5257
 3656SOL     OW22600   1.791   4.452   2.038 -0.1308  0.3834 -0.1799
 3656SOL    HW122601   1.833   4.507   2.105 -0.6706 -1.5014  1.6876
 3656SOL    HW222602   1.723   4.410   2.090  0.4673  0.1443  0.4081
 3657SOL     OW22603   2.636   2.377   9.122 -0.7977 -0.6248  0.5492
 3657SOL    HW122604   2.729   2.353   9.115 -0.4092  0.7316  1.0244
 3657SOL    HW222605   2.604   2.321   9.052  0.7971  0.0449 -0.7378
 3658SOL     OW22606   4.203   0.004   7.316 -0.0334 -0.1152 -0.2630
 3658SOL    HW122607   4.249   4.693   7.388 -0.6216 -0.5957 -0.1739
 3658SOL    HW222608   4.136   0.063   7.350  0.3505 -0.2017  0.6470
 3659SOL     OW22609   1.086   0.488   8.548 -0.2138 -0.4386 -0.4938
 3659SOL    HW122610   1.039   0.531   8.478 -2.2412 -0.4337  0.8565
 3659SOL    HW222611   1.063   0.553   8.614 -0.8357 -1.4186  0.2692
 3660SOL     OW22612   3.723   0.896   4.521 -0.0103 -0.1761 -0.1249
 3660SOL    HW122613   3.689   0.807   4.527  1.1177 -0.7021 -1.4799
 3660SOL    HW222614   3.744   0.915   4.613  1.1074 -3.1016  0.2215
 3661SOL     OW22615   1.495   0.810  13.123 -0.0515 -0.0337  0.1119
 3661SOL    HW122616   1.587   0.792  13.139 -0.1116  0.4186  0.9377
 3661SOL    HW222617   1.462   0.720  13.113 -0.7611  0.1305  1.0166
 3662SOL     OW22618   3.349   3.872   9.088 -0.4198 -0.2361 -0.0257
 3662SOL    HW122619   3.432   3.909   9.117 -0.9575  0.0201  1.1853
 3662SOL    HW222620   3.357   3.875   8.992 -2.9742 -1.5250 -0.2879
 3663SOL     OW22621   1.368   1.758   5.820 -0.1914  0.2955  0.3641
 3663SOL    HW122622   1.419   1.737   5.898  1.3230 -0.1810 -0.7466
 3663SOL    HW222623   1.430   1.792   5.755 -0.0242 -3.2304 -1.3712
 3664SOL     OW22624   1.805   1.375   8.400  0.0555  0.6007  0.6637
 3664SOL    HW122625   1.872   1.435   8.432  1.0065 -0.9471  1.5846
 3664SOL    HW222626   1.802   1.396   8.306 -0.4265 -1.1228  0.2876
 3665SOL     OW22627   2.726   0.063   0.986 -0.3914  0.3549 -0.0374
 3665SOL    HW122628   2.795   0.003   0.958 -0.0849  1.7409 -2.2994
 3665SOL    HW222629   2.659   4.727   0.985 -1.4389  1.3885  0.8900
 3666SOL     OW22630   2.128   1.582   8.947 -0.0221 -0.5105 -0.1925
 3666SOL    HW122631   2.155   1.570   9.037 -0.7502 -3.4254 -0.3720
 3666SOL    HW222632   2.087   1.667   8.965  2.1241  0.8680 -1.7271
 3667SOL     OW22633   0.954   2.769   5.639  0.0732  0.2805  0.2351
 3667SOL    HW122634   0.996   2.855   5.635  0.6918 -0.0415 -0.2644
 3667SOL    HW222635   0.869   2.785   5.680  1.0056  2.6849  1.2519
 3668SOL     OW22636   1.369   3.818  10.533 -0.5209  0.1360  0.0848
 3668SOL    HW122637   1.453   3.851  10.502  0.3572 -0.8407  1.4282
 3668SOL    HW222638   1.377   3.725  10.516  0.7042  0.7536 -2.6815
 3669SOL     OW22639   4.187   2.972  14.800  0.2657 -0.6428 -0.4423
 3669SOL    HW122640   4.240   2.948  14.876 -1.9071 -1.4123  0.8447
 3669SOL    HW222641   4.250   3.009  14.738 -1.0594  2.7580  0.2428
 3670SOL     OW22642   3.787   1.658   2.947 -0.1380  0.4630  0.0836
 3670SOL    HW122643   3.782   1.721   3.019 -1.8177  0.5842 -0.1483
 3670SOL    HW222644   3.753   1.577   2.986 -1.4666 -0.0208 -2.1205
 3671SOL     OW22645   0.503   1.543  14.183  0.2726 -0.1446  0.1338
 3671SOL    HW122646   0.453   1.517  14.261 -1.8330 -0.3167 -1.2761
 3671SOL    HW222647   0.556   1.466  14.166 -1.1130 -0.7141 -1.6118
 3672SOL     OW22648   1.832   4.442   7.618 -0.1692  0.2447  0.6103
 3672SOL    HW122649   1.786   4.360   7.635  0.5782 -0.3942 -0.4327
 3672SOL    HW222650   1.774   4.468   7.547  0.1380  0.8368  0.5836
 3673SOL     OW22651   0.439   4.524   1.814  0.5171  0.5198 -0.8585
 3673SOL    HW122652   0.402   4.435   1.816 -0.5441  0.9784 -0.1634
 3673SOL    HW222653   0.357   4.568   1.835  1.6619  1.9372  0.6355
 3674SOL     OW22654   2.690   1.769  12.776 -0.0944 -0.0853  0.1251
 3674SOL    HW122655   2.758   1.705  12.755  0.3882  0.3117  0.4727
 3674SOL    HW222656   2.722   1.850  12.736 -1.0990  0.9464  1.4526
 3675SOL     OW22657   1.522   1.554   9.229 -0.0397 -1.4348 -0.4931
 3675SOL    HW122658   1.585   1.548   9.300 -2.4023  0.7305  1.7877
 3675SOL    HW222659   1.506   1.648   9.219 -0.8435 -1.6635 -1.3949
 3676SOL     OW22660   4.020   0.222  14.524  1.0750 -0.2176  0.1627
 3676SOL    HW122661   3.959   0.149  14.518  0.8896 -0.0469 -0.0250
 3676SOL    HW222662   4.105   0.181  14.514  0.2642 -1.4402 -1.6321
 3677SOL     OW22663   1.837   2.015   4.665  0.5270 -0.0297  0.0369
 3677SOL    HW122664   1.822   2.110   4.671  3.0280  0.3793  0.1968
 3677SOL    HW222665   1.821   1.993   4.574 -0.2801  1.6784 -0.2432
 3678SOL     OW22666   3.000   0.755   9.053  0.0590  0.2026 -0.1423
 3678SOL    HW122667   2.908   0.770   9.073  0.1651 -1.1853  1.3651
 3678SOL    HW222668   3.037   0.833   9.093  0.6693  0.1320 -0.5646
 3679SOL     OW22669   0.064   4.291  12.668 -0.3157  0.3462 -0.0920
 3679SOL    HW122670   0.032   4.292  12.578 -1.9867 -0.1302  0.4937
 3679SOL    HW222671   0.117   4.371  12.672  0.3546  0.0113 -2.2912
 3680SOL     OW22672   2.802   0.146   5.547 -0.6851  0.7305  1.0071
 3680SOL    HW122673   2.864   0.089   5.592 -1.1056 -1.5245 -1.2511
 3680SOL    HW222674   2.802   0.230   5.594  0.4529  1.5745 -0.4813
 3681SOL     OW22675   3.039   0.874  14.299 -0.7213  0.0502 -0.2550
 3681SOL    HW122676   2.991   0.807  14.251  1.6985 -0.9177 -1.3267
 3681SOL    HW222677   3.021   0.946  14.238  1.2643  0.3287 -0.5005
 3682SOL     OW22678   0.376   2.376   7.542 -0.4110 -0.5569  0.6910
 3682SOL    HW122679   0.376   2.310   7.473 -1.3817 -0.0968  0.2515
 3682SOL    HW222680   0.409   2.321   7.613  0.5811  0.6622  1.1683
 3683SOL     OW22681   1.610   4.666   2.837  0.2063 -0.1879  0.3051
 3683SOL    HW122682   1.696   4.709   2.842  0.1358 -0.0176  0.0579
 3683SOL    HW222683   1.626   4.573   2.853  0.3532 -0.2259 -0.0730
 3684SOL     OW22684   1.745   3.509  17.200  0.1648  0.0695 -0.0767
 3684SOL    HW122685   1.716   3.595  17.229 -1.8414 -1.2622  1.8750
 3684SOL    HW222686   1.834   3.513  17.235  0.1709 -0.4068 -0.0430
 3685SOL     OW22687   4.197   2.151   5.003  0.0177  0.5835  0.4475
 3685SOL    HW122688   4.168   2.213   5.070 -4.0657 -1.7250  0.8460
 3685SOL    HW222689   4.154   2.195   4.930  0.7090  0.8382  0.1964
 3686SOL     OW22690   2.240   0.643   5.958  1.0341 -0.8010 -0.0144
 3686SOL    HW122691   2.327   0.607   5.941  0.0714 -2.1252 -2.1590
 3686SOL    HW222692   2.250   0.712   5.891 -4.8070 -0.4638 -0.5029
 3687SOL     OW22693   1.835   2.056   8.515  0.1800  0.1579 -0.1499
 3687SOL    HW122694   1.922   2.093   8.504  0.1156 -0.1673 -1.8502
 3687SOL    HW222695   1.838   1.984   8.452  3.4453 -0.6353  0.9033
 3688SOL     OW22696   1.376   2.871   6.336 -0.4162 -0.5529  0.5575
 3688SOL    HW122697   1.397   2.787   6.295  1.2191  0.4899 -0.7456
 3688SOL    HW222698   1.453   2.923   6.313 -1.5482  1.2675  0.9076
 3689SOL     OW22699   0.500   1.085  16.125  0.1156 -0.4780 -0.6234
 3689SOL    HW122700   0.517   1.174  16.093 -0.0365 -0.0469  0.4567
 3689SOL    HW222701   0.416   1.088  16.171  0.6221  0.9733  0.2332
 3690SOL     OW22702   0.304   0.863   8.886 -0.3291 -0.5556 -0.5320
 3690SOL    HW122703   0.322   0.927   8.817 -1.9972  0.1184 -0.3534
 3690SOL    HW222704   0.215   0.835   8.863 -0.1683 -0.7720 -0.8844
 3691SOL     OW22705   3.171   3.922   4.960 -0.4812  0.1788 -0.1009
 3691SOL    HW122706   3.203   4.005   4.995  0.4682  0.2024 -1.0166
 3691SOL    HW222707   3.208   3.856   5.018 -3.0168  0.0006  1.3200
 3692SOL     OW22708   3.952   3.667   8.673 -0.2219 -0.7006 -0.1349
 3692SOL    HW122709   3.995   3.685   8.589 -2.3736 -1.6762 -1.4605
 3692SOL    HW222710   3.972   3.573   8.679  2.4375 -0.0960  0.4638
 3693SOL     OW22711   1.712   1.308   5.914 -0.5201  0.2832 -0.1106
 3693SOL    HW122712   1.674   1.352   5.991 -0.1180  0.0214  0.2387
 3693SOL    HW222713   1.774   1.245   5.950 -0.6667 -0.4168 -1.1199
 3694SOL     OW22714   1.060   4.312   2.492  0.1067  0.2123 -0.5879
 3694SOL    HW122715   1.034   4.382   2.552  1.9392 -0.6624  1.2392
 3694SOL    HW222716   1.036   4.237   2.547 -0.6974  0.1052 -1.0837
 3695SOL     OW22717   2.875   2.974   2.370  0.2303  0.4416  0.2001
 3695SOL    HW122718   2.786   2.953   2.343 -0.2352  0.4627  1.7237
 3695SOL    HW222719   2.917   3.009   2.292  0.4526 -0.8824 -0.2666
 3696SOL     OW22720   3.658   1.303  10.346 -0.0647 -0.0532 -0.3957
 3696SOL    HW122721   3.575   1.299  10.393  1.5301 -0.7967  2.3299
 3696SOL    HW222722   3.708   1.250  10.408  0.3557 -1.5602 -2.0050
 3697SOL     OW22723   4.228   1.189   7.871  0.0159  0.0340  0.3931
 3697SOL    HW122724   4.181   1.246   7.932 -0.5460 -0.1947  0.1770
 3697SOL    HW222725   4.196   1.100   7.886  1.9646 -0.7185  0.0423
 3698SOL     OW22726   1.229   1.092   7.634 -0.0116 -0.2299 -0.2530
 3698SOL    HW122727   1.190   1.008   7.608 -1.4883  0.9159 -1.7857
 3698SOL    HW222728   1.313   1.089   7.588 -0.5082  0.9523 -1.2338
 3699SOL     OW22729   0.325   3.725  12.636 -0.4972 -0.2675 -0.1734
 3699SOL    HW122730   0.391   3.669  12.594 -2.4770 -3.2075  0.5902
 3699SOL    HW222731   0.288   3.656  12.692  0.7159  0.2776  1.3242
 3700SOL     OW22732   0.884   2.861   6.811  0.5576  0.5924 -0.5001
 3700SOL    HW122733   0.858   2.842   6.721 -0.6288 -1.6204  0.3037
 3700SOL    HW222734   0.959   2.802   6.819  1.6126  1.9243 -0.6004
 3701SOL     OW22735   0.547   0.546  17.525  0.5080  0.0174 -0.5744
 3701SOL    HW122736   0.584   0.524  17.611 -0.9871 -0.8392 -0.1485
 3701SOL    HW222737   0.523   0.459  17.493  0.6040  0.1500 -1.0135
 3702SOL     OW22738   4.321   0.570  12.047  0.3358 -0.5927 -0.1621
 3702SOL    HW122739   4.416   0.585  12.043  0.4413 -0.6995  2.2178
 3702SOL    HW222740   4.308   0.526  12.131 -2.7578  0.9091  0.1394
 3703SOL     OW22741   0.723   1.988  16.409 -0.2457  0.1371 -0.0525
 3703SOL    HW122742   0.660   2.007  16.479  1.4483  1.2220  1.2048
 3703SOL    HW222743   0.760   2.075  16.398  0.7114 -0.2294  0.2195
 3704SOL     OW22744   4.223   3.426   8.960 -0.6094  0.5027  0.5795
 3704SOL    HW122745   4.214   3.515   8.992 -1.7054  0.5147  0.2132
 3704SOL    HW222746   4.197   3.433   8.868  0.5232 -0.4031  0.1766
 3705SOL     OW22747   1.996   3.725   0.884 -0.1647 -0.0122  0.2010
 3705SOL    HW122748   1.937   3.650   0.889 -1.3621  1.0122  1.4283
 3705SOL    HW222749   1.944   3.800   0.855  1.5992 -0.3785 -3.9231
 3706SOL     OW22750   1.038   1.515   5.679 -0.3172 -0.1633  0.1367
 3706SOL    HW122751   1.059   1.422   5.681 -0.0023 -0.1294 -1.8601
 3706SOL    HW222752   1.126   1.545   5.654  0.3187  1.1456  3.8834
 3707SOL     OW22753   2.650   1.704   4.582  0.4633 -0.0919  0.2585
 3707SOL    HW122754   2.706   1.717   4.506 -1.6344 -2.1614 -1.6669
 3707SOL    HW222755   2.600   1.785   4.568  0.3578 -0.3156 -0.6750
 3708SOL     OW22756   3.731   0.657   8.307 -0.1533 -0.0890  0.3932
 3708SOL    HW122757   3.666   0.681   8.374  0.2984 -1.7677  1.4268
 3708SOL    HW222758   3.685   0.585   8.264  0.5751 -0.4959  0.3054
 3709SOL     OW22759   4.549   0.808   1.422 -0.1581 -0.6803 -0.1353
 3709SOL    HW122760   4.590   0.894   1.436 -0.2225 -0.9132  1.4518
 3709SOL    HW222761   4.575   0.769   1.505  1.6159 -0.1031 -0.4038
 3710SOL     OW22762   1.172   1.278   3.518  0.2728  0.0551  0.2174
 3710SOL    HW122763   1.212   1.211   3.463 -2.7459 -1.5053 -0.0561
 3710SOL    HW222764   1.106   1.315   3.459 -1.0402 -0.5193  1.3039
 3711SOL     OW22765   0.521   3.491   5.354  0.1740 -0.3169  0.3425
 3711SOL    HW122766   0.447   3.484   5.413  1.3974 -2.5818  1.6296
 3711SOL    HW222767   0.571   3.556   5.403 -0.2210 -0.3454  0.7810
 3712SOL     OW22768   0.302   2.645  15.604  0.1051 -0.0511 -0.2313
 3712SOL    HW122769   0.285   2.562  15.648 -1.7324  0.5877  0.2500
 3712SOL    HW222770   0.220   2.668  15.561 -0.1159 -0.3596  0.0288
 3713SOL     OW22771   2.576   1.960   4.603  0.5253  0.0157  0.5412
 3713SOL    HW122772   2.513   2.031   4.613 -2.1180 -2.4045  0.7958
 3713SOL    HW222773   2.639   2.001   4.543 -0.1538  1.8554  1.0862
 3714SOL     OW22774   0.045   2.122   1.794  0.0803 -0.2504  0.3364
 3714SOL    HW122775   0.037   2.111   1.888 -0.8663 -0.1297  0.2652
 3714SOL    HW222776   0.135   2.090   1.783  0.9040  2.2402 -0.3433
 3715SOL     OW22777   3.959   1.332   6.193 -0.5126 -0.6761 -0.0970
 3715SOL    HW122778   3.962   1.328   6.097 -0.6313 -0.4126 -0.1120
 3715SOL    HW222779   4.052   1.316   6.212  0.3521  1.2548 -2.7186
 3716SOL     OW22780   3.329   2.018   5.492 -0.1127 -0.9568 -0.4473
 3716SOL    HW122781   3.268   1.946   5.476 -1.1359 -0.2293  0.1981
 3716SOL    HW222782   3.283   2.091   5.533 -0.5709 -1.5262  0.0541
 3717SOL     OW22783   4.094   1.173   6.857 -0.0161 -0.3937 -0.0782
 3717SOL    HW122784   4.165   1.117   6.889 -0.0819 -0.0447  0.6742
 3717SOL    HW222785   4.147   1.212   6.787 -2.2303  1.2413 -0.8631
 3718SOL     OW22786   2.263   1.943   3.220  0.0185  0.4514  0.7044
 3718SOL    HW122787   2.231   1.890   3.147 -0.1703  1.4846  0.0342
 3718SOL    HW222788   2.288   2.025   3.178  1.7538 -1.0440 -1.2007
 3719SOL     OW22789   2.146   1.100  12.284  0.3171 -0.1380  0.0716
 3719SOL    HW122790   2.093   1.142  12.351  0.4499 -2.0083  1.3309
 3719SOL    HW222791   2.114   1.010  12.283 -1.5027  0.5305 -1.7248
 3720SOL     OW22792   1.127   3.043   8.008  0.1710 -0.4043 -0.3493
 3720SOL    HW122793   1.039   3.011   7.985 -0.5745 -0.1467  2.1379
 3720SOL    HW222794   1.177   2.963   8.025 -1.0942 -1.3652 -1.0562
 3721SOL     OW22795   3.423   3.356   2.632  0.0064 -0.2117  0.5969
 3721SOL    HW122796   3.483   3.411   2.582  0.7276 -0.4471  1.2045
 3721SOL    HW222797   3.462   3.270   2.621 -0.1671 -0.3037  0.7086
 3722SOL     OW22798   0.465   1.259   8.488 -0.0881  0.1732  0.0555
 3722SOL    HW122799   0.494   1.216   8.408 -1.0916  3.5898 -2.1620
 3722SOL    HW222800   0.534   1.325   8.501  1.3368 -1.5479  1.2727
 3723SOL     OW22801   4.195   2.082  10.582 -0.0398  0.7202 -0.3088
 3723SOL    HW122802   4.272   2.137  10.592  0.6085 -0.1296 -0.6297
 3723SOL    HW222803   4.130   2.142  10.618 -1.4095 -0.2846 -1.0805
 3724SOL     OW22804   1.505   2.294  13.242  0.2147 -0.1526 -0.0453
 3724SOL    HW122805   1.421   2.338  13.230  0.6430  0.3694 -1.1626
 3724SOL    HW222806   1.482   2.202  13.235  1.8011 -0.7376  2.5883
 3725SOL     OW22807   3.270   3.661  16.801  0.7170 -0.3912 -0.2530
 3725SOL    HW122808   3.317   3.715  16.737 -1.2017  0.3391 -1.0458
 3725SOL    HW222809   3.216   3.723  16.850  2.2698  0.4283  0.4170
 3726SOL     OW22810   4.642   3.984   2.407 -0.1674  0.0749 -0.3574
 3726SOL    HW122811   4.562   4.036   2.401  0.1374  0.6886  0.7618
 3726SOL    HW222812   4.685   4.003   2.324  0.5213  2.5050  0.5465
 3727SOL     OW22813   4.472   0.272   6.403  0.2694 -1.2814 -0.8288
 3727SOL    HW122814   4.408   0.329   6.361 -0.1144 -2.3579 -1.7024
 3727SOL    HW222815   4.438   0.251   6.491 -1.8665  1.4754 -1.0224
 3728SOL     OW22816   3.368   3.389  13.876 -0.2032  0.1115  0.6809
 3728SOL    HW122817   3.440   3.366  13.817 -0.1391 -0.6177  1.0490
 3728SOL    HW222818   3.297   3.403  13.813 -0.5979  3.0583  1.7936
 3729SOL     OW22819   3.407   3.082   0.067  0.1462 -0.1471 -0.2370
 3729SOL    HW122820   3.409   3.168   0.108  0.8521 -0.6084  0.6968
 3729SOL    HW222821   3.343   3.039   0.123  0.7566 -1.7216 -0.7447
 3730SOL     OW22822   2.900   1.683   5.478  0.2625 -0.6042 -0.2251
 3730SOL    HW122823   2.881   1.594   5.450  1.2830  0.3056 -3.7956
 3730SOL    HW222824   2.952   1.667   5.556  0.9490  0.5640 -0.4401
 3731SOL     OW22825   3.405   1.709  10.995  0.0325  0.2728  0.5467
 3731SOL    HW122826   3.475   1.723  10.931 -0.3641 -0.9743 -0.1646
 3731SOL    HW222827   3.334   1.702  10.931 -1.5516 -0.2515  2.3954
 3732SOL     OW22828   1.014   1.254   5.610 -0.2073  0.1750  0.0297
 3732SOL    HW122829   0.933   1.217   5.647  0.2860  0.0115  0.9567
 3732SOL    HW222830   1.011   1.227   5.518  1.4355  0.3860 -0.0925
 3733SOL     OW22831   4.184   0.252  16.311  0.1039 -0.0602  0.2754
 3733SOL    HW122832   4.108   0.256  16.369 -2.0887 -3.7163 -2.3803
 3733SOL    HW222833   4.133   0.275  16.233  0.7839 -1.4381 -0.5689
 3734SOL     OW22834   4.103   1.651   4.715 -0.6539  0.3395 -0.1661
 3734SOL    HW122835   4.033   1.707   4.748  1.3970  3.1429 -0.6379
 3734SOL    HW222836   4.071   1.602   4.639 -0.5256 -0.6023  0.3816
 3735SOL     OW22837   2.891   2.419   2.913 -0.1048 -0.8368 -0.4081
 3735SOL    HW122838   2.921   2.354   2.976  0.0468 -1.7560 -1.4229
 3735SOL    HW222839   2.977   2.442   2.877 -0.0963 -1.3392 -0.7140
 3736SOL     OW22840   4.478   2.387  11.025  0.6345  0.1627  0.1904
 3736SOL    HW122841   4.435   2.334  11.092  0.5624 -0.3819 -0.2827
 3736SOL    HW222842   4.509   2.459  11.080 -0.1518  2.3936 -2.3178
 3737SOL     OW22843   4.478   3.388   8.923  0.4226  0.0075  0.5765
 3737SOL    HW122844   4.386   3.365   8.930  0.1482  0.4518 -1.8294
 3737SOL    HW222845   4.495   3.433   9.006 -0.9757 -1.6739  1.7812
 3738SOL     OW22846   1.685   0.383  17.049 -0.4825  0.1037 -0.3100
 3738SOL    HW122847   1.655   0.419  16.966 -0.3118 -1.8054 -1.2132
 3738SOL    HW222848   1.656   0.292  17.043 -2.4888  0.7716 -0.7742
 3739SOL     OW22849   2.750   4.389  14.804 -0.4017  0.5358 -0.4271
 3739SOL    HW122850   2.689   4.461  14.816  0.2856  1.3919 -2.0281
 3739SOL    HW222851   2.771   4.406  14.712 -1.6805 -1.3924 -1.0730
 3740SOL     OW22852   2.029   1.499  12.806 -0.4728  0.2840 -0.6756
 3740SOL    HW122853   2.103   1.441  12.822 -1.2565 -0.7858 -0.9754
 3740SOL    HW222854   2.063   1.541  12.726  0.3259  1.5356  0.3289
 3741SOL     OW22855   0.085   2.474  16.428 -0.1402 -0.6687 -0.0093
 3741SOL    HW122856   4.727   2.444  16.414 -0.0276 -1.1108  0.2262
 3741SOL    HW222857   0.130   2.394  16.402  0.3255 -0.4239  0.0470
 3742SOL     OW22858   0.486   0.143  10.517  0.4217  0.0454 -0.0759
 3742SOL    HW122859   0.492   0.088  10.595  0.2633 -0.5922 -0.5170
 3742SOL    HW222860   0.391   0.151  10.508  0.4150 -0.7778 -0.7097
 3743SOL     OW22861   2.894   0.976  13.154 -0.8701 -0.3102 -1.0747
 3743SOL    HW122862   2.929   1.005  13.238 -0.7571  2.3902 -2.0630
 3743SOL    HW222863   2.961   1.014  13.098 -0.5530  0.9630  0.1666
 3744SOL     OW22864   0.628   3.485   2.691  0.3634 -0.8484 -1.4916
 3744SOL    HW122865   0.576   3.543   2.635 -1.0599 -1.4967 -0.8460
 3744SOL    HW222866   0.589   3.511   2.775  2.1983 -1.1750 -0.5483
 3745SOL     OW22867   1.194   4.309   5.903 -0.0545 -0.3394 -1.0198
 3745SOL    HW122868   1.198   4.252   5.826 -0.3559 -1.6548 -0.0699
 3745SOL    HW222869   1.159   4.241   5.960 -2.3374  1.1316 -0.6661
 3746SOL     OW22870   0.063   1.235   7.443  0.6564  0.3805  0.0352
 3746SOL    HW122871   0.100   1.306   7.390  2.6143 -1.6623 -1.3101
 3746SOL    HW222872   0.097   1.155   7.402 -0.2619  0.6823 -1.3260
 3747SOL     OW22873   1.132   1.869   2.520  0.6741 -0.3179 -0.1347
 3747SOL    HW122874   1.204   1.809   2.540  0.1280 -1.1330 -0.6183
 3747SOL    HW222875   1.064   1.815   2.481 -1.5901  2.4313  0.0192
 3748SOL     OW22876   3.078   0.134   2.071 -0.0414 -0.2079  0.2332
 3748SOL    HW122877   3.096   0.065   2.135  0.1803  0.4678  0.8865
 3748SOL    HW222878   3.162   0.180   2.069 -0.0620 -0.2491 -1.6144
 3749SOL     OW22879   3.855   2.093   5.588 -0.3431 -0.5218 -0.2484
 3749SOL    HW122880   3.841   2.141   5.669  3.1198 -0.8678  0.5644
 3749SOL    HW222881   3.765   2.071   5.564  0.2231 -0.5839 -2.3091
 3750SOL     OW22882   2.052   1.846   4.664  0.4066 -0.4289 -0.2829
 3750SOL    HW122883   2.111   1.903   4.714 -0.7060  0.8033 -0.3646
 3750SOL    HW222884   1.969   1.892   4.676  1.5110  1.6973 -0.7818
 3751SOL     OW22885   3.172   1.023   7.128  0.1654  0.5340 -0.0304
 3751SOL    HW122886   3.142   1.110   7.155 -1.4440  0.1530 -0.5943
 3751SOL    HW222887   3.216   1.044   7.046 -1.7134  1.0568 -0.9091
 3752SOL     OW22888   2.688   4.423   8.343 -0.1083 -0.0306 -0.0677
 3752SOL    HW122889   2.655   4.403   8.431  0.2617 -0.4870 -0.0333
 3752SOL    HW222890   2.615   4.392   8.289  1.0543 -0.6485 -1.2810
 3753SOL     OW22891   3.458   3.657   4.512  0.4771 -0.1443 -0.2730
 3753SOL    HW122892   3.475   3.715   4.438 -3.2653 -2.3048 -2.8399
 3753SOL    HW222893   3.368   3.629   4.491  1.0670 -0.4356 -2.4293
 3754SOL     OW22894   3.143   4.661  17.175  0.1238  0.3960  0.1150
 3754SOL    HW122895   3.082   4.696  17.239 -0.4912  0.5618 -0.5533
 3754SOL    HW222896   3.087   4.611  17.115 -0.3759  2.2524 -0.9761
 3755SOL     OW22897   2.041   3.686   7.787  0.6654  0.3964  0.3391
 3755SOL    HW122898   2.009   3.612   7.735 -2.4825  2.7327 -1.0394
 3755SOL    HW222899   1.989   3.688   7.867  0.9871 -2.6037  0.6371
 3756SOL     OW22900   2.309   1.921   8.746  0.4915  0.0340  0.3135
 3756SOL    HW122901   2.277   1.991   8.803 -0.5090  0.6237 -0.9878
 3756SOL    HW222902   2.383   1.889   8.799  1.2230  0.8364 -0.2317
 3757SOL     OW22903   0.528   0.929   0.691 -0.0061 -0.2914 -0.0714
 3757SOL    HW122904   0.558   0.905   0.603  0.0574  1.0398 -0.4062
 3757SOL    HW222905   0.449   0.876   0.701 -0.0337  0.0625  1.5704
 3758SOL     OW22906   1.937   0.289   1.563  0.2314 -0.0827 -0.2377
 3758SOL    HW122907   1.846   0.284   1.591  0.4612 -1.3636  0.2906
 3758SOL    HW222908   1.988   0.281   1.644 -0.0151  1.1726  0.0475
 3759SOL     OW22909   4.534   3.839  15.518 -0.3778 -0.2390 -0.0068
 3759SOL    HW122910   4.519   3.812  15.608  0.4127  2.7995  1.0322
 3759SOL    HW222911   4.462   3.800  15.468  0.7753 -2.6791  0.2492
 3760SOL     OW22912   2.345   4.042  14.562 -0.3881  0.3414  0.0707
 3760SOL    HW122913   2.355   3.970  14.624 -0.8116  0.4524  0.2646
 3760SOL    HW222914   2.354   3.995  14.479  0.2335  0.8521 -0.1530
 3761SOL     OW22915   3.164   0.956   1.814  0.5066  0.0444 -0.3906
 3761SOL    HW122916   3.114   0.879   1.841 -0.7410  0.6982 -0.8299
 3761SOL    HW222917   3.144   0.955   1.721 -1.8942  0.9656  0.0880
 3762SOL     OW22918   1.142   2.093   6.181 -0.1680 -0.2199 -0.4581
 3762SOL    HW122919   1.122   2.000   6.168 -0.1979 -0.3322  0.4049
 3762SOL    HW222920   1.169   2.126   6.095  0.8815 -4.4311 -1.7358
 3763SOL     OW22921   4.091   2.795  14.476  0.1242  1.1008  0.5295
 3763SOL    HW122922   4.102   2.839  14.392  2.9760 -1.4528 -0.4536
 3763SOL    HW222923   4.131   2.710  14.458 -1.9878 -0.4821  3.3599
 3764SOL     OW22924   4.700   4.540   6.075 -0.4535  0.2371  0.5279
 3764SOL    HW122925   4.664   4.624   6.102 -0.0104  1.2677 -2.1308
 3764SOL    HW222926   4.688   4.538   5.980  2.4347 -1.1007  0.2055
 3765SOL     OW22927   0.714   3.552   6.705  0.0866  0.2840 -0.3949
 3765SOL    HW122928   0.760   3.617   6.652  2.4356  0.4506  1.8362
 3765SOL    HW222929   0.638   3.530   6.652 -0.0557 -0.7966  0.2465
 3766SOL     OW22930   0.537   0.307   4.867 -0.6623  0.4739 -0.5425
 3766SOL    HW122931   0.501   0.326   4.954  0.5145  1.1206 -0.1982
 3766SOL    HW222932   0.487   0.370   4.815 -1.5542 -0.1945 -0.4958
 3767SOL     OW22933   0.521   3.178  14.675  0.3666  0.1759  0.1720
 3767SOL    HW122934   0.546   3.125  14.751 -0.9618 -2.3390 -1.1532
 3767SOL    HW222935   0.520   3.110  14.607 -2.0111  1.4185 -1.0126
 3768SOL     OW22936   3.392   3.017   8.191 -0.2806 -0.7294 -0.3490
 3768SOL    HW122937   3.421   3.049   8.105 -0.9964 -0.4709 -0.4980
 3768SOL    HW222938   3.458   2.953   8.216 -1.2846 -2.0192 -0.9810
 3769SOL     OW22939   3.225   3.784   8.418  0.0167 -0.3382 -0.3337
 3769SOL    HW122940   3.146   3.748   8.377 -0.2538 -2.0548  1.7198
 3769SOL    HW222941   3.297   3.733   8.381 -0.2653  0.5445 -2.1357
 3770SOL     OW22942   3.842   1.815   9.183 -0.1319 -0.3397 -0.1565
 3770SOL    HW122943   3.893   1.742   9.220  0.9086 -0.5200 -1.9534
 3770SOL    HW222944   3.771   1.776   9.132 -0.7672 -0.1039  0.5430
 3771SOL     OW22945   3.522   3.029  10.926  0.2330 -0.2861  0.3248
 3771SOL    HW122946   3.555   3.086  10.857  0.3183 -0.5201  0.1728
 3771SOL    HW222947   3.599   2.973  10.936  0.9474 -0.0016 -3.6066
 3772SOL     OW22948   2.646   1.645   2.112  0.3160  0.7285  0.4505
 3772SOL    HW122949   2.654   1.719   2.172 -0.5562  1.5828 -0.4699
 3772SOL    HW222950   2.555   1.657   2.083 -0.0107 -1.3648  0.5744
 3773SOL     OW22951   1.755   2.234   9.030 -0.3814  0.5126  0.0775
 3773SOL    HW122952   1.846   2.264   9.020  0.1828 -1.4806 -0.7109
 3773SOL    HW222953   1.721   2.281   8.954 -3.2168 -1.1830  0.3169
 3774SOL     OW22954   1.042   0.727   5.438 -0.3122 -0.0551 -0.5436
 3774SOL    HW122955   1.056   0.673   5.360  0.9154 -1.6216  0.7476
 3774SOL    HW222956   0.971   0.782   5.407  1.0045  0.3855 -2.7513
 3775SOL     OW22957   1.073   4.189  10.268  0.2037  0.3230 -0.0754
 3775SOL    HW122958   1.134   4.160  10.335 -2.3078 -1.6997  1.3265
 3775SOL    HW222959   1.101   4.280  10.272  0.1977  0.2039  2.6978
 3776SOL     OW22960   0.766   4.347  13.987 -0.1584 -0.3299  0.2107
 3776SOL    HW122961   0.796   4.372  14.074  0.6429  1.1926 -0.4972
 3776SOL    HW222962   0.737   4.431  13.953 -2.1379 -0.0653  2.5693
 3777SOL     OW22963   2.362   2.762  17.540  0.3825 -0.2220  0.3811
 3777SOL    HW122964   2.441   2.791  17.495 -1.3976  0.5221 -2.2231
 3777SOL    HW222965   2.347   2.674  17.505  1.8765 -0.2778 -0.0952
 3778SOL     OW22966   3.653   2.465  10.776  0.0664  0.3568 -0.1573
 3778SOL    HW122967   3.710   2.388  10.774  0.2310  0.4547  1.3425
 3778SOL    HW222968   3.711   2.541  10.766  0.1939  0.2665 -0.1009
 3779SOL     OW22969   4.277   1.279  12.111  0.4689 -0.1841 -0.1186
 3779SOL    HW122970   4.250   1.214  12.046  0.0141 -0.5766  0.4527
 3779SOL    HW222971   4.370   1.293  12.093  0.8037 -2.0264  0.1785
 3780SOL     OW22972   4.609   0.415  13.700 -0.1786  0.1374 -0.4521
 3780SOL    HW122973   4.595   0.348  13.767 -2.4454  1.7208  0.6485
 3780SOL    HW222974   4.590   0.494  13.750  0.7122  1.2068 -1.7999
 3781SOL     OW22975   2.748   4.250   3.594  0.2712  0.3909 -0.2254
 3781SOL    HW122976   2.725   4.161   3.568 -0.5151  0.9193 -1.4010
 3781SOL    HW222977   2.841   4.230   3.606  0.2580  0.7128  0.3841
 3782SOL     OW22978   2.589   1.864   8.465  0.3448  0.1171  0.0777
 3782SOL    HW122979   2.501   1.899   8.476  0.0006  0.1081 -2.5804
 3782SOL    HW222980   2.577   1.769   8.464  4.1836 -0.3949  1.5598
 3783SOL     OW22981   0.036   1.448   5.459  0.4496  0.2573 -0.2888
 3783SOL    HW122982   4.701   1.516   5.443 -1.1512 -1.2820 -0.1419
 3783SOL    HW222983   0.106   1.476   5.400 -0.5983  0.1092 -1.6101
 3784SOL     OW22984   0.553   2.336   5.620  0.3473 -0.0779 -0.1043
 3784SOL    HW122985   0.533   2.418   5.665 -1.3190 -0.7683  0.4224
 3784SOL    HW222986   0.639   2.344   5.578  0.8548  0.1626  0.9726
 3785SOL     OW22987   1.706   4.288   3.133  0.5530 -0.3689 -0.2184
 3785SOL    HW122988   1.632   4.325   3.180 -0.5054  0.2109 -2.3503
 3785SOL    HW222989   1.680   4.196   3.129  2.9215 -1.0862  0.7152
 3786SOL     OW22990   4.328   1.656   5.685  0.1332  0.0039  0.4702
 3786SOL    HW122991   4.247   1.607   5.671  0.0489  0.1423  0.4733
 3786SOL    HW222992   4.300   1.745   5.706 -0.1853  0.0380 -0.0877
 3787SOL     OW22993   0.371   0.619   2.609  0.1523  0.1730  0.2351
 3787SOL    HW122994   0.348   0.555   2.677  1.0715 -1.1042 -0.6375
 3787SOL    HW222995   0.400   0.687   2.669 -2.9777  0.4762  1.3800
 3788SOL     OW22996   2.044   2.691  14.126 -0.5458  0.1075 -0.9521
 3788SOL    HW122997   2.016   2.621  14.067 -1.3572 -0.3111 -0.0684
 3788SOL    HW222998   2.025   2.764  14.067 -0.3772  0.5343 -0.4774
 3789SOL     OW22999   2.034   3.946  13.340  0.1053  0.0697  0.4279
 3789SOL    HW123000   2.068   4.000  13.412  0.6628  1.1073 -0.6124
 3789SOL    HW223001   2.119   3.925  13.303 -0.2609  1.0301 -0.9916
 3790SOL     OW23002   1.382   4.193   5.470 -0.0158 -0.4800 -0.4182
 3790SOL    HW123003   1.448   4.235   5.416  0.4428 -0.3931  0.2055
 3790SOL    HW223004   1.370   4.121   5.408 -0.1251 -2.0429  1.4043
 3791SOL     OW23005   0.364   4.035   7.754 -0.3242 -0.3646  0.2757
 3791SOL    HW123006   0.413   4.113   7.731 -0.7392  0.4885  2.3025
 3791SOL    HW223007   0.352   3.994   7.668  0.7377 -1.4238  0.6253
 3792SOL     OW23008   0.334   0.681   4.257 -0.2268  0.1078  0.2961
 3792SOL    HW123009   0.266   0.724   4.309 -1.8904  1.1256 -2.6984
 3792SOL    HW223010   0.337   0.735   4.178 -0.8612 -1.5122 -0.8348
 3793SOL     OW23011   4.446   0.724   9.792  0.3084 -0.4544 -0.4386
 3793SOL    HW123012   4.401   0.643   9.766 -1.1878 -0.2065  1.3854
 3793SOL    HW223013   4.414   0.793   9.733  0.6079  0.1097  0.0664
 3794SOL     OW23014   0.513   1.854  13.956  0.7670  0.0153 -0.1009
 3794SOL    HW123015   0.599   1.813  13.943 -0.2606 -2.0319 -0.5734
 3794SOL    HW223016   0.485   1.826  14.044  0.3773  0.2264 -0.1588
 3795SOL     OW23017   2.518   2.901   5.034 -0.1268  0.4854 -0.1751
 3795SOL    HW123018   2.426   2.886   5.058 -0.2275 -0.7070 -1.3379
 3795SOL    HW223019   2.560   2.883   5.118  1.3411  0.3380 -0.9577
 3796SOL     OW23020   2.437   4.417   8.099 -0.3515  0.1105  0.2180
 3796SOL    HW123021   2.376   4.488   8.120 -1.1914 -0.4305 -0.3637
 3796SOL    HW223022   2.418   4.384   8.011  0.3810  0.4308 -0.0617
 3797SOL     OW23023   2.028   2.182   6.234 -0.4736 -0.3925  0.1233
 3797SOL    HW123024   2.005   2.129   6.311  1.4817  0.6204  1.4131
 3797SOL    HW223025   1.963   2.252   6.240  0.7884  0.7938 -0.2522
 3798SOL     OW23026   0.823   3.378  13.876  0.1006  0.1123 -0.2405
 3798SOL    HW123027   0.865   3.339  13.953  0.2498  2.2000  0.7482
 3798SOL    HW223028   0.758   3.437  13.914 -2.2196 -2.6727  0.1859
 3799SOL     OW23029   4.333   1.507   0.466  0.0802  0.4397  0.1103
 3799SOL    HW123030   4.334   1.602   0.454 -0.9967  0.8161  2.9373
 3799SOL    HW223031   4.367   1.484   0.379  0.5766 -0.1155  0.4497
 3800SOL     OW23032   0.766   0.513  13.429  0.0047 -0.1514 -0.2903
 3800SOL    HW123033   0.699   0.552  13.373 -0.6279 -0.6555  0.1159
 3800SOL    HW223034   0.708   0.468  13.490  2.6250 -2.5190  0.4545
 3801SOL     OW23035   0.887   0.392   6.582 -0.9106  0.6361 -0.0019
 3801SOL    HW123036   0.939   0.391   6.662  0.1263 -1.3588 -0.6896
 3801SOL    HW223037   0.837   0.472   6.600 -2.1639 -0.1042 -0.1675
 3802SOL     OW23038   1.477   4.717  12.018 -0.6986 -0.1930  0.0964
 3802SOL    HW123039   1.423   4.639  12.027  0.3318 -1.1415 -2.0095
 3802SOL    HW223040   1.414   0.056  12.005  1.5786  1.1107 -3.8007
 3803SOL     OW23041   4.710   0.025   5.416 -0.3587  0.2264  0.3132
 3803SOL    HW123042   0.046   4.700   5.380  1.0156  1.7341  0.4704
 3803SOL    HW223043   4.650   0.029   5.342 -1.2432  1.7860  1.1173
 3804SOL     OW23044   4.568   4.396   5.415  0.0174  0.1187  0.2354
 3804SOL    HW123045   4.511   4.323   5.440  0.1221  0.0239  0.1942
 3804SOL    HW223046   4.649   4.355   5.446  0.4011 -0.9402 -2.1557
 3805SOL     OW23047   4.133   4.443   4.401 -0.2833 -0.0700 -0.1710
 3805SOL    HW123048   4.188   4.516   4.428  0.2590 -0.1574 -1.0408
 3805SOL    HW223049   4.142   4.387   4.478 -0.4558 -1.4695 -1.1582
 3806SOL     OW23050   2.189   1.038   7.744 -0.4301 -0.1592  0.4310
 3806SOL    HW123051   2.161   1.076   7.827  0.2181 -0.0994  0.6213
 3806SOL    HW223052   2.122   0.974   7.719 -0.3946  0.1891 -0.5793
 3807SOL     OW23053   3.687   2.349   2.317  0.3272  0.5780  0.7599
 3807SOL    HW123054   3.621   2.412   2.288 -0.7676  0.7242  3.5902
 3807SOL    HW223055   3.667   2.274   2.261  1.5119  0.8475 -0.0408
 3808SOL     OW23056   1.976   0.196   6.059 -0.4321  0.3756  0.3075
 3808SOL    HW123057   1.895   0.179   6.011  0.3142 -0.8412 -0.5346
 3808SOL    HW223058   2.036   0.234   5.994 -1.0802 -0.9973 -1.1089
 3809SOL     OW23059   1.228   1.980   2.960 -0.4156 -0.1128  0.1444
 3809SOL    HW123060   1.180   2.063   2.953 -1.6818 -0.8325  0.3168
 3809SOL    HW223061   1.276   1.975   2.877 -0.9936  1.1482 -0.2727
 3810SOL     OW23062   4.047   1.799  11.912 -0.4350  0.5984  0.0348
 3810SOL    HW123063   4.133   1.774  11.877 -0.8876 -0.8640 -0.0338
 3810SOL    HW223064   4.005   1.714  11.900 -0.1796  0.8134 -2.4555
 3811SOL     OW23065   0.721   1.524   4.709 -0.3705  0.3566  0.2498
 3811SOL    HW123066   0.704   1.525   4.614  1.8419  1.1249 -0.1423
 3811SOL    HW223067   0.699   1.432   4.723  0.8652 -0.1967 -1.4140
 3812SOL     OW23068   0.733   4.270   6.431 -0.0527  0.0287  0.6254
 3812SOL    HW123069   0.670   4.199   6.443  0.9530 -0.6721  1.8291
 3812SOL    HW223070   0.687   4.319   6.363  0.2590 -0.4980  0.0351
 3813SOL     OW23071   3.618   1.553   6.842 -0.2763  0.7461  0.4490
 3813SOL    HW123072   3.644   1.521   6.928 -2.2256 -0.9044  0.4138
 3813SOL    HW223073   3.699   1.553   6.791 -0.7205 -0.9079 -0.2378
 3814SOL     OW23074   3.357   1.454  11.048  0.6358  0.2277 -0.0471
 3814SOL    HW123075   3.370   1.548  11.046 -0.2086  0.4019  2.1742
 3814SOL    HW223076   3.401   1.434  10.965  0.1055 -0.5119 -0.1537
 3815SOL     OW23077   0.344   2.656   4.353 -0.5982  0.5309  0.6921
 3815SOL    HW123078   0.255   2.685   4.332 -1.1697 -2.1284 -0.5022
 3815SOL    HW223079   0.355   2.594   4.281  1.4969  1.0336  0.5740
 3816SOL     OW23080   4.667   4.625  14.821 -0.3545 -0.0195 -0.0144
 3816SOL    HW123081   0.020   4.662  14.845  0.4850 -0.3631 -2.4976
 3816SOL    HW223082   4.639   4.695  14.762  1.3764  0.2132 -0.5539
 3817SOL     OW23083   3.509   3.959   3.768 -0.2827 -0.0704 -0.7711
 3817SOL    HW123084   3.578   4.020   3.797 -1.0350  0.9954 -1.2056
 3817SOL    HW223085   3.450   4.030   3.742  0.0733 -0.0186 -1.4388
 3818SOL     OW23086   2.262   0.291   0.684 -0.2311  0.1774  0.6047
 3818SOL    HW123087   2.294   0.219   0.739  1.1817  0.2423 -0.1380
 3818SOL    HW223088   2.341   0.343   0.676  0.2108 -0.8813 -1.9371
 3819SOL     OW23089   0.884   1.963   8.473 -0.2402 -0.2686  0.2763
 3819SOL    HW123090   0.953   1.997   8.416  0.6362 -0.5207  1.1848
 3819SOL    HW223091   0.924   1.899   8.533 -0.2308 -2.3823 -1.9736
 3820SOL     OW23092   3.301   3.632  12.421  0.2496 -0.3554 -0.4665
 3820SOL    HW123093   3.334   3.703  12.477  0.5014 -0.0520 -1.0018
 3820SOL    HW223094   3.256   3.575  12.483  1.4329 -2.6694 -1.7500
 3821SOL     OW23095   4.630   3.758   2.809  0.1587  0.5119  0.6835
 3821SOL    HW123096   4.670   3.698   2.746 -0.3877  2.2209 -1.2527
 3821SOL    HW223097   4.708   3.792   2.853 -0.0994  1.3398  0.4875
 3822SOL     OW23098   2.081   4.261   1.108  0.0998  0.1245  0.1926
 3822SOL    HW123099   2.011   4.326   1.111 -2.0158 -2.0565 -1.8881
 3822SOL    HW223100   2.055   4.213   1.187  0.3290 -0.7979 -0.2812
 3823SOL     OW23101   0.278   1.138  15.701 -0.0626 -0.0160  0.1666
 3823SOL    HW123102   0.348   1.089  15.745 -0.8364 -0.5947  0.7505
 3823SOL    HW223103   0.208   1.074  15.712 -1.5281  1.1159 -2.2923
 3824SOL     OW23104   4.684   2.081   7.451 -0.4525  0.3814  0.1251
 3824SOL    HW123105   4.724   2.050   7.370  2.0729 -2.9622  2.6443
 3824SOL    HW223106   0.022   2.137   7.486  0.2355 -1.0179  0.9931
 3825SOL     OW23107   2.757   2.653   8.553  0.8009  0.0862 -0.8137
 3825SOL    HW123108   2.793   2.734   8.588  0.6771 -0.5171  0.6803
 3825SOL    HW223109   2.690   2.628   8.617  0.2285 -0.3549 -1.5788
 3826SOL     OW23110   3.504   0.657   6.613 -0.3894  0.2414  0.4194
 3826SOL    HW123111   3.441   0.644   6.684  1.0822 -2.2730  1.2492
 3826SOL    HW223112   3.512   0.571   6.571  1.7600 -0.7072  2.7630
 3827SOL     OW23113   2.410   0.200  12.205 -0.3078  0.1336 -0.1693
 3827SOL    HW123114   2.412   0.147  12.126 -2.0305  0.6240 -0.5369
 3827SOL    HW223115   2.335   0.255  12.185  0.1806  0.7561 -0.3178
 3828SOL     OW23116   4.494   4.419   1.639  0.5819  0.2285  0.0313
 3828SOL    HW123117   4.541   4.395   1.559  1.1647  0.9762  0.1485
 3828SOL    HW223118   4.547   4.392   1.714 -0.3795  2.4691  1.5086
 3829SOL     OW23119   1.639   4.633   5.692 -1.1992  0.1433 -0.1591
 3829SOL    HW123120   1.725   4.631   5.733 -0.7171 -0.5813 -1.1950
 3829SOL    HW223121   1.654   4.616   5.599  1.3051  0.4849  0.1826
 3830SOL     OW23122   2.816   3.606   4.872 -0.4264 -0.8124  0.1179
 3830SOL    HW123123   2.773   3.658   4.940  0.8614 -0.3171  0.5600
 3830SOL    HW223124   2.768   3.524   4.886 -2.6600  0.3278 -0.8795
 3831SOL     OW23125   1.669   3.230  14.675 -0.0774  0.7079  0.2745
 3831SOL    HW123126   1.602   3.164  14.657  1.8043 -1.2899  0.6342
 3831SOL    HW223127   1.630   3.285  14.743 -0.4309  3.8513 -2.4686
 3832SOL     OW23128   4.004   4.709   8.515 -0.3824 -0.2792  0.5013
 3832SOL    HW123129   4.079   4.695   8.572  0.0989 -0.2327 -0.1219
 3832SOL    HW223130   4.050   0.014   8.439 -0.0366  1.5413  1.6075
 3833SOL     OW23131   2.590   2.313   7.225  0.2526  0.3744  0.5911
 3833SOL    HW123132   2.549   2.317   7.311  0.2579 -0.6056  0.6346
 3833SOL    HW223133   2.610   2.404   7.203 -1.8557  0.7518  0.2867
 3834SOL     OW23134   0.403   1.827   2.040 -0.3397 -0.2362 -0.0617
 3834SOL    HW123135   0.373   1.843   1.951 -3.4814  1.8427  1.3389
 3834SOL    HW223136   0.328   1.788   2.086  0.7452 -1.4407  0.6751
 3835SOL     OW23137   2.320   0.355   3.340  0.2194 -0.0560 -0.2211
 3835SOL    HW123138   2.400   0.359   3.288  0.4867  0.1219  0.2003
 3835SOL    HW223139   2.355   0.283   3.394  2.6620  1.0511 -0.2927
 3836SOL     OW23140   3.141   3.478  10.831  0.3928 -0.3471  0.1483
 3836SOL    HW123141   3.223   3.527  10.825  0.4189 -0.5286 -0.9863
 3836SOL    HW223142   3.133   3.471  10.926 -0.0478  0.1517  0.1444
 3837SOL     OW23143   1.201   2.794   7.789  0.1935 -0.0716  0.1283
 3837SOL    HW123144   1.180   2.706   7.821  1.0812  0.4141  2.0841
 3837SOL    HW223145   1.181   2.860   7.855 -1.5766 -2.3646  1.8926
 3838SOL     OW23146   3.601   2.695   6.387 -0.0575 -0.4467  0.3370
 3838SOL    HW123147   3.669   2.630   6.370 -1.1692 -1.6099  0.2967
 3838SOL    HW223148   3.639   2.775   6.351 -1.2508 -0.5933 -1.2763
 3839SOL     OW23149   1.274   4.055   7.177  0.2681  0.0481 -0.2455
 3839SOL    HW123150   1.196   4.109   7.170  0.4287 -0.0395 -2.7157
 3839SOL    HW223151   1.335   4.125   7.201  0.7145 -0.4716  0.1577
 3840SOL     OW23152   1.339   4.209  12.381  0.5323 -0.5294  0.6531
 3840SOL    HW123153   1.350   4.221  12.476  1.6912  1.8901  0.2137
 3840SOL    HW223154   1.282   4.282  12.359  0.4917 -0.7690 -0.0365
 3841SOL     OW23155   3.094   0.286   6.452  0.1464 -1.2361  0.6985
 3841SOL    HW123156   3.097   0.243   6.366 -2.2332  0.2005 -0.0975
 3841SOL    HW223157   2.999   0.289   6.449  0.2976  1.3890 -1.3093
 3842SOL     OW23158   4.588   3.935  13.030  0.0531  0.2015 -0.1195
 3842SOL    HW123159   4.640   3.956  12.952  1.0806  0.9274  0.7528
 3842SOL    HW223160   4.621   3.998  13.094  1.9776  1.7348 -2.6214
 3843SOL     OW23161   1.310   0.533   2.900 -0.5562  0.3399 -0.7356
 3843SOL    HW123162   1.399   0.560   2.923 -0.5501 -0.7151  0.4954
 3843SOL    HW223163   1.337   0.466   2.837  3.5028  0.1798  1.1688
 3844SOL     OW23164   0.561   2.570   6.759  0.2046  0.0844  0.2106
 3844SOL    HW123165   0.477   2.528   6.743 -1.4430  4.3102 -2.2171
 3844SOL    HW223166   0.531   2.661   6.758  0.3987  0.1725  2.4648
 3845SOL     OW23167   2.118   2.643   9.373  0.0313 -0.3038  0.2942
 3845SOL    HW123168   2.148   2.732   9.354 -0.5120 -0.2517 -0.3206
 3845SOL    HW223169   2.032   2.654   9.333  0.5706 -0.7099 -0.9715
 3846SOL     OW23170   2.814   2.392  16.100 -0.1553  0.2153  0.0233
 3846SOL    HW123171   2.802   2.312  16.048 -1.4317 -0.6922  1.6723
 3846SOL    HW223172   2.737   2.446  16.082 -1.2943 -1.2752  0.4491
 3847SOL     OW23173   3.747   1.213  16.719 -0.4841 -0.1914 -0.3326
 3847SOL    HW123174   3.684   1.142  16.726 -1.4232  0.4338 -2.4742
 3847SOL    HW223175   3.707   1.275  16.781 -0.1687 -0.9676  0.6373
 3848SOL     OW23176   0.837   3.526   3.618 -0.1385  0.4785  0.1192
 3848SOL    HW123177   0.750   3.555   3.590 -1.1481 -0.6457  2.1126
 3848SOL    HW223178   0.838   3.444   3.569  1.0077  0.7638 -0.3383
 3849SOL     OW23179   4.030   1.241   3.401  0.2687  0.2878  0.6560
 3849SOL    HW123180   4.046   1.289   3.482  1.0044  0.8371  0.1946
 3849SOL    HW223181   4.061   1.153   3.420  0.2514  0.4098  1.2376
 3850SOL     OW23182   4.370   0.326   9.321 -0.7069 -0.0207 -0.4467
 3850SOL    HW123183   4.378   0.381   9.399  1.4785  0.8591 -1.2924
 3850SOL    HW223184   4.422   0.374   9.257 -0.8588  0.0503 -0.5183
 3851SOL     OW23185   2.767   2.334   4.560 -0.2058 -0.1758  0.2249
 3851SOL    HW123186   2.785   2.314   4.652  1.5819  1.5907  0.2447
 3851SOL    HW223187   2.707   2.407   4.573 -0.7933 -0.6861  0.4032
 3852SOL     OW23188   2.944   2.936  15.868 -0.2127  0.0908 -0.0494
 3852SOL    HW123189   2.978   2.955  15.780 -1.7967 -0.9170 -0.8855
 3852SOL    HW223190   2.865   2.991  15.866 -0.4096 -0.1654  0.9859
 3853SOL     OW23191   0.090   1.358   4.983 -0.3779 -0.6233  0.3056
 3853SOL    HW123192   0.044   1.442   4.990  1.5536  0.6565 -2.5464
 3853SOL    HW223193   0.017   1.300   5.006 -0.6516 -0.1902  0.5439
 3854SOL     OW23194   4.132   3.589   6.867  0.2632 -0.7072 -0.1857
 3854SOL    HW123195   4.075   3.639   6.808 -2.7176 -1.8267  1.7844
 3854SOL    HW223196   4.101   3.611   6.954 -2.2675 -0.8898 -1.0434
 3855SOL     OW23197   4.514   1.861   5.544  0.2519 -0.1075  0.4933
 3855SOL    HW123198   4.562   1.785   5.512  0.8879  0.0549  1.0678
 3855SOL    HW223199   4.422   1.851   5.520  0.9620  1.4644 -2.7500
 3856SOL     OW23200   3.077   2.460  15.987 -0.0502  0.2901 -0.6136
 3856SOL    HW123201   2.992   2.418  15.976 -0.3305  0.4491  0.8847
 3856SOL    HW223202   3.052   2.525  16.053  0.7065 -0.6659  0.6343
 3857SOL     OW23203   2.954   1.065   2.584 -0.3823  0.5049 -0.2055
 3857SOL    HW123204   3.000   0.984   2.560  0.3860 -0.1456  3.4602
 3857SOL    HW223205   3.000   1.132   2.535 -2.3745  1.5723 -0.6388
 3858SOL     OW23206   2.957   2.768   1.598  0.3481 -0.0113 -0.1600
 3858SOL    HW123207   2.991   2.699   1.542 -0.6464 -0.8334  0.2499
 3858SOL    HW223208   3.039   2.817   1.604  0.5703 -0.4192  0.1114
 3859SOL     OW23209   2.916   1.308   7.722 -0.2217 -0.4979 -0.2613
 3859SOL    HW123210   2.879   1.363   7.792 -2.1473  0.7871 -2.2961
 3859SOL    HW223211   2.940   1.233   7.776 -0.6945  0.6941  1.6229
 3860SOL     OW23212   0.934   1.691   6.839 -0.2176 -0.2901  0.0166
 3860SOL    HW123213   0.843   1.711   6.814 -0.5583 -0.1107  1.3501
 3860SOL    HW223214   0.943   1.599   6.816  1.2342 -0.4424  1.2164
 3861SOL     OW23215   2.398   4.517   4.936  0.3228 -0.2407  0.1169
 3861SOL    HW123216   2.471   4.458   4.914  0.4822 -0.2276  0.6068
 3861SOL    HW223217   2.331   4.451   4.954 -1.0691  0.9837 -0.6275
 3862SOL     OW23218   2.262   2.976   8.271 -0.2470 -0.1656 -0.4040
 3862SOL    HW123219   2.340   2.938   8.311  0.8560  1.8300 -0.6791
 3862SOL    HW223220   2.288   3.067   8.262  0.5137 -0.3625 -0.1703
 3863SOL     OW23221   0.658   4.652   2.346 -0.5659 -0.3655  0.5367
 3863SOL    HW123222   0.595   4.667   2.275  0.6677  1.4473 -0.1859
 3863SOL    HW223223   0.736   4.696   2.310 -0.2093 -0.4483  1.2178
 3864SOL     OW23224   4.558   0.609  16.331  0.3410  0.0637  0.5506
 3864SOL    HW123225   4.495   0.563  16.276 -0.3224  0.9221  0.5835
 3864SOL    HW223226   4.579   0.537  16.390 -0.1323  1.0012  1.8553
 3865SOL     OW23227   4.719   0.715   3.340  0.1511 -0.3044  0.1035
 3865SOL    HW123228   4.718   0.795   3.286 -2.0581 -2.4267 -2.9785
 3865SOL    HW223229   0.061   0.730   3.398  0.4033  2.7927 -1.0043
 3866SOL     OW23230   2.586   4.529   4.396 -0.3863  0.0855  0.1001
 3866SOL    HW123231   2.579   4.590   4.469  0.1381  0.7918 -0.4389
 3866SOL    HW223232   2.575   4.447   4.445 -1.7506 -0.2082 -0.6962
 3867SOL     OW23233   3.824   0.867   5.647 -0.0124 -0.4697  0.3744
 3867SOL    HW123234   3.834   0.773   5.632 -0.2156 -0.4904  0.3615
 3867SOL    HW223235   3.779   0.868   5.732 -1.5412  0.7525 -0.4333
 3868SOL     OW23236   3.746   0.358   2.521  0.3546  0.2855 -0.0164
 3868SOL    HW123237   3.830   0.368   2.477  1.4459  1.2388  2.2526
 3868SOL    HW223238   3.685   0.308   2.467 -0.2196  0.9375  0.0242
 3869SOL     OW23239   0.910   3.539  10.370  0.2642  0.2231 -0.4735
 3869SOL    HW123240   0.824   3.510  10.339  0.7373 -0.3951 -1.2027
 3869SOL    HW223241   0.879   3.628  10.387 -0.2871 -0.3421  1.4371
 3870SOL     OW23242   1.835   0.570   4.208 -0.0888 -0.0262 -0.2997
 3870SOL    HW123243   1.908   0.612   4.254 -1.2358  1.1494  0.4765
 3870SOL    HW223244   1.803   0.647   4.160 -1.2773 -1.0716 -1.1756
 3871SOL     OW23245   2.582   3.982   5.962 -0.4328 -0.6012 -0.2043
 3871SOL    HW123246   2.495   4.004   5.996 -1.1177 -0.3493 -2.1733
 3871SOL    HW223247   2.634   3.976   6.043 -1.4384  2.2705  0.6667
 3872SOL     OW23248   0.490   3.384   7.163 -0.6646  0.7855  0.5533
 3872SOL    HW123249   0.544   3.429   7.098  0.8154 -0.7089  0.7417
 3872SOL    HW223250   0.553   3.356   7.230  1.1056  0.0207 -1.4297
 3873SOL     OW23251   0.213   2.054   5.159 -0.2520 -0.6952  0.1470
 3873SOL    HW123252   0.119   2.070   5.169  0.1116  1.7291 -0.2697
 3873SOL    HW223253   0.238   2.023   5.246 -0.9391  3.4912  1.8315
 3874SOL     OW23254   0.143   4.222   6.583 -0.2782 -0.2621 -0.0490
 3874SOL    HW123255   0.169   4.157   6.518 -0.5380 -1.2902  0.8734
 3874SOL    HW223256   0.216   4.211   6.644 -0.8869 -0.9504  0.5535
 3875SOL     OW23257   2.764   1.068  14.061 -0.2429  0.0568  0.4113
 3875SOL    HW123258   2.724   1.154  14.070  1.1918  0.9999 -2.2750
 3875SOL    HW223259   2.854   1.078  14.093 -0.1473 -0.2038  0.2219
 3876SOL     OW23260   2.652   4.335   2.229  0.6448 -0.3897  0.1545
 3876SOL    HW123261   2.581   4.354   2.291 -0.3349 -0.0919 -1.0453
 3876SOL    HW223262   2.595   4.288   2.167 -0.0302  0.3533  0.2156
 3877SOL     OW23263   1.170   0.854  16.604 -0.4723 -0.3637 -0.0621
 3877SOL    HW123264   1.192   0.931  16.552  0.7209 -1.0860 -0.6350
 3877SOL    HW223265   1.209   0.881  16.687  0.3773 -2.1185  0.1169
 3878SOL     OW23266   0.728   2.678   7.637 -0.3225 -0.0139  0.4180
 3878SOL    HW123267   0.668   2.703   7.567 -0.5482  2.1577  1.3874
 3878SOL    HW223268   0.679   2.709   7.712 -1.0247 -0.5561  0.1885
 3879SOL     OW23269   4.605   1.519   0.843  0.0923 -0.8433 -0.4190
 3879SOL    HW123270   4.661   1.581   0.891  0.4264 -0.2456 -1.5868
 3879SOL    HW223271   4.558   1.575   0.781  1.5585 -0.5360 -1.2335
 3880SOL     OW23272   1.546   0.155   8.870 -0.4991  0.2113 -0.2404
 3880SOL    HW123273   1.588   0.235   8.900  1.2945 -1.3959  1.5931
 3880SOL    HW223274   1.464   0.190   8.836  0.4849  1.2778 -1.5028
 3881SOL     OW23275   4.004   0.012   2.756  0.5250 -0.0422  0.1044
 3881SOL    HW123276   4.022   0.105   2.761 -1.1115  0.1909  1.6506
 3881SOL    HW223277   4.025   4.728   2.848 -0.0811  1.5087  0.5107
 3882SOL     OW23278   0.398   3.310  12.347 -0.4215  0.0650  0.4997
 3882SOL    HW123279   0.398   3.225  12.390  2.1396  0.4551  1.2928
 3882SOL    HW223280   0.489   3.314  12.316 -0.5757 -2.7502 -0.3488
 3883SOL     OW23281   3.226   0.906   7.543  0.2317  0.0852 -0.2736
 3883SOL    HW123282   3.208   0.813   7.557  0.0887 -0.2550 -2.8462
 3883SOL    HW223283   3.283   0.933   7.615  0.8099  0.0057 -0.7031
 3884SOL     OW23284   4.021   2.308   4.538 -0.5280  0.5553 -0.3895
 3884SOL    HW123285   4.055   2.223   4.509  1.4949  1.1919  0.1549
 3884SOL    HW223286   4.017   2.360   4.457  1.5377  1.2275 -0.0635
 3885SOL     OW23287   3.515   4.074   5.647 -0.4204 -0.4469  0.0211
 3885SOL    HW123288   3.437   4.081   5.591 -1.0814 -1.0656  0.8568
 3885SOL    HW223289   3.498   3.990   5.691  1.3726  0.8762  3.2083
 3886SOL     OW23290   3.115   1.946   0.838 -0.1075  0.4120 -0.2053
 3886SOL    HW123291   3.209   1.934   0.825  0.2266  1.0179  1.6239
 3886SOL    HW223292   3.115   1.925   0.932 -1.8578 -0.1092 -0.3165
 3887SOL     OW23293   2.359   4.656   8.961 -0.1518 -0.4966  0.3734
 3887SOL    HW123294   2.275   4.619   8.989  0.2238 -1.9782 -0.4102
 3887SOL    HW223295   2.417   4.583   8.984 -0.7226 -0.3143  2.3725
 3888SOL     OW23296   3.108   3.088   4.014  0.1539  0.3714 -0.1566
 3888SOL    HW123297   3.050   3.021   4.051 -1.0052  1.9302  0.8442
 3888SOL    HW223298   3.141   3.039   3.938 -0.5330 -1.2343  0.5905
 3889SOL     OW23299   0.302   4.677   7.439  0.3607 -0.5252  0.2184
 3889SOL    HW123300   0.274   4.588   7.417  0.0895 -0.6386  1.0249
 3889SOL    HW223301   0.353   4.669   7.520 -1.2207  1.2676  1.4034
 3890SOL     OW23302   0.099   0.256   3.035 -0.2893  0.4372 -0.2439
 3890SOL    HW123303   0.192   0.276   3.022  0.1519 -0.5623  1.4391
 3890SOL    HW223304   0.089   0.276   3.128  0.3047 -1.4213  0.2181
 3891SOL     OW23305   2.374   1.660   3.831 -0.3702 -0.4202  0.5475
 3891SOL    HW123306   2.384   1.734   3.771 -2.1910 -1.2910 -0.8367
 3891SOL    HW223307   2.279   1.661   3.823 -0.2353  0.7376 -0.7670
 3892SOL     OW23308   1.442   4.249   7.275 -0.2409 -0.4476  0.2111
 3892SOL    HW123309   1.501   4.209   7.339 -1.1682 -0.8614  0.8049
 3892SOL    HW223310   1.483   4.225   7.192  0.1532  0.9604 -0.0015
 3893SOL     OW23311   0.109   1.792  13.436 -0.1796 -0.6524 -0.3906
 3893SOL    HW123312   0.037   1.774  13.375  0.2729 -1.7174 -0.6197
 3893SOL    HW223313   0.157   1.710  13.428  1.7789  0.5672 -0.9934
 3894SOL     OW23314   2.220   2.099   8.914  0.1745 -0.3143 -0.1443
 3894SOL    HW123315   2.178   2.036   8.973 -2.2974  0.2732 -1.2709
 3894SOL    HW223316   2.245   2.174   8.967 -1.9594 -0.7758  1.4943
 3895SOL     OW23317   1.037   0.201   4.473  0.8219 -0.2294  0.0599
 3895SOL    HW123318   1.124   0.240   4.474  1.0649 -0.7782  0.6694
 3895SOL    HW223319   1.048   0.161   4.387 -2.1387  0.8859 -0.8558
 3896SOL     OW23320   0.835   3.066   4.070 -0.0665  0.3901 -0.5111
 3896SOL    HW123321   0.755   3.090   4.023 -1.7221 -1.9647  1.0941
 3896SOL    HW223322   0.815   3.087   4.162  0.9464  0.1109 -0.2229
 3897SOL     OW23323   1.351   3.112  16.495  0.2551 -0.0207  0.4080
 3897SOL    HW123324   1.256   3.118  16.490  0.3935  0.8370 -1.2529
 3897SOL    HW223325   1.380   3.203  16.489  1.1768 -0.4417 -1.5577
 3898SOL     OW23326   1.390   1.139   8.734 -0.5992 -0.7215 -0.2261
 3898SOL    HW123327   1.436   1.184   8.663  1.4209  0.0721  1.5655
 3898SOL    HW223328   1.457   1.148   8.802 -0.1153 -2.0004 -0.5389
 3899SOL     OW23329   3.907   3.264   6.127 -0.3838 -0.4232 -0.4365
 3899SOL    HW123330   3.979   3.322   6.154 -0.1748 -2.4110  3.1615
 3899SOL    HW223331   3.951   3.194   6.079  0.0720  0.1251 -0.8340
 3900SOL     OW23332   0.256   1.540  13.398  0.3282  0.1643  0.7831
 3900SOL    HW123333   0.218   1.510  13.315  0.8881  1.6831 -0.0319
 3900SOL    HW223334   0.322   1.473  13.418  0.2812  0.0387  0.5216
 3901SOL     OW23335   3.923   4.013   8.215  0.1910 -0.0201  0.1881
 3901SOL    HW123336   3.848   3.979   8.264 -0.0186  0.5156  0.2314
 3901SOL    HW223337   3.992   4.018   8.281 -1.1853  2.5752  1.4212
 3902SOL     OW23338   0.767   3.669   2.366  0.7565 -0.1401  0.6272
 3902SOL    HW123339   0.835   3.633   2.422 -0.2217 -0.6294  1.4993
 3902SOL    HW223340   0.749   3.593   2.310  0.3876  1.1971 -1.0886
 3903SOL     OW23341   0.859   2.494   8.539  0.1018  0.1180 -0.3838
 3903SOL    HW123342   0.840   2.403   8.517 -2.8205  0.7576 -0.5236
 3903SOL    HW223343   0.927   2.480   8.605  1.8377  0.5419 -2.0850
 3904SOL     OW23344   3.618   3.481   2.444  0.3750  0.0972 -0.0783
 3904SOL    HW123345   3.689   3.463   2.383 -1.3542 -2.3491 -1.3684
 3904SOL    HW223346   3.606   3.573   2.420  2.0729  0.2321 -0.4290
 3905SOL     OW23347   2.683   1.442   6.966 -0.2107  0.1946  0.0448
 3905SOL    HW123348   2.752   1.393   7.009 -1.5121 -1.4430  0.2689
 3905SOL    HW223349   2.688   1.413   6.875 -0.3729  1.6142 -0.4204
 3906SOL     OW23350   3.754   2.949   5.137 -0.5822 -0.2672 -0.2003
 3906SOL    HW123351   3.757   2.926   5.230  1.0904  2.2563  0.3719
 3906SOL    HW223352   3.665   2.974   5.111 -0.8240 -1.0211 -0.0914
 3907SOL     OW23353   0.475   4.367   5.888  0.1425  0.6850  0.1461
 3907SOL    HW123354   0.468   4.335   5.798 -1.6620 -1.2530  0.9716
 3907SOL    HW223355   0.411   4.313   5.933  0.4234  1.3444  1.3445
 3908SOL     OW23356   1.660   2.794   4.113  0.2006 -0.0884  0.2781
 3908SOL    HW123357   1.707   2.878   4.114  0.1455 -0.0633  0.6695
 3908SOL    HW223358   1.709   2.748   4.044 -0.1832  0.8678 -0.6302
 3909SOL     OW23359   4.028   1.357   2.796 -0.6466 -0.1779  0.0761
 3909SOL    HW123360   3.998   1.417   2.728 -0.9182  1.1248  1.3631
 3909SOL    HW223361   4.075   1.302   2.733 -1.0703  0.4361 -0.7620
 3910SOL     OW23362   2.047   3.145   8.804 -0.4220  0.0084 -0.2718
 3910SOL    HW123363   1.965   3.191   8.784 -1.0585 -0.5368  1.0779
 3910SOL    HW223364   2.100   3.207   8.853  0.7782 -0.4865 -0.9576
 3911SOL     OW23365   3.052   2.337   3.389  0.1969 -0.0346 -0.7596
 3911SOL    HW123366   3.054   2.432   3.379 -0.9030 -0.1092 -1.7521
 3911SOL    HW223367   3.073   2.332   3.482 -3.5794  0.7240  0.1411
 3912SOL     OW23368   1.738   2.283   6.049  0.3960  0.1133 -0.5293
 3912SOL    HW123369   1.807   2.266   5.985 -0.9315  1.1413 -2.2368
 3912SOL    HW223370   1.662   2.303   5.994  0.2315 -1.8117 -0.9951
 3913SOL     OW23371   2.558   3.837   1.853  0.6621  0.0272  0.3307
 3913SOL    HW123372   2.622   3.901   1.883  0.2478 -0.2271  1.7225
 3913SOL    HW223373   2.491   3.900   1.827 -1.0713 -1.2921  1.6680
 3914SOL     OW23374   1.631   2.142  12.269 -0.3396  0.1021 -0.0927
 3914SOL    HW123375   1.653   2.065  12.322 -0.2991  0.2179  0.0581
 3914SOL    HW223376   1.688   2.114  12.198  3.4856 -0.9537  3.4133
 3915SOL     OW23377   3.859   0.412  14.633  0.1731  0.2561  0.6642
 3915SOL    HW123378   3.932   0.368  14.590 -1.2012 -1.1275 -0.2590
 3915SOL    HW223379   3.913   0.443  14.706  0.7284  1.2267 -0.1654
 3916SOL     OW23380   2.318   4.093   2.772  0.5307 -0.4911  0.5801
 3916SOL    HW123381   2.348   4.181   2.748  0.7600 -0.5850  0.5234
 3916SOL    HW223382   2.392   4.076   2.830  0.1166  2.9134  2.1350
 3917SOL     OW23383   0.328   0.702   0.362 -0.0486 -0.3501  0.1767
 3917SOL    HW123384   0.251   0.721   0.415 -0.5834 -0.6654 -0.4820
 3917SOL    HW223385   0.388   0.652   0.417  0.6610  1.3567  0.9530
 3918SOL     OW23386   2.461   4.103   4.321 -0.3956 -0.1005  0.5034
 3918SOL    HW123387   2.390   4.109   4.385 -0.1251  1.0208  0.6931
 3918SOL    HW223388   2.484   4.010   4.332  2.2914  0.6792  1.3661
 3919SOL     OW23389   0.261   0.274   1.551  0.3830  0.5021 -0.2217
 3919SOL    HW123390   0.297   0.197   1.508  1.2915  0.1623  1.1444
 3919SOL    HW223391   0.182   0.234   1.586  0.2577  1.0542  0.1321
 3920SOL     OW23392   3.172   2.292  17.567 -0.0218  0.3588  0.3898
 3920SOL    HW123393   3.184   2.211  17.617 -1.4136 -0.3942 -0.4846
 3920SOL    HW223394   3.090   2.317  17.611 -1.3081 -2.2807 -0.4680
 3921SOL     OW23395   4.256   3.101   4.936  0.0920 -0.2667  0.2883
 3921SOL    HW123396   4.229   3.090   4.845  0.3843 -2.9362  0.5247
 3921SOL    HW223397   4.326   3.037   4.931  1.5736  1.4980 -1.6735
 3922SOL     OW23398   1.010   0.552  13.562  0.0371  0.6118  0.2918
 3922SOL    HW123399   0.948   0.556  13.489  0.6475  0.7404 -0.2183
 3922SOL    HW223400   0.956   0.576  13.637 -0.1611 -0.0283  0.3529
 3923SOL     OW23401   2.227   0.690  11.450 -0.0571 -0.1945  0.2654
 3923SOL    HW123402   2.218   0.784  11.465  0.7012  0.1535 -1.4455
 3923SOL    HW223403   2.136   0.660  11.443 -0.2618  0.1870  1.2256
 3924SOL     OW23404   3.737   4.140   7.212  0.5034  0.2138  0.7081
 3924SOL    HW123405   3.791   4.082   7.266  0.7887 -0.3840 -0.2178
 3924SOL    HW223406   3.687   4.175   7.285  1.6824  1.7397  0.7908
 3925SOL     OW23407   3.028   2.526   7.394  0.2887  0.4066  0.2737
 3925SOL    HW123408   3.033   2.543   7.488  3.0501  0.9891  0.0041
 3925SOL    HW223409   3.062   2.437   7.399  1.9894  0.9809 -1.0769
 3926SOL     OW23410   1.601   2.152   8.620  0.4418 -0.3615 -0.0137
 3926SOL    HW123411   1.686   2.135   8.581  1.3446  0.4753  1.5814
 3926SOL    HW223412   1.550   2.155   8.539 -0.8135 -0.9398  0.7430
 3927SOL     OW23413   2.392   1.714   6.886  0.1153 -0.3562  0.0817
 3927SOL    HW123414   2.344   1.777   6.940 -1.7964 -1.8683  0.1572
 3927SOL    HW223415   2.376   1.626   6.920 -0.7285 -0.0227  0.5409
 3928SOL     OW23416   2.676   3.365   4.912 -0.4138 -0.1159  0.1325
 3928SOL    HW123417   2.680   3.300   4.982  1.1286  0.4701  0.5891
 3928SOL    HW223418   2.712   3.307   4.845 -0.8228 -0.6018  0.3392
 3929SOL     OW23419   1.442   3.863   2.761 -0.3260 -0.2811  0.7579
 3929SOL    HW123420   1.383   3.937   2.749 -1.5114 -1.4294 -0.4030
 3929SOL    HW223421   1.429   3.831   2.672  1.9478 -1.5502  0.8982
 3930SOL     OW23422   1.074   4.166  11.622 -0.4189 -0.4714 -0.3171
 3930SOL    HW123423   1.135   4.237  11.601 -2.3004  1.4470  0.7195
 3930SOL    HW223424   1.136   4.114  11.673 -0.0130 -1.1781 -1.5316
 3931SOL     OW23425   2.171   1.002   3.335 -0.0071 -0.6193  0.6035
 3931SOL    HW123426   2.095   1.012   3.393 -0.4005  0.7759 -0.1379
 3931SOL    HW223427   2.237   0.958   3.388 -0.1310  0.3453  1.5439
 3932SOL     OW23428   3.580   4.274   1.139  0.1999  0.1372  0.5418
 3932SOL    HW123429   3.515   4.323   1.189 -2.2646 -2.6133  0.0095
 3932SOL    HW223430   3.661   4.303   1.180  0.6309  0.0076 -0.2080
 3933SOL     OW23431   1.740   0.092   7.163 -0.2328 -0.3354 -0.0444
 3933SOL    HW123432   1.830   0.115   7.140 -0.2620 -0.1966 -0.0222
 3933SOL    HW223433   1.718   0.158   7.229  1.5248  0.2773 -0.0765
 3934SOL     OW23434   3.972   1.313  13.833  0.0588  0.2002  0.1828
 3934SOL    HW123435   3.991   1.286  13.922 -2.7983  0.7152  0.9356
 3934SOL    HW223436   4.024   1.249  13.784 -1.0713 -0.3477 -0.3126
 3935SOL     OW23437   2.482   0.169   9.041 -0.2824 -0.3031  0.4134
 3935SOL    HW123438   2.484   0.075   9.025 -0.2668 -0.1508 -0.4889
 3935SOL    HW223439   2.517   0.173   9.131  1.5146 -1.8396 -0.2138
 3936SOL     OW23440   1.741   1.282  11.456  0.0594  0.0261 -0.4698
 3936SOL    HW123441   1.766   1.363  11.410  0.9391 -0.4462 -0.8150
 3936SOL    HW223442   1.664   1.301  11.510  1.3338 -1.4348  1.8508
 3937SOL     OW23443   2.373   4.712   7.003 -0.2881 -0.4751 -0.2496
 3937SOL    HW123444   2.396   4.631   7.047 -0.5297 -0.5518 -0.2636
 3937SOL    HW223445   2.329   4.680   6.925  1.1481 -1.6085 -0.5677
 3938SOL     OW23446   4.376   2.513   4.318 -0.0299  0.2561 -0.1100
 3938SOL    HW123447   4.346   2.558   4.397 -1.6747  0.0856 -0.6298
 3938SOL    HW223448   4.439   2.453   4.358  0.1704  1.5750  1.5295
 3939SOL     OW23449   0.408   4.501   5.256  0.4491  0.1424 -0.0975
 3939SOL    HW123450   0.437   4.467   5.172  0.0135 -2.6392  0.8976
 3939SOL    HW223451   0.469   4.475   5.325 -0.8703  0.9088  1.3736
 3940SOL     OW23452   0.955   0.588  12.653  0.0980  0.0076  0.2315
 3940SOL    HW123453   1.043   0.573  12.618  0.0574 -1.3581  0.7161
 3940SOL    HW223454   0.953   0.683  12.664 -0.9000  0.0661 -0.4472
 3941SOL     OW23455   0.919   3.076  14.222 -0.2311  0.4445 -0.2718
 3941SOL    HW123456   0.957   3.066  14.309 -0.9403 -0.9318 -0.1094
 3941SOL    HW223457   0.975   3.015  14.174  1.8992  1.8524  0.4283
 3942SOL     OW23458   1.448   2.033  13.209 -0.4617  0.0464 -0.4167
 3942SOL    HW123459   1.467   1.993  13.124  1.4593 -2.5285  1.2623
 3942SOL    HW223460   1.458   1.952  13.257 -0.7769 -0.1196 -0.6341
 3943SOL     OW23461   4.582   0.842   4.233  0.1676  0.3754  0.0929
 3943SOL    HW123462   4.577   0.885   4.318 -2.1902  0.8559 -0.2770
 3943SOL    HW223463   4.493   0.866   4.206  0.5562 -0.9679 -2.3223
 3944SOL     OW23464   4.042   1.444   4.474 -0.6157  0.3551  0.4969
 3944SOL    HW123465   3.976   1.439   4.405 -0.7507 -1.8126  0.8103
 3944SOL    HW223466   3.993   1.391   4.537  0.1554  0.4938  1.2207
 3945SOL     OW23467   4.247   4.041   1.899 -0.2895  0.2123  0.3817
 3945SOL    HW123468   4.283   4.082   1.978 -0.8542  1.5556 -0.0536
 3945SOL    HW223469   4.257   4.109   1.833  0.4485  1.1849  1.4979
 3946SOL     OW23470   3.442   1.576   2.903  0.4631 -0.2096 -0.0976
 3946SOL    HW123471   3.445   1.517   2.828 -1.7260  0.9733 -1.1068
 3946SOL    HW223472   3.504   1.530   2.960  0.8107  0.7290  0.2778
 3947SOL     OW23473   2.208   1.132   1.108 -0.2878  0.2948 -0.0849
 3947SOL    HW123474   2.286   1.152   1.160  0.4112 -3.3994  0.3155
 3947SOL    HW223475   2.197   1.040   1.132 -2.0756  0.3213 -0.8057
 3948SOL     OW23476   3.515   2.176  10.193  0.2149 -0.0655  0.0195
 3948SOL    HW123477   3.476   2.170  10.280  0.9340  2.6804  0.5227
 3948SOL    HW223478   3.512   2.272  10.184 -0.5641 -0.1466 -0.6519
 3949SOL     OW23479   2.568   0.078  17.680 -0.1188 -0.2781 -0.1802
 3949SOL    HW123480   2.622   0.070   0.031 -0.3779  1.4244  0.1737
 3949SOL    HW223481   2.623   0.131  17.623 -0.1124  1.7009  1.6783
 3950SOL     OW23482   4.566   4.233   5.044  0.1672 -0.9307  0.3166
 3950SOL    HW123483   4.480   4.270   5.025  1.1476  1.0867 -0.2255
 3950SOL    HW223484   4.601   4.241   4.956 -1.1865  1.7192  0.0046
 3951SOL     OW23485   0.581   3.502   4.990 -0.2471  0.3732 -0.0515
 3951SOL    HW123486   0.535   3.496   5.074  0.5769 -2.4718  0.1966
 3951SOL    HW223487   0.625   3.417   4.985 -0.7061  0.0611  1.2150
 3952SOL     OW23488   1.081   3.128   4.911 -0.5198 -0.1331  0.5358
 3952SOL    HW123489   1.063   3.209   4.864  0.2304 -0.2277  0.0910
 3952SOL    HW223490   1.017   3.072   4.867 -0.8858  1.5122 -1.0098
 3953SOL     OW23491   0.817   4.485   8.163  0.3255 -0.0311  0.4668
 3953SOL    HW123492   0.740   4.539   8.180 -0.7157 -1.1846 -0.5761
 3953SOL    HW223493   0.820   4.482   8.067  0.7107  1.0164  0.4403
 3954SOL     OW23494   0.722   2.772   7.209 -0.3244 -0.3578  0.3569
 3954SOL    HW123495   0.691   2.829   7.279  1.4787 -0.7310  1.4483
 3954SOL    HW223496   0.811   2.749   7.237 -1.4416 -2.7177  2.0345
 3955SOL     OW23497   0.352   0.192  10.808  0.8510  0.1140 -0.1096
 3955SOL    HW123498   0.302   0.162  10.883  0.7554  1.1304  0.2407
 3955SOL    HW223499   0.443   0.182  10.837  1.4492  0.0664 -2.0123
 3956SOL     OW23500   0.871   2.407   2.038  0.0667  0.5127  0.2829
 3956SOL    HW123501   0.899   2.317   2.018 -3.1684 -0.5266  0.4116
 3956SOL    HW223502   0.784   2.398   2.076  0.9104  1.7900  2.5157
 3957SOL     OW23503   4.526   3.314  10.915 -0.3036 -0.6782 -0.2354
 3957SOL    HW123504   4.437   3.278  10.911 -0.4660  0.0387 -3.0331
 3957SOL    HW223505   4.521   3.396  10.865 -0.9394 -0.9238 -0.5727
 3958SOL     OW23506   0.837   4.237   7.677 -0.0778 -0.0404  0.1719
 3958SOL    HW123507   0.827   4.251   7.583  0.1753 -0.7758  0.0292
 3958SOL    HW223508   0.800   4.148   7.684 -1.6494  0.5467 -0.7411
 3959SOL     OW23509   1.625   2.920   4.939  0.2714  0.3930  0.2899
 3959SOL    HW123510   1.565   2.944   5.010  0.8054  1.2024  0.4670
 3959SOL    HW223511   1.642   2.827   4.956  0.5372  0.6174  1.2431
 3960SOL     OW23512   1.431   3.402   3.655  0.0340  0.2523 -0.6233
 3960SOL    HW123513   1.526   3.393   3.663  0.0068  1.2144  0.6767
 3960SOL    HW223514   1.389   3.365   3.733 -0.2914 -0.9794 -1.3835
 3961SOL     OW23515   2.879   3.665   8.595 -1.2996  0.9567 -0.8906
 3961SOL    HW123516   2.858   3.686   8.686 -0.6793 -1.0013 -0.2981
 3961SOL    HW223517   2.907   3.573   8.603  0.5066  1.5045 -0.7938
 3962SOL     OW23518   3.557   0.153  11.471  0.2955  0.7512  0.0898
 3962SOL    HW123519   3.641   0.180  11.435  1.9019 -0.4157  2.9420
 3962SOL    HW223520   3.579   0.155  11.564 -2.7069  0.6646  0.8141
 3963SOL     OW23521   0.691   3.730  10.516 -0.8495 -0.0402  0.2839
 3963SOL    HW123522   0.617   3.763  10.464  0.2996 -1.2569 -2.1001
 3963SOL    HW223523   0.725   3.802  10.570  1.0912 -1.0779  0.4347
 3964SOL     OW23524   4.355   0.402   1.813  0.2407 -0.6959  0.3051
 3964SOL    HW123525   4.289   0.413   1.744 -0.8743  2.1235  1.7848
 3964SOL    HW223526   4.355   0.486   1.859 -1.4283 -1.8314  2.3473
 3965SOL     OW23527   2.529   2.344  10.540  0.1963 -0.0504  0.1129
 3965SOL    HW123528   2.454   2.284  10.537  1.3164 -1.3910 -1.2326
 3965SOL    HW223529   2.578   2.328  10.459  0.4135 -0.6309  0.3588
 3966SOL     OW23530   4.443   3.401  12.094  0.2714  0.0028  0.3493
 3966SOL    HW123531   4.470   3.491  12.075 -0.3834 -0.0720 -0.9074
 3966SOL    HW223532   4.517   3.353  12.057  2.4581  2.8384  1.0947
 3967SOL     OW23533   0.239   4.610  13.542  0.3327 -0.0463 -0.5756
 3967SOL    HW123534   0.172   4.652  13.596  1.0300  0.8598 -0.4220
 3967SOL    HW223535   0.285   4.544  13.594 -0.4217 -1.1158 -1.2804
 3968SOL     OW23536   2.456   0.806  11.233 -0.1374 -0.3845  0.3535
 3968SOL    HW123537   2.490   0.838  11.150  1.2368 -2.0679  0.2596
 3968SOL    HW223538   2.514   0.731  11.246  0.2876  0.3783  2.8053
 3969SOL     OW23539   0.870   3.797   6.014  0.1290  0.2626 -0.0104
 3969SOL    HW123540   0.808   3.725   6.010  1.0694 -0.4791 -1.1376
 3969SOL    HW223541   0.921   3.789   5.933 -0.8423  0.8032 -0.6777
 3970SOL     OW23542   2.587   3.031   5.329  0.2521  0.3256 -0.3434
 3970SOL    HW123543   2.546   2.962   5.380  1.0742 -1.2312 -1.8058
 3970SOL    HW223544   2.654   3.054   5.394 -1.8996  1.5569  1.4142
 3971SOL     OW23545   3.482   3.705   6.278 -0.4483  0.2083  0.2340
 3971SOL    HW123546   3.574   3.730   6.288 -0.2238 -0.9340  1.0023
 3971SOL    HW223547   3.485   3.613   6.250 -0.7327  0.8663 -1.9604
 3972SOL     OW23548   0.929   1.159   2.114  0.5606 -0.3439 -0.2143
 3972SOL    HW123549   0.914   1.065   2.128  0.8999 -0.0828  1.9182
 3972SOL    HW223550   0.925   1.164   2.019  0.9319  0.0041 -0.2109
 3973SOL     OW23551   1.803   1.604  15.580 -0.0051  0.0949  0.0707
 3973SOL    HW123552   1.762   1.523  15.611  1.5910 -0.9306 -0.4918
 3973SOL    HW223553   1.751   1.674  15.619  1.0760 -0.2313  2.0625
 3974SOL     OW23554   4.349   1.400   4.963  0.6787  0.0122  0.1673
 3974SOL    HW123555   4.313   1.315   4.941  0.8637  0.5241 -2.1347
 3974SOL    HW223556   4.356   1.449   4.881 -0.4989 -0.4078 -0.1842
 3975SOL     OW23557   0.792   1.747  16.505 -0.0599 -0.3877 -0.1491
 3975SOL    HW123558   0.875   1.776  16.543 -0.9318  1.4350  0.3466
 3975SOL    HW223559   0.768   1.831  16.468 -0.6222 -0.3711  0.2543
 3976SOL     OW23560   1.279   3.757   5.537  0.2308  0.7204  0.0042
 3976SOL    HW123561   1.263   3.663   5.526  3.0045  0.3236 -0.5191
 3976SOL    HW223562   1.351   3.761   5.599 -0.6784 -0.6818  1.1696
 3977SOL     OW23563   1.396   2.576   2.213 -0.2443 -0.3903 -0.0506
 3977SOL    HW123564   1.422   2.488   2.241  0.0705 -0.1731  0.3370
 3977SOL    HW223565   1.462   2.598   2.148 -0.8215  1.2724 -0.0744
 3978SOL     OW23566   0.095   2.807   7.939  0.6943 -0.0996 -0.2734
 3978SOL    HW123567   0.094   2.783   8.032 -2.2483 -0.5630 -0.4074
 3978SOL    HW223568   0.139   2.890   7.957 -0.5366 -0.1316  2.9970
 3979SOL     OW23569   0.015   3.258   9.201  0.3275  0.1492 -0.2789
 3979SOL    HW123570   4.711   3.171   9.181 -0.7390  0.4340  0.3768
 3979SOL    HW223571   0.013   3.244   9.296 -2.5607 -2.9385 -0.7908
 3980SOL     OW23572   4.377   2.114   9.914  0.4600  0.1906 -0.1204
 3980SOL    HW123573   4.332   2.070   9.842 -0.5162 -2.9334  2.3385
 3980SOL    HW223574   4.324   2.194   9.911  2.1059  1.2827  0.0955
 3981SOL     OW23575   0.602   0.318   4.590 -0.0002 -0.2711 -0.3798
 3981SOL    HW123576   0.629   0.318   4.682  3.0270 -0.0946 -1.2699
 3981SOL    HW223577   0.565   0.231   4.579  0.1658 -0.6052  1.6531
 3982SOL     OW23578   1.116   0.419  12.842  0.3246  0.6787  0.4745
 3982SOL    HW123579   1.129   0.397  12.750 -0.5572 -2.1970  1.0232
 3982SOL    HW223580   1.021   0.411  12.849  0.4597 -1.2081  0.1328
 3983SOL     OW23581   0.023   0.674   5.800 -0.0645  0.3256  0.2351
 3983SOL    HW123582   4.703   0.655   5.722  0.5552  0.7692 -0.2921
 3983SOL    HW223583   0.113   0.650   5.775 -0.1581  1.5841 -1.2748
 3984SOL     OW23584   2.062   2.757   1.947 -0.1434  0.0401  0.3355
 3984SOL    HW123585   1.976   2.788   1.918  0.1363  1.6391  1.1817
 3984SOL    HW223586   2.051   2.730   2.038  2.5019  0.3593  0.7282
 3985SOL     OW23587   0.900   1.902  16.176  0.2518 -0.1920  0.3084
 3985SOL    HW123588   0.993   1.917  16.195  0.7412  0.3991 -2.5353
 3985SOL    HW223589   0.864   1.933  16.259  1.4740  1.7133  0.1453
 3986SOL     OW23590   1.485   1.582  15.438  0.4065  0.2224 -0.2888
 3986SOL    HW123591   1.418   1.606  15.375  1.2362 -0.9415 -1.6227
 3986SOL    HW223592   1.506   1.495  15.402  2.3703 -0.0498  1.4585
 3987SOL     OW23593   3.085   3.372   7.340 -0.7748  0.4184  0.2762
 3987SOL    HW123594   3.166   3.321   7.334  0.6681  2.3674  3.4461
 3987SOL    HW223595   3.052   3.361   7.251  2.0629 -1.5763 -0.5404
 3988SOL     OW23596   1.461   1.989   5.254  0.3560  0.0151 -0.4007
 3988SOL    HW123597   1.368   1.987   5.231  0.5084 -0.3984 -0.9926
 3988SOL    HW223598   1.487   2.077   5.226 -2.8986  1.3244  0.7304
 3989SOL     OW23599   4.173   3.722   3.253 -0.0895  0.6505 -0.3731
 3989SOL    HW123600   4.078   3.713   3.248  0.1593 -1.7014 -0.9333
 3989SOL    HW223601   4.179   3.758   3.341 -1.7447 -2.2966  0.9647
 3990SOL     OW23602   4.310   2.606   6.940  0.0771  0.1326 -0.1111
 3990SOL    HW123603   4.361   2.550   6.998  0.3302  0.1009 -0.3637
 3990SOL    HW223604   4.365   2.683   6.931 -1.7503  1.3099 -1.1910
 3991SOL     OW23605   2.304   4.360   3.059 -0.7529 -0.0646  0.1630
 3991SOL    HW123606   2.301   4.420   3.134  1.0956 -1.4296  1.3468
 3991SOL    HW223607   2.397   4.363   3.036 -0.6403 -0.5386  0.5266
 3992SOL     OW23608   2.291   1.120   2.837 -0.6487  0.1916 -0.4164
 3992SOL    HW123609   2.378   1.148   2.807 -0.8754  0.4203 -0.8497
 3992SOL    HW223610   2.314   1.078   2.921 -0.2943  0.3945 -0.4129
 3993SOL     OW23611   0.580   1.261   2.606  0.5343  0.8013  0.3134
 3993SOL    HW123612   0.551   1.308   2.684  1.5934 -2.2921  2.5519
 3993SOL    HW223613   0.546   1.316   2.535 -3.0053 -0.2202  1.2073
 3994SOL     OW23614   2.396   0.480  11.399 -0.5500  0.0832 -0.5246
 3994SOL    HW123615   2.467   0.535  11.365 -1.8301  2.1669  0.2101
 3994SOL    HW223616   2.328   0.539  11.430 -0.4307 -0.5081  0.8894
 3995SOL     OW23617   0.574   0.313   7.750  0.1538 -0.0115 -0.0650
 3995SOL    HW123618   0.575   0.231   7.701 -1.4398 -0.2394  0.2842
 3995SOL    HW223619   0.489   0.315   7.794  0.2058  1.2193 -0.0332
 3996SOL     OW23620   4.088   1.006  13.477  0.1946 -0.7546  0.0795
 3996SOL    HW123621   4.124   0.918  13.465 -2.8505 -1.5162 -3.5200
 3996SOL    HW223622   4.027   0.991  13.549  2.0877 -1.7334  1.4683
 3997SOL     OW23623   3.666   2.453   4.142 -0.1242 -0.0407  0.2039
 3997SOL    HW123624   3.637   2.526   4.197  0.4620  0.6781 -0.4460
 3997SOL    HW223625   3.605   2.452   4.068 -0.3546  0.1985  0.3898
 3998SOL     OW23626   3.146   2.463   2.708  0.2868  0.7805  0.4948
 3998SOL    HW123627   3.109   2.442   2.622  1.6547 -2.3154  0.6500
 3998SOL    HW223628   3.166   2.550   2.673  0.5859 -0.2524 -1.9125
 3999SOL     OW23629   4.197   0.183   7.730  0.3439  0.1179 -0.5993
 3999SOL    HW123630   4.221   0.091   7.716 -0.8038 -0.4812  1.2566
 3999SOL    HW223631   4.150   0.177   7.814 -1.6863 -0.2626 -1.7566
 4000SOL     OW23632   0.662   1.048  16.363 -0.5159 -0.0716  0.0633
 4000SOL    HW123633   0.656   1.136  16.401  2.6912  0.1314  0.1190
 4000SOL    HW223634   0.620   1.064  16.279 -0.6992 -2.0213 -0.2266
 4001SOL     OW23635   4.111   2.372   1.805  0.0497 -0.3891  0.4420
 4001SOL    HW123636   4.200   2.382   1.839 -0.1640 -0.8437  1.1410
 4001SOL    HW223637   4.084   2.286   1.838  0.9264 -0.3757  1.1962
 4002SOL     OW23638   1.618   2.844  17.413  0.3433  0.1902  0.3332
 4002SOL    HW123639   1.600   2.810  17.501 -0.2793 -1.7622 -0.5507
 4002SOL    HW223640   1.571   2.785  17.354  0.5173 -1.1783  1.5608
 4003SOL     OW23641   4.494   4.582   5.240 -0.1388 -0.1689 -0.0661
 4003SOL    HW123642   4.536   4.542   5.316  1.6984  1.3141 -0.3136
 4003SOL    HW223643   4.564   4.571   5.177  0.9147  0.7071  0.9340
 4004SOL     OW23644   1.287   2.548   4.073  0.4575  0.5199 -0.2959
 4004SOL    HW123645   1.193   2.532   4.083  0.4210  0.8633 -0.1159
 4004SOL    HW223646   1.300   2.523   3.981 -1.6148  1.9048 -0.9680
 4005SOL     OW23647   2.833   0.226   6.394  0.2542 -0.0442 -0.2308
 4005SOL    HW123648   2.787   0.270   6.466 -1.6344 -0.3325 -1.2600
 4005SOL    HW223649   2.762   0.197   6.336 -0.6511 -1.2642  1.5023
 4006SOL     OW23650   2.123   3.186   3.899  0.4424 -0.2345 -0.4406
 4006SOL    HW123651   2.106   3.185   3.805  2.6416 -0.1682 -0.8477
 4006SOL    HW223652   2.196   3.125   3.909  0.8872  0.6638  1.6412
 4007SOL     OW23653   2.791   1.727   5.891  0.3306  0.2286 -0.3805
 4007SOL    HW123654   2.805   1.657   5.826  1.5378 -0.7595  0.9409
 4007SOL    HW223655   2.746   1.685   5.964 -0.4675  1.1085 -0.3631
 4008SOL     OW23656   1.176   4.046  10.473  0.4587 -0.5210 -0.4211
 4008SOL    HW123657   1.247   3.986  10.451  2.2145  0.3167  2.9208
 4008SOL    HW223658   1.115   3.994  10.526 -0.2754  1.1686  0.4144
 4009SOL     OW23659   2.138   2.094   0.112 -0.1145 -0.3281  0.1342
 4009SOL    HW123660   2.080   2.164   0.144  2.3883  1.8145  0.0169
 4009SOL    HW223661   2.104   2.024   0.168  1.7282 -1.9515 -0.8190
 4010SOL     OW23662   0.670   1.774   2.150  0.5240 -0.0022  0.6752
 4010SOL    HW123663   0.595   1.832   2.160  0.7358  0.3950 -0.0396
 4010SOL    HW223664   0.737   1.823   2.198  0.3804  1.5461 -0.6987
 4011SOL     OW23665   0.401   4.042   7.469  0.0387  0.0856  0.4108
 4011SOL    HW123666   0.336   3.972   7.477 -1.4989  1.4264 -0.4407
 4011SOL    HW223667   0.453   4.001   7.400 -0.7510 -0.6142  0.2267
 4012SOL     OW23668   2.510   2.568   7.152  0.1103 -0.2766 -0.0271
 4012SOL    HW123669   2.426   2.532   7.124  0.1626 -0.1734 -0.3170
 4012SOL    HW223670   2.514   2.561   7.247  0.9880  1.4678  0.0725
 4013SOL     OW23671   1.831   1.149  12.258 -0.8776  1.2336 -0.2332
 4013SOL    HW123672   1.841   1.208  12.332  0.2427  1.9118 -0.9156
 4013SOL    HW223673   1.738   1.160  12.241 -0.8513  2.1170  0.1846
 4014SOL     OW23674   2.971   0.053   9.088 -0.0007 -0.4274 -0.4677
 4014SOL    HW123675   3.036   0.032   9.156  0.9808  1.5355 -0.7942
 4014SOL    HW223676   2.992   4.713   9.028  2.0419  0.7962 -1.2121
 4015SOL     OW23677   3.951   1.254   7.073 -0.5111 -0.1977 -0.3922
 4015SOL    HW123678   3.887   1.183   7.079  1.6617 -1.8060  3.6776
 4015SOL    HW223679   3.996   1.235   6.991 -0.0084  0.7055 -0.3292
 4016SOL     OW23680   3.371   3.766   2.919 -0.0786  0.1765  0.0666
 4016SOL    HW123681   3.299   3.705   2.908  0.1016 -0.5264  2.7571
 4016SOL    HW223682   3.434   3.697   2.939  0.8344  0.8265 -0.5667
 4017SOL     OW23683   1.768   2.019   0.802  0.2549  0.2793 -0.3392
 4017SOL    HW123684   1.818   2.037   0.723 -1.3572 -0.3201 -1.4965
 4017SOL    HW223685   1.839   2.024   0.866 -0.4759  0.8589  0.4310
 4018SOL     OW23686   2.519   4.342   1.119  0.0832 -0.0374 -0.1726
 4018SOL    HW123687   2.566   4.282   1.061  1.7043  0.7315  0.3513
 4018SOL    HW223688   2.452   4.376   1.060  0.8400  3.9963  1.3319
 4019SOL     OW23689   3.085   1.464   6.866  0.0995 -0.5380  0.0941
 4019SOL    HW123690   3.123   1.482   6.780  0.1594 -0.3616  0.1576
 4019SOL    HW223691   3.163   1.442   6.917  0.4416 -2.4050 -1.2242
 4020SOL     OW23692   2.550   1.155   7.061 -0.1736 -0.4341  0.3585
 4020SOL    HW123693   2.555   1.092   7.134 -0.2908 -1.0827 -0.1974
 4020SOL    HW223694   2.572   1.237   7.105  0.5842 -0.1717 -0.5296
 4021SOL     OW23695   4.444   2.016   0.703  0.4973 -0.1531 -0.6319
 4021SOL    HW123696   4.402   2.102   0.710 -0.9069 -0.7204 -2.0646
 4021SOL    HW223697   4.524   2.049   0.663  0.6987  0.5483  0.3439
 4022SOL     OW23698   4.641   4.266   8.825 -0.1677  0.5524 -0.2982
 4022SOL    HW123699   4.556   4.224   8.843 -1.3419  1.6944 -3.0877
 4022SOL    HW223700   4.640   4.262   8.729 -0.7726 -0.4161 -0.2548
 4023SOL     OW23701   0.496   4.111   4.859 -0.3528  0.1857 -0.4402
 4023SOL    HW123702   0.471   4.058   4.935  0.0220  1.2568  0.4352
 4023SOL    HW223703   0.442   4.068   4.793  0.0253  1.0814 -1.3322
 4024SOL     OW23704   4.642   1.925   1.606 -0.4529 -0.5062 -0.4098
 4024SOL    HW123705   0.004   1.910   1.594 -0.6067 -2.2927  0.6828
 4024SOL    HW223706   4.609   1.869   1.536 -2.2862  0.3050 -0.1968
 4025SOL     OW23707   3.750   3.066   8.102  0.6810 -0.6880 -0.2057
 4025SOL    HW123708   3.778   3.003   8.168 -1.0691 -1.4705 -0.2197
 4025SOL    HW223709   3.831   3.113   8.082  0.2957 -0.7069 -1.8064
 4026SOL     OW23710   2.388   4.475  14.974  0.1003  0.4114 -0.1922
 4026SOL    HW123711   2.401   4.567  14.999 -1.1875  0.3756  0.5958
 4026SOL    HW223712   2.437   4.431  15.043  0.1844  0.7560 -0.0284
 4027SOL     OW23713   0.901   4.286   0.218  0.0444 -0.3920 -0.4705
 4027SOL    HW123714   0.953   4.215   0.181  0.8051 -0.7598  1.2641
 4027SOL    HW223715   0.864   4.245   0.297  1.3069 -0.3394  0.1581
 4028SOL     OW23716   0.591   4.371   8.955  0.4167 -0.1380 -0.3832
 4028SOL    HW123717   0.601   4.462   8.925 -0.9214  0.9756  2.5721
 4028SOL    HW223718   0.503   4.364   8.992  0.3558  2.9726  0.0753
 4029SOL     OW23719   3.258   4.132   6.821  0.1637 -0.0330  0.1638
 4029SOL    HW123720   3.228   4.041   6.831 -0.5218  0.1307 -0.3346
 4029SOL    HW223721   3.309   4.149   6.900 -0.7754  1.1417  0.5175
 4030SOL     OW23722   1.968   4.063   6.044 -0.8569 -0.9158 -0.3297
 4030SOL    HW123723   1.878   4.059   6.077 -1.2183 -0.1152 -1.2103
 4030SOL    HW223724   2.024   4.082   6.119  0.3559  0.5887 -1.6148
 4031SOL     OW23725   4.238   2.055   6.937  0.3605 -0.1108  0.4318
 4031SOL    HW123726   4.240   2.118   7.009  0.8230  0.9573 -0.5142
 4031SOL    HW223727   4.314   2.083   6.886  0.8726 -0.9656  0.7147
 4032SOL     OW23728   0.285   2.095   2.176 -0.0746 -0.4304 -0.6221
 4032SOL    HW123729   0.253   2.019   2.224  0.9839 -1.5071 -1.6005
 4032SOL    HW223730   0.380   2.088   2.186  0.3547  3.2440 -2.0101
 4033SOL     OW23731   4.262   3.535   3.932 -0.0037 -0.0917 -0.1176
 4033SOL    HW123732   4.318   3.513   4.007 -1.6028 -0.3174  1.0361
 4033SOL    HW223733   4.202   3.593   3.979 -0.2195 -0.5443  0.1739
 4034SOL     OW23734   2.802   4.534   0.882 -0.5772  0.2190  0.4325
 4034SOL    HW123735   2.889   4.499   0.860 -0.9433  0.8634 -2.0762
 4034SOL    HW223736   2.737   4.482   0.834 -0.3065  0.3979 -0.1234
 4035SOL     OW23737   2.797   4.143   5.240 -0.5357 -0.2112  0.4694
 4035SOL    HW123738   2.856   4.218   5.230  0.0679 -0.8612 -0.7686
 4035SOL    HW223739   2.777   4.128   5.148  1.0022  0.0442  0.0952
 4036SOL     OW23740   1.912   3.011  12.859 -0.2343  0.3856 -0.2938
 4036SOL    HW123741   1.856   2.993  12.784  1.5682 -1.6898 -1.1167
 4036SOL    HW223742   1.912   3.107  12.855  0.2049  0.3883 -0.2538
 4037SOL     OW23743   2.940   0.336  13.678 -0.2886  0.5885 -0.3470
 4037SOL    HW123744   2.928   0.268  13.745  0.8838  1.2715  0.5588
 4037SOL    HW223745   2.943   0.274  13.606 -1.6272 -0.3463  0.3870
 4038SOL     OW23746   1.171   2.520   8.100  0.3871 -0.3470  0.5873
 4038SOL    HW123747   1.088   2.474   8.108  0.2473 -0.4355 -1.2648
 4038SOL    HW223748   1.162   2.535   8.006 -0.5340  0.8195  0.8667
 4039SOL     OW23749   2.857   1.477   8.380 -0.2413  0.4250  0.1595
 4039SOL    HW123750   2.848   1.573   8.375 -0.0651  0.4594  0.4953
 4039SOL    HW223751   2.948   1.479   8.352 -0.2992 -1.2792 -0.1507
 4040SOL     OW23752   1.786   2.980   5.422  0.7044  0.0403  0.5487
 4040SOL    HW123753   1.859   2.932   5.462 -0.3047 -0.9226  1.2479
 4040SOL    HW223754   1.824   3.068   5.422  1.7575 -0.3819  3.5365
 4041SOL     OW23755   3.038   3.751   1.075  0.1938 -0.4467 -0.1834
 4041SOL    HW123756   3.087   3.670   1.086  0.0808 -0.4808  0.0628
 4041SOL    HW223757   3.032   3.779   1.167  0.8298 -0.2586 -0.1961
 4042SOL     OW23758   1.504   3.139   5.412  0.1292  0.0163 -0.1139
 4042SOL    HW123759   1.510   3.234   5.405 -1.2701  0.1154 -0.0938
 4042SOL    HW223760   1.572   3.104   5.356 -0.6764  0.7599 -1.5547
 4043SOL     OW23761   0.625   1.291  11.439 -0.2116 -0.6270  0.2158
 4043SOL    HW123762   0.543   1.284  11.488 -0.7049  1.5478 -0.2690
 4043SOL    HW223763   0.674   1.308  11.519 -1.5308 -1.4140  1.1867
 4044SOL     OW23764   0.839   4.521   4.445  0.8197 -0.1327  0.0805
 4044SOL    HW123765   0.914   4.542   4.499  0.5619  0.1715  0.3207
 4044SOL    HW223766   0.884   4.456   4.393 -1.7415 -1.4448 -0.5225
 4045SOL     OW23767   0.185   3.131   4.579 -0.4888  0.1488  0.3387
 4045SOL    HW123768   0.236   3.073   4.635  0.1553 -2.1915 -2.6679
 4045SOL    HW223769   0.126   3.069   4.536  0.3781 -1.2788  1.1870
 4046SOL     OW23770   3.484   4.327   5.326  0.1129 -0.2987  0.0747
 4046SOL    HW123771   3.395   4.360   5.334  0.3954  0.3775  0.3664
 4046SOL    HW223772   3.482   4.280   5.242  0.5811 -0.4853  0.1719
 4047SOL     OW23773   1.431   0.242   5.641 -0.0069 -0.2925 -0.7996
 4047SOL    HW123774   1.523   0.254   5.664 -0.2121  0.1228 -0.2102
 4047SOL    HW223775   1.418   0.159   5.686  0.4398  0.6342  1.0313
 4048SOL     OW23776   0.684   2.785   9.006  0.2966 -0.1281  0.0164
 4048SOL    HW123777   0.640   2.703   9.027  0.0407  0.7382  2.8713
 4048SOL    HW223778   0.615   2.844   8.974  1.9921  1.9231  0.1175
 4049SOL     OW23779   2.449   2.900   3.294  0.2269 -0.1779  0.0407
 4049SOL    HW123780   2.381   2.903   3.362 -1.4572 -2.5552 -1.5661
 4049SOL    HW223781   2.518   2.873   3.355  1.7575 -0.2248 -1.7240
 4050SOL     OW23782   3.348   1.598   6.196 -0.0532  0.2355  0.1884
 4050SOL    HW123783   3.261   1.637   6.191  0.0274  0.5312  1.0623
 4050SOL    HW223784   3.396   1.675   6.226  2.1353 -0.4570 -1.5142
 4051SOL     OW23785   0.868   3.381   0.430  0.4568 -0.0682  0.0059
 4051SOL    HW123786   0.913   3.351   0.351 -0.0643  0.6175 -0.5427
 4051SOL    HW223787   0.869   3.295   0.471  0.8508 -0.7860 -1.4988
 4052SOL     OW23788   2.184   3.172   9.386  0.1518 -0.5355  0.0965
 4052SOL    HW123789   2.278   3.168   9.403  0.2271 -0.7240 -0.3849
 4052SOL    HW223790   2.160   3.243   9.446  0.1946 -0.8005  0.4245
 4053SOL     OW23791   0.364   1.403  14.383 -0.1976  0.4951 -0.1550
 4053SOL    HW123792   0.442   1.421  14.434  0.1312  0.4558 -0.6432
 4053SOL    HW223793   0.289   1.418  14.441  0.7911 -2.3179  1.8062
 4054SOL     OW23794   0.331   4.219   5.280 -0.6068  0.1470  0.6415
 4054SOL    HW123795   0.357   4.307   5.251 -0.5994 -0.0494  0.0490
 4054SOL    HW223796   0.289   4.194   5.197  1.0580  0.4035 -0.2924
 4055SOL     OW23797   2.436   3.133   7.394 -0.1533  0.4298  0.5994
 4055SOL    HW123798   2.363   3.073   7.405  1.5895 -1.8524 -0.2990
 4055SOL    HW223799   2.425   3.193   7.468  1.5977 -1.0141  2.0407
 4056SOL     OW23800   1.268   0.527   8.189  0.4072 -0.3117 -0.1642
 4056SOL    HW123801   1.263   0.612   8.231  2.7691 -0.4449  0.4233
 4056SOL    HW223802   1.206   0.465   8.228  0.7360  0.4692  1.5910
 4057SOL     OW23803   2.181   0.758   2.157 -0.6390  0.0758 -0.2848
 4057SOL    HW123804   2.104   0.800   2.120 -0.1762  1.4403  0.3289
 4057SOL    HW223805   2.142   0.694   2.217  1.0808 -0.0229  0.7250
 4058SOL     OW23806   3.319   4.443   5.733 -0.6611  0.2581  0.4389
 4058SOL    HW123807   3.301   4.472   5.823  0.8754  1.2398  0.4399
 4058SOL    HW223808   3.244   4.385   5.726 -0.9521  0.6551  0.3273
 4059SOL     OW23809   4.266   0.540  11.790  0.1471 -0.2511  0.1666
 4059SOL    HW123810   4.350   0.496  11.773  0.1562  0.4778 -1.6832
 4059SOL    HW223811   4.281   0.562  11.882  0.3651 -0.5802  0.2098
 4060SOL     OW23812   3.506   1.432   3.665  0.4272  0.4613 -0.1221
 4060SOL    HW123813   3.509   1.521   3.630 -0.4874  0.6512  0.2940
 4060SOL    HW223814   3.414   1.421   3.688  0.4692  0.0161 -0.1599
 4061SOL     OW23815   3.807   4.463   7.482 -0.2681 -0.2963  0.3087
 4061SOL    HW123816   3.774   4.435   7.567 -0.6163  0.4446  0.4217
 4061SOL    HW223817   3.901   4.443   7.484 -0.2568 -0.2239  0.4734
 4062SOL     OW23818   3.467   1.827   8.562  0.7058  0.1851 -0.4881
 4062SOL    HW123819   3.439   1.919   8.571 -2.1478 -0.6264 -0.9680
 4062SOL    HW223820   3.393   1.771   8.586 -1.6102  2.7689 -1.5174
 4063SOL     OW23821   2.455   4.590  10.167 -0.3641  0.4018  0.0300
 4063SOL    HW123822   2.445   4.642  10.088 -0.7585 -1.8098 -1.3817
 4063SOL    HW223823   2.417   4.506  10.141 -1.6820  0.8353  0.5311
 4064SOL     OW23824   2.879   1.799  12.995 -0.0106  0.0559 -0.0495
 4064SOL    HW123825   2.844   1.794  12.906  1.6755 -0.1141 -0.6959
 4064SOL    HW223826   2.955   1.855  12.979 -0.6747  0.4234 -1.9492
 4065SOL     OW23827   2.097   0.050  10.571 -0.2273  0.2175 -0.3366
 4065SOL    HW123828   2.184   0.082  10.548 -0.3003  0.5589 -0.1446
 4065SOL    HW223829   2.109   4.687  10.562 -0.0706 -0.0385  2.4952
 4066SOL     OW23830   3.763   3.449   5.963 -0.1920 -0.2909  0.4452
 4066SOL    HW123831   3.776   3.419   5.873 -0.3823 -0.8341  0.5976
 4066SOL    HW223832   3.799   3.376   6.014 -2.1102 -1.4929  0.0619
 4067SOL     OW23833   1.655   0.619   1.727 -0.6262  0.0226 -0.0868
 4067SOL    HW123834   1.607   0.697   1.702  0.3259  0.8992  0.8106
 4067SOL    HW223835   1.646   0.623   1.822 -2.7608 -1.5227 -0.2139
 4068SOL     OW23836   1.229   2.175   1.816 -0.0281  0.2943  0.5951
 4068SOL    HW123837   1.271   2.235   1.753  0.8151  0.9030  1.7539
 4068SOL    HW223838   1.288   2.104   1.793  0.3301  1.3727 -1.8413
 4069SOL     OW23839   3.847   2.113  12.033  0.4333  0.0996  0.1814
 4069SOL    HW123840   3.919   2.111  11.970 -0.2591 -0.3799 -0.5939
 4069SOL    HW223841   3.866   2.034  12.083 -0.2277  1.2858  2.3368
 4070SOL     OW23842   4.051   4.317   0.642  0.3499 -0.1523  0.4586
 4070SOL    HW123843   4.141   4.307   0.673  0.2206  1.9442  1.4986
 4070SOL    HW223844   4.077   4.270   0.563  0.7821  1.0497 -0.1052
 4071SOL     OW23845   0.662   4.037   5.537 -0.2619 -0.1333 -0.3533
 4071SOL    HW123846   0.750   4.002   5.554 -0.7548 -1.6154 -0.9242
 4071SOL    HW223847   0.624   4.040   5.625  0.9050  0.4573  0.1388
 4072SOL     OW23848   4.706   0.187   5.160 -0.5262 -0.4605  0.3417
 4072SOL    HW123849   0.035   0.127   5.118  0.2192  2.7139 -3.0752
 4072SOL    HW223850   0.032   0.262   5.175 -2.6050  1.5251 -1.4634
 4073SOL     OW23851   0.619   4.032   6.522  0.2693  0.0119  0.4188
 4073SOL    HW123852   0.676   3.964   6.489  1.9391  1.3277  0.5829
 4073SOL    HW223853   0.583   3.998   6.604 -0.0604 -0.0658  0.2400
 4074SOL     OW23854   4.243   2.489   2.960  0.4103  0.3261  0.1174
 4074SOL    HW123855   4.274   2.398   2.955 -2.9393 -0.8608  1.1160
 4074SOL    HW223856   4.256   2.522   3.048 -1.6307 -1.7142  1.1803
 4075SOL     OW23857   2.666   4.100   6.650  0.2008 -0.2449  0.2623
 4075SOL    HW123858   2.753   4.061   6.651  0.1909 -0.2305  1.5426
 4075SOL    HW223859   2.680   4.157   6.574  2.8974 -2.5101 -0.9409
 4076SOL     OW23860   1.440   0.760   6.896  0.4540 -0.0314 -0.1101
 4076SOL    HW123861   1.439   0.761   6.800 -0.6788 -0.0048 -0.1090
 4076SOL    HW223862   1.485   0.841   6.921  0.5628 -0.2856  0.5078
 4077SOL     OW23863   3.046   4.536   2.820  1.1035 -0.6064 -0.2713
 4077SOL    HW123864   3.095   4.454   2.808  0.8748 -0.8638  0.5456
 4077SOL    HW223865   3.071   4.557   2.910  1.3640 -1.3728 -0.1648
 4078SOL     OW23866   0.925   0.824   8.128 -0.1390  0.2470  0.1635
 4078SOL    HW123867   0.876   0.746   8.101 -0.3946 -0.5463  2.8803
 4078SOL    HW223868   0.970   0.779   8.200  0.7878  1.1172  0.1347
 4079SOL     OW23869   1.782   0.673   7.051 -0.0888 -0.0049  0.1172
 4079SOL    HW123870   1.780   0.753   6.998 -1.0200  0.6027  1.0726
 4079SOL    HW223871   1.850   0.632   6.998  1.1355  2.3771 -0.1741
 4080SOL     OW23872   0.079   4.175   7.259 -0.2897 -0.1336  0.0802
 4080SOL    HW123873   0.010   4.205   7.199 -0.6726 -0.2289  0.4712
 4080SOL    HW223874   0.055   4.083   7.245 -2.7628  0.3964  0.8076
 4081SOL     OW23875   3.478   3.603  15.570 -0.9037  0.7966  0.1645
 4081SOL    HW123876   3.521   3.544  15.633 -0.9219  1.4594  0.8078
 4081SOL    HW223877   3.562   3.641  15.543 -0.5542 -0.4595 -0.4866
 4082SOL     OW23878   2.542   1.409   7.889 -0.6395  0.0503 -0.3424
 4082SOL    HW123879   2.547   1.314   7.880 -0.3799  0.0931 -0.6467
 4082SOL    HW223880   2.600   1.440   7.819  0.1144 -2.2408 -0.7424
 4083SOL     OW23881   3.324   3.618   2.382  0.4247 -0.3241  0.3918
 4083SOL    HW123882   3.348   3.707   2.406  3.6554 -0.7755 -1.1168
 4083SOL    HW223883   3.307   3.596   2.474  2.5002  3.3730  1.6552
 4084SOL     OW23884   1.084   0.557   7.867  0.6210 -0.6596  0.0248
 4084SOL    HW123885   1.031   0.477   7.864  0.1720 -0.3455 -0.3366
 4084SOL    HW223886   1.173   0.521   7.869  1.2121  1.0295  3.5278
 4085SOL     OW23887   2.318   0.309   2.667 -0.1052 -0.1062 -0.4039
 4085SOL    HW123888   2.391   0.340   2.613  1.4081  1.1029  2.3605
 4085SOL    HW223889   2.264   0.388   2.675  0.0131 -0.0113 -0.5398
 4086SOL     OW23890   1.772   0.874   6.076 -0.3340  0.2186  0.3724
 4086SOL    HW123891   1.788   0.779   6.079 -2.1632 -0.1592 -2.0623
 4086SOL    HW223892   1.678   0.860   6.083 -0.3053 -0.0833  0.1211
 4087SOL     OW23893   2.364   2.255   5.804  0.2378  0.3944 -0.0750
 4087SOL    HW123894   2.408   2.175   5.833 -0.8860  1.1844  3.8875
 4087SOL    HW223895   2.277   2.239   5.841  0.2332 -3.6072 -1.7692
 4088SOL     OW23896   4.306   4.076   2.837 -0.2081  0.1875 -0.2570
 4088SOL    HW123897   4.402   4.076   2.834 -0.2846  0.3325 -2.5905
 4088SOL    HW223898   4.293   4.025   2.917 -1.2152 -0.5679 -0.9078
 4089SOL     OW23899   3.413   1.185   5.734 -0.0404 -0.2046  0.9000
 4089SOL    HW123900   3.373   1.152   5.654  1.0697 -0.2072  0.3484
 4089SOL    HW223901   3.339   1.216   5.786 -1.3194 -1.5648 -0.1112
 4090SOL     OW23902   4.314   2.902   8.095 -0.0523  0.0092 -0.1469
 4090SOL    HW123903   4.220   2.885   8.107 -0.1077  1.2777  1.2440
 4090SOL    HW223904   4.355   2.829   8.142  1.7251 -0.6655 -2.7815
 4091SOL     OW23905   2.279   2.150   2.594 -0.2778 -0.1726  0.5613
 4091SOL    HW123906   2.276   2.074   2.536  0.9534 -0.0755  0.3792
 4091SOL    HW223907   2.286   2.223   2.533 -0.5711 -1.0250 -0.4936
 4092SOL     OW23908   4.377   3.744   7.908 -0.2355 -0.9559  0.2848
 4092SOL    HW123909   4.408   3.718   7.995 -2.5562 -0.4444  1.2561
 4092SOL    HW223910   4.334   3.663   7.880  0.6571 -1.6255  0.8551
 4093SOL     OW23911   3.777   2.977  12.544 -0.1908  0.0149  0.1943
 4093SOL    HW123912   3.688   2.989  12.579 -0.5695 -1.4735 -0.2505
 4093SOL    HW223913   3.763   3.008  12.454 -3.2953  0.0662  0.6686
 4094SOL     OW23914   1.936   3.381   2.031 -0.0949  0.4601  0.0425
 4094SOL    HW123915   1.945   3.450   1.966 -0.3449  0.2252 -0.2460
 4094SOL    HW223916   1.916   3.429   2.111  0.5127  1.9589 -0.7230
 4095SOL     OW23917   1.346   1.602   7.646  0.1426 -0.1742  0.1604
 4095SOL    HW123918   1.330   1.641   7.732 -1.0745 -0.0186 -0.1394
 4095SOL    HW223919   1.334   1.509   7.667  0.4650  0.4672  3.1811
 4096SOL     OW23920   1.436   0.330  12.526  0.0388  0.7057  0.5585
 4096SOL    HW123921   1.348   0.344  12.560 -1.5717  2.1852 -4.2195
 4096SOL    HW223922   1.413   0.369  12.441  1.7714 -1.7884 -1.0554
 4097SOL     OW23923   0.367   3.761  11.195  0.2379 -0.5961  0.8825
 4097SOL    HW123924   0.334   3.672  11.204 -0.8084 -0.2895  0.0519
 4097SOL    HW223925   0.458   3.755  11.166  0.2853  0.5979  0.7908
 4098SOL     OW23926   2.119   0.294  16.146 -0.4777 -0.4699 -0.3160
 4098SOL    HW123927   2.067   0.374  16.142 -0.5772 -0.3963  2.3728
 4098SOL    HW223928   2.177   0.323  16.216 -1.6665  1.7020 -0.2188
 4099SOL     OW23929   1.300   1.014  12.051 -0.3496 -0.3596 -0.5052
 4099SOL    HW123930   1.263   1.102  12.063  3.5060  1.3527 -1.2310
 4099SOL    HW223931   1.298   0.969  12.135  1.3459  0.5185  0.0039
 4100SOL     OW23932   0.149   4.408   6.233 -0.8569  0.4562 -0.1917
 4100SOL    HW123933   0.095   4.461   6.175  1.0775 -0.4290 -2.7819
 4100SOL    HW223934   0.081   4.384   6.296 -0.6838  2.7516  0.8876
 4101SOL     OW23935   2.207   2.327   6.367 -0.0881 -0.6013 -0.4007
 4101SOL    HW123936   2.166   2.250   6.327 -1.4756 -1.2022  2.1894
 4101SOL    HW223937   2.220   2.305   6.460 -1.2626  0.3978 -0.0037
 4102SOL     OW23938   0.312   2.633   5.663  0.0791  0.3369 -0.0023
 4102SOL    HW123939   0.346   2.696   5.726  1.3462 -0.6667  0.3203
 4102SOL    HW223940   0.336   2.673   5.580  1.0453  0.8236  0.5117
 4103SOL     OW23941   1.966   2.119   6.497 -0.3676 -0.1690 -0.1087
 4103SOL    HW123942   1.912   2.156   6.567 -0.2377  1.5277 -0.9113
 4103SOL    HW223943   1.963   2.028   6.527  0.1219  0.5093  2.0031
 4104SOL     OW23944   4.059   1.342   3.662  0.1655 -0.4104  0.1353
 4104SOL    HW123945   4.078   1.265   3.715 -3.4703 -0.2562  1.6824
 4104SOL    HW223946   3.968   1.366   3.682  1.0301  1.1474  2.1396
 4105SOL     OW23947   1.873   3.272  13.543  0.1818  0.1280 -0.7283
 4105SOL    HW123948   1.858   3.310  13.630  1.7819 -0.3408 -0.2393
 4105SOL    HW223949   1.853   3.341  13.480  1.7839  1.4391  0.1793
 4106SOL     OW23950   0.560   0.601   6.306  0.1207  0.8593  0.4086
 4106SOL    HW123951   0.510   0.642   6.236 -0.4772  1.2148  1.0481
 4106SOL    HW223952   0.494   0.584   6.373 -1.9063  2.0292 -1.2830
 4107SOL     OW23953   1.742   2.328   7.682 -0.3176  0.2054  0.0739
 4107SOL    HW123954   1.784   2.338   7.768  0.8832 -0.9066 -0.3831
 4107SOL    HW223955   1.754   2.413   7.641 -0.3271 -0.0383 -0.4380
 4108SOL     OW23956   0.136   2.972  15.646  0.1758 -0.3617 -0.1702
 4108SOL    HW123957   0.225   2.943  15.630  0.1127 -0.2257 -0.7687
 4108SOL    HW223958   0.144   3.067  15.651 -0.2902 -0.3044 -0.4294
 4109SOL     OW23959   0.859   3.555   7.356 -0.3646  0.5062 -0.1619
 4109SOL    HW123960   0.947   3.586   7.374  0.1898 -0.3332 -1.4883
 4109SOL    HW223961   0.874   3.520   7.268  0.4186  0.5856 -0.0593
 4110SOL     OW23962   0.060   2.522   1.763  0.6352  0.0223 -0.0883
 4110SOL    HW123963   4.729   2.505   1.834 -1.6108 -1.1660 -2.3731
 4110SOL    HW223964   0.137   2.474   1.793 -0.5463 -1.5959  0.3346
 4111SOL     OW23965   2.348   2.465  14.273  0.4455  0.0224 -0.3178
 4111SOL    HW123966   2.354   2.375  14.241  1.2884  0.0015 -0.1045
 4111SOL    HW223967   2.434   2.472  14.316 -1.0244 -1.5692  2.8524
 4112SOL     OW23968   4.538   2.038   8.660  0.6162 -0.4315 -0.4277
 4112SOL    HW123969   4.455   1.996   8.638  1.0083 -2.5016  2.0614
 4112SOL    HW223970   4.600   1.982   8.613  1.3983 -0.7788  1.0144
 4113SOL     OW23971   2.447   2.425   5.229  0.4098 -0.6812 -0.4345
 4113SOL    HW123972   2.464   2.338   5.191  0.4785 -1.1167  0.5951
 4113SOL    HW223973   2.536   2.458   5.239  0.5080 -0.1865 -3.0070
 4114SOL     OW23974   1.318   4.457   8.514  0.0383 -0.0244  0.0973
 4114SOL    HW123975   1.343   4.428   8.602 -0.4012 -0.4431  0.0852
 4114SOL    HW223976   1.223   4.452   8.518  0.0969  1.0141  3.2034
 4115SOL     OW23977   0.537   2.314   1.514 -0.0159 -0.3900 -0.0138
 4115SOL    HW123978   0.561   2.342   1.603 -0.6974 -0.6662  0.2547
 4115SOL    HW223979   0.546   2.392   1.461  2.0335 -0.6031 -0.0028
 4116SOL     OW23980   2.858   4.573   3.194 -0.1557 -0.0283 -0.2615
 4116SOL    HW123981   2.880   4.517   3.120  1.1029  0.3647 -0.1863
 4116SOL    HW223982   2.914   4.538   3.264 -0.7845  0.5295  0.5211
 4117SOL     OW23983   3.426   0.349  13.777 -0.4558 -0.0320  1.2152
 4117SOL    HW123984   3.332   0.362  13.792 -0.3460  1.7219  0.2603
 4117SOL    HW223985   3.436   0.389  13.691  0.0601  1.0041  1.7579
 4118SOL     OW23986   4.023   3.426   9.223  0.2618  0.1613  0.2262
 4118SOL    HW123987   4.037   3.411   9.317 -0.5925 -2.1429 -0.0122
 4118SOL    HW223988   3.943   3.478   9.215 -0.4387 -1.1112 -0.9359
 4119SOL     OW23989   2.573   0.751   8.348 -0.3018 -0.3184 -0.0594
 4119SOL    HW123990   2.640   0.809   8.312 -0.9345  1.3195  1.3606
 4119SOL    HW223991   2.624   0.726   8.425  0.9798  0.3498 -0.6850
 4120SOL     OW23992   4.132   3.520   7.636 -0.1869  0.2713 -0.0608
 4120SOL    HW123993   4.077   3.442   7.622  0.7521 -0.6464  1.3459
 4120SOL    HW223994   4.178   3.500   7.718 -0.1562 -0.6124 -0.2890
 4121SOL     OW23995   2.730   0.657   2.030 -0.2058 -0.2401  0.7832
 4121SOL    HW123996   2.658   0.684   2.088 -0.4301 -0.0363  0.4104
 4121SOL    HW223997   2.700   0.568   2.012 -0.3675 -0.2135  0.9208
 4122SOL     OW23998   3.482   1.334   4.690  0.3893  0.1283  0.2471
 4122SOL    HW123999   3.487   1.374   4.776 -0.5569  0.9584 -0.0931
 4122SOL    HW224000   3.387   1.338   4.687  0.2794 -0.8905  2.3794
 4123SOL     OW24001   3.197   0.725   6.594 -0.3582  0.5611 -0.4334
 4123SOL    HW124002   3.139   0.685   6.528  1.3438  0.7294 -2.0192
 4123SOL    HW224003   3.159   0.706   6.680  2.6527 -0.1913  0.7447
 4124SOL     OW24004   0.569   0.958   2.375  0.3899 -0.3005  0.1843
 4124SOL    HW124005   0.597   0.975   2.465  4.4986  0.2821 -1.2021
 4124SOL    HW224006   0.573   0.862   2.373 -0.2178 -0.3423  0.9776
 4125SOL     OW24007   3.200   0.043   5.218  0.0127  0.1412 -0.1468
 4125SOL    HW124008   3.119   0.071   5.261 -0.1195 -0.4398 -0.0269
 4125SOL    HW224009   3.194   0.089   5.134  1.1119 -0.2294 -0.4242
 4126SOL     OW24010   2.993   0.120  10.025  0.7843 -0.4099  0.1416
 4126SOL    HW124011   3.038   0.101   9.943  1.7487  2.7180 -0.0555
 4126SOL    HW224012   3.065   0.162  10.072 -0.4846 -1.0833  2.7215
 4127SOL     OW24013   1.009   0.443   0.770  0.1534  0.1334  0.0548
 4127SOL    HW124014   1.006   0.390   0.690  1.5441 -1.6313  1.1862
 4127SOL    HW224015   0.972   0.525   0.735  1.4185  0.4653 -0.4933
 4128SOL     OW24016   1.749   1.457   5.686  0.3371 -0.0071  0.3231
 4128SOL    HW124017   1.733   1.426   5.775 -1.0488 -0.6143 -0.1294
 4128SOL    HW224018   1.760   1.375   5.637 -1.6642 -0.3104  0.3650
 4129SOL     OW24019   2.874   2.524   1.070  0.1797  0.4563 -0.3484
 4129SOL    HW124020   2.848   2.433   1.051 -1.0600  0.6666  0.3082
 4129SOL    HW224021   2.965   2.525   1.042  0.0843  0.0799 -0.6771
 4130SOL     OW24022   1.438   1.936   4.109 -0.1494 -0.2480  0.2212
 4130SOL    HW124023   1.414   1.845   4.125  0.0202 -0.1569  1.0277
 4130SOL    HW224024   1.415   1.964   4.020  1.9892 -0.5199 -0.4235
 4131SOL     OW24025   3.609   1.033   1.765 -0.3577  0.1757 -0.2236
 4131SOL    HW124026   3.543   0.966   1.746  0.1619 -0.3751 -0.1223
 4131SOL    HW224027   3.575   1.110   1.721  0.8009 -0.2447 -1.8700
 4132SOL     OW24028   3.071   2.484   7.111  0.0617 -0.3931  0.5222
 4132SOL    HW124029   2.990   2.531   7.129  0.2364 -0.4961  1.5841
 4132SOL    HW224030   3.028   2.411   7.066 -0.4455 -0.3592  0.9510
 4133SOL     OW24031   0.974   4.711   7.990  0.2299 -0.1604  0.3094
 4133SOL    HW124032   1.025   0.039   7.935  0.8790 -0.6820  0.3389
 4133SOL    HW224033   0.923   0.041   8.041 -0.6489 -1.9910  1.6568
 4134SOL     OW24034   1.622   0.686   4.992 -0.4227  0.0501 -0.3148
 4134SOL    HW124035   1.529   0.707   5.003 -0.6991 -1.5664  0.4357
 4134SOL    HW224036   1.664   0.758   5.039 -0.4646  1.5258 -2.5335
 4135SOL     OW24037   4.164   1.876   2.337  0.0370 -0.0204 -0.0910
 4135SOL    HW124038   4.236   1.879   2.275 -0.7897 -1.4647 -1.1216
 4135SOL    HW224039   4.088   1.884   2.279 -1.1319 -2.4579  1.0727
 4136SOL     OW24040   2.198   0.127  10.214  0.1084  0.0226 -0.4489
 4136SOL    HW124041   2.238   0.148  10.298  0.3477 -1.5001 -0.1884
 4136SOL    HW224042   2.264   0.073  10.170  2.1638  1.5021  0.8636
 4137SOL     OW24043   1.168   1.732  17.315  0.4393  0.8825  0.0295
 4137SOL    HW124044   1.220   1.803  17.352 -1.5628  2.8743 -0.9662
 4137SOL    HW224045   1.161   1.665  17.383 -0.9461  0.6767 -0.3181
 4138SOL     OW24046   1.603   0.390   2.416  0.1665 -0.1765  0.1898
 4138SOL    HW124047   1.555   0.455   2.364  2.5208  0.0595 -1.6477
 4138SOL    HW224048   1.687   0.435   2.418 -0.6298  1.4023 -1.0381
 4139SOL     OW24049   0.615   0.863   8.856  0.2191  0.4258  0.0054
 4139SOL    HW124050   0.682   0.818   8.907 -1.2854 -0.9120  0.7934
 4139SOL    HW224051   0.641   0.954   8.840 -1.2405  0.9579  0.5885
 4140SOL     OW24052   1.091   0.717  12.320  0.2338  0.2755  0.4916
 4140SOL    HW124053   1.026   0.784  12.299  0.2363 -0.1379 -0.8101
 4140SOL    HW224054   1.175   0.762  12.313  0.1492  0.6698  1.8651
 4141SOL     OW24055   3.729   0.940  16.196 -0.1971 -0.2460 -0.9157
 4141SOL    HW124056   3.634   0.930  16.203 -0.2704  0.5759 -0.7342
 4141SOL    HW224057   3.746   1.017  16.142 -0.7186  0.8226  0.4452
 4142SOL     OW24058   4.499   3.074   8.063  0.3573  0.1645 -0.1110
 4142SOL    HW124059   4.557   3.039   8.131 -0.2058  0.8387  0.7211
 4142SOL    HW224060   4.426   3.012   8.074  0.7155 -0.8593 -3.7770
 4143SOL     OW24061   0.518   4.234  13.211 -0.0857  0.0412  0.2015
 4143SOL    HW124062   0.501   4.220  13.304  0.4136  0.5555  0.3756
 4143SOL    HW224063   0.431   4.253  13.177  1.3754  2.2801 -2.3529
 4144SOL     OW24064   0.145   3.368   8.746  0.1724 -0.2302  0.2440
 4144SOL    HW124065   0.131   3.460   8.765 -1.6587 -0.2890 -0.8839
 4144SOL    HW224066   0.240   3.364   8.734  0.4742 -0.1516  2.6095
 4145SOL     OW24067   1.561   0.068   3.700  0.4774  0.0907 -0.2918
 4145SOL    HW124068   1.581   0.046   3.609  0.2818 -0.1262 -0.2828
 4145SOL    HW224069   1.619   0.143   3.712  0.6706  0.2171 -1.9986
 4146SOL     OW24070   1.351   0.477   1.605 -0.0846 -0.2336  0.0080
 4146SOL    HW124071   1.317   0.469   1.694  1.5014  1.0749  0.7325
 4146SOL    HW224072   1.428   0.421   1.612  1.8326  2.4361  0.5469
 4147SOL     OW24073   4.569   0.593   6.499 -0.8246  0.3022 -0.0828
 4147SOL    HW124074   4.575   0.512   6.550 -0.0240 -0.5368 -1.5122
 4147SOL    HW224075   4.638   0.582   6.433  0.2732  0.5764  1.0053
 4148SOL     OW24076   2.161   0.363   0.931  0.0485  0.0074 -0.9195
 4148SOL    HW124077   2.215   0.288   0.955 -1.0928 -0.8117 -0.9462
 4148SOL    HW224078   2.164   0.336   0.840  0.5117  0.8163 -1.1407
 4149SOL     OW24079   1.507   2.889   5.176  0.4591 -0.2169  0.3641
 4149SOL    HW124080   1.414   2.867   5.186  0.3452  0.0234 -0.1429
 4149SOL    HW224081   1.547   2.805   5.199  0.9412 -0.8183 -2.6333
 4150SOL     OW24082   2.494   1.329   9.207 -0.6642  0.6020 -0.0266
 4150SOL    HW124083   2.512   1.245   9.166  0.4642 -0.0034  1.7153
 4150SOL    HW224084   2.529   1.384   9.136 -1.7270  0.0213 -1.0069
 4151SOL     OW24085   3.760   3.422   8.835  0.1590  0.2548 -0.0718
 4151SOL    HW124086   3.847   3.403   8.800  0.5393  1.8599 -0.0016
 4151SOL    HW224087   3.707   3.350   8.803  0.1950  1.0066 -1.8387
 4152SOL     OW24088   2.804   2.929   3.815  0.4684 -0.0891 -0.7155
 4152SOL    HW124089   2.776   2.934   3.906  2.1367 -0.9188 -0.1639
 4152SOL    HW224090   2.736   2.868   3.788 -1.0098  2.4273 -2.6747
 4153SOL     OW24091   1.937   1.162   2.322 -0.4066 -0.3377 -0.2315
 4153SOL    HW124092   1.844   1.181   2.336 -0.4587 -0.6167 -0.1926
 4153SOL    HW224093   1.933   1.076   2.279  1.2689 -0.8199  0.6054
 4154SOL     OW24094   2.848   2.440   5.653  0.4166 -0.2382 -0.1741
 4154SOL    HW124095   2.785   2.416   5.586  0.2092  1.8911 -0.7618
 4154SOL    HW224096   2.793   2.423   5.729  0.6268 -2.2374 -0.4881
 4155SOL     OW24097   1.710   2.713   5.796 -0.1198  0.4508  0.0858
 4155SOL    HW124098   1.658   2.763   5.733  0.0974  0.1476 -0.3354
 4155SOL    HW224099   1.634   2.681   5.845 -0.2741  0.9324  0.1557
 4156SOL     OW24100   1.285   4.521   4.969 -0.2022  0.1999  0.4342
 4156SOL    HW124101   1.315   4.612   4.973 -1.4340  0.6881 -1.6335
 4156SOL    HW224102   1.345   4.461   5.013 -1.7774 -0.2926  1.9170
 4157SOL     OW24103   1.281   3.877   4.023  0.1348  0.9173  0.4077
 4157SOL    HW124104   1.289   3.971   4.039 -1.5065  0.6111  2.8483
 4157SOL    HW224105   1.195   3.876   3.981  1.6580 -2.3758 -2.6776
 4158SOL     OW24106   0.462   3.550   4.686  0.5223 -0.2494 -0.1568
 4158SOL    HW124107   0.445   3.503   4.604 -0.5508 -1.5509  0.8239
 4158SOL    HW224108   0.493   3.479   4.742 -1.5935 -1.9198 -1.1072
 4159SOL     OW24109   3.119   1.427   4.119  0.7994  0.1477 -0.4723
 4159SOL    HW124110   3.091   1.336   4.129  1.4732  0.0269  0.3677
 4159SOL    HW224111   3.067   1.463   4.191  0.4953  1.3186 -1.2923
 4160SOL     OW24112   4.091   2.114  16.374  0.5675  0.1640  0.4551
 4160SOL    HW124113   4.025   2.153  16.316  2.4533  0.2023 -1.6909
 4160SOL    HW224114   4.168   2.146  16.327  0.7272  0.2360  0.7676
 4161SOL     OW24115   1.588   3.324   5.003 -0.7441  0.6368 -0.2068
 4161SOL    HW124116   1.574   3.233   4.976  1.5605  0.5355 -1.0513
 4161SOL    HW224117   1.664   3.303   5.057  0.2975 -0.5748 -2.1398
 4162SOL     OW24118   4.199   2.628  17.347 -0.5890 -0.4434  0.5753
 4162SOL    HW124119   4.127   2.566  17.353 -0.0731 -1.1828 -0.9654
 4162SOL    HW224120   4.247   2.604  17.268  1.7398 -0.2264  1.9282
 4163SOL     OW24121   1.589   1.293  17.243 -0.1802  0.0824 -0.0821
 4163SOL    HW124122   1.647   1.294  17.319  2.2265 -0.0170 -1.9236
 4163SOL    HW224123   1.548   1.208  17.257 -0.2239  0.3511  1.4431
 4164SOL     OW24124   1.229   4.047  16.513 -0.0313 -0.3175 -0.0390
 4164SOL    HW124125   1.301   4.066  16.453 -0.2496  2.0617  0.4504
 4164SOL    HW224126   1.249   4.122  16.569 -0.1750  0.3248 -0.8401
 4165SOL     OW24127   1.883   3.428  15.726  0.2294  0.0815  0.0856
 4165SOL    HW124128   1.944   3.360  15.698  0.8671  0.1290  1.3912
 4165SOL    HW224129   1.860   3.460  15.638  1.7614 -3.6847 -1.7130
 4166SOL     OW24130   0.222   3.770   3.324 -0.1111 -0.1019  0.9071
 4166SOL    HW124131   0.269   3.833   3.269  0.4934 -2.3978 -1.2013
 4166SOL    HW224132   0.159   3.744   3.257  0.3317 -0.4431  0.6205
 4167SOL     OW24133   2.768   1.944   7.854 -1.0662  0.5126  0.1899
 4167SOL    HW124134   2.730   1.872   7.905  0.0865  0.5755  1.1395
 4167SOL    HW224135   2.846   1.900   7.820 -1.9159 -1.6200  0.9566
 4168SOL     OW24136   0.557   3.868   6.209 -0.3096 -0.7226 -0.4910
 4168SOL    HW124137   0.484   3.918   6.247 -2.0689 -2.1850 -1.9218
 4168SOL    HW224138   0.518   3.781   6.196  1.5200 -1.5519 -0.3659
 4169SOL     OW24139   1.628   1.747   6.643 -0.4628 -0.5231  0.0223
 4169SOL    HW124140   1.666   1.659   6.650  1.8048  0.4147 -0.5285
 4169SOL    HW224141   1.607   1.768   6.734 -0.2771 -2.6305  0.5594
 4170SOL     OW24142   4.610   2.372   6.081 -0.5046 -0.0944 -0.1500
 4170SOL    HW124143   4.696   2.397   6.050 -0.6258 -0.5717 -0.8597
 4170SOL    HW224144   4.599   2.426   6.160 -1.0006 -0.9458  0.3698
 4171SOL     OW24145   4.089   4.100   3.238 -0.4645  0.0879 -0.1281
 4171SOL    HW124146   4.037   4.095   3.157 -1.2190  0.2537  0.3514
 4171SOL    HW224147   4.091   4.196   3.244  2.3422  0.0243  0.0056
 4172SOL     OW24148   2.599   4.312   0.106 -0.1048  0.1395 -0.9232
 4172SOL    HW124149   2.617   4.355   0.190  0.0170  0.7637 -1.2703
 4172SOL    HW224150   2.537   4.369   0.060 -1.6770  0.1865  1.2523
 4173SOL     OW24151   4.464   4.559   1.273  0.3472  0.3982  0.4183
 4173SOL    HW124152   4.386   4.515   1.309 -0.4886  0.5270 -1.2397
 4173SOL    HW224153   4.470   4.627   1.340  2.6894 -0.5877  1.1967
 4174SOL     OW24154   3.852   1.499  10.583 -0.2433 -0.3117 -0.1358
 4174SOL    HW124155   3.815   1.499  10.671  0.2235  1.0858  0.0493
 4174SOL    HW224156   3.787   1.555  10.540 -0.8995 -0.0813  1.1721
 4175SOL     OW24157   4.249   4.072   3.472  0.1496  0.1021 -1.0707
 4175SOL    HW124158   4.226   3.980   3.488  1.4026 -0.0785 -0.3621
 4175SOL    HW224159   4.191   4.091   3.398 -0.5663 -4.0610 -1.5840
 4176SOL     OW24160   4.456   2.087   0.393  0.2528  0.0122  0.0855
 4176SOL    HW124161   4.379   2.139   0.366 -0.2649 -0.0949  1.3823
 4176SOL    HW224162   4.443   2.016   0.330 -4.6814 -0.4249  1.5348
 4177SOL     OW24163   2.885   3.452   2.004  0.3911 -0.0043 -0.0875
 4177SOL    HW124164   2.834   3.373   1.981 -0.1989  0.6413 -0.9989
 4177SOL    HW224165   2.915   3.487   1.920 -0.5764  1.4097  0.1695
 4178SOL     OW24166   2.920   1.083   7.931 -0.4624 -0.1247  0.0037
 4178SOL    HW124167   2.835   1.074   7.973 -0.1778  0.4305  0.6919
 4178SOL    HW224168   2.927   1.003   7.879  0.2492 -0.0021 -0.0871
 4179SOL     OW24169   0.836   3.067   4.811  1.0418  0.1100 -0.6370
 4179SOL    HW124170   0.834   3.138   4.747  0.2590  0.7310  0.0828
 4179SOL    HW224171   0.748   3.030   4.797 -0.0276  2.3286  0.2243
 4180SOL     OW24172   0.455   4.367  12.080  0.0294 -0.0884  0.2998
 4180SOL    HW124173   0.430   4.333  12.166  0.0184  0.2249  0.4232
 4180SOL    HW224174   0.548   4.388  12.080  0.3044 -1.3308 -0.1812
 4181SOL     OW24175   3.336   0.984  14.769 -1.0347  0.2009 -0.2357
 4181SOL    HW124176   3.275   0.920  14.808 -0.3578 -1.8259 -2.4804
 4181SOL    HW224177   3.365   1.034  14.846  1.9614 -0.1602 -1.1356
 4182SOL     OW24178   3.593   2.152  11.996  0.2063 -0.1895 -0.1324
 4182SOL    HW124179   3.582   2.112  11.910 -0.5328 -0.2334 -0.0170
 4182SOL    HW224180   3.689   2.160  12.000  0.1606 -0.6212  1.6419
 4183SOL     OW24181   3.411   3.109   4.923 -0.3386 -0.0008  0.6975
 4183SOL    HW124182   3.399   3.184   4.981 -0.1576  0.7697 -0.2726
 4183SOL    HW224183   3.472   3.143   4.858 -0.6506  0.8187  0.8346
 4184SOL     OW24184   2.974   1.873   8.937  0.6630 -0.2119 -0.3319
 4184SOL    HW124185   2.986   1.946   8.999 -0.9909  0.2065 -0.5101
 4184SOL    HW224186   2.980   1.791   8.985  1.1181 -1.5966 -2.7978
 4185SOL     OW24187   4.070   0.397   6.624 -0.3532 -0.8688 -0.0030
 4185SOL    HW124188   3.981   0.362   6.625  1.1841 -4.8005  0.2101
 4185SOL    HW224189   4.059   0.466   6.689 -0.9260 -0.3316 -0.6767
 4186SOL     OW24190   2.374   3.636   9.023  0.0261  0.1165 -0.0456
 4186SOL    HW124191   2.379   3.678   8.937  1.7557 -0.1283 -0.0640
 4186SOL    HW224192   2.374   3.704   9.091 -2.4755  0.5122 -0.4486
 4187SOL     OW24193   2.874   4.459   4.336 -0.2529  0.1305 -0.1374
 4187SOL    HW124194   2.841   4.370   4.341 -0.3276  0.2830  2.1372
 4187SOL    HW224195   2.794   4.510   4.348  0.7396  1.5911  0.3700
 4188SOL     OW24196   3.881   4.711  14.527 -0.4267  0.1471  0.3787
 4188SOL    HW124197   3.881   4.636  14.586  0.9934 -2.2403 -2.7072
 4188SOL    HW224198   3.888   4.677  14.439 -2.5062 -1.4917  0.8547
 4189SOL     OW24199   2.336   3.014   5.789  0.0502 -0.6312  0.5277
 4189SOL    HW124200   2.310   3.100   5.758 -1.1517 -0.9960  0.5047
 4189SOL    HW224201   2.353   2.959   5.712  0.0710  0.4701 -0.2550
 4190SOL     OW24202   3.921   0.335   8.376 -0.4990  0.2397 -0.0941
 4190SOL    HW124203   4.010   0.300   8.376 -0.9669 -0.9195  3.1918
 4190SOL    HW224204   3.874   0.271   8.323 -2.6154  1.3993  0.3433
 4191SOL     OW24205   2.953   2.721   9.139  0.0482  0.0637  0.1960
 4191SOL    HW124206   2.865   2.683   9.136  0.8248 -1.9315  2.1069
 4191SOL    HW224207   3.006   2.651   9.101  3.2182  2.5848  0.0136
 4192SOL     OW24208   4.670   1.669   8.882  0.3098 -0.1119  0.1483
 4192SOL    HW124209   4.586   1.641   8.846  0.4516  0.9048 -0.9603
 4192SOL    HW224210   4.731   1.604   8.847  0.4505 -0.6890  1.4618
 4193SOL     OW24211   0.066   2.168   3.250 -0.5726 -0.1657 -0.1565
 4193SOL    HW124212   0.049   2.209   3.166 -3.5989  0.0043  0.5343
 4193SOL    HW224213   4.710   2.132   3.264 -0.0736 -0.8070  1.4007
 4194SOL     OW24214   2.606   1.799  16.407  0.0780  0.6787 -0.0333
 4194SOL    HW124215   2.672   1.796  16.338 -1.0735  1.8550 -1.1797
 4194SOL    HW224216   2.528   1.814  16.354  3.1037  2.2147 -3.9868
 4195SOL     OW24217   1.893   2.383   1.738 -0.1474 -0.0742  0.4108
 4195SOL    HW124218   1.988   2.382   1.747 -0.0997 -1.0559 -0.2619
 4195SOL    HW224219   1.874   2.472   1.706 -1.9002 -0.9429 -0.9405
 4196SOL     OW24220   2.141   4.194  10.217  0.0830  0.2417  0.6441
 4196SOL    HW124221   2.191   4.129  10.167 -1.0878 -0.4392  0.3544
 4196SOL    HW224222   2.078   4.135  10.259 -0.6244  1.3644  1.1455
 4197SOL     OW24223   1.213   2.927   8.361  0.4288 -0.1164  0.6533
 4197SOL    HW124224   1.188   2.987   8.431 -1.1102  1.0922 -0.9224
 4197SOL    HW224225   1.292   2.973   8.333 -0.7287  0.9867 -0.7666
 4198SOL     OW24226   3.659   0.080  14.638  0.2181 -0.1652 -0.4548
 4198SOL    HW124227   3.748   0.068  14.607  0.0874  0.0754 -0.9247
 4198SOL    HW224228   3.643   0.165  14.597 -1.4470 -0.0326  0.4642
 4199SOL     OW24229   1.480   2.110  12.914  0.4947  0.4072  0.6965
 4199SOL    HW124230   1.410   2.175  12.909  0.7477  0.5317 -1.2759
 4199SOL    HW224231   1.549   2.156  12.962  0.3672  0.4264  0.8626
 4200SOL     OW24232   1.854   0.864   7.717 -0.2673  0.0077  0.0896
 4200SOL    HW124233   1.839   0.936   7.656 -0.0502 -0.0823 -0.0689
 4200SOL    HW224234   1.915   0.818   7.661 -2.5920 -1.4265 -1.2363
 4201SOL     OW24235   2.952   4.232   0.604 -0.1697  0.2958 -0.1677
 4201SOL    HW124236   2.977   4.143   0.582 -1.4343 -0.2540  0.6307
 4201SOL    HW224237   2.954   4.224   0.700  0.8188 -0.7198 -0.2731
 4202SOL     OW24238   3.835   4.225   4.882  0.2984  0.3116 -0.0583
 4202SOL    HW124239   3.902   4.202   4.946  1.7209 -0.3963 -1.7947
 4202SOL    HW224240   3.799   4.137   4.864  0.7141  0.3630 -1.1604
 4203SOL     OW24241   2.699   4.376   0.676 -0.1321  0.6000  0.2772
 4203SOL    HW124242   2.765   4.311   0.654 -1.4846 -0.5131 -0.5218
 4203SOL    HW224243   2.705   4.441   0.606 -0.7879  1.6119  1.1683
 4204SOL     OW24244   4.679   0.137   7.651  0.1928  0.3676 -0.1750
 4204SOL    HW124245   4.717   0.190   7.580  0.5928 -2.7862 -2.3311
 4204SOL    HW224246   4.589   0.169   7.641 -0.7994 -2.4141  0.0124
 4205SOL     OW24247   2.300   0.757   1.758  0.3735 -0.3647  0.4479
 4205SOL    HW124248   2.362   0.687   1.776 -0.1799 -0.8811  0.3279
 4205SOL    HW224249   2.342   0.834   1.797 -3.5507  1.5380  0.8739
 4206SOL     OW24250   1.237   1.868  17.022 -0.3665 -0.2656  0.1709
 4206SOL    HW124251   1.178   1.793  17.022 -1.7604  0.8446  3.5450
 4206SOL    HW224252   1.203   1.920  16.949  1.7403 -2.5961 -2.5143
 4207SOL     OW24253   2.277   4.617   3.179  0.2847  0.4152 -0.0701
 4207SOL    HW124254   2.315   4.700   3.150  1.3105 -0.3218 -0.8260
 4207SOL    HW224255   2.199   4.642   3.229  1.2029  0.4781  1.3382
 4208SOL     OW24256   3.565   0.713   7.690 -0.2031 -0.0316  0.0127
 4208SOL    HW124257   3.506   0.694   7.763 -1.1045  0.2170 -0.6569
 4208SOL    HW224258   3.536   0.647   7.627 -2.2663  1.0319 -0.1393
 4209SOL     OW24259   2.049   4.669   8.729  0.1407 -0.2683  0.3002
 4209SOL    HW124260   2.019   4.629   8.811 -1.1600 -0.9451 -0.5109
 4209SOL    HW224261   1.961   4.687   8.697  0.2293 -0.3408  0.0164
 4210SOL     OW24262   0.310   3.122   1.985  0.1798 -0.1505  0.6318
 4210SOL    HW124263   0.354   3.179   2.048  0.6258 -1.8555  1.8649
 4210SOL    HW224264   0.365   3.116   1.907  0.1452  1.2282  0.4954
 4211SOL     OW24265   2.497   3.396   2.105 -0.0575 -0.0040 -0.2372
 4211SOL    HW124266   2.579   3.387   2.152 -0.4089 -1.6527  0.0575
 4211SOL    HW224267   2.512   3.489   2.087  1.9796 -0.4717 -1.0138
 4212SOL     OW24268   4.163   2.080   1.810  0.0574  0.1213 -0.3777
 4212SOL    HW124269   4.230   2.080   1.742  0.3922  0.0829 -0.0517
 4212SOL    HW224270   4.173   1.992   1.846  2.2139  1.5193  2.5683
 4213SOL     OW24271   3.128   1.933   7.542  0.2654 -0.3758  1.3509
 4213SOL    HW124272   3.212   1.902   7.509  0.0089  1.2844 -0.9369
 4213SOL    HW224273   3.096   1.985   7.468  2.2613  1.8899  2.0889
 4214SOL     OW24274   1.812   2.647  13.242 -0.1273 -0.5894 -0.2340
 4214SOL    HW124275   1.878   2.682  13.302  1.0158 -2.4633 -0.3805
 4214SOL    HW224276   1.740   2.641  13.305 -1.2351 -1.1090 -1.5435
 4215SOL     OW24277   1.152   2.410   3.746 -0.0065  0.2054  0.2689
 4215SOL    HW124278   1.178   2.420   3.655  0.1448  0.8522  0.3859
 4215SOL    HW224279   1.175   2.320   3.770  1.7721  0.7726  0.6896
 4216SOL     OW24280   0.245   4.521   2.150 -0.1345 -0.0779  0.1586
 4216SOL    HW124281   0.166   4.572   2.170 -0.2960  0.7457 -2.6167
 4216SOL    HW224282   0.214   4.461   2.082  0.3187 -0.1543  0.0188
 4217SOL     OW24283   2.344   1.026   3.100  0.3898  0.1865 -0.3265
 4217SOL    HW124284   2.423   1.043   3.152 -0.0303  0.2514  0.2844
 4217SOL    HW224285   2.280   1.013   3.170 -1.2288  1.4671 -1.5865
 4218SOL     OW24286   1.366   0.888  17.094 -0.8020 -0.0485  0.1339
 4218SOL    HW124287   1.384   0.801  17.058  0.7661 -0.2687  1.4262
 4218SOL    HW224288   1.274   0.873  17.116 -0.2422 -0.8716  1.9556
 4219SOL     OW24289   0.992   3.794  10.966 -0.1086 -0.1614  0.0152
 4219SOL    HW124290   1.059   3.796  11.033  0.7215  2.2382 -0.8767
 4219SOL    HW224291   0.937   3.720  10.994  0.4007 -0.5961 -0.1452
 4220SOL     OW24292   4.309   0.036   8.921  0.0525 -0.2163  0.0371
 4220SOL    HW124293   4.247   4.720   8.976 -0.8490  0.3662 -0.4634
 4220SOL    HW224294   4.390   0.001   8.957  0.1540  0.1931  0.2080
 4221SOL     OW24295   0.444   3.438  15.546 -0.1312 -0.3420  0.7568
 4221SOL    HW124296   0.407   3.521  15.515 -0.0109 -0.4111  0.4281
 4221SOL    HW224297   0.420   3.381  15.473  0.3819  0.0114  0.3031
 4222SOL     OW24298   0.990   3.392   4.790 -0.7961 -0.0336  0.1962
 4222SOL    HW124299   1.066   3.374   4.734 -1.3316 -0.1036 -0.4911
 4222SOL    HW224300   1.010   3.480   4.822 -0.8169 -0.5648  1.6852
 4223SOL     OW24301   0.235   2.139   9.164 -0.0942 -0.2577  0.2272
 4223SOL    HW124302   0.147   2.176   9.167  0.4284  1.1143 -1.4091
 4223SOL    HW224303   0.242   2.086   9.244  0.0686  1.6084  1.4632
 4224SOL     OW24304   3.227   0.710   4.294 -0.6458 -0.1981 -0.2242
 4224SOL    HW124305   3.228   0.766   4.372 -3.7426  0.5572 -0.7132
 4224SOL    HW224306   3.320   0.694   4.276 -0.9582 -1.3671 -0.7786
 4225SOL     OW24307   0.868   2.108   2.780 -0.4742  0.0054  0.0180
 4225SOL    HW124308   0.828   2.194   2.765 -0.2787 -0.4261 -3.0715
 4225SOL    HW224309   0.948   2.108   2.727  0.6504 -0.3781  1.7076
 4226SOL     OW24310   2.310   3.803  17.598  0.3579 -0.5029  0.0834
 4226SOL    HW124311   2.222   3.766  17.606  0.9096 -1.5469  1.4142
 4226SOL    HW224312   2.341   3.773  17.513 -1.3383 -0.0699 -0.6945
 4227SOL     OW24313   1.393   2.479  13.521 -0.6652 -0.6483  0.4682
 4227SOL    HW124314   1.340   2.399  13.520  0.1927 -1.2270  2.5369
 4227SOL    HW224315   1.328   2.543  13.548 -0.6333  0.5933 -2.4197
 4228SOL     OW24316   2.552   4.254  16.336 -0.2613  0.1635  0.1686
 4228SOL    HW124317   2.564   4.317  16.265 -1.0483  1.5004  1.2014
 4228SOL    HW224318   2.497   4.193  16.288 -1.9351  0.3524  1.8153
 4229SOL     OW24319   2.903   0.038   3.519  0.2861 -0.6171  0.1250
 4229SOL    HW124320   2.887   0.130   3.498  0.6812 -0.2736  1.3443
 4229SOL    HW224321   2.940   0.064   3.603 -0.7341  2.6433 -0.4516
 4230SOL     OW24322   0.947   1.173   2.973  0.2683  0.2340 -0.2377
 4230SOL    HW124323   0.945   1.105   3.040  2.2814  0.9559  0.5730
 4230SOL    HW224324   1.037   1.204   2.987  0.9978 -0.9159 -2.4281
 4231SOL     OW24325   2.398   0.081   9.992 -0.8575  0.2391  0.0649
 4231SOL    HW124326   2.477   0.044   9.952 -0.5649 -1.2323  1.9833
 4231SOL    HW224327   2.428   0.171   9.978  0.4314 -0.4074 -1.3529
 4232SOL     OW24328   4.569   3.931   5.754 -0.0475 -0.0329 -0.0780
 4232SOL    HW124329   4.495   3.980   5.718 -1.9697 -1.7357  1.5317
 4232SOL    HW224330   4.641   3.985   5.721 -0.4827  0.1771 -0.6825
 4233SOL     OW24331   0.097   0.380   5.768 -0.4351  0.2155 -0.2567
 4233SOL    HW124332   0.188   0.355   5.785 -0.9518 -3.3127 -2.6530
 4233SOL    HW224333   0.110   0.447   5.701 -0.3799 -1.7001 -2.1679
 4234SOL     OW24334   3.304   2.243   3.289 -0.0355  0.0933 -0.2160
 4234SOL    HW124335   3.214   2.276   3.287 -0.2211 -0.3652  0.8697
 4234SOL    HW224336   3.351   2.323   3.309  1.4893 -0.6662 -0.7878
 4235SOL     OW24337   0.758   1.236   3.939 -0.1967  0.3305  0.4297
 4235SOL    HW124338   0.840   1.188   3.952 -1.1922 -1.7664 -1.0539
 4235SOL    HW224339   0.781   1.328   3.927 -3.0968  0.7743 -1.7614
 4236SOL     OW24340   2.276   2.421   3.722 -0.6057  0.6054 -0.1934
 4236SOL    HW124341   2.293   2.329   3.705  0.6280  0.7596  0.2270
 4236SOL    HW224342   2.220   2.425   3.799 -2.3501  0.6932 -1.4656
 4237SOL     OW24343   1.972   4.062   9.007  0.3886  0.3438  0.0726
 4237SOL    HW124344   1.901   4.017   9.052  1.1395  0.7857  1.7062
 4237SOL    HW224345   1.936   4.150   9.009  1.4821  0.8188 -1.1577
 4238SOL     OW24346   4.408   3.241  12.307  0.0602  0.4360  0.0740
 4238SOL    HW124347   4.455   3.253  12.225  2.3186 -3.1329  0.8384
 4238SOL    HW224348   4.399   3.324  12.353 -0.4963  0.5723 -0.2722
 4239SOL     OW24349   0.138   3.116  14.946  0.1533  0.0788 -0.0963
 4239SOL    HW124350   0.201   3.150  14.882  0.4509  0.8376  0.5990
 4239SOL    HW224351   0.066   3.162  14.903  0.6315 -0.5941 -1.6055
 4240SOL     OW24352   3.222   4.341   3.974  0.7605  0.3606 -0.3767
 4240SOL    HW124353   3.140   4.314   4.015  1.2320  0.3691  0.5606
 4240SOL    HW224354   3.201   4.412   3.912  0.6363  0.7363  0.0997
 4241SOL     OW24355   1.883   0.352  17.503  0.4063 -0.2582 -0.1100
 4241SOL    HW124356   1.894   0.291  17.575  1.4368 -0.1748 -0.2067
 4241SOL    HW224357   1.949   0.332  17.437 -0.8718 -1.8445 -0.9007
 4242SOL     OW24358   3.972   0.654  15.128  0.3941 -0.3557 -0.1979
 4242SOL    HW124359   4.022   0.580  15.162  0.5960 -0.2917 -0.3553
 4242SOL    HW224360   3.907   0.656  15.198 -0.4100 -2.5148 -0.8874
 4243SOL     OW24361   3.171   0.902   9.235  0.0765 -0.5188  0.7352
 4243SOL    HW124362   3.171   0.991   9.272 -1.4177 -1.4225  2.9000
 4243SOL    HW224363   3.203   0.852   9.310  2.2189  0.7672  0.6599
 4244SOL     OW24364   3.611   1.045   2.492  0.0682 -0.3499 -0.7064
 4244SOL    HW124365   3.686   1.084   2.537 -2.1025  2.0344  0.8732
 4244SOL    HW224366   3.659   0.997   2.425  0.4384  1.2665 -1.6061
 4245SOL     OW24367   2.512   4.058   4.665  0.4554 -0.7567 -0.4501
 4245SOL    HW124368   2.505   3.963   4.665  0.1768 -0.7347 -0.7163
 4245SOL    HW224369   2.607   4.064   4.654  0.1241  1.8065 -1.9451
 4246SOL     OW24370   3.465   4.072   8.059 -0.3451 -0.4007  0.0478
 4246SOL    HW124371   3.442   4.165   8.047  1.8642  0.4341  2.4001
 4246SOL    HW224372   3.560   4.078   8.053 -0.2687 -1.6426  0.0348
 4247SOL     OW24373   2.076   2.542   0.861  0.4225 -0.7618 -0.4587
 4247SOL    HW124374   2.020   2.602   0.811 -0.4516  0.9413  2.5784
 4247SOL    HW224375   2.029   2.460   0.847 -1.3540 -0.0692  1.3798
 4248SOL     OW24376   3.485   2.866   4.708  0.2680 -0.2460  0.4043
 4248SOL    HW124377   3.514   2.937   4.651  1.6266 -2.1528 -1.2441
 4248SOL    HW224378   3.403   2.845   4.664  0.0476  0.2474  0.5753
 4249SOL     OW24379   3.611   4.667   1.109  0.5441  0.1747  0.2843
 4249SOL    HW124380   3.596   4.630   1.021  2.5741  1.1809 -0.4768
 4249SOL    HW224381   3.549   4.620   1.164  1.3802  0.7527  1.7293
 4250SOL     OW24382   4.495   0.979   8.615  0.4228 -0.2479 -0.1681
 4250SOL    HW124383   4.473   0.916   8.683  0.0538  0.0302 -0.0293
 4250SOL    HW224384   4.433   0.948   8.549 -0.1140  0.3845  0.0348
 4251SOL     OW24385   2.703   2.413  16.383  1.2010  0.6076  0.1873
 4251SOL    HW124386   2.656   2.366  16.315 -0.1357  0.3202  1.3077
 4251SOL    HW224387   2.703   2.343  16.449 -1.8132  0.5265  0.0711
 4252SOL     OW24388   2.596   2.596  17.587  0.4891  0.2118  0.6326
 4252SOL    HW124389   2.644   2.663  17.635  0.2785  0.1754  0.8898
 4252SOL    HW224390   2.554   2.544  17.655  1.5326 -1.1094  0.2815
 4253SOL     OW24391   1.567   4.702  10.568  0.1209  0.2574  0.0833
 4253SOL    HW124392   1.577   0.050  10.516 -1.6151 -1.1550 -2.3788
 4253SOL    HW224393   1.658   4.678  10.584 -0.0386 -0.3641  0.0443
 4254SOL     OW24394   0.557   3.799  17.123  0.1697  0.4122 -0.4437
 4254SOL    HW124395   0.510   3.730  17.169 -0.9463  0.5095 -1.4160
 4254SOL    HW224396   0.516   3.879  17.156 -0.6691 -0.9374  1.7304
 4255SOL     OW24397   3.315   0.793   7.227 -0.1469 -0.0140  0.0296
 4255SOL    HW124398   3.273   0.762   7.307 -0.3572 -0.0922 -0.1114
 4255SOL    HW224399   3.286   0.884   7.217 -1.8025 -0.5390 -0.0332
 4256SOL     OW24400   0.150   0.448   5.106 -0.5577 -0.3794  0.3764
 4256SOL    HW124401   0.091   0.511   5.064  1.9515  0.9905 -1.0555
 4256SOL    HW224402   0.187   0.407   5.028  0.9842  1.4590  0.1554
 4257SOL     OW24403   1.072   1.593   2.243  0.9181 -0.5817 -0.0684
 4257SOL    HW124404   1.017   1.524   2.206 -1.3675  2.4058 -2.1819
 4257SOL    HW224405   1.133   1.614   2.173 -0.7363  1.1628 -0.9753
 4258SOL     OW24406   1.314   4.516   5.496  0.3554  0.3203 -0.3483
 4258SOL    HW124407   1.279   4.454   5.432 -0.6617 -1.1679  1.6549
 4258SOL    HW224408   1.403   4.480   5.505  0.8212  1.4660 -0.4343
 4259SOL     OW24409   3.663   2.475   7.545 -0.0996 -0.5532  0.3623
 4259SOL    HW124410   3.704   2.542   7.600  1.6407  0.4092 -2.1553
 4259SOL    HW224411   3.586   2.527   7.519 -0.0071 -2.1500 -3.0170
 4260SOL     OW24412   3.781   4.267   6.798  0.4525 -1.1945  0.4363
 4260SOL    HW124413   3.748   4.288   6.886  0.3731 -0.4493  0.2261
 4260SOL    HW224414   3.698   4.274   6.751 -1.3472  0.3476  3.8170
 4261SOL     OW24415   2.798   1.820  16.233  0.5202 -0.5912 -0.3199
 4261SOL    HW124416   2.886   1.807  16.269  0.8599 -0.9688 -1.2915
 4261SOL    HW224417   2.809   1.896  16.175 -1.1343  0.1429  0.3239
 4262SOL     OW24418   0.595   0.814   9.614 -0.7947  0.2102 -0.3074
 4262SOL    HW124419   0.573   0.788   9.525 -1.7189  1.3004 -0.3984
 4262SOL    HW224420   0.559   0.743   9.667 -1.3755  0.8439  0.1442
 4263SOL     OW24421   0.210   2.898   2.499 -0.2764  0.2321  0.4971
 4263SOL    HW124422   0.171   2.814   2.523 -1.8845  0.7046 -0.4071
 4263SOL    HW224423   0.165   2.951   2.565 -0.4449 -1.1216  1.4603
 4264SOL     OW24424   2.126   1.256   9.318 -0.0462 -0.1904 -0.1135
 4264SOL    HW124425   2.143   1.248   9.224  0.5352  1.6629 -0.1569
 4264SOL    HW224426   2.034   1.230   9.319 -0.3119  0.9101  2.3246
 4265SOL     OW24427   0.475   0.289  15.559 -0.0720 -0.5658 -0.2316
 4265SOL    HW124428   0.531   0.312  15.485  0.1650  0.7597  0.3694
 4265SOL    HW224429   0.457   0.196  15.541  0.9121 -0.7917 -0.0451
 4266SOL     OW24430   2.051   3.125   1.106 -0.0466 -0.4275 -0.1798
 4266SOL    HW124431   2.018   3.156   1.021 -1.3002 -0.3892  0.3255
 4266SOL    HW224432   2.085   3.040   1.078 -1.5596 -1.4702  1.1530
 4267SOL     OW24433   1.423   0.361   3.482  0.5570  0.8940 -0.1731
 4267SOL    HW124434   1.333   0.330   3.488  0.4783  1.4015  1.1420
 4267SOL    HW224435   1.441   0.387   3.572  3.2201 -1.2931 -0.0415
 4268SOL     OW24436   1.329   0.051  12.336 -0.0576 -0.5689 -0.0547
 4268SOL    HW124437   1.386   0.070  12.411  0.0488 -1.1790  0.0212
 4268SOL    HW224438   1.322   4.689  12.354  1.3726 -0.4452  1.1066
 4269SOL     OW24439   2.148   4.121   5.303 -0.0245 -0.0631 -0.2034
 4269SOL    HW124440   2.120   4.110   5.212  1.4029  0.6505 -0.7391
 4269SOL    HW224441   2.160   4.030   5.332 -1.2253 -0.2599 -0.3509
 4270SOL     OW24442   1.793   1.032   8.584  0.4371  0.1965 -0.4665
 4270SOL    HW124443   1.859   1.077   8.637 -0.8705  1.7634 -0.2017
 4270SOL    HW224444   1.754   1.109   8.544  0.3212  0.3655 -0.0162
 4271SOL     OW24445   4.219   4.100   5.842  0.2222 -0.5727  0.8088
 4271SOL    HW124446   4.199   4.131   5.930  2.0053  1.1749  0.6052
 4271SOL    HW224447   4.265   4.173   5.800 -0.8692 -1.4319 -1.8750
 4272SOL     OW24448   2.037   3.992  14.735  0.2819  0.1348  0.0048
 4272SOL    HW124449   2.024   3.963  14.645 -0.7819 -2.4682  1.0166
 4272SOL    HW224450   2.084   3.921  14.779 -0.5138 -1.3396 -1.5354
 4273SOL     OW24451   3.073   2.875  10.520 -0.1082 -0.0396  0.5029
 4273SOL    HW124452   3.127   2.826  10.458 -0.0442 -1.3138  1.5591
 4273SOL    HW224453   2.988   2.842  10.490 -0.6701  1.0989  0.8598
 4274SOL     OW24454   0.828   0.770   9.033  0.0069  0.1454  0.4628
 4274SOL    HW124455   0.916   0.786   9.067 -0.1823 -0.7626  1.3699
 4274SOL    HW224456   0.774   0.794   9.109 -2.8034 -0.5569 -1.3250
 4275SOL     OW24457   1.346   3.579   4.495  0.1262  0.4876  0.5382
 4275SOL    HW124458   1.314   3.639   4.562  0.7391  1.1148  0.2822
 4275SOL    HW224459   1.374   3.637   4.424  1.7462 -0.7809  0.1334
 4276SOL     OW24460   2.110   1.663   3.825  0.0114  0.5497  0.6191
 4276SOL    HW124461   2.092   1.624   3.911  2.4228 -0.1869  0.7881
 4276SOL    HW224462   2.069   1.750   3.825 -0.7353  0.1860 -1.6316
 4277SOL     OW24463   2.189   4.409  10.793 -0.1649 -0.4894 -0.2919
 4277SOL    HW124464   2.240   4.483  10.827 -1.5330  1.2358 -1.9684
 4277SOL    HW224465   2.233   4.409  10.708 -0.0971 -1.2137 -0.2576
 4278SOL     OW24466   4.355   4.350  16.478  0.1882  0.2634 -0.2989
 4278SOL    HW124467   4.376   4.383  16.565  0.5897  0.3990 -0.4481
 4278SOL    HW224468   4.295   4.416  16.444  1.2290  2.6478  2.5098
 4279SOL     OW24469   0.393   2.191   7.364  0.4930 -0.6175 -0.2722
 4279SOL    HW124470   0.460   2.125   7.379  1.2186  0.6325  2.0409
 4279SOL    HW224471   0.411   2.214   7.273 -0.5515  0.2153 -0.2761
 4280SOL     OW24472   1.404   4.692  16.104  0.1969 -0.3148  0.4638
 4280SOL    HW124473   1.340   0.025  16.135 -1.5633 -1.2331 -1.2632
 4280SOL    HW224474   1.432   0.014  16.030  0.2572 -0.5210  0.3362
 4281SOL     OW24475   0.165   4.146   5.057  0.3252 -0.3258  0.9256
 4281SOL    HW124476   0.156   4.069   5.001 -0.1612 -0.0860  0.6686
 4281SOL    HW224477   0.162   4.210   4.986 -0.4619 -0.8239  0.5091
 4282SOL     OW24478   1.386   2.014  17.194  0.2852 -0.0872  0.4723
 4282SOL    HW124479   1.346   1.950  17.135 -1.4303  0.8420  0.6258
 4282SOL    HW224480   1.333   1.998  17.271  2.4221  0.5997  2.0878
 4283SOL     OW24481   2.865   4.475   7.619 -0.7973  0.0063  0.3645
 4283SOL    HW124482   2.839   4.383   7.623 -0.0431 -0.1903  0.6708
 4283SOL    HW224483   2.864   4.501   7.711  0.8463 -2.0157  0.9500
 4284SOL     OW24484   3.381   3.814   7.936  0.3912 -0.3303  0.7236
 4284SOL    HW124485   3.431   3.856   7.866  1.5105 -0.7282  1.2840
 4284SOL    HW224486   3.450   3.818   8.002  1.6962  0.6357 -0.7045
 4285SOL     OW24487   2.392   4.357   2.758  0.2351 -0.0936 -0.1937
 4285SOL    HW124488   2.467   4.380   2.703  1.3657  0.7545  1.6900
 4285SOL    HW224489   2.360   4.446   2.771  1.1210  0.1694  0.2120
 4286SOL     OW24490   0.785   4.617   6.664  0.0016  0.5780 -0.6713
 4286SOL    HW124491   0.755   4.705   6.640  1.4158  0.8415 -1.4726
 4286SOL    HW224492   0.862   4.618   6.607  0.2395  0.3567 -0.3482
 4287SOL     OW24493   0.794   0.657   5.295 -0.0914  0.3482  0.2174
 4287SOL    HW124494   0.733   0.589   5.267 -0.1950 -0.5032  2.5244
 4287SOL    HW224495   0.759   0.712   5.224 -1.5216 -1.5457 -0.5583
 4288SOL     OW24496   0.323   4.078   9.997 -0.1549 -0.5018 -0.4234
 4288SOL    HW124497   0.272   4.106   9.921  1.0371  0.1270 -0.9789
 4288SOL    HW224498   0.372   4.010   9.951  1.2755 -0.2771  0.7769
 4289SOL     OW24499   1.132   3.972   8.000  0.1422  0.3298  0.0418
 4289SOL    HW124500   1.043   4.007   8.002  0.5007  1.2110  0.6137
 4289SOL    HW224501   1.188   4.046   8.022  0.5388  0.4618 -1.4745
 4290SOL     OW24502   2.616   1.618   8.743 -0.1753  0.0627 -0.6872
 4290SOL    HW124503   2.581   1.603   8.655  0.4413  2.2181 -1.3064
 4290SOL    HW224504   2.710   1.617   8.725  0.0671  1.2139  0.4936
 4291SOL     OW24505   0.075   4.415  15.963  0.1617 -0.1434 -0.1010
 4291SOL    HW124506   0.170   4.424  15.969 -0.0269  0.1991  2.4686
 4291SOL    HW224507   0.057   4.367  15.882 -1.1160 -1.8013  1.1521
 4292SOL     OW24508   1.692   4.574   9.416 -0.1496 -0.1417  0.4506
 4292SOL    HW124509   1.622   4.528   9.462  0.3160 -0.6111  0.6820
 4292SOL    HW224510   1.649   4.647   9.371 -1.0692 -2.0279 -1.7360
 4293SOL     OW24511   0.795   3.279   6.480  0.0110  0.4879  0.2357
 4293SOL    HW124512   0.817   3.212   6.414 -2.6623 -2.3198  2.1824
 4293SOL    HW224513   0.843   3.253   6.558 -0.3363  1.5421  0.7952
 4294SOL     OW24514   1.301   3.829   4.618  0.4955  0.3073 -0.1770
 4294SOL    HW124515   1.217   3.854   4.655 -0.3055  0.6101 -2.1644
 4294SOL    HW224516   1.358   3.837   4.694 -1.6756 -0.1561  1.4927
 4295SOL     OW24517   2.575   0.013  10.343  0.4759 -0.1409  0.0510
 4295SOL    HW124518   2.535   4.702  10.268 -0.2516 -0.3975  0.5843
 4295SOL    HW224519   2.664   0.032  10.315  1.1055 -1.1399  1.3504
 4296SOL     OW24520   3.531   3.177   7.967 -0.1816 -0.2068 -0.2840
 4296SOL    HW124521   3.563   3.263   7.995  3.4092 -2.0997  1.4528
 4296SOL    HW224522   3.604   3.120   7.991 -0.4184  0.5925  2.3587
 4297SOL     OW24523   3.975   1.543  16.220  0.2945 -0.3197 -0.2323
 4297SOL    HW124524   4.053   1.510  16.265 -0.0165 -0.6915  0.0360
 4297SOL    HW224525   3.966   1.632  16.255 -1.6259 -0.0246 -1.4702
 4298SOL     OW24526   2.933   0.520   9.388 -0.0414  0.0416 -0.2524
 4298SOL    HW124527   2.921   0.502   9.295  1.4735  1.2364 -0.6749
 4298SOL    HW224528   2.938   0.431   9.423  0.5532  0.9065  1.8713
 4299SOL     OW24529   3.577   2.973  17.058 -1.2459 -0.0947  0.3567
 4299SOL    HW124530   3.513   2.911  17.022 -2.8503  0.7974  1.6695
 4299SOL    HW224531   3.593   3.031  16.984  1.7399  0.6294  1.5672
 4300SOL     OW24532   4.100   2.459   3.374 -0.1889  0.6725 -0.2647
 4300SOL    HW124533   4.007   2.472   3.394 -0.7525 -2.0349 -1.1124
 4300SOL    HW224534   4.130   2.548   3.393  3.6006 -1.2790  2.7886
 4301SOL     OW24535   1.896   2.329  13.629  0.2390  0.1959  0.4079
 4301SOL    HW124536   1.917   2.420  13.609  0.4832 -0.1401 -0.8146
 4301SOL    HW224537   1.809   2.326  13.589  0.2269  0.5969  0.4008
 4302SOL     OW24538   2.631   3.073   2.588 -0.2029 -0.0593  0.5717
 4302SOL    HW124539   2.725   3.076   2.567 -0.4064 -1.8735 -0.6071
 4302SOL    HW224540   2.623   3.070   2.683 -1.8306 -1.4750  0.3914
 4303SOL     OW24541   2.131   1.594   0.544  0.0110  0.1235 -0.2177
 4303SOL    HW124542   2.078   1.556   0.614 -0.6764 -0.1363 -0.8864
 4303SOL    HW224543   2.169   1.518   0.500  0.7072  0.6431 -0.5183
 4304SOL     OW24544   3.381   2.804  11.000 -0.1738  0.3428  0.1536
 4304SOL    HW124545   3.426   2.882  10.969  1.8105 -0.2064  1.6465
 4304SOL    HW224546   3.415   2.805  11.090 -0.9676  2.4126  0.4158
 4305SOL     OW24547   2.181   4.436  10.316  0.4233  0.4664 -0.5546
 4305SOL    HW124548   2.118   4.496  10.277  0.9948  1.2988 -0.1862
 4305SOL    HW224549   2.158   4.368  10.253  0.0548  1.5784 -1.6167
 4306SOL     OW24550   0.646   1.280   2.030 -0.7343  0.1762  0.0643
 4306SOL    HW124551   0.563   1.304   1.989 -0.2783  0.5955 -0.6312
 4306SOL    HW224552   0.704   1.335   1.977 -1.3536 -0.0083 -0.7899
 4307SOL     OW24553   4.228   1.112   0.748  0.1497  0.1464  0.2800
 4307SOL    HW124554   4.254   1.143   0.661  0.1884 -1.0429 -0.1223
 4307SOL    HW224555   4.145   1.070   0.729 -0.4179  1.3692  0.0248
 4308SOL     OW24556   3.301   3.807   3.972  0.2646 -0.0484  0.0419
 4308SOL    HW124557   3.215   3.772   3.996 -0.0860  0.4842 -0.4307
 4308SOL    HW224558   3.298   3.864   3.895 -0.8090  1.3030  1.0745
 4309SOL     OW24559   4.703   2.135  14.466  0.1981  0.0460  0.2333
 4309SOL    HW124560   4.665   2.078  14.399  0.4596 -0.1489  0.2477
 4309SOL    HW224561   0.061   2.102  14.469  0.1085 -0.6186 -4.8165
 4310SOL     OW24562   4.034   2.673   6.475  0.4881 -0.3170  0.3247
 4310SOL    HW124563   4.064   2.670   6.566 -1.6784 -1.9976  0.9871
 4310SOL    HW224564   4.095   2.610   6.438  0.2359 -0.3851  0.0270
 4311SOL     OW24565   1.630   3.492   5.942 -0.3235  0.3451  0.2433
 4311SOL    HW124566   1.599   3.417   5.992  1.5932 -1.3264 -1.0329
 4311SOL    HW224567   1.571   3.485   5.867  1.9229 -3.3626 -1.1928
 4312SOL     OW24568   3.243   0.379  12.223 -0.5734 -0.3228 -0.2119
 4312SOL    HW124569   3.176   0.380  12.291 -0.1074  0.4757  0.2352
 4312SOL    HW224570   3.203   0.324  12.156  0.7598 -0.4773 -0.8945
 4313SOL     OW24571   0.055   1.619   1.453 -0.3824  0.6108  0.4351
 4313SOL    HW124572   0.068   1.674   1.376  1.5008  1.1090  1.1177
 4313SOL    HW224573   0.143   1.626   1.490 -0.5442 -2.0891  1.3581
 4314SOL     OW24574   2.521   4.622  10.782  0.0535 -0.2257 -0.3418
 4314SOL    HW124575   2.553   4.531  10.785 -2.2451 -1.0373 -0.9760
 4314SOL    HW224576   2.589   4.682  10.813 -0.5699  0.5474 -0.4777
 4315SOL     OW24577   1.673   3.043   3.533  0.1784 -0.0531 -0.0423
 4315SOL    HW124578   1.763   3.012   3.521  1.1011  2.2279  1.0267
 4315SOL    HW224579   1.697   3.134   3.517 -0.8162  0.5693  2.0735
 4316SOL     OW24580   4.494   2.729   1.265 -0.1867  0.3011  0.0775
 4316SOL    HW124581   4.483   2.820   1.289  2.2723  0.4925  0.5541
 4316SOL    HW224582   4.448   2.692   1.340 -0.7907  1.2730  0.1682
 4317SOL     OW24583   0.916   4.148   5.827 -0.1124  0.6206 -0.1345
 4317SOL    HW124584   0.884   4.233   5.797  1.3584  0.6279 -1.6642
 4317SOL    HW224585   0.954   4.160   5.914 -0.4789  0.1899  0.0908
 4318SOL     OW24586   1.805   0.597   9.087  0.6791  0.1929  0.5096
 4318SOL    HW124587   1.896   0.610   9.113  0.4702  0.4727  1.1053
 4318SOL    HW224588   1.763   0.612   9.172  2.6680  1.2269  1.3247
 4319SOL     OW24589   0.402   2.965  14.015 -0.2496  0.3033  0.5933
 4319SOL    HW124590   0.348   2.931  14.086 -2.6914  0.5069 -1.1466
 4319SOL    HW224591   0.484   2.996  14.054 -0.2338  0.8047  0.1631
 4320SOL     OW24592   1.134   2.580   5.615  0.4123  0.0461  0.6006
 4320SOL    HW124593   1.068   2.650   5.619  0.9262  0.4880  1.1957
 4320SOL    HW224594   1.072   2.507   5.621  0.6866 -0.0471  2.2946
 4321SOL     OW24595   3.969   1.613   7.719 -0.0447 -0.3997  0.2600
 4321SOL    HW124596   4.034   1.594   7.651  0.3125  1.8052  0.0081
 4321SOL    HW224597   4.012   1.687   7.760  1.4014 -0.7201 -0.6667
 4322SOL     OW24598   1.055   2.361  17.183 -0.0709  0.6912 -0.4724
 4322SOL    HW124599   1.071   2.290  17.120  0.1815  0.5081 -0.2053
 4322SOL    HW224600   1.143   2.399  17.178  0.4457 -0.5198 -0.4415
 4323SOL     OW24601   0.010   0.794  11.415 -0.3483  0.0535  0.2747
 4323SOL    HW124602   0.085   0.852  11.400 -1.9542  1.2891 -2.9861
 4323SOL    HW224603   4.670   0.854  11.396  0.3248  0.8925  0.3617
 4324SOL     OW24604   0.957   3.725   5.768 -0.3264  0.2787 -0.0488
 4324SOL    HW124605   1.044   3.697   5.737 -0.5098 -1.0306  0.6346
 4324SOL    HW224606   0.902   3.691   5.698 -2.0487  0.9185  1.0104
 4325SOL     OW24607   2.552   1.004   6.829 -0.3576  0.0470  0.3722
 4325SOL    HW124608   2.553   1.057   6.909  2.1292  1.2336 -0.4714
 4325SOL    HW224609   2.516   1.070   6.770  0.7338  0.3279  0.0359
 4326SOL     OW24610   3.247   0.002   8.059  0.1829  1.1911 -0.0234
 4326SOL    HW124611   3.276   4.661   8.004  0.2022  0.2327  1.2409
 4326SOL    HW224612   3.211   0.058   7.990 -1.0430  1.8992  1.1915
 4327SOL     OW24613   0.334   3.448  12.095  0.3612  0.4538 -0.6252
 4327SOL    HW124614   0.292   3.488  12.171  0.6495 -1.3327  0.4835
 4327SOL    HW224615   0.358   3.361  12.126 -1.9158 -0.8490 -2.5004
 4328SOL     OW24616   2.042   1.345  11.335 -0.0411  0.5212 -0.3295
 4328SOL    HW124617   2.045   1.328  11.429 -1.6602 -3.1966 -0.9591
 4328SOL    HW224618   2.077   1.434  11.329 -1.2681  1.1496  1.7652
 4329SOL     OW24619   3.529   4.115  15.044  0.2481  0.2505 -0.1955
 4329SOL    HW124620   3.544   4.052  14.974  4.4334  0.2486  0.6582
 4329SOL    HW224621   3.439   4.095  15.068  0.1479  1.4666  0.4391
 4330SOL     OW24622   0.828   3.622  16.929 -0.3005 -0.3207  0.2931
 4330SOL    HW124623   0.866   3.588  16.848 -0.0431  0.5479  0.0490
 4330SOL    HW224624   0.901   3.680  16.951  1.4956 -1.7315 -1.9846
 4331SOL     OW24625   4.459   3.468   9.212 -0.5029  0.0287  0.0059
 4331SOL    HW124626   4.376   3.486   9.256 -1.7901 -1.3803 -1.8607
 4331SOL    HW224627   4.467   3.374   9.232 -1.8149 -0.3518 -1.2902
 4332SOL     OW24628   4.367   3.819  13.161 -0.2698  0.1623  0.0100
 4332SOL    HW124629   4.354   3.734  13.120  1.1572  0.0445 -0.1994
 4332SOL    HW224630   4.430   3.855  13.098  0.0738 -0.6058 -0.0793
 4333SOL     OW24631   2.522   1.359   9.504 -0.1883 -0.0182  0.2679
 4333SOL    HW124632   2.528   1.364   9.409 -1.4941  1.2631  0.2500
 4333SOL    HW224633   2.432   1.391   9.510  0.0848  0.6769  0.7154
 4334SOL     OW24634   4.530   1.831   4.922  0.1802  0.0229 -0.3756
 4334SOL    HW124635   4.455   1.773   4.907  0.0725  0.4073 -1.3207
 4334SOL    HW224636   4.501   1.874   5.002  1.1452  1.9835 -1.0732
 4335SOL     OW24637   3.617   0.605   2.953 -0.0645  0.3821 -0.0199
 4335SOL    HW124638   3.643   0.535   2.893  1.6700  0.1707  0.9733
 4335SOL    HW224639   3.668   0.675   2.912 -0.3710  1.7083  1.8975
 4336SOL     OW24640   0.364   3.711  13.450 -0.0585 -0.1642 -0.2181
 4336SOL    HW124641   0.280   3.665  13.450 -0.3335  0.3206  1.1825
 4336SOL    HW224642   0.409   3.703  13.366  1.4675  0.3287  0.5532
 4337SOL     OW24643   0.693   4.641  15.605 -0.3601 -0.7880 -0.4074
 4337SOL    HW124644   0.732   4.590  15.677 -0.9072 -0.9499 -0.2234
 4337SOL    HW224645   0.755   4.709  15.578 -2.2493 -0.0067 -2.6972
 4338SOL     OW24646   3.036   1.346   2.011  0.6858 -0.3491 -0.5742
 4338SOL    HW124647   2.955   1.343   2.062 -0.0159  1.2667 -1.5919
 4338SOL    HW224648   3.099   1.389   2.069  1.5576 -0.1465 -1.6829
 4339SOL     OW24649   1.220   1.835   7.965 -0.3321 -0.2738 -0.0951
 4339SOL    HW124650   1.217   1.768   8.034 -0.6158  0.1080  0.2664
 4339SOL    HW224651   1.125   1.840   7.953 -0.8039 -2.2087  2.8311
 4340SOL     OW24652   2.628   2.012  16.828  0.3302 -0.0738 -0.1002
 4340SOL    HW124653   2.552   2.030  16.883  0.0523  0.7688 -0.7518
 4340SOL    HW224654   2.698   2.036  16.889 -0.1494 -0.8238  0.7460
 4341SOL     OW24655   1.350   1.043   6.023 -0.1333  0.4172 -0.0159
 4341SOL    HW124656   1.378   1.043   5.932 -1.1399  0.7025 -0.3253
 4341SOL    HW224657   1.267   1.089   6.013 -0.0536  0.8327  1.1723
 4342SOL     OW24658   3.040   0.288   2.440  0.1041  0.2809  0.3246
 4342SOL    HW124659   3.002   0.307   2.526  1.7888 -0.1476  1.1476
 4342SOL    HW224660   3.054   0.194   2.447  0.1625  0.3617  1.2580
 4343SOL     OW24661   4.465   0.660   3.838 -0.2253  0.2518 -0.1345
 4343SOL    HW124662   4.530   0.669   3.908  2.6155 -1.5855 -2.5420
 4343SOL    HW224663   4.518   0.623   3.768  0.3116  0.5792  0.0998
 4344SOL     OW24664   2.778   0.062  13.664 -0.4877  0.1913 -0.1071
 4344SOL    HW124665   2.748   4.729  13.727  1.1458 -0.3036  0.1766
 4344SOL    HW224666   2.692   0.094  13.637 -0.6580  0.2275  0.4827
 4345SOL     OW24667   2.008   2.465   1.113 -0.5563  0.2973 -0.1430
 4345SOL    HW124668   2.036   2.506   1.031 -0.9171 -2.6202 -1.7117
 4345SOL    HW224669   1.957   2.544   1.134 -2.9290 -1.7067  1.5642
 4346SOL     OW24670   0.139   2.539  14.583  0.8153  0.0207 -0.1196
 4346SOL    HW124671   0.097   2.500  14.506  1.4513 -1.1981  0.1542
 4346SOL    HW224672   0.107   2.627  14.562  0.5394 -0.0901 -0.1648
 4347SOL     OW24673   3.654   1.105   2.047 -0.2211  0.0347  0.4061
 4347SOL    HW124674   3.582   1.073   1.994  0.1945 -0.8874  0.4105
 4347SOL    HW224675   3.675   1.024   2.092  3.2685  1.1577  0.7840
 4348SOL     OW24676   2.924   2.940   5.846 -0.2622  0.2130  0.0740
 4348SOL    HW124677   2.857   2.872   5.838 -0.0529  0.1449 -1.0616
 4348SOL    HW224678   2.918   2.962   5.939 -2.0680 -0.8330  0.2076
 4349SOL     OW24679   4.039   0.237   1.403 -0.0930 -0.4677  0.5811
 4349SOL    HW124680   4.128   0.268   1.387  0.0921 -1.1574  0.2553
 4349SOL    HW224681   3.996   0.304   1.455 -0.9111 -0.0713 -0.5945
 4350SOL     OW24682   1.682   2.420   4.872  0.1753  0.4216  0.2905
 4350SOL    HW124683   1.710   2.380   4.955  0.5126  1.5916  0.7454
 4350SOL    HW224684   1.729   2.375   4.803 -0.0457  0.2888  0.2250
 4351SOL     OW24685   3.761   0.081   9.403 -0.0292 -0.4640 -0.0034
 4351SOL    HW124686   3.751   4.730   9.449 -2.2122  0.6067  1.4905
 4351SOL    HW224687   3.836   0.072   9.344 -0.7345  2.2421 -1.3173
 4352SOL     OW24688   2.816   0.044   8.125  0.0864  0.4856  0.5023
 4352SOL    HW124689   2.863   0.127   8.136 -0.0603  0.4007  1.8056
 4352SOL    HW224690   2.790   0.052   8.033  1.3695  0.1472  0.1077
 4353SOL     OW24691   3.090   2.665   1.998  0.5400 -0.2360 -0.0462
 4353SOL    HW124692   3.132   2.591   1.954  0.7997  0.2765 -0.6583
 4353SOL    HW224693   3.024   2.620   2.051 -1.2425  2.5630  0.1236
 4354SOL     OW24694   3.910   0.932  12.573 -0.2559  0.2241  0.3019
 4354SOL    HW124695   3.949   0.908  12.657 -0.2348 -2.5865 -0.5113
 4354SOL    HW224696   3.928   0.853  12.521 -0.3472 -0.3076  1.0782
 4355SOL     OW24697   3.039   1.387  12.739  0.3181 -0.3507 -0.8862
 4355SOL    HW124698   3.093   1.373  12.816  1.0070 -2.4406 -1.7483
 4355SOL    HW224699   3.102   1.370  12.669  2.5343 -1.3488  1.3676
 4356SOL     OW24700   3.677   1.950   3.404  0.2053 -0.0486  0.5807
 4356SOL    HW124701   3.664   1.918   3.494 -0.9103  1.4794  0.9596
 4356SOL    HW224702   3.586   1.966   3.380  0.0872  1.3033  1.9617
 4357SOL     OW24703   0.040   2.260  11.673 -0.0097 -0.1005  0.0802
 4357SOL    HW124704   0.103   2.210  11.622  0.9945 -1.5304  2.6821
 4357SOL    HW224705   4.691   2.210  11.659 -0.2158 -0.3766  2.1872
 4358SOL     OW24706   1.170   3.069   7.186  0.3723  0.0244 -0.6583
 4358SOL    HW124707   1.108   3.032   7.248  4.3803 -1.1752  2.5765
 4358SOL    HW224708   1.150   3.017   7.108 -1.7659  0.2451 -0.2552
 4359SOL     OW24709   3.171   2.184   9.506 -0.2413  0.9030 -0.1739
 4359SOL    HW124710   3.248   2.130   9.491 -0.8824  0.6558 -2.4669
 4359SOL    HW224711   3.143   2.142   9.588 -1.8409 -0.7343 -1.5753
 4360SOL     OW24712   2.734   2.217  15.218 -0.0723  0.5994 -0.2258
 4360SOL    HW124713   2.810   2.209  15.161  0.1823 -0.7869  0.3171
 4360SOL    HW224714   2.769   2.182  15.300  1.2813 -0.2793 -1.1924
 4361SOL     OW24715   3.236   1.820  14.189 -0.0362 -0.0652 -0.3383
 4361SOL    HW124716   3.293   1.897  14.193 -1.6480  1.1181  0.0766
 4361SOL    HW224717   3.160   1.868  14.154 -0.9326 -0.2393  1.3771
 4362SOL     OW24718   4.306   3.975   7.771 -0.0086  0.0250 -0.2074
 4362SOL    HW124719   4.219   3.937   7.776  0.6129 -1.3155  0.3132
 4362SOL    HW224720   4.356   3.901   7.805  1.8137  0.3457 -2.1396
 4363SOL     OW24721   3.327   1.596   5.369  0.0235  0.7097  0.2999
 4363SOL    HW124722   3.354   1.535   5.300 -0.3991 -1.0673  1.6988
 4363SOL    HW224723   3.291   1.540   5.437 -0.4130  0.8791  0.2086
 4364SOL     OW24724   0.866   3.003   3.790 -0.1880  0.0349  0.2175
 4364SOL    HW124725   0.900   3.017   3.878  2.5996  1.7203 -1.1425
 4364SOL    HW224726   0.829   2.915   3.798  0.7053 -0.2578  1.0287
 4365SOL     OW24727   0.662   1.311  16.456  0.9684 -0.5776  0.2976
 4365SOL    HW124728   0.751   1.307  16.490  1.9487 -1.8164 -2.4811
 4365SOL    HW224729   0.668   1.384  16.394  1.1100 -2.9227 -2.4419
 4366SOL     OW24730   4.717   4.133   6.790 -0.2383 -0.1639 -0.5548
 4366SOL    HW124731   0.009   4.201   6.853  0.3065 -0.5816 -0.3153
 4366SOL    HW224732   0.027   4.172   6.713  1.4078  0.6247  0.7466
 4367SOL     OW24733   1.159   0.824   6.350 -0.2627  0.1358 -0.1852
 4367SOL    HW124734   1.236   0.880   6.361  1.1306 -1.6606 -0.8209
 4367SOL    HW224735   1.181   0.789   6.264 -0.0810 -0.3598  0.0617
 4368SOL     OW24736   2.673   3.358   8.316 -0.5023 -0.5452 -0.4236
 4368SOL    HW124737   2.651   3.437   8.268  1.8171  1.4509  1.8320
 4368SOL    HW224738   2.657   3.289   8.252  0.8154 -1.7139  0.4981
 4369SOL     OW24739   2.990   0.017   5.731 -0.3944 -0.3353 -0.1199
 4369SOL    HW124740   3.070   0.068   5.716 -0.5423  0.1068  0.5722
 4369SOL    HW224741   3.017   4.658   5.747 -0.7950 -0.5126 -0.4627
 4370SOL     OW24742   0.641   0.456   5.186  0.4593 -0.3131 -0.4567
 4370SOL    HW124743   0.689   0.423   5.110 -0.9747 -2.0117 -0.6121
 4370SOL    HW224744   0.571   0.391   5.193  0.4796 -0.2026  0.7556
 4371SOL     OW24745   2.880   2.252   1.012 -0.3094 -0.8549  0.1502
 4371SOL    HW124746   2.806   2.199   0.981 -1.9018  0.5004  1.5928
 4371SOL    HW224747   2.946   2.234   0.946  0.7282  0.7668  0.7269
 4372SOL     OW24748   3.826   4.355   1.524  0.0003  0.1747 -0.4493
 4372SOL    HW124749   3.911   4.312   1.526 -0.0821 -0.1180 -2.5021
 4372SOL    HW224750   3.787   4.316   1.602  0.0884 -1.2557 -1.1154
 4373SOL     OW24751   1.726   2.181   3.177  0.5014 -0.4141 -0.7167
 4373SOL    HW124752   1.679   2.239   3.116  0.4114  1.4701  1.1733
 4373SOL    HW224753   1.812   2.165   3.138  0.2341 -2.0130 -0.6450
 4374SOL     OW24754   2.642   3.398   3.782 -0.0299  0.2421  0.5735
 4374SOL    HW124755   2.665   3.416   3.691  0.9211  0.2107  0.8049
 4374SOL    HW224756   2.714   3.340   3.809 -1.1954 -0.7279  1.5926
 4375SOL     OW24757   0.735   1.704   3.400  0.0937  0.1812 -0.0068
 4375SOL    HW124758   0.653   1.674   3.361  1.1195 -0.5998 -1.5655
 4375SOL    HW224759   0.721   1.794   3.370 -0.1629 -0.1061 -0.7504
 4376SOL     OW24760   3.383   2.984   3.912 -0.3452 -0.4083  0.3505
 4376SOL    HW124761   3.379   3.073   3.947  1.8567  0.2373 -1.1030
 4376SOL    HW224762   3.390   2.944   3.999 -0.6151  1.3677  1.2008
 4377SOL     OW24763   4.161   4.594   9.081  0.1995  0.1122  0.2720
 4377SOL    HW124764   4.088   4.542   9.114 -2.7597  2.1413 -3.0231
 4377SOL    HW224765   4.175   4.650   9.158  1.2098 -1.3923  1.1629
 4378SOL     OW24766   3.753   0.024   1.970 -0.2385  0.4984  0.0364
 4378SOL    HW124767   3.725   4.731   2.058 -2.1223 -1.6026 -1.1540
 4378SOL    HW224768   3.721   4.685   1.913  0.8945 -0.5580  0.7212
 4379SOL     OW24769   2.632   2.447  10.166 -0.1861  0.1190  0.1797
 4379SOL    HW124770   2.704   2.416  10.222 -1.1471  1.6822  2.3040
 4379SOL    HW224771   2.570   2.379  10.191  0.2914 -0.8992 -1.4567
 4380SOL     OW24772   1.924   0.862   8.296 -0.4121 -0.0156 -0.3540
 4380SOL    HW124773   1.993   0.814   8.342 -1.0880 -0.6913 -0.0429
 4380SOL    HW224774   1.847   0.864   8.352 -0.7648 -0.2979 -0.8346
 4381SOL     OW24775   0.228   0.147  13.237 -0.7784 -0.2470  0.2140
 4381SOL    HW124776   0.186   0.227  13.267 -1.5303 -0.1828 -0.9952
 4381SOL    HW224777   0.311   0.180  13.204 -0.8404 -0.5198 -0.2199
 4382SOL     OW24778   3.028   1.365   6.207 -0.2751 -0.4307  0.3423
 4382SOL    HW124779   3.008   1.450   6.246  2.4055 -0.7533  2.3818
 4382SOL    HW224780   3.040   1.386   6.114  1.2519  1.6958  1.0317
 4383SOL     OW24781   2.233   1.687  17.272 -0.0102  0.1785  0.2762
 4383SOL    HW124782   2.273   1.735  17.344 -0.1478 -0.3074  0.6799
 4383SOL    HW224783   2.312   1.678  17.218 -1.3079 -1.4004 -1.3760
 4384SOL     OW24784   0.245   2.059  14.423  0.0690 -0.0546 -0.5173
 4384SOL    HW124785   0.340   2.059  14.412  0.0678 -3.3162 -0.4137
 4384SOL    HW224786   0.233   1.966  14.404 -1.6758  0.1051 -0.1414
 4385SOL     OW24787   2.506   0.390   7.874  0.8177  0.0088  0.5438
 4385SOL    HW124788   2.464   0.391   7.960  0.9709 -0.9741  0.6278
 4385SOL    HW224789   2.597   0.392   7.903  0.5797 -1.3683  1.3875
 4386SOL     OW24790   0.536   2.088   1.931  0.0103  0.0390  0.1423
 4386SOL    HW124791   0.477   2.072   2.005 -1.2355 -0.0759 -0.8844
 4386SOL    HW224792   0.621   2.116   1.965  0.6248 -0.3348 -1.0820
 4387SOL     OW24793   1.937   2.732  15.055  0.1071 -0.1701 -0.0135
 4387SOL    HW124794   1.965   2.823  15.045  1.2741 -0.1527  3.5867
 4387SOL    HW224795   2.014   2.689  15.018 -1.1274 -1.9000 -0.5818
 4388SOL     OW24796   2.730   3.555   3.992  0.2246 -0.4024 -0.1943
 4388SOL    HW124797   2.730   3.514   4.079 -2.0169  0.8067  0.3750
 4388SOL    HW224798   2.669   3.502   3.942  0.1464  0.7957 -1.3731
 4389SOL     OW24799   4.091   3.231   4.191  0.1762  0.4570  0.5734
 4389SOL    HW124800   4.149   3.277   4.251  0.6618 -0.9693  1.1794
 4389SOL    HW224801   4.013   3.286   4.200  0.1332  0.3471  0.8472
 4390SOL     OW24802   2.382   3.692  17.373 -0.5076  0.3494  0.1231
 4390SOL    HW124803   2.326   3.629  17.327 -2.9877  2.3663  0.3821
 4390SOL    HW224804   2.466   3.646  17.367 -0.4034  0.6711 -0.9107
 4391SOL     OW24805   4.198   2.257   8.289 -0.3706 -0.1564 -0.0275
 4391SOL    HW124806   4.258   2.294   8.354  0.3144 -1.5799  0.1387
 4391SOL    HW224807   4.191   2.339   8.240  0.8574 -0.6773 -1.0596
 4392SOL     OW24808   2.860   1.693   9.436  0.3404  0.4668  0.4677
 4392SOL    HW124809   2.831   1.676   9.526  2.0377 -1.5044  0.6465
 4392SOL    HW224810   2.914   1.616   9.420  1.8193  1.5093  0.3901
 4393SOL     OW24811   1.299   3.639   6.650 -0.4058  0.0402  0.0239
 4393SOL    HW124812   1.349   3.595   6.719  1.9570  0.2707 -1.5472
 4393SOL    HW224813   1.224   3.678   6.695  0.8435  0.6829  1.5607
 4394SOL     OW24814   3.731   0.603   3.871  0.0189 -0.3460  0.4997
 4394SOL    HW124815   3.723   0.581   3.964 -0.1226  1.6108  0.9364
 4394SOL    HW224816   3.735   0.698   3.876  1.5498 -0.4001  0.3096
 4395SOL     OW24817   2.206   1.226   1.792  0.7157 -0.3365  0.1166
 4395SOL    HW124818   2.167   1.306   1.757  0.1294 -1.6872 -2.3297
 4395SOL    HW224819   2.137   1.201   1.854  0.5669 -1.5934 -0.5614
 4396SOL     OW24820   4.213   4.023  12.603 -0.4807  0.2373 -0.1608
 4396SOL    HW124821   4.232   4.115  12.620 -1.2748 -0.3321  3.7065
 4396SOL    HW224822   4.257   3.975  12.673 -0.1585 -0.5552 -0.8985
 4397SOL     OW24823   1.891   2.642  16.321 -0.3905 -0.2812  0.0228
 4397SOL    HW124824   1.928   2.580  16.258  0.7677 -2.4941  2.9042
 4397SOL    HW224825   1.975   2.673  16.354 -0.3230 -1.5569  1.0455
 4398SOL     OW24826   3.792   0.898   3.913  0.5051  0.0712  0.3886
 4398SOL    HW124827   3.751   0.984   3.915  2.4529  1.0419 -1.3097
 4398SOL    HW224828   3.861   0.913   3.977  1.4249  2.3729 -1.1805
 4399SOL     OW24829   1.747   4.447   6.185 -0.0939 -0.2739  0.0517
 4399SOL    HW124830   1.842   4.433   6.189 -0.4481 -2.8621 -0.8301
 4399SOL    HW224831   1.740   4.462   6.091 -1.3738 -1.7557 -0.0884
 4400SOL     OW24832   2.187   2.591  15.912  0.4548 -0.6838 -0.8407
 4400SOL    HW124833   2.236   2.537  15.850  1.9530  0.6412 -0.8140
 4400SOL    HW224834   2.233   2.674  15.906 -2.4399  0.9886  0.1275
 4401SOL     OW24835   3.568   1.447   6.281 -0.0746 -0.2178 -0.1936
 4401SOL    HW124836   3.627   1.520   6.263 -0.3814  0.2855  0.8089
 4401SOL    HW224837   3.482   1.481   6.255  0.0465  1.5612  1.7427
 4402SOL     OW24838   2.816   4.391  14.166 -0.2389  0.0816 -0.0956
 4402SOL    HW124839   2.844   4.299  14.171  1.7994  0.6966 -0.0852
 4402SOL    HW224840   2.751   4.398  14.236 -0.3938 -0.4077 -0.1880
 4403SOL     OW24841   1.992   0.965  16.446 -0.5435 -0.3385 -0.3619
 4403SOL    HW124842   2.032   1.051  16.456  0.4929 -0.5823 -2.4586
 4403SOL    HW224843   1.994   0.928  16.535  2.9937  0.1128 -0.2329
 4404SOL     OW24844   2.323   2.717   6.052 -0.2558  0.4452  0.0898
 4404SOL    HW124845   2.261   2.705   5.979 -0.3592  3.6291 -0.3697
 4404SOL    HW224846   2.262   2.738   6.123 -2.3076  0.0807 -1.5435
 4405SOL     OW24847   3.691   2.175  12.892 -0.2462  0.0222  0.2980
 4405SOL    HW124848   3.642   2.114  12.836  0.0262  1.5368 -1.5772
 4405SOL    HW224849   3.762   2.195  12.832 -0.4760  0.7615  0.2707
 4406SOL     OW24850   1.615   2.324   4.501 -0.3469  0.3367  0.7896
 4406SOL    HW124851   1.692   2.379   4.484 -3.3753  4.9316  2.0400
 4406SOL    HW224852   1.540   2.383   4.500  2.0452  3.3432 -0.5000
 4407SOL     OW24853   0.045   2.102  14.169 -0.1916 -0.1178  0.4833
 4407SOL    HW124854   0.086   2.188  14.182 -0.5749 -0.0374  1.1930
 4407SOL    HW224855   0.115   2.064  14.117 -1.0781 -2.1889  0.8227
 4408SOL     OW24856   2.984   2.500  12.327  0.2258  0.6139 -0.3924
 4408SOL    HW124857   2.929   2.428  12.294 -0.1947  1.3670 -1.3204
 4408SOL    HW224858   3.039   2.520  12.251 -0.1296  2.9313 -0.0247
 4409SOL     OW24859   0.657   1.571   6.582 -0.1202 -0.1436 -0.1152
 4409SOL    HW124860   0.657   1.646   6.641  3.9794 -0.4927  0.3540
 4409SOL    HW224861   0.684   1.609   6.498  0.8380  1.4789  0.9318
 4410SOL     OW24862   4.433   1.489   1.070  0.0321 -0.5211  0.4455
 4410SOL    HW124863   4.365   1.435   1.029  1.9311 -0.9908 -2.0514
 4410SOL    HW224864   4.497   1.498   0.999 -0.5592 -1.8639 -0.2534
 4411SOL     OW24865   4.013   3.740   8.953 -0.2921  0.1661  0.3275
 4411SOL    HW124866   4.101   3.708   8.973  0.4596  1.5537 -0.7570
 4411SOL    HW224867   4.003   3.703   8.866  1.0567 -3.2824  1.6419
 4412SOL     OW24868   3.591   0.908   6.712 -0.1571  0.6683  0.3972
 4412SOL    HW124869   3.547   0.836   6.667 -0.0551  0.7016  0.2432
 4412SOL    HW224870   3.581   0.970   6.640 -3.3678 -0.7510 -0.3795
 4413SOL     OW24871   1.538   3.542   8.539 -0.6470  0.0069 -0.4437
 4413SOL    HW124872   1.492   3.464   8.510  2.2506 -2.3525  1.2940
 4413SOL    HW224873   1.612   3.502   8.584  0.4554  1.4680 -0.9440
 4414SOL     OW24874   1.269   2.383   5.081 -0.6972  0.5886  0.2876
 4414SOL    HW124875   1.271   2.467   5.126  1.6617  0.3399  0.6533
 4414SOL    HW224876   1.311   2.402   4.997  1.4127 -1.8019  0.8067
 4415SOL     OW24877   3.636   4.443   2.479 -0.2157  0.5641  0.9918
 4415SOL    HW124878   3.606   4.400   2.559  1.1409  0.9990  1.7356
 4415SOL    HW224879   3.579   4.403   2.413 -1.1299 -0.0358  2.1474
 4416SOL     OW24880   1.381   0.329  15.720 -0.0570  0.3748  0.5311
 4416SOL    HW124881   1.421   0.405  15.678  0.0625  1.0324  1.8409
 4416SOL    HW224882   1.332   0.369  15.792 -1.6926  0.2654 -0.5320
 4417SOL     OW24883   2.648   1.121  12.844  0.6477  0.0459 -0.3334
 4417SOL    HW124884   2.687   1.192  12.794  0.0272 -0.7166 -1.8774
 4417SOL    HW224885   2.560   1.128  12.809  0.9452  1.3060 -0.8485
 4418SOL     OW24886   2.395   2.928   4.620  0.2772 -0.1174  0.1409
 4418SOL    HW124887   2.408   2.987   4.547 -0.8776 -1.0367 -0.8087
 4418SOL    HW224888   2.332   2.861   4.594  0.1021 -0.2830  0.9882
 4419SOL     OW24889   2.145   4.530   5.393  0.4913  0.8224 -0.4588
 4419SOL    HW124890   2.232   4.535   5.430  0.3596 -0.1022 -0.0284
 4419SOL    HW224891   2.080   4.519   5.463  0.8270 -1.3240 -0.5079
 4420SOL     OW24892   3.860   2.296   2.014 -0.6158  0.1459  0.8115
 4420SOL    HW124893   3.764   2.296   2.016 -0.5979 -1.2802  1.4621
 4420SOL    HW224894   3.886   2.386   2.033  0.2798 -0.1149  0.8144
 4421SOL     OW24895   3.218   1.683   4.076 -0.2299 -0.1023  0.7473
 4421SOL    HW124896   3.204   1.592   4.100 -0.6757 -0.3193 -0.3365
 4421SOL    HW224897   3.305   1.701   4.112  0.0784 -0.7972  0.3472
 4422SOL     OW24898   0.316   2.937   3.264 -0.5541  0.2133  0.4392
 4422SOL    HW124899   0.290   2.862   3.209  0.6315  0.2019 -0.1067
 4422SOL    HW224900   0.372   2.989   3.206 -1.2926  2.5078  1.7929
 4423SOL     OW24901   3.643   2.870   9.907 -0.2807  0.0582  0.0815
 4423SOL    HW124902   3.574   2.827   9.856 -1.6485  1.0383  1.1226
 4423SOL    HW224903   3.636   2.960   9.876 -2.0856 -0.6212 -1.5142
 4424SOL     OW24904   4.540   2.722   6.788 -0.0324 -0.2786 -0.6359
 4424SOL    HW124905   4.528   2.816   6.804  1.2515 -0.4927  1.5552
 4424SOL    HW224906   4.547   2.720   6.693 -0.6435  3.1010 -0.7624
 4425SOL     OW24907   3.723   0.634  14.525 -0.0050 -0.3801 -0.3007
 4425SOL    HW124908   3.730   0.559  14.585  0.6402 -1.0148 -1.1768
 4425SOL    HW224909   3.813   0.665  14.514  0.1557 -1.0496 -0.8772
 4426SOL     OW24910   1.393   1.936   3.446  0.2264  0.0338  0.2392
 4426SOL    HW124911   1.443   2.010   3.478 -0.4299  1.3559 -1.8028
 4426SOL    HW224912   1.387   1.964   3.355  1.6767 -1.0660 -0.1859
 4427SOL     OW24913   4.684   2.506   0.048 -0.5960  0.4556  0.0625
 4427SOL    HW124914   4.697   2.592   0.089 -2.2568  0.9768 -0.5062
 4427SOL    HW224915   4.608   2.474   0.096 -0.9228 -0.0907 -0.8157
 4428SOL     OW24916   0.064   3.056  17.086 -0.2317  0.0104  0.1550
 4428SOL    HW124917   0.103   3.012  17.161 -0.7834  1.2303  1.1506
 4428SOL    HW224918   0.045   2.979  17.031 -2.0343  0.6549 -0.1386
 4429SOL     OW24919   0.460   0.951   3.260 -0.2754 -0.3202 -0.4131
 4429SOL    HW124920   0.497   0.978   3.344  0.6175 -0.3542 -0.7980
 4429SOL    HW224921   0.515   1.003   3.202 -0.0874  0.5101  0.5023
 4430SOL     OW24922   2.416   0.123   8.072 -0.2008  0.2472 -0.0626
 4430SOL    HW124923   2.496   0.135   8.020 -0.0243 -0.7938 -0.0366
 4430SOL    HW224924   2.423   0.185   8.146 -1.8783  0.9310 -0.4926
 4431SOL     OW24925   4.297   0.829   7.393 -0.3688 -0.0131  0.8532
 4431SOL    HW124926   4.236   0.903   7.387 -0.5230 -0.1688  0.5261
 4431SOL    HW224927   4.294   0.791   7.306 -0.5067 -0.2555  0.9629
 4432SOL     OW24928   4.416   1.253  10.607 -0.5021  0.6746 -0.3251
 4432SOL    HW124929   4.380   1.209  10.530  0.5518  1.2385 -1.1332
 4432SOL    HW224930   4.393   1.202  10.685  0.8314  1.8492  0.8251
 4433SOL     OW24931   0.123   1.783   5.463 -0.0952 -0.5821  0.2834
 4433SOL    HW124932   0.052   1.745   5.410  0.6854 -0.7719 -0.6263
 4433SOL    HW224933   0.194   1.779   5.399 -0.4531  1.0268 -0.1996
 4434SOL     OW24934   0.167   4.682   3.583 -0.1246 -0.8543  0.3532
 4434SOL    HW124935   0.073   4.674   3.599 -0.4466 -0.3084 -1.3279
 4434SOL    HW224936   0.188   0.036   3.620 -0.8492 -0.2912 -0.5379
 4435SOL     OW24937   0.762   0.131  17.029 -0.2651  0.1940  0.5712
 4435SOL    HW124938   0.829   0.145  16.962 -0.6023 -2.0323 -0.2473
 4435SOL    HW224939   0.679   0.147  16.985 -0.0357  2.0337  0.8165
 4436SOL     OW24940   2.264   3.406   2.432  0.3019 -0.0128 -0.8641
 4436SOL    HW124941   2.342   3.353   2.448 -0.2221  0.0980  1.9781
 4436SOL    HW224942   2.308   3.491   2.428  2.2422 -1.0043 -0.8564
 4437SOL     OW24943   4.010   3.902   6.303 -0.6053  0.4947 -0.5204
 4437SOL    HW124944   3.914   3.900   6.294 -0.5989 -0.1490 -0.3921
 4437SOL    HW224945   4.020   3.995   6.282  0.3622  0.7769  1.2508
 4438SOL     OW24946   1.678   0.978   6.679  0.0471 -0.2229  0.7149
 4438SOL    HW124947   1.596   0.929   6.676  0.9387 -1.7845  1.8292
 4438SOL    HW224948   1.690   0.989   6.585 -1.9842  0.5765  0.5491
 4439SOL     OW24949   2.437   3.752  10.483  0.3305 -0.7331 -0.1815
 4439SOL    HW124950   2.408   3.814  10.416  0.4658  0.1097  0.5236
 4439SOL    HW224951   2.520   3.796  10.501  0.3723 -1.4351  1.3382
 4440SOL     OW24952   0.231   2.068   1.232  0.2518  0.0033 -0.2096
 4440SOL    HW124953   0.313   2.037   1.272  0.8005 -0.0776 -1.3892
 4440SOL    HW224954   0.204   2.119   1.308 -1.5716  1.0849 -1.5879
 4441SOL     OW24955   2.977   2.873   0.078 -0.1149 -0.0698  0.4580
 4441SOL    HW124956   3.055   2.849   0.129  0.5624  0.1920 -0.4425
 4441SOL    HW224957   2.955   2.960   0.111  1.0473 -0.0281  1.1311
 4442SOL     OW24958   4.552   0.043  14.129 -0.2053  0.5341  0.0241
 4442SOL    HW124959   4.543   0.004  14.042  0.3268 -0.4199  0.3978
 4442SOL    HW224960   4.534   0.136  14.116 -1.5806  0.1979 -0.4383
 4443SOL     OW24961   4.528   2.170  14.717 -0.2869 -0.1064 -0.1230
 4443SOL    HW124962   4.537   2.137  14.627  3.8545 -0.8855  0.5927
 4443SOL    HW224963   4.612   2.215  14.718 -0.1043 -0.4972  1.1938
 4444SOL     OW24964   4.092   0.535   6.866  0.2187 -0.1768 -0.2643
 4444SOL    HW124965   4.075   0.630   6.864  1.9918  0.1598  0.8486
 4444SOL    HW224966   4.063   0.507   6.953 -0.3260  1.4569  0.0817
 4445SOL     OW24967   0.432   2.183   8.495 -0.7186  0.3790 -0.4451
 4445SOL    HW124968   0.342   2.175   8.464  0.0172 -0.8511 -2.2163
 4445SOL    HW224969   0.432   2.275   8.521 -0.2885  0.7222 -1.6648
 4446SOL     OW24970   2.627   3.641   2.023 -1.0092  0.4096  0.1617
 4446SOL    HW124971   2.646   3.701   2.095  0.4376  0.9813 -0.7080
 4446SOL    HW224972   2.614   3.696   1.945 -0.4073  0.2936 -0.0207
 4447SOL     OW24973   0.728   0.921   5.483  0.0976  0.0944 -0.2134
 4447SOL    HW124974   0.775   0.854   5.533  0.9574  1.8245  1.2904
 4447SOL    HW224975   0.637   0.892   5.486  0.2292 -0.3633 -0.7081
 4448SOL     OW24976   3.252   1.819   1.771  0.8257 -0.2356 -0.3132
 4448SOL    HW124977   3.305   1.835   1.850  0.6427 -0.0373 -0.2297
 4448SOL    HW224978   3.295   1.742   1.733  0.2866 -1.2484  1.1035
 4449SOL     OW24979   1.156   3.431  10.332  0.7427  1.1333 -0.1505
 4449SOL    HW124980   1.139   3.473  10.247  0.7467  0.8147 -0.3083
 4449SOL    HW224981   1.071   3.458  10.368  0.4483 -1.5096  1.1643
 4450SOL     OW24982   2.253   1.915   6.035  0.1124 -0.0578  0.6509
 4450SOL    HW124983   2.166   1.886   6.009 -0.4160  0.1570  2.2213
 4450SOL    HW224984   2.259   1.866   6.117 -0.1775 -0.4406  0.4405
 4451SOL     OW24985   3.015   1.785  15.684  0.1644 -0.0738  0.4145
 4451SOL    HW124986   3.045   1.798  15.774 -0.9183  3.1850  0.3144
 4451SOL    HW224987   3.049   1.864  15.642 -1.2915  0.7180  0.7032
 4452SOL     OW24988   2.576   0.581   5.177 -0.1901 -0.0229  0.2402
 4452SOL    HW124989   2.598   0.595   5.085 -2.0087  1.1722 -0.0019
 4452SOL    HW224990   2.578   0.486   5.191  2.0476  0.0126  0.1772
 4453SOL     OW24991   0.273   4.511   3.823 -0.4243  0.2308  0.5590
 4453SOL    HW124992   0.285   4.605   3.839 -1.1166  0.7893 -2.2187
 4453SOL    HW224993   0.362   4.489   3.794 -1.0519 -0.1180 -1.1290
 4454SOL     OW24994   0.895   2.013   4.445 -0.0642  0.3468 -0.4920
 4454SOL    HW124995   0.834   2.085   4.462 -0.7349  0.1501 -2.0858
 4454SOL    HW224996   0.877   1.948   4.513  0.4152 -0.0724 -0.7655
 4455SOL     OW24997   4.109   2.356  16.171 -0.1942  0.1343 -0.0730
 4455SOL    HW124998   4.141   2.328  16.085  0.0734 -0.2151  0.1391
 4455SOL    HW224999   4.185   2.361  16.229  0.3106  1.8351 -0.8748
 4456SOL     OW25000   3.992   4.118  17.420  0.1884 -0.3162  0.2012
 4456SOL    HW125001   4.036   4.058  17.359 -0.5771 -0.8841  0.2136
 4456SOL    HW225002   4.031   4.203  17.401 -0.9355 -0.0103 -0.6866
 4457SOL     OW25003   1.762   2.827   0.199 -0.0655  0.0726 -0.2806
 4457SOL    HW125004   1.760   2.918   0.170  0.2368 -0.2473 -1.3404
 4457SOL    HW225005   1.754   2.773   0.120 -1.5819  1.2446 -0.9256
 4458SOL     OW25006   2.400   2.631  16.519 -0.1526 -0.2200 -0.1317
 4458SOL    HW125007   2.436   2.551  16.557 -0.2206 -0.6248 -0.9290
 4458SOL    HW225008   2.317   2.601  16.482  1.5020 -2.1451 -2.2306
 4459SOL     OW25009   0.834   0.825   4.833  0.6102 -0.1519 -0.1185
 4459SOL    HW125010   0.835   0.878   4.753  0.9685 -1.2335 -0.8303
 4459SOL    HW225011   0.760   0.767   4.814  1.7373 -0.7891 -2.7074
 4460SOL     OW25012   2.413   2.023   4.957  0.2167 -0.1776 -0.3580
 4460SOL    HW125013   2.475   1.958   4.925 -0.7154 -0.5367 -1.4381
 4460SOL    HW225014   2.345   2.022   4.890  0.4692  2.1544 -0.6432
 4461SOL     OW25015   4.523   3.091   5.113 -0.2902 -0.0407  0.4542
 4461SOL    HW125016   4.444   3.119   5.158 -0.4823  0.1366  0.0013
 4461SOL    HW225017   4.587   3.097   5.184  0.1899 -1.0773  0.1237
 4462SOL     OW25018   2.170   1.666   2.202 -0.6528 -0.8123 -0.1628
 4462SOL    HW125019   2.186   1.675   2.296 -1.0753 -2.0040  0.0241
 4462SOL    HW225020   2.154   1.760   2.192  0.3058 -0.3893  2.1147
 4463SOL     OW25021   3.443   3.923   8.835  0.2606  0.5693  0.6278
 4463SOL    HW125022   3.409   3.969   8.758 -0.2944 -0.3283  0.3425
 4463SOL    HW225023   3.470   3.838   8.800  0.1516  1.3612 -1.3907
 4464SOL     OW25024   2.039   4.289  13.965  0.6180  0.2940 -0.4113
 4464SOL    HW125025   2.017   4.262  13.876 -3.1835  0.0480  0.6172
 4464SOL    HW225026   2.006   4.225  14.027  1.6633  1.0969  0.9809
 4465SOL     OW25027   0.841   1.192   8.567 -0.2038  0.1901  0.0682
 4465SOL    HW125028   0.845   1.247   8.489 -0.6780 -0.1126 -0.1675
 4465SOL    HW225029   0.910   1.128   8.554 -0.8009  0.0120 -2.0954
 4466SOL     OW25030   1.676   2.694  14.988  0.4334  0.2723 -0.3020
 4466SOL    HW125031   1.764   2.691  15.025 -1.5441  2.7608  4.6114
 4466SOL    HW225032   1.649   2.606  15.014 -0.3545  0.8303  0.7495
 4467SOL     OW25033   3.647   1.602  12.038 -0.3229  0.5176 -0.2250
 4467SOL    HW125034   3.592   1.679  12.027  0.8757  1.4581  0.3684
 4467SOL    HW225035   3.639   1.588  12.132  2.5424  0.1700 -0.0367
 4468SOL     OW25036   2.893   2.216  15.896 -0.4425 -0.3449  0.2709
 4468SOL    HW125037   2.858   2.294  15.852 -1.2233  0.3076  2.0227
 4468SOL    HW225038   2.867   2.152  15.830  0.2909  0.3306 -0.6815
 4469SOL     OW25039   1.522   4.600   7.125 -0.0008  0.4895 -0.1525
 4469SOL    HW125040   1.576   4.675   7.150  1.3096 -0.5042 -0.0485
 4469SOL    HW225041   1.598   4.542   7.120 -1.4201 -1.3383 -0.6244
 4470SOL     OW25042   0.369   3.935   8.011  0.1697 -0.4023 -0.3423
 4470SOL    HW125043   0.436   3.869   7.992  1.7030  1.7244 -2.3166
 4470SOL    HW225044   0.348   3.980   7.929 -2.3486 -2.3917 -0.7662
 4471SOL     OW25045   1.426   0.552  13.090 -0.6587  0.6275  0.0372
 4471SOL    HW125046   1.505   0.508  13.059 -0.2914  0.2852  1.4439
 4471SOL    HW225047   1.422   0.513  13.177 -0.0816  0.6322  0.0670
 4472SOL     OW25048   3.495   2.128   7.496  0.7596 -0.3146  0.3869
 4472SOL    HW125049   3.532   2.111   7.582  0.4207 -0.1474  0.5628
 4472SOL    HW225050   3.428   2.193   7.513  0.6231  0.0286 -1.4451
 4473SOL     OW25051   3.808   0.637   6.412  0.0379 -0.6825 -0.4988
 4473SOL    HW125052   3.822   0.715   6.358 -1.9621 -1.2008 -1.7419
 4473SOL    HW225053   3.897   0.603   6.402  0.8919  1.7040 -1.0892
 4474SOL     OW25054   2.290   2.492   9.239 -0.4457  0.0077  0.6975
 4474SOL    HW125055   2.262   2.513   9.149 -0.9330 -1.8987  0.3972
 4474SOL    HW225056   2.233   2.552   9.286 -1.9448  0.2560 -1.4074
 4475SOL     OW25057   4.374   2.145   2.945 -0.0304 -0.0211  0.1981
 4475SOL    HW125058   4.348   2.201   3.018  0.2257 -0.4216  0.5975
 4475SOL    HW225059   4.375   2.054   2.973  1.7162 -0.0600 -0.0006
 4476SOL     OW25060   2.620   0.690   6.172  0.2606 -0.5025 -0.3816
 4476SOL    HW125061   2.694   0.737   6.134  1.0170 -0.8956  0.6246
 4476SOL    HW225062   2.643   0.696   6.264  1.6719 -2.1942 -0.6217
 4477SOL     OW25063   2.369   3.590  10.905  0.5666  0.3622 -0.2907
 4477SOL    HW125064   2.289   3.569  10.953  0.2771  0.1499 -0.8634
 4477SOL    HW225065   2.425   3.517  10.932 -0.1480 -0.0474  0.0884
 4478SOL     OW25066   3.252   3.916   0.192 -0.3410 -0.3400 -0.3357
 4478SOL    HW125067   3.236   3.883   0.104  1.9471 -1.1788 -0.4554
 4478SOL    HW225068   3.348   3.921   0.197 -0.2273 -0.7117 -2.2164
 4479SOL     OW25069   4.381   3.901  12.816 -0.0362  0.0853  0.0416
 4479SOL    HW125070   4.410   3.833  12.756  0.9774  0.3741  0.1992
 4479SOL    HW225071   4.462   3.928  12.860  0.6448  1.4171 -2.0133
 4480SOL     OW25072   1.265   0.149  10.422  0.0929  1.5357  0.0896
 4480SOL    HW125073   1.243   0.153  10.515 -2.3371 -0.4971 -0.4041
 4480SOL    HW225074   1.181   0.137  10.377  0.6309 -1.8308  0.0336
 4481SOL     OW25075   3.119   4.574   4.268 -0.5253  0.2958  0.2689
 4481SOL    HW125076   3.190   4.514   4.290 -0.7230 -0.4203 -1.0497
 4481SOL    HW225077   3.041   4.522   4.288  0.7502 -1.6093  0.2920
 4482SOL     OW25078   4.450   0.792   6.837  0.2862  0.0867 -0.2358
 4482SOL    HW125079   4.508   0.718   6.819  2.7072  1.8040  0.6165
 4482SOL    HW225080   4.398   0.806   6.758 -0.8250 -0.9643  0.2990
 4483SOL     OW25081   1.013   4.130  14.467 -0.0302 -0.1588  0.0615
 4483SOL    HW125082   0.936   4.144  14.412 -2.1825 -0.0062  3.1426
 4483SOL    HW225083   1.049   4.219  14.471  1.6577 -0.8153 -0.4535
 4484SOL     OW25084   1.336   2.450  16.897 -0.3436 -0.2007  0.1780
 4484SOL    HW125085   1.354   2.357  16.884  1.4286  0.3496 -1.3189
 4484SOL    HW225086   1.250   2.475  16.863 -0.9105 -2.5693 -0.1203
 4485SOL     OW25087   1.845   4.289  15.462  0.4448  0.0739  0.3908
 4485SOL    HW125088   1.927   4.238  15.465  1.0467  0.9734 -0.8175
 4485SOL    HW225089   1.829   4.307  15.555 -2.2287  2.4034 -0.5204
 4486SOL     OW25090   3.855   3.678   6.233  0.3947  0.4534 -0.3158
 4486SOL    HW125091   3.848   3.681   6.138 -0.4014  0.5331 -0.2547
 4486SOL    HW225092   3.947   3.702   6.242  0.0448  1.1116  1.5275
 4487SOL     OW25093   1.384   2.689   8.477  0.5392  0.0385 -0.1564
 4487SOL    HW125094   1.315   2.719   8.419 -0.7580  0.0469  1.4028
 4487SOL    HW225095   1.453   2.662   8.416  0.6032  1.0611 -0.5317
 4488SOL     OW25096   3.748   0.039   9.015 -0.0775  0.2297 -0.0537
 4488SOL    HW125097   3.745   0.061   8.922 -0.9554  0.9682  0.1538
 4488SOL    HW225098   3.656   0.054   9.039  0.6269  1.6881  1.7227
 4489SOL     OW25099   1.616   2.444   6.373  0.4078  0.0339 -0.1869
 4489SOL    HW125100   1.647   2.383   6.440 -3.2598 -0.8069  0.7611
 4489SOL    HW225101   1.659   2.527   6.394  0.0086 -0.5985  3.0330
 4490SOL     OW25102   2.805   3.830   5.090  0.0602 -0.0785  0.3253
 4490SOL    HW125103   2.763   3.780   5.161 -2.1972 -0.9944 -1.6607
 4490SOL    HW225104   2.882   3.856   5.140 -0.4404  1.1236  0.4767
 4491SOL     OW25105   0.683   0.020   4.837 -0.4463  0.1796  0.4210
 4491SOL    HW125106   0.628   0.097   4.852 -0.6126  0.0523  0.4633
 4491SOL    HW225107   0.727   0.039   4.755  0.6531 -0.0971  0.9542
 4492SOL     OW25108   0.333   2.362   4.477  0.3284 -0.2942  0.2968
 4492SOL    HW125109   0.284   2.397   4.402  1.8040  0.8453 -0.1291
 4492SOL    HW225110   0.264   2.312   4.522 -2.0823  0.3683 -2.6726
 4493SOL     OW25111   2.780   1.253   3.174  0.6826  0.2004 -0.2231
 4493SOL    HW125112   2.699   1.288   3.211  1.8245  1.5795  0.9535
 4493SOL    HW225113   2.806   1.329   3.122 -0.0756  2.8641  3.3432
 4494SOL     OW25114   3.652   1.452   1.756 -0.5278 -0.1870  0.0885
 4494SOL    HW125115   3.712   1.486   1.690 -1.7256  1.9582  0.1069
 4494SOL    HW225116   3.716   1.412   1.815 -0.8962 -1.4517 -0.3705
 4495SOL     OW25117   3.100   4.461   7.792 -0.6126 -0.3284 -0.4540
 4495SOL    HW125118   3.029   4.503   7.841  1.5059  1.4366  1.1197
 4495SOL    HW225119   3.105   4.513   7.711 -0.6420  0.2035 -0.1190
 4496SOL     OW25120   0.675   4.642   5.642 -0.5046 -0.7244  0.1352
 4496SOL    HW125121   0.672   4.683   5.555  1.8635  0.4532  0.6078
 4496SOL    HW225122   0.584   4.643   5.673  0.2455  0.4879  2.2903
 4497SOL     OW25123   1.080   2.027  16.402 -0.9491 -0.2859  0.1377
 4497SOL    HW125124   1.058   2.114  16.436 -0.5331 -0.1003 -0.0820
 4497SOL    HW225125   1.127   2.044  16.321  1.8242  2.6622  2.3735
 4498SOL     OW25126   2.172   3.047   6.002  0.7491  0.0626  0.3255
 4498SOL    HW125127   2.106   2.978   5.997 -1.1715  2.0534 -1.3461
 4498SOL    HW225128   2.214   3.035   5.917  0.2184  1.1868 -0.0764
 4499SOL     OW25129   2.133   2.107  17.544  0.0630 -1.2339  0.6776
 4499SOL    HW125130   2.183   2.183  17.575 -0.1805  0.5254 -3.1844
 4499SOL    HW225131   2.078   2.073  17.615  0.1533 -0.3791  1.1671
 4500SOL     OW25132   1.998   4.034   8.745  0.4973 -0.0991 -0.5396
 4500SOL    HW125133   1.906   4.010   8.737  0.8164 -1.1419 -1.0710
 4500SOL    HW225134   2.001   4.042   8.840  0.9646  1.6622 -0.6854
 4501SOL     OW25135   2.823   1.973  14.474 -0.1394  0.2764 -0.0228
 4501SOL    HW125136   2.758   1.932  14.418  0.4566 -0.3733 -0.2444
 4501SOL    HW225137   2.833   1.897  14.532 -2.4885 -0.3635 -0.4903
 4502SOL     OW25138   1.557   1.181  12.258  0.0677  0.6811 -0.0831
 4502SOL    HW125139   1.462   1.182  12.246 -0.1850 -1.4995  1.6081
 4502SOL    HW225140   1.566   1.095  12.301 -0.7932 -0.0576 -1.3803
 4503SOL     OW25141   3.725   4.117   1.412 -1.0239  0.1888  0.6058
 4503SOL    HW125142   3.703   4.033   1.452 -0.1671 -1.2574 -2.0015
 4503SOL    HW225143   3.684   4.180   1.472 -1.9102  0.1040  0.0944
 4504SOL     OW25144   2.683   4.111   5.517 -0.1263 -0.2892 -0.5572
 4504SOL    HW125145   2.649   4.024   5.496  0.5047 -0.5666 -0.4582
 4504SOL    HW225146   2.735   4.112   5.436 -0.0100  0.6233 -0.4713
 4505SOL     OW25147   1.024   3.336   2.039 -0.9571  0.0249  0.1522
 4505SOL    HW125148   1.006   3.275   2.110 -2.7262  0.2679 -0.0844
 4505SOL    HW225149   1.039   3.280   1.962 -1.2843  2.9067 -2.0295
 4506SOL     OW25150   0.513   3.887   0.864  0.0199 -0.5371 -0.5350
 4506SOL    HW125151   0.514   3.818   0.798 -2.7272  0.7530 -1.9388
 4506SOL    HW225152   0.604   3.883   0.893 -0.0139  3.6775  0.0974
 4507SOL     OW25153   1.952   1.261   3.054  0.2769 -0.3027  0.9295
 4507SOL    HW125154   1.948   1.215   2.970  1.0264  1.7690 -0.2282
 4507SOL    HW225155   2.000   1.339   3.028 -1.0324 -0.1410 -0.9632
 4508SOL     OW25156   3.271   0.397   8.309  0.4549 -0.1674  0.2583
 4508SOL    HW125157   3.190   0.351   8.334  1.2293 -1.0102  1.2136
 4508SOL    HW225158   3.318   0.398   8.392 -0.8610  2.0066  0.9864
 4509SOL     OW25159   0.087   2.016   5.616  0.1267 -0.1022  0.8064
 4509SOL    HW125160   4.729   2.022   5.583  0.1240 -0.7703  0.7058
 4509SOL    HW225161   0.105   1.939   5.562  1.0259  1.2633 -0.8525
 4510SOL     OW25162   0.170   1.996   8.670  1.5023 -0.7559  0.6463
 4510SOL    HW125163   0.180   2.014   8.577 -0.2957 -1.5838  0.2838
 4510SOL    HW225164   0.137   2.079   8.706 -4.4243 -2.9987  0.3960
 4511SOL     OW25165   1.392   1.975   2.727 -0.2199  0.0227  0.3977
 4511SOL    HW125166   1.440   1.914   2.671 -1.2268  1.3474 -1.8862
 4511SOL    HW225167   1.445   2.050   2.697  1.4365 -1.6672 -0.9022
 4512SOL     OW25168   4.356   0.171   7.171  0.2607 -0.1854  0.3173
 4512SOL    HW125169   4.425   0.111   7.142  1.4414  1.5965 -0.5596
 4512SOL    HW225170   4.297   0.116   7.222  0.5038 -2.4301 -1.8582
 4513SOL     OW25171   3.564   3.760   7.436  0.5298  0.3308 -0.0819
 4513SOL    HW125172   3.587   3.674   7.401  2.3226  0.9261 -0.3537
 4513SOL    HW225173   3.509   3.788   7.363  0.7746  2.7395  0.6729
 4514SOL     OW25174   1.425   2.642   3.357 -0.1138  0.3250 -0.1848
 4514SOL    HW125175   1.458   2.719   3.403 -0.2686 -0.3205  0.9950
 4514SOL    HW225176   1.472   2.639   3.274 -2.0794 -1.1202 -1.2467
 4515SOL     OW25177   0.294   3.717  10.919 -0.1666 -0.3013 -0.3308
 4515SOL    HW125178   0.366   3.654  10.918  0.2873  0.2221 -1.3840
 4515SOL    HW225179   0.320   3.777  10.989  0.5693 -1.3156  0.2729
 4516SOL     OW25180   3.634   1.429   3.043 -0.2792 -0.1865 -0.0509
 4516SOL    HW125181   3.691   1.352   3.044  1.3088  0.9930  0.3983
 4516SOL    HW225182   3.623   1.447   3.136  0.5456  0.4225 -0.0714
 4517SOL     OW25183   0.253   2.255  16.400 -0.1420 -0.0412 -0.0384
 4517SOL    HW125184   0.313   2.276  16.328  1.4418  0.3727  1.4267
 4517SOL    HW225185   0.261   2.160  16.393 -3.1677 -0.2986 -0.0984
 4518SOL     OW25186   3.728   1.206   6.243  0.7954  0.4383 -0.1592
 4518SOL    HW125187   3.816   1.234   6.220  1.0272 -0.9118 -0.9102
 4518SOL    HW225188   3.683   1.291   6.248 -0.5519 -0.3747  1.5837
 4519SOL     OW25189   2.151   2.456   9.568  0.0893  0.5263  0.4893
 4519SOL    HW125190   2.071   2.449   9.620  0.7502 -1.1633  1.2905
 4519SOL    HW225191   2.133   2.537   9.521  2.0688 -0.1524 -1.4572
 4520SOL     OW25192   2.855   0.004   6.546 -0.4960 -0.3673  0.0400
 4520SOL    HW125193   2.768   0.021   6.583  0.1993  0.4582  1.3025
 4520SOL    HW225194   2.870   0.070   6.478  1.5487 -0.4174  0.4259
 4521SOL     OW25195   2.116   4.061   2.497 -1.0097 -0.3173  0.7008
 4521SOL    HW125196   2.192   4.003   2.498 -1.0927 -0.5148 -2.4145
 4521SOL    HW225197   2.086   4.069   2.587 -1.5687  0.0054  0.4862
 4522SOL     OW25198   0.711   4.443   3.792 -0.4285 -0.4401  0.5683
 4522SOL    HW125199   0.696   4.489   3.875 -2.3562  2.6609 -1.5426
 4522SOL    HW225200   0.640   4.471   3.734 -1.4744  1.2818  2.6693
 4523SOL     OW25201   3.696   2.607   5.442 -0.8232 -0.0908  0.2598
 4523SOL    HW125202   3.615   2.644   5.476 -1.1600 -1.0285  0.4950
 4523SOL    HW225203   3.733   2.666   5.377  0.8775 -0.7261  0.6588
 4524SOL     OW25204   0.843   1.395   8.942  0.0281  0.6636  0.2791
 4524SOL    HW125205   0.916   1.456   8.950 -0.8117  1.7831 -0.6896
 4524SOL    HW225206   0.837   1.351   9.027 -0.9539  1.6643  0.7210
 4525SOL     OW25207   3.544   0.388   6.171  0.7732 -0.7036 -0.1162
 4525SOL    HW125208   3.539   0.293   6.185 -0.0038 -0.4069  1.6804
 4525SOL    HW225209   3.565   0.406   6.263  0.2652  0.5004 -0.2432
 4526SOL     OW25210   1.354   4.136   8.680 -0.7417  0.8069 -0.0218
 4526SOL    HW125211   1.420   4.075   8.647  0.1125  1.6114  0.1972
 4526SOL    HW225212   1.354   4.129   8.775 -0.2495  0.9294 -0.0158
 4527SOL     OW25213   3.997   0.682   6.041 -0.1094 -0.2141 -0.0110
 4527SOL    HW125214   3.962   0.711   6.125  1.1147  0.8611  0.1265
 4527SOL    HW225215   4.080   0.728   6.030  0.6058 -1.1917  1.3229
 4528SOL     OW25216   1.809   4.354  15.719 -0.0016 -0.0500 -0.5261
 4528SOL    HW125217   1.830   4.444  15.698 -0.6782 -0.1505 -1.6699
 4528SOL    HW225218   1.718   4.370  15.746  0.1293  1.0068 -0.7325
 4529SOL     OW25219   4.494   0.543   8.598  0.2959  0.0318 -0.0685
 4529SOL    HW125220   4.566   0.583   8.550  1.0813 -0.9665  0.2698
 4529SOL    HW225221   4.420   0.563   8.541  0.3753  1.1226  0.2063
 4530SOL     OW25222   1.894   4.449   1.781  0.2931 -0.4190 -0.3406
 4530SOL    HW125223   1.847   4.442   1.864 -1.5208  1.4877 -1.2108
 4530SOL    HW225224   1.966   4.390   1.804 -1.2782 -1.9746  0.5252
 4531SOL     OW25225   0.072   1.173   4.286  0.2017  0.7975  0.0127
 4531SOL    HW125226   0.118   1.170   4.202 -0.5001 -0.8120 -0.3197
 4531SOL    HW225227   4.712   1.165   4.260 -0.3204 -0.2774  2.1413
 4532SOL     OW25228   3.527   4.266   4.731  0.0897 -0.5062  0.9739
 4532SOL    HW125229   3.590   4.231   4.794 -1.7261 -0.0865  2.9994
 4532SOL    HW225230   3.492   4.188   4.686 -0.4180  2.5143 -3.9269
 4533SOL     OW25231   1.016   2.754   6.553 -0.1913  0.0731  0.1512
 4533SOL    HW125232   1.031   2.660   6.559 -0.4053 -0.2442 -4.2628
 4533SOL    HW225233   1.107   2.782   6.538 -0.2102  0.2633  0.3948
 4534SOL     OW25234   0.027   3.679  13.048  0.1263  0.0636 -0.2769
 4534SOL    HW125235   4.698   3.748  13.020  1.0706  0.8351 -0.4013
 4534SOL    HW225236   0.109   3.709  13.010 -0.1577  1.0550 -0.1376
 4535SOL     OW25237   2.917   4.148   4.181 -0.4185 -0.3243  0.2627
 4535SOL    HW125238   2.842   4.162   4.238  1.8927 -0.4658  3.3458
 4535SOL    HW225239   2.887   4.207   4.112  1.7177 -0.0049 -0.4045
 4536SOL     OW25240   2.683   3.360   5.575 -0.1357 -0.6026  0.6174
 4536SOL    HW125241   2.775   3.333   5.575 -0.1735 -0.7219  0.1329
 4536SOL    HW225242   2.675   3.404   5.660  2.1663  2.0797 -0.5509
 4537SOL     OW25243   4.486   1.248  10.206 -0.1464  0.3428  0.2106
 4537SOL    HW125244   4.551   1.216  10.143 -0.8790 -0.5852 -0.0784
 4537SOL    HW225245   4.546   1.266  10.278 -0.8474 -1.6378  1.2759
 4538SOL     OW25246   1.996   2.123   5.588 -0.1779 -0.0434 -0.6874
 4538SOL    HW125247   1.963   2.094   5.503  1.2012  1.2019 -1.6405
 4538SOL    HW225248   2.042   2.042   5.611 -2.2090 -0.9411  0.3039
 4539SOL     OW25249   0.699   0.146   6.571 -0.4736 -0.2727 -0.9015
 4539SOL    HW125250   0.761   0.202   6.524 -1.6101  1.0818 -0.7778
 4539SOL    HW225251   0.616   0.178   6.536  0.4302  1.3170 -1.5655
 4540SOL     OW25252   1.651   0.822  13.410  0.2145  0.1819 -0.3846
 4540SOL    HW125253   1.728   0.876  13.393 -0.2431  1.2486  0.9105
 4540SOL    HW225254   1.575   0.880  13.403  1.0750  1.2081 -1.3242
 4541SOL     OW25255   4.470   3.820   4.744 -0.1857  0.4580 -0.1562
 4541SOL    HW125256   4.534   3.756   4.776 -0.1925  1.3901  1.6857
 4541SOL    HW225257   4.434   3.767   4.673  3.0075 -1.6752 -0.2147
 4542SOL     OW25258   4.150   3.433   6.089  0.3616 -0.1179 -0.6773
 4542SOL    HW125259   4.206   3.408   6.016 -1.6269 -3.0842 -1.1797
 4542SOL    HW225260   4.111   3.517   6.066 -1.6224 -0.5148  1.1667
 4543SOL     OW25261   1.274   1.756   8.545  0.3187 -0.1140  0.1145
 4543SOL    HW125262   1.183   1.786   8.542  0.4836  0.2620 -1.0517
 4543SOL    HW225263   1.262   1.670   8.506  1.7732 -0.2447 -0.0646
 4544SOL     OW25264   1.467   1.745   4.348  0.5640  0.0926  0.2998
 4544SOL    HW125265   1.418   1.684   4.404  1.5179 -0.7356  0.2353
 4544SOL    HW225266   1.404   1.816   4.337  0.9809  0.2821 -0.8564
 4545SOL     OW25267   4.373   1.471   2.596  0.7673  0.3212 -0.0035
 4545SOL    HW125268   4.286   1.481   2.559 -0.0679  0.5372  2.0363
 4545SOL    HW225269   4.392   1.540   2.661 -1.0339  0.8451 -0.0491
 4546SOL     OW25270   0.990   2.337   5.648 -0.2020 -0.5508 -0.6550
 4546SOL    HW125271   0.960   2.335   5.739  0.0961 -0.1636 -0.5457
 4546SOL    HW225272   1.070   2.284   5.645 -0.0110 -0.2753 -0.4769
 4547SOL     OW25273   2.220   1.147   8.715  0.1081  0.1292 -0.4556
 4547SOL    HW125274   2.272   1.222   8.744 -0.0423 -0.7941  2.2259
 4547SOL    HW225275   2.274   1.080   8.757  0.0964  0.3684 -0.0625
 4548SOL     OW25276   2.660   4.364   9.690  0.7037  0.6128 -0.3543
 4548SOL    HW125277   2.746   4.400   9.714  1.2907 -0.9359 -0.1537
 4548SOL    HW225278   2.671   4.292   9.753 -0.5515  0.7554  0.0326
 4549SOL     OW25279   4.406   4.256   7.400 -0.0956 -0.0503  0.5729
 4549SOL    HW125280   4.379   4.330   7.345 -1.9791 -0.9762  0.2496
 4549SOL    HW225281   4.469   4.295   7.461  2.0443  0.3642 -1.9121
 4550SOL     OW25282   0.602   0.213   5.963  0.5624  0.8940  0.6229
 4550SOL    HW125283   0.593   0.307   5.976  0.4506  0.6961  1.9579
 4550SOL    HW225284   0.664   0.214   5.890 -0.5891 -2.7484 -0.3830
 4551SOL     OW25285   0.385   0.204   2.540  0.4282 -0.6137 -0.2952
 4551SOL    HW125286   0.453   0.248   2.592  1.5353 -2.9105  0.1875
 4551SOL    HW225287   0.352   0.154   2.615 -1.0635  2.3947  1.1059
 4552SOL     OW25288   4.509   0.949   7.965 -0.6359 -0.2141  0.4046
 4552SOL    HW125289   4.415   0.960   7.949 -0.0900  2.8736 -0.7270
 4552SOL    HW225290   4.514   0.959   8.060  3.5956  1.4915  0.0302
 4553SOL     OW25291   4.136   3.636  17.260 -0.0504  0.0008  0.4572
 4553SOL    HW125292   4.046   3.633  17.228  0.0462  3.3914 -0.0965
 4553SOL    HW225293   4.112   3.611  17.350  0.0469 -0.1084  0.4531
 4554SOL     OW25294   0.027   2.107   2.068 -0.6571 -0.1030  0.0230
 4554SOL    HW125295   4.709   2.103   2.150 -3.6057 -0.8391 -1.8231
 4554SOL    HW225296   0.113   2.101   2.111 -0.9494  1.1423  0.7898
 4555SOL     OW25297   1.764   0.831   4.131  0.3148  0.6733 -0.1484
 4555SOL    HW125298   1.830   0.871   4.188  0.6922 -1.6687  1.0456
 4555SOL    HW225299   1.739   0.906   4.077  0.8032  1.6464  0.9700
 4556SOL     OW25300   2.330   1.354   2.609 -0.7406  0.1094  0.3478
 4556SOL    HW125301   2.378   1.276   2.636 -0.0558 -0.9825 -3.9313
 4556SOL    HW225302   2.376   1.416   2.665  0.1143  0.5955 -0.8871
 4557SOL     OW25303   1.480   1.771   0.457  0.0807 -0.1423 -0.1118
 4557SOL    HW125304   1.544   1.736   0.395  0.3530 -0.7690  0.5128
 4557SOL    HW225305   1.541   1.821   0.511 -0.4039  0.8391 -0.4801
 4558SOL     OW25306   0.703   3.918   2.244 -0.8972 -0.0331 -0.4407
 4558SOL    HW125307   0.664   3.962   2.320  1.5158 -0.1524  0.8912
 4558SOL    HW225308   0.682   3.826   2.262 -3.4039  0.8272  1.0947
 4559SOL     OW25309   0.602   2.025   7.441  0.4830  0.2743  0.0472
 4559SOL    HW125310   0.638   2.077   7.512 -0.6496  0.1956  0.6694
 4559SOL    HW225311   0.679   1.973   7.417  1.0130  1.4176 -0.7405
 4560SOL     OW25312   0.307   1.928   8.214 -0.0154  0.5803  0.1195
 4560SOL    HW125313   0.402   1.937   8.212 -0.0138  0.2658 -1.6094
 4560SOL    HW225314   0.278   2.003   8.267 -3.7516 -2.0024  1.7550
 4561SOL     OW25315   1.860   1.040   1.759  0.2564  0.4634 -0.1951
 4561SOL    HW125316   1.934   0.987   1.728 -1.3371 -1.2040 -1.0765
 4561SOL    HW225317   1.913   1.107   1.804 -0.6357 -0.0367  1.5983
 4562SOL     OW25318   4.690   2.382   1.991 -0.1238  0.0382  0.2702
 4562SOL    HW125319   0.034   2.329   2.016 -1.4441 -1.5646  0.8819
 4562SOL    HW225320   4.623   2.315   1.978  0.2040 -0.0417 -0.9782
 4563SOL     OW25321   1.605   3.501  16.726 -0.0587 -0.0174 -0.0491
 4563SOL    HW125322   1.672   3.440  16.697  0.5882  0.9243 -0.5171
 4563SOL    HW225323   1.608   3.498  16.822 -0.5948 -1.1319 -0.0668
 4564SOL     OW25324   2.236   2.377  17.663  0.2410  0.0227  0.3695
 4564SOL    HW125325   2.328   2.357  17.678  0.0459 -1.0146  0.1592
 4564SOL    HW225326   2.242   2.446  17.596  0.0721  1.0012  1.3551
 4565SOL     OW25327   0.911   3.146   8.185 -1.0256 -0.0545 -0.1976
 4565SOL    HW125328   0.883   3.229   8.145  2.2599  0.6756 -0.9903
 4565SOL    HW225329   0.891   3.079   8.118 -0.2320 -1.2123  0.7347
 4566SOL     OW25330   0.829   3.332   8.828 -0.2855  0.1845 -0.0422
 4566SOL    HW125331   0.785   3.297   8.751 -4.2337  1.4416  1.6621
 4566SOL    HW225332   0.896   3.381   8.781  1.6766 -2.1938  0.3034
 4567SOL     OW25333   3.500   3.877   6.733  0.2337  0.0354 -0.2812
 4567SOL    HW125334   3.518   3.788   6.765 -2.1160 -0.2496  0.2380
 4567SOL    HW225335   3.409   3.897   6.754  0.5682 -0.5772  1.8269
 4568SOL     OW25336   0.068   4.377  11.694 -0.1478  0.8539 -0.1597
 4568SOL    HW125337   0.121   4.298  11.700  0.4870  1.2867 -0.0990
 4568SOL    HW225338   0.054   4.399  11.786  1.3086  0.7286  0.0795
 4569SOL     OW25339   2.589   3.712   3.591 -0.3009  0.0162  0.0979
 4569SOL    HW125340   2.638   3.735   3.670 -0.5545  1.3311 -0.1247
 4569SOL    HW225341   2.512   3.662   3.617 -0.5626  0.8876  0.9812
 4570SOL     OW25342   3.213   0.630   7.002 -0.4408  0.2638 -0.5552
 4570SOL    HW125343   3.288   0.689   7.004  0.2954 -0.7880  2.9762
 4570SOL    HW225344   3.244   0.560   6.945 -0.3247  0.3325 -0.5753
 4571SOL     OW25345   1.865   2.109   5.263  0.1891  0.5901 -0.0499
 4571SOL    HW125346   1.862   2.033   5.321  1.7246 -0.2458 -1.0609
 4571SOL    HW225347   1.943   2.152   5.299 -0.9078  2.3273  0.2590
 4572SOL     OW25348   1.970   1.159   8.739 -0.1171 -0.5160 -0.3339
 4572SOL    HW125349   1.949   1.248   8.714  0.9284 -0.1003  0.2732
 4572SOL    HW225350   2.065   1.162   8.732 -0.4177 -2.1052 -5.0193
 4573SOL     OW25351   0.134   1.069   9.118 -0.4238 -0.0701 -0.3036
 4573SOL    HW125352   0.133   0.977   9.146 -0.4616  0.1451  0.4194
 4573SOL    HW225353   0.064   1.067   9.053 -0.1239 -2.1635 -0.5671
 4574SOL     OW25354   4.033   2.185   6.028 -0.5662  0.1895  0.8300
 4574SOL    HW125355   4.115   2.146   6.058 -0.8203  0.0343  1.3104
 4574SOL    HW225356   3.988   2.107   5.996  2.3702 -0.7928 -0.8879
 4575SOL     OW25357   2.034   2.771   4.971 -0.2679 -0.2637  0.1100
 4575SOL    HW125358   1.942   2.747   4.961 -0.6878  0.1406  3.1795
 4575SOL    HW225359   2.027   2.776   5.066  0.7673 -0.6548  0.2040
 4576SOL     OW25360   3.358   2.411   2.883  0.0945  0.6338 -0.2737
 4576SOL    HW125361   3.419   2.366   2.825  0.1475  0.3337  0.0161
 4576SOL    HW225362   3.294   2.438   2.817 -0.7725 -0.3448  0.1710
 4577SOL     OW25363   3.789   1.057   3.083 -0.6505  0.3484 -0.4130
 4577SOL    HW125364   3.827   1.144   3.088 -0.2239  0.2312 -1.6298
 4577SOL    HW225365   3.840   1.004   3.144 -1.6911 -1.2772 -0.9450
 4578SOL     OW25366   0.573   3.032   5.786  0.1023 -0.4039 -0.5311
 4578SOL    HW125367   0.638   3.073   5.729 -1.6870  0.9686 -1.5513
 4578SOL    HW225368   0.600   2.940   5.779  3.5129  0.4197  1.5189
 4579SOL     OW25369   3.156   4.126  12.082  0.1664  0.9753 -0.1749
 4579SOL    HW125370   3.080   4.176  12.052 -1.9311 -1.5216  0.9354
 4579SOL    HW225371   3.150   4.061  12.012 -1.0185  0.0071  0.8286
 4580SOL     OW25372   2.593   1.662  14.054  0.1609 -0.3068 -0.2252
 4580SOL    HW125373   2.613   1.601  13.983 -1.4046 -1.0266 -0.0502
 4580SOL    HW225374   2.591   1.594  14.122  1.9239 -0.9945 -0.8454
 4581SOL     OW25375   4.138   0.168   4.603  0.1870 -0.3433  0.0962
 4581SOL    HW125376   4.066   0.170   4.540  0.5598 -0.0210 -0.3198
 4581SOL    HW225377   4.199   0.233   4.569  0.1385  1.1437  2.8771
 4582SOL     OW25378   2.993   3.403  16.616 -0.0349  0.1033 -0.0609
 4582SOL    HW125379   3.087   3.393  16.605  0.1401  1.2802  0.3491
 4582SOL    HW225380   2.963   3.346  16.546 -0.5745  0.7887 -0.3860
 4583SOL     OW25381   4.634   3.438   2.683 -0.3704  0.6369 -0.2791
 4583SOL    HW125382   4.649   3.421   2.590 -1.0054 -0.8806 -0.0972
 4583SOL    HW225383   4.563   3.378   2.704 -0.0781 -0.3223 -1.9871
 4584SOL     OW25384   3.030   2.600   6.357 -0.3695 -0.1794 -0.1892
 4584SOL    HW125385   3.051   2.658   6.284 -0.9897 -0.8228 -0.8820
 4584SOL    HW225386   2.971   2.538   6.315  0.9162 -1.7408  0.3012
 4585SOL     OW25387   1.704   3.661  16.009  0.2990  0.2353  0.6031
 4585SOL    HW125388   1.689   3.673  16.103  3.7085 -1.0920  1.3408
 4585SOL    HW225389   1.642   3.713  15.959  0.7370  2.5812  2.4929
 4586SOL     OW25390   0.673   0.259   0.251  1.1050 -0.5635 -0.0167
 4586SOL    HW125391   0.686   0.302   0.166  0.0027 -0.4515 -0.1371
 4586SOL    HW225392   0.764   0.240   0.274  1.3100 -1.7189 -1.7670
 4587SOL     OW25393   2.972   3.636   7.340 -0.7395 -0.0966 -0.0949
 4587SOL    HW125394   3.011   3.553   7.367 -0.5987 -0.2837 -0.8721
 4587SOL    HW225395   2.886   3.626   7.381  0.5855  0.6261  2.8435
 4588SOL     OW25396   1.474   0.795   5.643  0.2091 -0.0320  0.6729
 4588SOL    HW125397   1.531   0.751   5.580  1.3278  0.6605  1.2218
 4588SOL    HW225398   1.409   0.833   5.583 -0.5293 -0.8384  0.9651
 4589SOL     OW25399   3.610   0.710   1.893  0.1243 -0.5851 -0.2704
 4589SOL    HW125400   3.681   0.764   1.861 -0.3904  1.4219  1.9752
 4589SOL    HW225401   3.538   0.735   1.835 -0.1563 -0.2904  0.2064
 4590SOL     OW25402   3.549   2.038   8.870  0.1391 -0.4598 -0.8415
 4590SOL    HW125403   3.594   1.960   8.839  0.4895 -0.4127 -0.4533
 4590SOL    HW225404   3.546   2.099   8.797 -0.5063  0.8445  0.2623
 4591SOL     OW25405   3.432   3.894   5.166 -0.0209  0.2837 -0.0641
 4591SOL    HW125406   3.516   3.866   5.129  0.3636  0.9001  0.3472
 4591SOL    HW225407   3.379   3.814   5.168 -1.4623  1.2421  0.5534
 4592SOL     OW25408   1.723   3.686  15.287 -0.3200 -0.2789  0.1022
 4592SOL    HW125409   1.706   3.775  15.257 -1.4160 -1.1932 -1.9769
 4592SOL    HW225410   1.780   3.656  15.217 -1.1343 -0.7218 -0.3671
 4593SOL     OW25411   2.024   2.468   9.100  0.4595 -0.1202 -0.1123
 4593SOL    HW125412   2.014   2.428   9.014 -1.8183  0.3695 -0.0691
 4593SOL    HW225413   2.027   2.561   9.079 -3.2303  0.1123  0.4255
 4594SOL     OW25414   0.156   4.519   8.461  0.3572  0.1066 -0.0158
 4594SOL    HW125415   0.086   4.551   8.518  0.7501  0.8252  0.0698
 4594SOL    HW225416   0.186   4.445   8.514  0.1166  0.2392  0.3069
 4595SOL     OW25417   0.271   2.167  15.794  1.2095 -0.3460  0.2862
 4595SOL    HW125418   0.304   2.122  15.872 -0.9305  0.0020  1.4113
 4595SOL    HW225419   0.184   2.126  15.795  0.4826  1.2183  1.1531
 4596SOL     OW25420   4.283   2.030   7.474 -0.4167  1.0787  0.0506
 4596SOL    HW125421   4.315   2.113   7.437  0.6037 -0.6388 -2.9323
 4596SOL    HW225422   4.238   2.057   7.554 -1.3519  0.7182 -0.3634
 4597SOL     OW25423   1.224   1.131   4.418  0.3472  0.2635  0.1411
 4597SOL    HW125424   1.209   1.180   4.500 -3.0471  1.5408 -1.2293
 4597SOL    HW225425   1.209   1.207   4.362  0.2868  0.9125  1.0180
 4598SOL     OW25426   0.905   3.253   1.524 -0.6600 -0.2884 -0.2596
 4598SOL    HW125427   0.861   3.205   1.454 -0.2356  1.3904 -1.6747
 4598SOL    HW225428   0.949   3.324   1.475 -1.7087  0.5120 -0.0377
 4599SOL     OW25429   2.120   4.369  11.057  0.6267 -0.0443  0.4978
 4599SOL    HW125430   2.097   4.389  10.966 -0.2370 -1.3108  0.4342
 4599SOL    HW225431   2.205   4.325  11.055  0.2730 -0.7011 -0.1641
 4600SOL     OW25432   0.348   1.656   5.187 -0.3774  0.1238  0.6661
 4600SOL    HW125433   0.411   1.603   5.138 -1.6657  0.6004 -1.4772
 4600SOL    HW225434   0.406   1.714   5.235  0.8584 -1.3445  0.9635
 4601SOL     OW25435   4.578   1.109   4.751 -0.0587  0.0755  0.2696
 4601SOL    HW125436   4.593   1.194   4.709  0.5283  0.1654  0.6560
 4601SOL    HW225437   4.569   1.134   4.843  1.4973  0.8543  0.2195
 4602SOL     OW25438   3.826   2.622  14.293 -0.1343 -0.2420 -0.3187
 4602SOL    HW125439   3.906   2.664  14.324 -0.3341 -0.1761  0.1222
 4602SOL    HW225440   3.863   2.539  14.266 -0.4595  0.1333 -1.8872
 4603SOL     OW25441   2.927   1.777   2.134 -0.2277 -0.2945 -0.1746
 4603SOL    HW125442   2.834   1.788   2.116  0.2504  1.7531 -1.3488
 4603SOL    HW225443   2.976   1.836   2.077  0.7689 -0.5274  0.4493
 4604SOL     OW25444   4.228   1.496   0.699  0.3922  0.1822 -0.3672
 4604SOL    HW125445   4.282   1.565   0.740 -0.0620  0.6156 -0.5011
 4604SOL    HW225446   4.270   1.507   0.613 -1.2952 -0.3473 -1.2486
 4605SOL     OW25447   3.440   4.650  10.097  0.5443  0.2266  0.4508
 4605SOL    HW125448   3.450   4.728  10.043  0.9315  0.4677  0.8712
 4605SOL    HW225449   3.376   4.598  10.048 -2.0579  1.2691  2.7015
 4606SOL     OW25450   2.092   1.388   4.288 -0.0642  0.3559  0.3222
 4606SOL    HW125451   2.173   1.385   4.338  0.5857  0.6602 -0.7266
 4606SOL    HW225452   2.056   1.306   4.323 -0.4172 -0.0641 -1.0248
 4607SOL     OW25453   4.073   4.395   6.973  0.1074 -0.2322  0.1451
 4607SOL    HW125454   3.998   4.454   6.980  0.7755  0.6799 -0.3725
 4607SOL    HW225455   4.056   4.326   7.037  0.2236 -0.1896  0.2225
 4608SOL     OW25456   0.269   0.225   8.292 -0.5255 -0.2931 -0.4324
 4608SOL    HW125457   0.187   0.190   8.256 -1.3663  1.4628 -0.2340
 4608SOL    HW225458   0.245   0.281   8.365 -1.6006 -0.3812 -0.7151
 4609SOL     OW25459   4.285   3.010   4.197  0.6377  0.1453  0.5715
 4609SOL    HW125460   4.315   3.060   4.121 -0.0108  0.1352  0.3113
 4609SOL    HW225461   4.217   3.069   4.228 -0.6147 -2.1161  2.0963
 4610SOL     OW25462   4.404   4.677   4.723  0.1279  0.3072 -0.1779
 4610SOL    HW125463   4.369   4.661   4.635  0.4347 -1.2459 -0.0162
 4610SOL    HW225464   4.334   4.632   4.771  1.8128 -1.7564  0.3544
 4611SOL     OW25465   0.736   3.618  14.559  0.1285  0.6013  0.1140
 4611SOL    HW125466   0.757   3.526  14.546  0.3515  0.5794  0.6072
 4611SOL    HW225467   0.798   3.642  14.628 -1.5200 -0.5723  2.0014
 4612SOL     OW25468   4.527   3.728   5.500 -0.4495  0.1273  0.2048
 4612SOL    HW125469   4.498   3.800   5.556 -2.5712 -0.8056  0.3038
 4612SOL    HW225470   4.456   3.664   5.501 -0.7940  0.5007 -0.4512
 4613SOL     OW25471   2.404   0.674   7.054  0.1122 -0.2030  0.0504
 4613SOL    HW125472   2.493   0.657   7.086 -0.2272 -0.6209  0.7692
 4613SOL    HW225473   2.357   0.613   7.110  0.3439  0.7138  1.2449
 4614SOL     OW25474   3.839   3.990   8.939  0.0846 -0.1795 -0.0319
 4614SOL    HW125475   3.898   3.977   9.013  1.2819  2.7504 -0.4824
 4614SOL    HW225476   3.809   4.080   8.952 -0.2261 -0.0974 -1.3159
 4615SOL     OW25477   3.451   1.598  10.547  0.1030 -0.6007 -0.0853
 4615SOL    HW125478   3.398   1.638  10.478 -1.1403  2.1884  2.5194
 4615SOL    HW225479   3.533   1.646  10.531 -0.8917  1.1982  0.2674
 4616SOL     OW25480   1.472   2.870   6.950  0.0539  0.1459  0.0192
 4616SOL    HW125481   1.376   2.874   6.942  0.3519 -1.9741 -4.3676
 4616SOL    HW225482   1.492   2.887   6.858 -1.4882  2.3113  0.0864
 4617SOL     OW25483   0.081   0.880   7.477 -0.4034  0.8952 -0.1332
 4617SOL    HW125484   4.730   0.891   7.524  0.4322  1.3703  1.1910
 4617SOL    HW225485   0.055   0.896   7.386 -1.5174 -2.2312 -0.3862
 4618SOL     OW25486   3.994   0.470   3.797  0.2118 -0.2607  0.3891
 4618SOL    HW125487   3.911   0.514   3.776  1.2470  0.9831 -1.0942
 4618SOL    HW225488   4.032   0.539   3.850 -2.5271  1.8107 -0.3663
 4619SOL     OW25489   0.851   0.585   9.441  0.2207 -0.0224  0.1316
 4619SOL    HW125490   0.874   0.599   9.533 -1.6518  0.2536  0.5607
 4619SOL    HW225491   0.914   0.632   9.386  0.3900 -0.3361  0.0574
 4620SOL     OW25492   2.316   0.157  13.985  0.5640  0.1254 -0.0551
 4620SOL    HW125493   2.283   0.239  14.022  1.0625  0.4366 -0.3015
 4620SOL    HW225494   2.239   0.101  13.992  2.0820 -2.0583 -0.8291
 4621SOL     OW25495   0.598   2.582   4.926 -0.1018  0.1562  0.2414
 4621SOL    HW125496   0.610   2.502   4.977 -0.5920 -0.3267 -0.4044
 4621SOL    HW225497   0.505   2.567   4.907 -0.4147  1.7653  0.4727
 4622SOL     OW25498   2.951   0.047   5.293  0.1399  0.0441 -0.2588
 4622SOL    HW125499   2.895   0.094   5.355 -1.2462 -2.1542  0.1671
 4622SOL    HW225500   2.897   0.057   5.214  0.1447 -0.8949 -0.3855
 4623SOL     OW25501   4.386   4.135   8.866  0.2639  0.5899  0.0637
 4623SOL    HW125502   4.343   4.175   8.942  0.1264 -1.5725  1.1099
 4623SOL    HW225503   4.324   4.070   8.834 -0.2715  0.7673  0.7434
 4624SOL     OW25504   0.037   3.717   3.111  0.0610 -0.4017 -0.2289
 4624SOL    HW125505   4.675   3.714   3.130  0.1345 -1.0660  0.0453
 4624SOL    HW225506   0.055   3.639   3.058  1.5904 -0.6093  0.5984
 4625SOL     OW25507   1.600   0.048   8.453 -0.1477  0.4766  0.2156
 4625SOL    HW125508   1.639   4.698   8.422 -0.4492 -0.1061  1.3807
 4625SOL    HW225509   1.506   0.031   8.461  0.0786 -1.4693 -1.3268
 4626SOL     OW25510   0.720   1.746  17.001  0.7195  0.0630 -0.6689
 4626SOL    HW125511   0.716   1.772  17.093  1.5643  0.4065 -0.7294
 4626SOL    HW225512   0.629   1.754  16.971  1.0811  0.7921 -1.5697
 4627SOL     OW25513   4.630   1.506   7.511  0.4141  0.4533 -0.6931
 4627SOL    HW125514   4.597   1.586   7.552  2.6206  2.1930 -2.3069
 4627SOL    HW225515   4.703   1.486   7.568 -0.5506 -1.5188 -0.1538
 4628SOL     OW25516   0.407   3.387   6.278 -0.1755 -0.1203 -0.1781
 4628SOL    HW125517   0.424   3.371   6.370  0.5314 -2.6428 -0.7599
 4628SOL    HW225518   0.452   3.311   6.242 -1.3154 -0.8838  0.0378
 4629SOL     OW25519   0.834   2.766  15.203 -0.6407  0.1559 -0.3666
 4629SOL    HW125520   0.922   2.758  15.241 -0.4461  2.2041 -0.4000
 4629SOL    HW225521   0.792   2.702  15.260  0.2181 -0.8330 -0.8423
 4630SOL     OW25522   0.152   4.495   9.408 -0.2021  0.4641  0.2186
 4630SOL    HW125523   0.234   4.490   9.358 -0.3957 -1.0133  0.0329
 4630SOL    HW225524   0.154   4.423   9.471  2.1781  0.2562 -0.0599
 4631SOL     OW25525   4.219   0.854   5.951 -0.9372 -0.0207  0.2610
 4631SOL    HW125526   4.187   0.849   5.861 -0.8851  0.8111  0.1972
 4631SOL    HW225527   4.261   0.768   5.955 -1.0533  0.0136  1.9961
 4632SOL     OW25528   4.282   0.935  10.580 -0.5488  0.2305 -0.5687
 4632SOL    HW125529   4.329   0.866  10.532  0.4272 -1.0475  2.2145
 4632SOL    HW225530   4.310   1.000  10.516 -0.7056 -1.0068 -1.9059
 4633SOL     OW25531   0.028   3.837   8.744  0.3921 -0.4179 -0.1266
 4633SOL    HW125532   0.069   3.809   8.826 -3.1542 -0.3680  1.6879
 4633SOL    HW225533   4.685   3.777   8.742 -0.7439  1.0691 -1.6622
 4634SOL     OW25534   0.336   1.916   5.773  0.0725 -0.0898 -0.0478
 4634SOL    HW125535   0.271   1.966   5.723  1.0494  0.4358 -0.7981
 4634SOL    HW225536   0.356   1.847   5.709  3.1995 -1.1692  2.0808
 4635SOL     OW25537   2.487   0.767   3.200 -0.1368  0.2651 -0.0677
 4635SOL    HW125538   2.540   0.688   3.186 -1.3819 -0.3670 -1.2105
 4635SOL    HW225539   2.550   0.839   3.204 -1.6908  1.6264 -0.0992
 4636SOL     OW25540   0.625   1.011   8.432  0.1465 -0.1949  0.0954
 4636SOL    HW125541   0.677   1.077   8.477  0.2203 -0.6449  0.6755
 4636SOL    HW225542   0.593   0.957   8.504 -0.9922  0.3317 -0.0017
 4637SOL     OW25543   3.832   3.878  13.172 -0.0216  0.2619  0.3412
 4637SOL    HW125544   3.768   3.909  13.237  1.9547  2.4650  1.2467
 4637SOL    HW225545   3.886   3.820  13.224 -2.0412 -0.8400  1.2299
 4638SOL     OW25546   4.475   4.162   9.737  0.0791  0.1567 -0.1812
 4638SOL    HW125547   4.460   4.237   9.794  1.1527 -0.2108  0.5924
 4638SOL    HW225548   4.399   4.165   9.679 -1.7844 -2.4025  2.0939
 4639SOL     OW25549   3.099   3.619   4.071  0.7969 -0.4428 -0.8230
 4639SOL    HW125550   3.044   3.542   4.058  0.0748  0.1369 -1.2191
 4639SOL    HW225551   3.023   3.677   4.071  0.1168 -1.3438  1.9808
 4640SOL     OW25552   1.383   4.138   2.441 -0.2112  0.0606 -0.0771
 4640SOL    HW125553   1.340   4.192   2.374  1.9171  1.4033 -0.3591
 4640SOL    HW225554   1.359   4.053   2.405  0.3164  0.7382 -2.0577
 4641SOL     OW25555   0.103   3.995   9.077 -0.0617 -0.0134  0.3136
 4641SOL    HW125556   0.017   3.993   9.035 -0.1878  1.8969  0.4958
 4641SOL    HW225557   0.126   3.902   9.080 -2.0922 -0.4556  1.5161
 4642SOL     OW25558   2.439   1.549   4.335 -0.0101  0.2200 -0.6315
 4642SOL    HW125559   2.443   1.580   4.244  1.1206  0.4987 -0.4857
 4642SOL    HW225560   2.437   1.633   4.381 -0.6783 -0.7614  1.1411
 4643SOL     OW25561   2.182   0.369   1.733  0.2974 -0.2277 -0.6339
 4643SOL    HW125562   2.110   0.399   1.788  0.8116 -1.5928  0.7766
 4643SOL    HW225563   2.199   0.282   1.768 -0.1445  0.6044  1.6634
 4644SOL     OW25564   4.001   1.809  16.281 -0.1866 -0.2368 -0.1644
 4644SOL    HW125565   4.023   1.856  16.361  0.8078 -0.3145 -0.3979
 4644SOL    HW225566   3.977   1.884  16.225  0.3125 -1.4535 -2.0164
 4645SOL     OW25567   4.662   1.593  16.409  0.0326  0.3670 -0.1466
 4645SOL    HW125568   4.722   1.535  16.457 -0.9159 -0.9582 -0.5668
 4645SOL    HW225569   4.711   1.676  16.405  1.2263 -0.4863 -3.5760
 4646SOL     OW25570   2.181   2.446  17.230 -0.1914 -0.3465 -0.7909
 4646SOL    HW125571   2.199   2.443  17.136 -1.7452  0.8349 -1.1356
 4646SOL    HW225572   2.091   2.416  17.238 -0.5346  0.7209 -0.5869
 4647SOL     OW25573   2.597   0.275   3.276 -0.0887 -0.2759  0.2874
 4647SOL    HW125574   2.566   0.212   3.341 -0.4225  0.0792  0.4722
 4647SOL    HW225575   2.637   0.209   3.219  0.4255 -0.1922  0.5453
 4648SOL     OW25576   0.625   0.549   3.883 -0.5109 -0.0011 -0.2284
 4648SOL    HW125577   0.583   0.530   3.966 -2.0014  0.0241 -0.9889
 4648SOL    HW225578   0.716   0.531   3.910 -0.0619 -0.7803 -2.2117
 4649SOL     OW25579   0.245   1.582   4.029  0.4270  0.0286  0.2158
 4649SOL    HW125580   0.277   1.544   3.948  2.4108 -1.5484  1.7460
 4649SOL    HW225581   0.155   1.550   4.025 -0.7370  3.2072  1.0684
 4650SOL     OW25582   2.971   0.274   4.779 -0.1347  0.6920  0.4724
 4650SOL    HW125583   2.946   0.340   4.714  1.4186 -0.6823 -1.5437
 4650SOL    HW225584   2.889   0.225   4.782  0.5907 -0.3567  2.9747
 4651SOL     OW25585   4.185   2.448   6.403  0.5846 -0.8995  0.3906
 4651SOL    HW125586   4.246   2.382   6.369  0.1026  0.0365 -2.2959
 4651SOL    HW225587   4.192   2.431   6.497 -0.1559 -0.2369  0.5612
 4652SOL     OW25588   2.693   3.238   1.826 -0.3862  0.1089 -0.6004
 4652SOL    HW125589   2.675   3.271   1.738  0.8182  0.7714 -0.6104
 4652SOL    HW225590   2.616   3.191   1.856  0.3812  0.3604  1.7787
 4653SOL     OW25591   2.191   2.560   3.492  0.1280  0.3514  0.4456
 4653SOL    HW125592   2.243   2.545   3.571 -1.6414  0.5954  1.6619
 4653SOL    HW225593   2.179   2.471   3.459  0.6986  1.0381 -1.6254
 4654SOL     OW25594   1.551   0.393  16.807  0.0513 -0.3626  0.0935
 4654SOL    HW125595   1.469   0.374  16.762 -0.6705  1.0847  0.8111
 4654SOL    HW225596   1.611   0.398  16.732 -0.1025  1.9139  0.1144
 4655SOL     OW25597   4.342   1.396  12.379  0.2368  0.3885 -0.0631
 4655SOL    HW125598   4.314   1.321  12.432  0.2455 -0.6046 -1.4569
 4655SOL    HW225599   4.313   1.355  12.297 -0.4840 -0.2657  0.5036
 4656SOL     OW25600   0.721   1.650   6.100  0.1482 -0.6406  0.0066
 4656SOL    HW125601   0.688   1.668   6.188 -2.3652  1.9838 -1.4783
 4656SOL    HW225602   0.652   1.592   6.069  0.5773 -0.2622 -1.6634
 4657SOL     OW25603   1.643   4.688   2.120  0.4728  0.3342 -0.2273
 4657SOL    HW125604   1.607   4.644   2.043  0.2473 -0.1613  0.1633
 4657SOL    HW225605   1.575   4.681   2.186  1.1153 -0.0246  0.3919
 4658SOL     OW25606   3.999   3.589   3.525 -0.2560 -0.9589 -0.0334
 4658SOL    HW125607   3.938   3.663   3.524 -3.0755 -3.2798 -0.9075
 4658SOL    HW225608   3.986   3.563   3.617  0.8668  0.2862  0.4792
 4659SOL     OW25609   1.666   2.701   4.646  0.7149 -0.1529  0.0056
 4659SOL    HW125610   1.664   2.780   4.591 -0.2492  0.3353  0.7459
 4659SOL    HW225611   1.573   2.680   4.649  0.4460  0.8874 -1.0411
 4660SOL     OW25612   1.814   3.504  15.474 -0.1608 -0.7685 -0.4639
 4660SOL    HW125613   1.770   3.435  15.424  0.1440 -1.0198 -0.3822
 4660SOL    HW225614   1.786   3.585  15.430 -1.5868  0.1723  2.1926
 4661SOL     OW25615   2.125   3.448   2.667 -0.2529 -0.3464  0.3550
 4661SOL    HW125616   2.186   3.420   2.735  0.2992 -0.1499 -0.0576
 4661SOL    HW225617   2.182   3.473   2.594  0.8705 -1.3956  0.8721
 4662SOL     OW25618   4.105   1.755  10.364 -0.4268 -0.3626 -0.3206
 4662SOL    HW125619   4.180   1.712  10.404  0.9874  2.3101 -0.0632
 4662SOL    HW225620   4.136   1.846  10.369  1.3933 -1.0130  0.1569
 4663SOL     OW25621   0.985   0.799   7.023  0.0001 -0.1206 -0.7795
 4663SOL    HW125622   0.976   0.786   6.929  2.7425 -0.3111 -1.0163
 4663SOL    HW225623   1.069   0.755   7.031 -0.5830 -0.9732  0.6673
 4664SOL     OW25624   2.693   4.626   9.067 -0.2989  0.0589  0.2428
 4664SOL    HW125625   2.736   4.683   9.131  0.1539 -0.7448  0.6555
 4664SOL    HW225626   2.767   4.582   9.026 -0.5687 -1.6669  1.6122
 4665SOL     OW25627   4.232   3.794   3.523  0.3095  0.5099 -0.0305
 4665SOL    HW125628   4.278   3.824   3.601 -0.2965 -0.3865  0.6762
 4665SOL    HW225629   4.215   3.704   3.550 -1.6862  0.8072 -0.2751
 4666SOL     OW25630   2.563   4.177  14.473 -0.0457  0.0236 -0.8940
 4666SOL    HW125631   2.490   4.129  14.513  0.7696 -0.8865 -0.5146
 4666SOL    HW225632   2.521   4.188  14.388 -1.2983  3.1663  0.1032
 4667SOL     OW25633   0.509   0.184   8.897  0.7604  0.2761  0.3324
 4667SOL    HW125634   0.492   0.250   8.831  0.1916  1.3940  1.5843
 4667SOL    HW225635   0.422   0.144   8.901  1.1147 -0.6445 -1.6291
 4668SOL     OW25636   1.747   0.110   5.925  0.6314 -0.4018  0.7744
 4668SOL    HW125637   1.780   0.024   5.901 -0.5915 -0.9058  0.9170
 4668SOL    HW225638   1.673   0.104   5.985  0.2634  1.6886  0.5339
 4669SOL     OW25639   4.658   1.449   2.903  0.2920 -0.3092 -0.5731
 4669SOL    HW125640   4.695   1.463   2.815 -1.5157  3.9882 -0.6353
 4669SOL    HW225641   4.615   1.369   2.873 -0.7684  1.0761 -2.7375
 4670SOL     OW25642   4.016   2.447   2.662 -1.1498 -0.0511 -0.5032
 4670SOL    HW125643   4.076   2.379   2.632  1.3128  0.3448  3.5400
 4670SOL    HW225644   3.928   2.414   2.644 -0.6328 -1.2802 -0.7719
 4671SOL     OW25645   4.059   3.311   1.620  0.1018 -0.0418  0.6840
 4671SOL    HW125646   4.031   3.249   1.687  2.3029 -1.7461  0.0157
 4671SOL    HW225647   4.016   3.277   1.541 -1.7731 -0.1227  1.7413
 4672SOL     OW25648   3.068   2.167   7.702  0.0576  0.4260 -0.3448
 4672SOL    HW125649   2.998   2.101   7.701  2.2178 -1.8223 -0.6352
 4672SOL    HW225650   3.140   2.126   7.655  1.2750  0.3783  1.5753
 4673SOL     OW25651   1.589   0.508   2.960  0.4346 -0.1611 -0.1071
 4673SOL    HW125652   1.590   0.583   2.900 -0.8316 -0.8908 -1.0412
 4673SOL    HW225653   1.680   0.506   2.990  0.4828 -1.4723 -0.3618
 4674SOL     OW25654   4.266   1.773  16.869 -0.0756 -0.0452 -0.3192
 4674SOL    HW125655   4.276   1.679  16.852  0.5491 -0.3562  1.7387
 4674SOL    HW225656   4.314   1.812  16.796 -0.7837 -1.7587 -1.7122
 4675SOL     OW25657   4.494   1.549   9.521  0.2700  0.0646  0.2374
 4675SOL    HW125658   4.552   1.599   9.464 -0.3965 -0.0049 -0.4925
 4675SOL    HW225659   4.550   1.531   9.597  1.2206 -0.7095 -0.6441
 4676SOL     OW25660   0.656   4.275  12.402 -0.0455  0.3087  0.1030
 4676SOL    HW125661   0.653   4.270  12.497  0.7968 -0.9660  0.0541
 4676SOL    HW225662   0.638   4.367  12.379  1.1163  0.5234  0.0569
 4677SOL     OW25663   1.590   2.327   2.977 -0.0691 -0.1159  0.3895
 4677SOL    HW125664   1.572   2.238   2.946  0.1104 -1.3455  3.8289
 4677SOL    HW225665   1.670   2.359   2.935 -0.7152  0.4613 -0.3887
 4678SOL     OW25666   3.528   3.404   6.115  0.0040  0.2763  0.3583
 4678SOL    HW125667   3.580   3.382   6.192  1.0790 -0.2363 -0.5195
 4678SOL    HW225668   3.595   3.424   6.050 -1.6945  1.0826 -1.1476
 4679SOL     OW25669   1.968   2.788  13.402 -0.5816  0.2652  0.7836
 4679SOL    HW125670   1.935   2.865  13.357 -0.9743 -1.2788 -1.5570
 4679SOL    HW225671   2.041   2.830  13.447  0.8898 -0.3754 -0.9905
 4680SOL     OW25672   2.735   0.522   1.752 -0.3599  0.0666 -0.2269
 4680SOL    HW125673   2.731   0.459   1.823 -2.1678  2.2074  1.5680
 4680SOL    HW225674   2.640   0.536   1.747 -0.3384  0.4535  0.4837
 4681SOL     OW25675   1.938   1.340   3.477  0.6930 -0.0367 -0.9800
 4681SOL    HW125676   1.979   1.426   3.487  1.0618 -0.2793 -0.3548
 4681SOL    HW225677   1.971   1.290   3.553  1.9078  0.1684 -1.3700
 4682SOL     OW25678   3.131   2.057  17.705  0.6467  0.0553  0.6591
 4682SOL    HW125679   3.172   1.971  17.715 -0.5845 -0.3406  2.3675
 4682SOL    HW225680   3.039   2.042   0.002  0.4305 -0.3503 -0.4072
 4683SOL     OW25681   1.858   3.667   9.286  0.5005 -0.1341  0.3845
 4683SOL    HW125682   1.927   3.671   9.220 -0.1254 -0.6303 -0.2907
 4683SOL    HW225683   1.802   3.591   9.269  1.1165 -0.3139 -0.8351
 4684SOL     OW25684   3.280   2.715  15.732 -0.3746  0.1256  0.0935
 4684SOL    HW125685   3.363   2.696  15.690  1.0463  2.2239  1.9838
 4684SOL    HW225686   3.302   2.744  15.820 -0.1599 -2.0042  0.7575
 4685SOL     OW25687   4.058   0.352  10.333 -0.1607 -0.1518  0.5169
 4685SOL    HW125688   4.133   0.396  10.375 -0.0423  1.2539 -1.1818
 4685SOL    HW225689   4.088   0.262  10.323  0.3112  0.3521 -2.7039
 4686SOL     OW25690   4.372   1.619   4.795 -0.2930  0.0679  0.2897
 4686SOL    HW125691   4.286   1.656   4.779 -0.5672 -0.9893 -0.6676
 4686SOL    HW225692   4.397   1.589   4.708 -0.9459 -2.0310  0.8384
 4687SOL     OW25693   2.881   2.306   9.017 -0.6905  0.0134 -0.3604
 4687SOL    HW125694   2.896   2.224   9.065 -1.3396 -0.8038 -1.5627
 4687SOL    HW225695   2.929   2.280   8.939  0.7932  1.0253  0.2218
 4688SOL     OW25696   4.405   1.790  17.281  0.1161 -0.5538 -0.3870
 4688SOL    HW125697   4.427   1.702  17.312 -1.1626 -0.9375 -0.5773
 4688SOL    HW225698   4.344   1.826  17.345 -0.3678 -1.9917 -0.0305
 4689SOL     OW25699   1.448   4.340  10.388  0.3159  0.0254  0.3554
 4689SOL    HW125700   1.352   4.335  10.394  0.4432 -1.5168  1.1417
 4689SOL    HW225701   1.459   4.354  10.482  0.5157 -0.5367  0.4153
 4690SOL     OW25702   1.165   1.233  10.445 -0.4458 -0.3050 -0.1142
 4690SOL    HW125703   1.070   1.246  10.438 -0.1764  1.3569 -0.7677
 4690SOL    HW225704   1.167   1.139  10.427 -0.6736 -0.3564  0.1232
 4691SOL     OW25705   1.041   0.008  16.547 -0.1221 -0.0160 -0.0660
 4691SOL    HW125706   0.948   4.729  16.570  0.0098 -1.1483 -0.0817
 4691SOL    HW225707   1.097   4.682  16.598 -0.0167  1.1829  1.1950
 4692SOL     OW25708   2.804   2.528   6.940 -0.1139 -0.6410 -0.4571
 4692SOL    HW125709   2.769   2.521   7.029  0.9352  0.1190  0.0150
 4692SOL    HW225710   2.797   2.437   6.910  0.2275 -0.8296  0.0225
 4693SOL     OW25711   3.365   3.093   2.030  0.1958  0.5427 -0.1592
 4693SOL    HW125712   3.306   3.032   1.986  1.3099 -0.4346 -0.2884
 4693SOL    HW225713   3.336   3.066   2.117  0.0319 -1.2869 -0.7777
 4694SOL     OW25714   2.894   1.884   6.187  0.4765  0.3029  0.0686
 4694SOL    HW125715   2.820   1.844   6.233  0.7019  0.4834  0.5891
 4694SOL    HW225716   2.858   1.958   6.138 -0.4700 -1.6523 -2.2098
 4695SOL     OW25717   2.161   2.508  16.445 -0.1083 -0.1227  0.0179
 4695SOL    HW125718   2.114   2.492  16.527 -0.7434 -0.9920 -0.5182
 4695SOL    HW225719   2.188   2.420  16.419 -0.0847 -0.6376  1.7644
 4696SOL     OW25720   1.551   4.101  16.726 -0.3056  0.2693  0.0195
 4696SOL    HW125721   1.485   4.165  16.701 -0.6068 -0.5125 -1.1696
 4696SOL    HW225722   1.615   4.132  16.662 -0.7281 -0.1353 -0.6001
 4697SOL     OW25723   2.238   1.298  12.122  0.0591  0.6671 -0.0211
 4697SOL    HW125724   2.152   1.296  12.080 -1.1441 -0.7986  2.4875
 4697SOL    HW225725   2.227   1.222  12.180 -0.3261  1.6337  1.1744
 4698SOL     OW25726   1.284   0.192   3.019 -0.5247 -0.0092 -0.0299
 4698SOL    HW125727   1.377   0.210   3.035 -1.2188  1.0462  2.7881
 4698SOL    HW225728   1.250   0.233   3.099 -3.0674 -2.3868  0.1147
 4699SOL     OW25729   3.888   4.483   0.924 -0.0628 -0.2651  0.2773
 4699SOL    HW125730   3.896   4.578   0.927 -0.5859 -0.2442  0.9197
 4699SOL    HW225731   3.958   4.452   0.982  0.0694 -1.0189 -0.2848
 4700SOL     OW25732   3.125   0.665   1.520 -0.0099  0.5500  0.2857
 4700SOL    HW125733   3.061   0.598   1.545  0.3449  0.5238  1.1444
 4700SOL    HW225734   3.165   0.674   1.607  0.3079  1.6510  0.0179
 4701SOL     OW25735   1.962   0.870  12.288  0.2138 -0.7493  0.0023
 4701SOL    HW125736   1.891   0.820  12.246 -2.2625  1.8012  1.1913
 4701SOL    HW225737   1.908   0.947  12.306  1.2398  0.3616 -1.6887
 4702SOL     OW25738   1.181   2.343   8.674 -0.0565 -0.1967  0.9179
 4702SOL    HW125739   1.109   2.395   8.712  0.0958  0.8723 -0.2775
 4702SOL    HW225740   1.147   2.257   8.697  1.4667 -1.8728 -3.1780
 4703SOL     OW25741   0.829   0.123   8.761 -0.6880 -0.2832  0.0009
 4703SOL    HW125742   0.895   0.055   8.768  2.2110  2.6335  0.8352
 4703SOL    HW225743   0.785   0.106   8.845  1.1646 -1.5192  0.7117
 4704SOL     OW25744   3.443   3.775   0.944  0.3069  0.3969  0.5092
 4704SOL    HW125745   3.457   3.843   1.011  0.8034  0.8469 -0.0514
 4704SOL    HW225746   3.450   3.832   0.867  2.9067  0.9372  1.1262
 4705SOL     OW25747   2.111   2.953   8.987 -0.0060 -0.6921  0.0818
 4705SOL    HW125748   2.038   2.950   9.049 -1.9540 -0.1418 -2.1852
 4705SOL    HW225749   2.090   3.017   8.920  0.8067  1.6222  2.0447
 4706SOL     OW25750   0.891   2.090   7.833  0.2652 -0.2961 -0.6396
 4706SOL    HW125751   0.848   2.149   7.770  0.7872  0.7276 -0.0433
 4706SOL    HW225752   0.912   2.027   7.764 -0.8312  0.8687 -2.0348
 4707SOL     OW25753   1.597   0.802  14.572  0.0736  0.4983 -0.4371
 4707SOL    HW125754   1.533   0.865  14.604  1.1219  2.4142 -2.1129
 4707SOL    HW225755   1.678   0.844  14.602 -1.2876  0.8526  2.7850
 4708SOL     OW25756   1.534   2.000   1.866  0.0265  0.2501 -0.4674
 4708SOL    HW125757   1.609   2.009   1.808  0.5371 -0.9153  0.0320
 4708SOL    HW225758   1.496   1.920   1.831  0.7797 -0.4775  0.3991
 4709SOL     OW25759   3.388   2.048  10.896  0.0788  0.4548 -0.1687
 4709SOL    HW125760   3.415   2.127  10.942 -1.7721 -0.3692  2.3546
 4709SOL    HW225761   3.395   2.081  10.806  0.3292 -0.7696 -0.5953
 4710SOL     OW25762   0.247   1.045   2.988 -0.2647  0.0575  0.5470
 4710SOL    HW125763   0.209   1.133   2.984 -1.5692 -0.6026 -1.7215
 4710SOL    HW225764   0.339   1.065   2.971 -0.4761  2.0932  1.7257
 4711SOL     OW25765   1.374   4.449  11.842 -1.1085 -0.2678  0.0342
 4711SOL    HW125766   1.407   4.387  11.907  0.0472  1.1528  0.8051
 4711SOL    HW225767   1.327   4.514  11.894  0.2334 -0.3862  1.4020
 4712SOL     OW25768   2.589   4.250   0.873  0.1293 -0.3944  0.0408
 4712SOL    HW125769   2.637   4.286   0.798 -0.5301  1.8930  0.7092
 4712SOL    HW225770   2.516   4.217   0.822  0.6951 -0.4459 -0.7296
 4713SOL     OW25771   2.720   0.609  13.008  0.2695 -0.0666  0.4769
 4713SOL    HW125772   2.796   0.611  12.950 -0.3715  1.5961 -0.3151
 4713SOL    HW225773   2.694   0.701  13.012 -2.6425 -0.8947  1.1273
 4714SOL     OW25774   2.820   3.777  16.903 -0.0915 -0.1522  0.5832
 4714SOL    HW125775   2.878   3.768  16.979 -0.6562  0.1218  1.0493
 4714SOL    HW225776   2.872   3.739  16.832 -1.8226  0.2310 -0.8917
 4715SOL     OW25777   0.304   3.798   5.424 -0.4356  0.4606 -0.3931
 4715SOL    HW125778   0.221   3.846   5.430  0.2419  1.6625 -0.5014
 4715SOL    HW225779   0.309   3.764   5.335  1.2730 -0.0118 -0.1269
 4716SOL     OW25780   2.489   1.390   7.304 -0.6795 -0.4565 -0.5858
 4716SOL    HW125781   2.440   1.339   7.368  0.5926  0.2686  0.9579
 4716SOL    HW225782   2.578   1.359   7.325 -0.5166 -0.2759 -0.9971
 4717SOL     OW25783   3.440   4.696   1.925  0.3608  0.1243 -0.0190
 4717SOL    HW125784   3.496   0.034   1.892  0.4781 -0.7097 -1.5677
 4717SOL    HW225785   3.487   4.615   1.907 -0.2395 -0.8690  2.7882
 4718SOL     OW25786   3.288   1.530   9.556 -0.5236 -0.1355 -0.1956
 4718SOL    HW125787   3.271   1.436   9.561 -2.9754  0.3162 -0.0987
 4718SOL    HW225788   3.262   1.535   9.648 -1.4465  0.1066 -0.4692
 4719SOL     OW25789   3.423   0.939   9.139  0.4527  0.2779 -0.1000
 4719SOL    HW125790   3.339   0.905   9.170  0.2619 -0.5423 -1.4825
 4719SOL    HW225791   3.488   0.893   9.192 -1.0687 -2.9441 -1.0341
 4720SOL     OW25792   4.126   0.825  10.977 -0.4772 -0.3594  0.4084
 4720SOL    HW125793   4.041   0.793  11.006 -0.4712  0.5991  1.5030
 4720SOL    HW225794   4.185   0.780  11.038  1.5106  1.0366 -0.4778
 4721SOL     OW25795   1.453   3.130   8.675  0.0138  0.1151  0.0281
 4721SOL    HW125796   1.362   3.108   8.654  0.4679 -1.0060 -0.7664
 4721SOL    HW225797   1.507   3.055   8.651 -1.4427 -0.6143 -1.0058
 4722SOL     OW25798   0.772   4.571   4.044 -0.7212 -0.3440 -0.1674
 4722SOL    HW125799   0.859   4.566   4.084 -0.2227  2.4821 -0.8578
 4722SOL    HW225800   0.714   4.596   4.116  0.7605  1.4590  0.3983
 4723SOL     OW25801   0.241   0.738  10.860  0.0917 -0.1706  0.3778
 4723SOL    HW125802   0.283   0.754  10.775  1.2396 -1.5046  0.6900
 4723SOL    HW225803   0.254   0.643  10.859  2.0415  0.1181 -1.4192
 4724SOL     OW25804   1.902   0.873  11.238 -0.0959 -0.0471 -0.2232
 4724SOL    HW125805   1.866   0.958  11.213 -0.2277  0.3429  1.3425
 4724SOL    HW225806   1.944   0.905  11.317 -2.1596  0.6481  0.5903
 4725SOL     OW25807   2.021   3.039   2.536  0.8011  0.8062 -0.4012
 4725SOL    HW125808   2.092   3.022   2.599  0.9550 -2.0895 -1.3148
 4725SOL    HW225809   2.005   3.133   2.535 -0.7481  0.5613  3.1792
 4726SOL     OW25810   0.522   2.542  11.464 -0.5984  0.2757  0.6756
 4726SOL    HW125811   0.546   2.540  11.371 -0.5809  1.0353  0.6642
 4726SOL    HW225812   0.505   2.635  11.482 -3.0428 -0.0087 -0.0208
 4727SOL     OW25813   2.560   0.498  10.275  0.8334 -0.0443 -0.1398
 4727SOL    HW125814   2.534   0.534  10.360  0.6638  0.6347 -0.4746
 4727SOL    HW225815   2.615   0.570  10.242 -0.8862  1.9138  1.2128
 4728SOL     OW25816   4.443   2.846   3.072  0.1914  0.0629 -0.2117
 4728SOL    HW125817   4.377   2.896   3.120  0.7488 -0.2806  0.9199
 4728SOL    HW225818   4.397   2.763   3.078  2.2170 -0.9986  0.8726
 4729SOL     OW25819   4.592   1.653   5.783  0.2173 -0.3726 -0.4386
 4729SOL    HW125820   4.500   1.661   5.758 -0.0601  1.7011  1.3081
 4729SOL    HW225821   4.622   1.743   5.793  0.9036 -0.6164 -0.2993
 4730SOL     OW25822   3.891   3.188   5.085 -0.2984  0.1922  0.8938
 4730SOL    HW125823   3.817   3.234   5.123 -0.9509  0.9600 -1.3473
 4730SOL    HW225824   3.858   3.098   5.080 -0.8075  0.4264  0.0552
 4731SOL     OW25825   2.885   3.422   4.412  0.9052  0.1692 -0.4145
 4731SOL    HW125826   2.927   3.374   4.341  0.3983  0.7041 -1.0661
 4731SOL    HW225827   2.967   3.448   4.454 -0.3094 -0.2621  2.2189
 4732SOL     OW25828   3.988   2.017   3.592 -0.2129 -0.5980 -0.3940
 4732SOL    HW125829   4.008   2.003   3.684 -0.7441  1.3766  0.0107
 4732SOL    HW225830   4.022   2.104   3.569  0.7880 -0.8356  0.1791
 4733SOL     OW25831   4.574   1.878  14.618 -0.6389 -0.2715  0.4828
 4733SOL    HW125832   4.630   1.873  14.541 -0.1211  1.0160  0.7751
 4733SOL    HW225833   4.644   1.881  14.683 -0.9193  0.6160  0.7544
 4734SOL     OW25834   3.075   1.293   7.196 -0.8435  0.3908  0.4160
 4734SOL    HW125835   3.068   1.357   7.267  1.8536  0.2729  0.7914
 4734SOL    HW225836   3.149   1.339   7.155 -0.6604 -1.3255 -1.1821
 4735SOL     OW25837   1.683   0.518   3.460 -0.4510  0.2187  0.6588
 4735SOL    HW125838   1.750   0.451   3.468  0.1758  0.9036  1.1627
 4735SOL    HW225839   1.597   0.477   3.466 -0.0143 -0.9146 -0.9174
 4736SOL     OW25840   2.575   4.696  17.364 -0.5447 -0.2234 -0.3223
 4736SOL    HW125841   2.645   0.023  17.392  0.0196 -0.1733 -1.8078
 4736SOL    HW225842   2.529   0.026  17.307  1.6573  1.3240 -0.4203
 4737SOL     OW25843   0.438   1.578   6.276  0.4700 -0.6412  0.3054
 4737SOL    HW125844   0.344   1.570   6.260  0.7435 -1.4263 -0.8568
 4737SOL    HW225845   0.436   1.628   6.358  0.4273  0.0386 -0.1063
 4738SOL     OW25846   4.452   1.520   5.227 -0.1616  0.3163  0.0731
 4738SOL    HW125847   4.374   1.573   5.210  0.0028  0.2654 -0.8877
 4738SOL    HW225848   4.449   1.467   5.147 -1.6370 -1.3106  1.2058
 4739SOL     OW25849   0.448   4.094   2.084  0.0888 -0.5782 -0.4028
 4739SOL    HW125850   0.364   4.052   2.067 -0.6622  0.9795 -0.5999
 4739SOL    HW225851   0.461   4.151   2.008 -0.1911 -0.6105 -0.4716
 4740SOL     OW25852   4.485   2.977   3.383  0.3865 -0.1789  0.3091
 4740SOL    HW125853   4.578   2.987   3.404  0.4400  0.9955 -0.5197
 4740SOL    HW225854   4.451   3.066   3.372 -1.2187 -0.6027  1.7540
 4741SOL     OW25855   1.466   2.339   7.887  0.0743 -0.1261  0.6798
 4741SOL    HW125856   1.518   2.259   7.889  1.2390  0.6179 -0.5012
 4741SOL    HW225857   1.464   2.371   7.977 -0.5251 -3.0340  1.7083
 4742SOL     OW25858   1.467   1.889  11.661 -0.0588 -0.2070  0.4378
 4742SOL    HW125859   1.487   1.964  11.717 -0.7376 -0.0954  0.5285
 4742SOL    HW225860   1.549   1.839  11.659 -0.6108 -1.1168  0.6300
 4743SOL     OW25861   2.994   1.118  12.133  0.1324 -0.1482 -0.1147
 4743SOL    HW125862   2.981   1.054  12.203 -0.9466  1.3264  1.0392
 4743SOL    HW225863   3.070   1.077  12.091  0.0185 -2.5687  2.0413
 4744SOL     OW25864   3.679   2.689   3.897  0.1440  0.0046 -0.5971
 4744SOL    HW125865   3.725   2.623   3.845  1.4373  1.3562 -1.1854
 4744SOL    HW225866   3.591   2.652   3.894  0.1671 -0.1723  0.9552
 4745SOL     OW25867   3.767   3.106  11.912 -0.1589 -0.2250  0.1524
 4745SOL    HW125868   3.834   3.122  11.846  0.1869 -1.8110  0.1296
 4745SOL    HW225869   3.796   3.171  11.977  0.8898 -0.6298  0.0752
 4746SOL     OW25870   0.032   1.187   8.393 -0.4404  0.0369 -0.3218
 4746SOL    HW125871   4.717   1.251   8.340 -0.6102  0.8643  0.8135
 4746SOL    HW225872   0.111   1.235   8.421 -0.2688  0.1375 -0.9831
 4747SOL     OW25873   1.626   2.561   2.082 -0.1145 -0.5694  0.1401
 4747SOL    HW125874   1.706   2.545   2.033  1.6694  0.9568  2.5428
 4747SOL    HW225875   1.657   2.599   2.164 -0.1446 -2.0012  0.7994
 4748SOL     OW25876   1.633   2.985  14.913  0.4546  0.0879  0.2382
 4748SOL    HW125877   1.626   2.893  14.939 -0.3516  0.2170  0.4759
 4748SOL    HW225878   1.546   2.995  14.873  1.1932 -1.0938 -1.6690
 4749SOL     OW25879   2.868   0.264   7.726  0.2644 -0.3848  0.6277
 4749SOL    HW125880   2.813   0.322   7.674  1.1717  1.0889  1.3214
 4749SOL    HW225881   2.953   0.307   7.717 -1.0635  1.5339 -2.6140
 4750SOL     OW25882   1.803   0.614   2.433 -0.4379 -0.7030  0.1939
 4750SOL    HW125883   1.770   0.653   2.352 -0.3919 -0.5493  0.2477
 4750SOL    HW225884   1.751   0.669   2.492  0.5999 -1.0613  1.4638
 4751SOL     OW25885   1.777   0.854  12.533  0.5716  0.5400  0.6948
 4751SOL    HW125886   1.783   0.892  12.621 -2.6198 -1.4874  1.8200
 4751SOL    HW225887   1.772   0.759  12.549 -1.2476  0.3267 -1.1752
 4752SOL     OW25888   3.288   0.516   9.402  0.7234 -0.0315  0.1293
 4752SOL    HW125889   3.278   0.607   9.374  1.8459  0.0003 -0.1397
 4752SOL    HW225890   3.319   0.528   9.492 -2.1745 -0.9920  1.2558
 4753SOL     OW25891   0.199   3.574   6.310 -0.0147 -0.7259  0.0420
 4753SOL    HW125892   0.268   3.508   6.298 -0.5531 -1.3094  0.1627
 4753SOL    HW225893   0.179   3.604   6.221 -0.7269 -0.1742  0.3930
 4754SOL     OW25894   3.822   4.234   3.393 -0.3262 -0.3088  0.2346
 4754SOL    HW125895   3.852   4.273   3.310 -1.2034 -0.4448 -0.1432
 4754SOL    HW225896   3.883   4.281   3.450  0.0173  0.2534 -0.5847
 4755SOL     OW25897   4.343   4.666   7.547 -0.4519  0.1444  0.2519
 4755SOL    HW125898   4.432   4.666   7.512 -0.9098  2.5030 -0.8455
 4755SOL    HW225899   4.342   4.583   7.595  1.4496  1.0390  1.8394
 4756SOL     OW25900   4.157   4.441   5.348 -0.3747  0.3690 -0.4443
 4756SOL    HW125901   4.153   4.427   5.442  1.2957 -0.4252 -0.4883
 4756SOL    HW225902   4.072   4.402   5.330  0.1047 -0.8632 -0.0154
 4757SOL     OW25903   3.761   3.604   6.475 -0.2791  0.8152  0.5129
 4757SOL    HW125904   3.807   3.625   6.394 -1.5288 -2.8442 -1.1202
 4757SOL    HW225905   3.789   3.513   6.485 -1.7438  0.2369 -0.7096
 4758SOL     OW25906   3.757   1.790   0.142  0.0830  0.3192 -0.0180
 4758SOL    HW125907   3.832   1.735   0.165 -0.1931 -0.9291 -2.1140
 4758SOL    HW225908   3.702   1.721   0.106  1.1663  0.2831 -1.5998
 4759SOL     OW25909   3.064   0.405   3.723  0.0491 -0.3187 -0.3319
 4759SOL    HW125910   3.111   0.377   3.644 -3.2917 -0.9749 -2.0731
 4759SOL    HW225911   3.112   0.479   3.761 -1.6134  1.9980 -2.7597
 4760SOL     OW25912   3.291   1.101   5.501  0.1158 -0.2989 -0.4655
 4760SOL    HW125913   3.251   1.046   5.434  0.2740 -0.3398 -0.5259
 4760SOL    HW225914   3.374   1.109   5.455 -2.0383 -2.8929 -4.7989
 4761SOL     OW25915   0.797   4.484   9.712 -0.4103 -0.2998 -0.0909
 4761SOL    HW125916   0.867   4.511   9.653  2.5844 -2.3363  2.5083
 4761SOL    HW225917   0.794   4.390   9.697 -0.3118 -0.8409  3.3234
 4762SOL     OW25918   1.584   3.338   8.800 -0.4142  0.2619  0.0037
 4762SOL    HW125919   1.536   3.277   8.744 -2.1754  1.9777 -0.3681
 4762SOL    HW225920   1.513   3.358   8.860 -1.8159  0.5013 -1.7070
 4763SOL     OW25921   0.214   2.362   2.286  0.2658 -0.1215 -0.1703
 4763SOL    HW125922   0.221   2.412   2.205 -0.7529 -3.0069 -2.0355
 4763SOL    HW225923   0.256   2.279   2.264  0.9318 -0.3469  1.9285
 4764SOL     OW25924   3.714   4.195  17.330 -0.2344 -0.0677  0.1537
 4764SOL    HW125925   3.728   4.151  17.246 -0.5199  0.8618 -0.3892
 4764SOL    HW225926   3.795   4.172  17.375  0.1114  2.1995  0.6923
 4765SOL     OW25927   2.811   3.754  12.182  0.7301  0.0925 -0.2760
 4765SOL    HW125928   2.902   3.757  12.213  1.1611  2.3210 -1.6837
 4765SOL    HW225929   2.804   3.821  12.113  1.0633 -2.2675 -2.5793
 4766SOL     OW25930   4.125   1.972   0.325  0.1376  0.7894 -0.4757
 4766SOL    HW125931   4.057   1.910   0.352  1.4397  0.6141  2.4473
 4766SOL    HW225932   4.116   2.040   0.392 -0.7335 -1.5334  1.7818
 4767SOL     OW25933   1.999   1.934   3.841 -0.0148  0.3751 -0.1571
 4767SOL    HW125934   1.994   1.997   3.769  3.3469  2.2857  1.3009
 4767SOL    HW225935   2.031   1.986   3.914  0.6896  0.9213 -0.8534
 4768SOL     OW25936   0.253   3.571  10.129  0.2328  0.3137 -0.2926
 4768SOL    HW125937   0.210   3.491  10.159  1.2345  0.4885  1.6182
 4768SOL    HW225938   0.341   3.563  10.166 -0.2970 -0.6149  0.7746
 4769SOL     OW25939   0.051   2.472  14.885  0.2386  0.1299  0.6858
 4769SOL    HW125940   0.081   2.492  14.796 -3.7438  0.5221 -0.5911
 4769SOL    HW225941   0.040   2.563  14.913  3.9368  1.1676 -1.1947
 4770SOL     OW25942   0.452   1.803  17.271  0.1145 -0.2666 -0.3682
 4770SOL    HW125943   0.410   1.721  17.296  1.8986 -1.3309 -0.8441
 4770SOL    HW225944   0.411   1.819  17.186 -0.4750 -0.4917 -0.1258
 4771SOL     OW25945   2.955   0.082   6.058 -0.4625 -0.6263  0.3814
 4771SOL    HW125946   2.862   0.066   6.077 -0.7884  1.2600  0.4341
 4771SOL    HW225947   2.950   0.108   5.966 -0.4732 -1.7045  0.0878
 4772SOL     OW25948   3.174   2.797   2.225 -0.2959  0.1920  0.1881
 4772SOL    HW125949   3.162   2.749   2.143 -0.8327  0.3075  0.2040
 4772SOL    HW225950   3.235   2.744   2.277 -1.6162 -0.8765  0.6302
 4773SOL     OW25951   2.516   4.209   3.904  0.3925 -0.3984  0.6266
 4773SOL    HW125952   2.517   4.300   3.935  1.9898 -0.3926  0.5688
 4773SOL    HW225953   2.433   4.181   3.943  0.9798 -0.9187  1.4994
 4774SOL     OW25954   0.756   0.324   9.487  0.1313 -0.0406 -0.2743
 4774SOL    HW125955   0.665   0.355   9.482 -0.0897 -0.4105  1.6458
 4774SOL    HW225956   0.805   0.400   9.454  1.3196 -0.1640  1.2257
 4775SOL     OW25957   4.029   2.840  11.652  0.3404  0.2647  0.4288
 4775SOL    HW125958   4.001   2.810  11.566  2.1445  2.7848 -1.0331
 4775SOL    HW225959   4.123   2.837  11.634  0.3984  1.0062  0.6014
 4776SOL     OW25960   1.315   2.784   6.575 -0.6057  0.2422 -0.4770
 4776SOL    HW125961   1.346   2.863   6.618  1.2241 -1.3683  1.1832
 4776SOL    HW225962   1.332   2.812   6.485  1.2788 -0.2943 -0.3069
 4777SOL     OW25963   1.564   2.644   5.279  0.1025 -0.7362 -0.1232
 4777SOL    HW125964   1.504   2.637   5.354  0.1928 -1.8792 -0.1566
 4777SOL    HW225965   1.597   2.553   5.280  0.8552 -0.4675 -0.3096
 4778SOL     OW25966   2.878   0.216   2.648 -0.3622  0.2222  0.4702
 4778SOL    HW125967   2.858   0.309   2.655 -0.7652  0.2151 -0.5448
 4778SOL    HW225968   2.842   0.179   2.729  0.3086 -2.4230 -0.4495
 4779SOL     OW25969   3.785   3.348   5.716 -0.2265 -0.3584  0.0801
 4779SOL    HW125970   3.862   3.328   5.663 -0.8526  1.9834 -1.7115
 4779SOL    HW225971   3.743   3.267   5.746 -1.5977  0.7541  1.2069
 4780SOL     OW25972   2.070   1.022   9.539  0.6994  0.4502  0.1603
 4780SOL    HW125973   2.150   1.053   9.497  1.8539 -1.7243  0.7497
 4780SOL    HW225974   2.033   1.103   9.574 -0.1217  0.7920 -1.5072
 4781SOL     OW25975   1.241   2.911  16.250 -0.0216 -0.0347  0.1814
 4781SOL    HW125976   1.242   2.885  16.157  0.7927  0.7604 -0.0290
 4781SOL    HW225977   1.190   2.992  16.244  1.7863  1.0133 -1.0236
 4782SOL     OW25978   1.365   3.812   6.477  0.0981 -0.4726 -0.0872
 4782SOL    HW125979   1.326   3.871   6.542  0.2180 -0.2932 -0.1770
 4782SOL    HW225980   1.361   3.736   6.535  0.3989 -0.5162 -0.1239
 4783SOL     OW25981   0.896   4.445   5.263 -0.1508  0.4420  0.1123
 4783SOL    HW125982   0.982   4.403   5.265  0.8807  2.4269 -2.1862
 4783SOL    HW225983   0.913   4.529   5.304  1.1441 -0.9047  2.3360
 4784SOL     OW25984   4.432   2.680   8.187 -0.4068  0.3953 -0.3099
 4784SOL    HW125985   4.427   2.662   8.281 -1.6766 -1.9208 -0.8324
 4784SOL    HW225986   4.503   2.628   8.150  1.3829  1.2728  1.9016
 4785SOL     OW25987   4.702   4.171  13.202  0.2699 -0.6950  0.2476
 4785SOL    HW125988   0.020   4.202  13.278 -2.8826  0.3015  1.9265
 4785SOL    HW225989   4.724   4.242  13.142 -1.3621 -1.6508 -1.4529
 4786SOL     OW25990   3.562   2.040   7.767  0.0870  0.0393 -0.0954
 4786SOL    HW125991   3.482   1.989   7.781  0.3446 -0.1484  0.6867
 4786SOL    HW225992   3.602   2.029   7.853  0.0438  1.4689  0.1034
 4787SOL     OW25993   3.817   2.868   5.698 -0.0877 -0.2502  0.0355
 4787SOL    HW125994   3.810   2.779   5.733  0.3720 -0.8186 -1.3403
 4787SOL    HW225995   3.769   2.921   5.762 -0.3565 -0.4590  0.0079
 4788SOL     OW25996   0.021   2.797   5.144  0.2372 -0.3733 -0.4073
 4788SOL    HW125997   0.047   2.855   5.216 -0.5660  1.1951 -1.3865
 4788SOL    HW225998   0.003   2.712   5.185  1.9166 -0.6231 -0.1822
 4789SOL     OW25999   2.797   1.302   8.567 -0.4715  0.0321 -0.3226
 4789SOL    HW126000   2.828   1.363   8.500 -1.3025 -0.8377 -1.4804
 4789SOL    HW226001   2.795   1.355   8.647 -0.7462 -0.1559 -0.2080
 4790SOL     OW26002   1.611   1.814   3.227  0.1318  0.0814  0.4185
 4790SOL    HW126003   1.592   1.750   3.296  0.7272 -0.3494  0.1890
 4790SOL    HW226004   1.570   1.768   3.154 -0.5349  0.6944  0.4146
 4791SOL     OW26005   2.723   2.633  16.757 -0.1486  0.4355  0.6513
 4791SOL    HW126006   2.770   2.613  16.676 -1.4964 -0.2293  0.0254
 4791SOL    HW226007   2.648   2.577  16.736  0.2234  0.6901 -1.3641
 4792SOL     OW26008   3.160   1.504   1.584  0.6784  0.4781 -0.1947
 4792SOL    HW126009   3.158   1.434   1.649  1.0991  0.4863 -0.1706
 4792SOL    HW226010   3.227   1.561   1.623  2.1625 -1.7997  0.5227
 4793SOL     OW26011   3.088   2.204  11.490 -0.1192  0.3247  0.4415
 4793SOL    HW126012   3.109   2.230  11.400  3.2670 -1.1824  0.8033
 4793SOL    HW226013   3.005   2.160  11.472  0.2800 -0.7713  1.2821
 4794SOL     OW26014   1.603   2.675   7.518  0.4493 -0.3158 -0.0352
 4794SOL    HW126015   1.569   2.658   7.605  0.3154 -2.0671 -0.4264
 4794SOL    HW226016   1.525   2.714   7.477  0.4582  0.7722  0.9642
 4795SOL     OW26017   3.736   4.590  16.341  0.8814 -0.7797 -0.4785
 4795SOL    HW126018   3.705   4.500  16.355 -1.5847  0.0504 -0.7555
 4795SOL    HW226019   3.824   4.579  16.378 -0.5763  0.0553  3.2689
 4796SOL     OW26020   4.717   4.494   8.923 -0.0817  0.3778  0.5033
 4796SOL    HW126021   4.691   4.410   8.886 -0.6745  0.3541  0.9704
 4796SOL    HW226022   0.009   4.474   9.014  0.4573  1.5184  0.6161
 4797SOL     OW26023   2.976   2.513   3.796 -0.7988  0.2080 -0.7300
 4797SOL    HW126024   3.036   2.454   3.750 -2.0742 -2.1046  0.5642
 4797SOL    HW226025   3.014   2.528   3.882 -0.9997  1.3134 -0.8338
 4798SOL     OW26026   1.896   4.721   4.030  0.0830  0.4155  0.0500
 4798SOL    HW126027   1.878   4.633   3.996  1.4923  0.7765 -1.6822
 4798SOL    HW226028   1.850   4.725   4.113 -0.0863  1.1156 -0.0799
 4799SOL     OW26029   4.119   1.840   7.776 -0.9686  0.6299 -0.8066
 4799SOL    HW126030   4.150   1.914   7.828 -0.2249  0.4968 -1.0549
 4799SOL    HW226031   4.106   1.881   7.690  0.7131  2.4405 -0.2046
 4800SOL     OW26032   3.422   1.776   7.461 -0.2359  0.0365 -0.3340
 4800SOL    HW126033   3.459   1.723   7.390 -0.7410  0.8473 -1.2039
 4800SOL    HW226034   3.469   1.743   7.538 -2.4884 -0.4520  0.8144
 4801SOL     OW26035   0.207   1.437  13.156  0.6731  0.1502 -0.5772
 4801SOL    HW126036   0.127   1.452  13.105 -1.0966  0.5865  2.3680
 4801SOL    HW226037   0.266   1.396  13.092  0.5868 -1.8299  0.6304
 4802SOL     OW26038   3.082   0.945   6.064  0.3419  0.3434 -0.2444
 4802SOL    HW126039   3.122   0.866   6.028  0.0730 -0.3515  0.9677
 4802SOL    HW226040   3.160   0.983   6.105  0.6852  1.1771 -1.6664
 4803SOL     OW26041   0.869   0.482   2.047 -0.2167 -1.2245  0.1283
 4803SOL    HW126042   0.943   0.492   1.987 -1.1224 -0.6577 -0.8967
 4803SOL    HW226043   0.845   0.394   2.020 -0.8622 -1.9638  3.0961
 4804SOL     OW26044   0.606   0.530  16.022 -0.0076 -0.6596 -0.2882
 4804SOL    HW126045   0.515   0.534  16.054 -0.2614  0.9398 -1.1887
 4804SOL    HW226046   0.590   0.494  15.935 -0.6399 -0.5612 -0.2196
 4805SOL     OW26047   1.806   1.791   8.381  0.1555 -0.4151 -0.3249
 4805SOL    HW126048   1.844   1.705   8.400 -1.2938 -0.4905  2.2097
 4805SOL    HW226049   1.711   1.783   8.389  0.2370 -2.4455 -1.4092
 4806SOL     OW26050   4.003   3.086   3.434  0.7709 -0.1149 -0.4201
 4806SOL    HW126051   4.048   3.170   3.442  0.6465 -0.2028  1.1850
 4806SOL    HW226052   4.036   3.046   3.354  1.1758 -1.5782  0.4714
 4807SOL     OW26053   0.280   3.979   4.669  0.0192  0.2077 -0.4011
 4807SOL    HW126054   0.357   3.927   4.647 -1.9588 -2.3366 -1.4036
 4807SOL    HW226055   0.283   4.057   4.615 -1.3562  2.1806  2.3770
 4808SOL     OW26056   4.387   1.661   3.602 -0.3740  0.9884 -0.2710
 4808SOL    HW126057   4.309   1.715   3.589 -0.1266  1.6833  1.1124
 4808SOL    HW226058   4.367   1.582   3.553  2.9639  0.0471 -0.1441
 4809SOL     OW26059   0.379   3.797   9.090  0.5102  0.0570 -0.2800
 4809SOL    HW126060   0.446   3.760   9.148  0.6970 -0.1236 -0.6099
 4809SOL    HW226061   0.404   3.888   9.101  2.1399 -0.2771 -1.1487
 4810SOL     OW26062   4.494   2.174   6.831 -0.3882 -0.1197 -0.0000
 4810SOL    HW126063   4.566   2.211   6.779 -1.1591  1.0419 -0.2332
 4810SOL    HW226064   4.530   2.089   6.857 -0.4375  0.6107  2.4551
 4811SOL     OW26065   0.480   0.520   2.356  0.0859  0.1619 -0.5339
 4811SOL    HW126066   0.480   0.523   2.451  0.0707 -0.5634 -0.5115
 4811SOL    HW226067   0.485   0.426   2.339 -1.2791 -0.2757  1.5258
 4812SOL     OW26068   3.508   2.791   2.658 -0.2014 -0.1105 -0.3356
 4812SOL    HW126069   3.533   2.803   2.566  4.3018  0.5828  0.9520
 4812SOL    HW226070   3.423   2.747   2.649 -0.2774 -0.2904  1.1872
 4813SOL     OW26071   1.079   2.686   9.257 -0.2747  0.2774  0.1149
 4813SOL    HW126072   0.992   2.648   9.263 -0.6758  1.1507 -0.0915
 4813SOL    HW226073   1.081   2.695   9.352  1.6296  0.7395  0.0344
 4814SOL     OW26074   2.778   2.227   8.444 -0.3631 -0.1815  0.2210
 4814SOL    HW126075   2.686   2.209   8.423  0.6596 -4.2477 -0.6723
 4814SOL    HW226076   2.803   2.160   8.507 -0.2635 -0.9899 -0.6856
 4815SOL     OW26077   4.706   3.211  16.607 -0.1708  0.0745  0.2458
 4815SOL    HW126078   4.679   3.237  16.519 -0.5282 -1.6635 -0.1521
 4815SOL    HW226079   0.069   3.220  16.607 -0.0189 -1.4840  2.6686
 4816SOL     OW26080   3.740   1.105  17.088 -0.3277 -0.3356 -0.5857
 4816SOL    HW126081   3.811   1.090  17.025  0.5837 -2.0743  0.8378
 4816SOL    HW226082   3.770   1.049  17.159 -2.0886  2.8072  2.6067
 4817SOL     OW26083   2.595   4.654   9.823  0.3403  0.0564 -0.2767
 4817SOL    HW126084   2.655   4.606   9.880  0.0418  0.5660  0.4529
 4817SOL    HW226085   2.571   4.577   9.771 -2.0171  1.8739 -1.8712
 4818SOL     OW26086   4.537   2.158   5.432 -0.4838 -0.1696  0.1889
 4818SOL    HW126087   4.449   2.166   5.395  0.0022 -0.7411 -1.1067
 4818SOL    HW226088   4.525   2.072   5.472  0.1540  0.4401  1.7025
 4819SOL     OW26089   4.155   3.458  12.167  0.0134 -0.1711 -0.0503
 4819SOL    HW126090   4.130   3.422  12.252 -3.1413 -1.2269 -1.4074
 4819SOL    HW226091   4.243   3.419  12.169  1.2387  2.5281 -1.3772
 4820SOL     OW26092   2.984   0.524  11.393  0.1585 -0.0948 -0.1143
 4820SOL    HW126093   2.997   0.618  11.379 -0.6196  0.0696  0.2571
 4820SOL    HW226094   2.991   0.520  11.488 -1.9529 -0.0014  0.0618
 4821SOL     OW26095   1.835   3.149   6.596 -0.6460 -0.2949 -0.1694
 4821SOL    HW126096   1.745   3.183   6.591  0.3182  2.1045 -1.4143
 4821SOL    HW226097   1.819   3.060   6.627 -1.6169 -0.3073 -0.6811
 4822SOL     OW26098   3.898   0.747   4.314  0.2417  0.0208 -0.1384
 4822SOL    HW126099   3.919   0.735   4.407 -3.2533  0.7772  0.7840
 4822SOL    HW226100   3.809   0.712   4.309  0.0440  0.6800 -1.3527
 4823SOL     OW26101   4.182   1.419  10.284 -0.0005 -0.2903  0.3537
 4823SOL    HW126102   4.242   1.430  10.358  0.4571 -4.0528  0.5545
 4823SOL    HW226103   4.125   1.362  10.335  2.7937 -1.9395  1.6809
 4824SOL     OW26104   4.265   3.914   3.790  0.7386  0.2118  0.1209
 4824SOL    HW126105   4.272   3.955   3.876 -0.1900 -0.2895  0.4388
 4824SOL    HW226106   4.358   3.918   3.769  0.8664 -1.0128  0.4354
 4825SOL     OW26107   1.835   3.976   4.522  0.2184  1.0862  0.5141
 4825SOL    HW126108   1.853   3.902   4.579 -0.5673 -0.5489 -1.3576
 4825SOL    HW226109   1.813   3.935   4.438  0.5148  2.2244 -0.1192
 4826SOL     OW26110   4.629   1.226  15.701  0.0755  0.6676 -0.3309
 4826SOL    HW126111   4.684   1.254  15.628  2.5341 -1.3352  0.7320
 4826SOL    HW226112   4.576   1.158  15.659 -0.6506  2.0559 -1.6427
 4827SOL     OW26113   1.496   2.610   5.905  0.3988  0.0261 -0.1876
 4827SOL    HW126114   1.530   2.537   5.852 -1.6018 -2.1785  1.5643
 4827SOL    HW226115   1.406   2.581   5.921  1.6041 -2.3428  2.3676
 4828SOL     OW26116   3.079   0.598   8.846  0.0578  0.4559 -0.6012
 4828SOL    HW126117   3.040   0.664   8.904  3.1727  0.5342  1.4267
 4828SOL    HW226118   3.112   0.538   8.912 -1.7663  0.1054  0.0017
 4829SOL     OW26119   4.678   1.997   1.290 -0.0949 -0.2734 -0.0894
 4829SOL    HW126120   4.585   1.999   1.314  0.0150 -1.5150  0.4243
 4829SOL    HW226121   4.707   2.084   1.314 -1.1446 -0.0945  0.5121
 4830SOL     OW26122   1.547   3.398  10.661 -0.3640  0.2025  0.2517
 4830SOL    HW126123   1.564   3.429  10.749  1.2978  0.9593 -0.3350
 4830SOL    HW226124   1.465   3.444  10.640  1.1672  2.1897 -1.3254
 4831SOL     OW26125   3.523   3.938  12.102  0.0284 -0.5017 -0.1423
 4831SOL    HW126126   3.474   4.016  12.129  1.7237  0.2217  0.8468
 4831SOL    HW226127   3.449   3.879  12.085 -0.3785  0.3718 -1.3950
 4832SOL     OW26128   1.495   3.972   6.287 -0.0965  0.4515  0.1736
 4832SOL    HW126129   1.467   3.913   6.357  1.1473  0.6507  0.8625
 4832SOL    HW226130   1.409   3.996   6.255  0.7779  0.5921 -2.0616
 4833SOL     OW26131   0.000   4.143   5.259 -0.4372  0.3048  0.5388
 4833SOL    HW126132   4.657   4.187   5.219 -0.6342 -0.4702  0.0547
 4833SOL    HW226133   0.059   4.131   5.184 -0.5120 -0.8506  0.6615
 4834SOL     OW26134   3.908   0.663   2.243  0.0012 -0.4441 -0.3058
 4834SOL    HW126135   3.948   0.590   2.196 -0.6053 -0.2657 -1.0926
 4834SOL    HW226136   3.898   0.626   2.330  0.8245 -0.0205 -0.0297
 4835SOL     OW26137   4.342   0.654   9.208 -0.1316 -0.2724  0.3099
 4835SOL    HW126138   4.412   0.591   9.194 -1.8787 -2.3325  0.9351
 4835SOL    HW226139   4.282   0.623   9.140 -0.2006  0.0477  0.2196
 4836SOL     OW26140   4.022   1.421   9.699 -0.9091  0.1182 -0.0978
 4836SOL    HW126141   4.045   1.347   9.643 -0.9016 -0.3467  0.5160
 4836SOL    HW226142   4.087   1.410   9.769 -0.8764 -5.2352 -1.0076
 4837SOL     OW26143   1.149   1.301   3.169 -0.0454 -0.5991 -0.2372
 4837SOL    HW126144   1.236   1.261   3.158  0.2076 -0.8888  2.5950
 4837SOL    HW226145   1.147   1.366   3.099  1.9271 -0.4076 -0.1309
 4838SOL     OW26146   1.491   2.576   7.746  0.9206  0.2395  0.1257
 4838SOL    HW126147   1.453   2.627   7.817  0.2609 -0.3348  0.1875
 4838SOL    HW226148   1.480   2.486   7.777  0.0677 -0.5163 -2.3367
 4839SOL     OW26149   3.170   0.394   8.999 -0.1077  0.1920 -0.2324
 4839SOL    HW126150   3.216   0.342   8.933  0.5857  1.2064 -0.5346
 4839SOL    HW226151   3.183   0.349   9.083 -0.4120 -0.6078 -0.6095
 4840SOL     OW26152   2.984   1.463  16.324 -0.4638  0.5538 -0.2672
 4840SOL    HW126153   3.057   1.481  16.264  0.4938 -0.8301  0.4870
 4840SOL    HW226154   3.009   1.378  16.360 -1.8856  1.2244  2.2259
 4841SOL     OW26155   2.235   4.219  13.254  0.2316  0.0582  0.0052
 4841SOL    HW126156   2.286   4.154  13.205 -0.6089 -0.5046 -0.1138
 4841SOL    HW226157   2.272   4.294  13.207 -0.5067 -0.7687 -1.9020
 4842SOL     OW26158   3.226   1.448   3.763 -0.2876  0.2755 -0.0345
 4842SOL    HW126159   3.252   1.490   3.844  0.6505 -1.6212  0.6624
 4842SOL    HW226160   3.219   1.520   3.701  0.0615 -1.1390 -1.7394
 4843SOL     OW26161   0.503   2.010   4.393 -0.6462  0.5424  0.5274
 4843SOL    HW126162   0.420   2.057   4.406 -1.9000 -1.3720 -0.5534
 4843SOL    HW226163   0.493   1.978   4.304  1.1752 -1.5902  1.0978
 4844SOL     OW26164   1.892   2.607  13.592  0.4322 -0.4675 -0.3873
 4844SOL    HW126165   1.910   2.664  13.517 -1.9815 -1.6676 -1.8652
 4844SOL    HW226166   1.915   2.667  13.664 -0.6527  0.4806 -0.8266
 4845SOL     OW26167   3.243   1.646   8.649 -0.2199 -0.0140  0.2400
 4845SOL    HW126168   3.159   1.668   8.608  1.0477  3.1017 -0.7134
 4845SOL    HW226169   3.267   1.571   8.595  0.7694  0.9337 -0.6331
 4846SOL     OW26170   0.090   1.762   1.205  0.3137  0.3216  0.0065
 4846SOL    HW126171   0.181   1.781   1.229  0.5418 -0.4237 -0.2614
 4846SOL    HW226172   0.047   1.843   1.234 -0.5185  0.6144 -2.0781
 4847SOL     OW26173   3.486   0.456  16.784  0.7193 -0.2361  0.4386
 4847SOL    HW126174   3.505   0.368  16.816  1.0721  0.1659  1.3624
 4847SOL    HW226175   3.567   0.488  16.744 -0.3780  0.8997 -0.8515
 4848SOL     OW26176   2.016   4.052  11.411 -0.1277  0.2408  0.1842
 4848SOL    HW126177   1.984   4.050  11.320  2.5088  1.0091 -0.7426
 4848SOL    HW226178   2.058   3.967  11.425 -1.1400 -0.4092 -0.6990
 4849SOL     OW26179   4.141   3.644   9.714 -0.5759  0.0125 -0.0431
 4849SOL    HW126180   4.179   3.723   9.676 -1.3744 -0.1216 -1.1145
 4849SOL    HW226181   4.196   3.573   9.680  0.8320  1.1318 -0.1320
 4850SOL     OW26182   1.851   1.130   6.090 -0.6611 -0.1495  0.1765
 4850SOL    HW126183   1.764   1.129   6.129 -0.9612 -1.6946 -0.5095
 4850SOL    HW226184   1.866   1.035   6.084 -0.2913 -0.0893  0.1561
 4851SOL     OW26185   0.700   3.462  10.195  0.4889  0.5859 -0.2180
 4851SOL    HW126186   0.627   3.524  10.198  0.9938  0.9974  3.7501
 4851SOL    HW226187   0.659   3.376  10.205 -0.8708  1.0284 -2.0302
 4852SOL     OW26188   4.113   4.263  17.168 -0.1003  0.5727 -0.4275
 4852SOL    HW126189   4.177   4.253  17.238  0.7299  0.6076 -1.1751
 4852SOL    HW226190   4.142   4.210  17.094  0.6817  0.1189  0.2112
 4853SOL     OW26191   3.040   0.758   8.234  0.0192 -0.1225  0.2140
 4853SOL    HW126192   2.968   0.807   8.272  1.3890  1.4628  0.7953
 4853SOL    HW226193   3.025   0.668   8.262 -0.7477 -0.1914 -0.4397
 4854SOL     OW26194   0.834   1.142  15.202  0.5027 -0.1765  0.2301
 4854SOL    HW126195   0.907   1.103  15.250  1.2463  1.4743  0.4507
 4854SOL    HW226196   0.787   1.170  15.281 -1.0358 -0.6903 -0.5199
 4855SOL     OW26197   4.699   4.472   0.549  0.0585 -0.1532  0.2380
 4855SOL    HW126198   4.652   4.542   0.505 -0.5413  0.0617  1.2195
 4855SOL    HW226199   4.672   4.497   0.637 -0.0199  0.1825  0.1184
 4856SOL     OW26200   3.766   1.469   6.608 -0.4157 -0.1196 -0.1869
 4856SOL    HW126201   3.776   1.374   6.621  1.1116  0.0082 -0.4089
 4856SOL    HW226202   3.838   1.488   6.549 -3.6275  0.8669 -3.7611
 4857SOL     OW26203   4.177   3.701   1.732  0.2564 -0.5759 -0.0290
 4857SOL    HW126204   4.091   3.659   1.732  0.3363 -0.7289 -1.6344
 4857SOL    HW226205   4.191   3.715   1.826 -2.0603  1.5318 -0.0248
 4858SOL     OW26206   3.907   1.872  12.149 -0.3213  0.1184 -0.2162
 4858SOL    HW126207   3.947   1.828  12.224  1.1970  0.9103 -0.5650
 4858SOL    HW226208   3.926   1.821  12.071  0.1118 -0.7003  0.4286
 4859SOL     OW26209   2.686   4.543   5.235 -0.7620  0.1188 -0.0033
 4859SOL    HW126210   2.624   4.479   5.271 -1.3964  0.7902  0.0891
 4859SOL    HW226211   2.716   4.582   5.317 -0.4686 -0.2955  0.0905
 4860SOL     OW26212   3.153   1.077   2.908 -0.4355 -0.1062 -0.2242
 4860SOL    HW126213   3.061   1.066   2.887 -0.3570  1.1404 -1.2192
 4860SOL    HW226214   3.179   0.989   2.934  0.0970  0.0132 -0.3424
 4861SOL     OW26215   1.157   2.448   6.189 -0.0756 -0.6308 -0.0914
 4861SOL    HW126216   1.072   2.408   6.205 -1.3627  1.7819 -1.0292
 4861SOL    HW226217   1.177   2.405   6.106 -0.3762 -0.3032 -0.3302
 4862SOL     OW26218   3.327   1.125   8.929  0.1827  0.4881 -0.5322
 4862SOL    HW126219   3.379   1.065   8.982  1.8781  0.0353 -2.7032
 4862SOL    HW226220   3.381   1.204   8.935 -0.4849  1.0079 -1.3426
 4863SOL     OW26221   2.904   0.728   7.393 -0.1268  0.4341  0.3810
 4863SOL    HW126222   2.976   0.716   7.331 -0.5999  0.4427 -0.1707
 4863SOL    HW226223   2.871   0.639   7.406 -2.8652  1.4094  0.1104
 4864SOL     OW26224   4.032   4.046   7.977 -0.0744 -0.4072 -0.4761
 4864SOL    HW126225   3.995   4.007   8.056  0.0816  0.8308  0.2220
 4864SOL    HW226226   4.113   4.084   8.011  0.6294  0.0874 -2.7638
 4865SOL     OW26227   0.633   0.414  15.772 -0.3089  0.2928 -0.6155
 4865SOL    HW126228   0.724   0.393  15.756 -0.6205 -0.7712 -0.9756
 4865SOL    HW226229   0.580   0.365  15.709 -1.6979  1.3156 -0.2543
 4866SOL     OW26230   3.097   2.708  16.603  0.0430  1.1159 -0.3083
 4866SOL    HW126231   3.112   2.771  16.532 -1.2951  0.1245 -1.4751
 4866SOL    HW226232   3.014   2.676  16.566  0.3372 -1.3257  1.1346
 4867SOL     OW26233   1.630   2.831   0.444 -0.2802  0.3331 -0.5356
 4867SOL    HW126234   1.647   2.859   0.354  1.1336 -0.2782 -0.4618
 4867SOL    HW226235   1.723   2.838   0.465 -0.6949 -3.1333  2.4911
 4868SOL     OW26236   1.862   4.080  13.926  0.3167 -0.6549 -0.3614
 4868SOL    HW126237   1.903   4.095  13.840 -1.6116 -1.3979 -1.4210
 4868SOL    HW226238   1.784   4.036  13.894  1.1756 -1.4035 -1.4234
 4869SOL     OW26239   1.205   4.161   6.716  0.5396  0.4855 -0.1076
 4869SOL    HW126240   1.197   4.236   6.775  1.2469 -2.1785  3.3942
 4869SOL    HW226241   1.138   4.187   6.653 -1.7880 -0.2632  2.0581
 4870SOL     OW26242   1.468   0.054   0.724  0.1819 -0.0227 -0.1177
 4870SOL    HW126243   1.479   0.149   0.724  0.7721 -0.0824  1.0873
 4870SOL    HW226244   1.373   0.047   0.737  0.1316  1.2145  0.2080
 4871SOL     OW26245   1.003   1.041  15.475  0.2302 -0.1744 -0.2909
 4871SOL    HW126246   0.941   1.108  15.503 -0.4957 -0.7071 -0.6101
 4871SOL    HW226247   0.984   0.981  15.547  0.6795  0.3477  0.2522
 4872SOL     OW26248   4.213   1.580   6.912  0.6435  0.4982 -0.3065
 4872SOL    HW126249   4.184   1.495   6.880 -0.2666  1.1280 -1.1812
 4872SOL    HW226250   4.304   1.578   6.942  0.0051  1.5047  1.6998
 4873SOL     OW26251   3.924   4.498   6.269  0.0976 -0.2624 -0.2988
 4873SOL    HW126252   3.957   4.408   6.268 -1.1079 -0.6790 -2.0862
 4873SOL    HW226253   3.833   4.478   6.248 -0.0486 -1.2553  1.2629
 4874SOL     OW26254   4.594   1.191   1.576  0.4264 -0.6523  0.0435
 4874SOL    HW126255   4.627   1.265   1.526  0.6397 -2.2654 -2.2051
 4874SOL    HW226256   4.662   1.129   1.550  0.0013 -0.4091 -1.6693
 4875SOL     OW26257   3.007   3.536   3.789 -0.4503  0.0698 -0.4805
 4875SOL    HW126258   2.992   3.506   3.699  2.3821 -0.2167 -0.8471
 4875SOL    HW226259   3.002   3.632   3.787  0.3549  0.1095 -0.6674
 4876SOL     OW26260   3.135   0.751   3.996  0.4402 -0.0877 -0.0975
 4876SOL    HW126261   3.061   0.810   3.981  0.0351 -0.3919  0.7195
 4876SOL    HW226262   3.134   0.738   4.090 -0.5123 -0.3498 -0.1391
 4877SOL     OW26263   4.555   4.612  11.697 -0.7842  0.0793 -0.0717
 4877SOL    HW126264   4.517   4.551  11.634 -0.6716 -0.7711  0.6747
 4877SOL    HW226265   4.622   4.558  11.739  1.4498  1.8701 -1.3317
 4878SOL     OW26266   2.252   1.799   6.290  0.7163  0.1772  0.2667
 4878SOL    HW126267   2.212   1.714   6.272 -3.6844  2.6335 -1.5453
 4878SOL    HW226268   2.172   1.852   6.296  1.2744  0.8259  1.7231
 4879SOL     OW26269   0.307   2.628   5.054  0.0888  0.0532 -0.1143
 4879SOL    HW126270   0.267   2.567   5.116 -1.1393  2.1482  1.1382
 4879SOL    HW226271   0.237   2.635   4.990  0.3016  0.8344 -0.2569
 4880SOL     OW26272   0.437   0.581   9.677  0.1532 -0.8987 -0.5604
 4880SOL    HW126273   0.378   0.553   9.747  1.4330 -1.3494  0.3197
 4880SOL    HW226274   0.517   0.562   9.725 -1.7716 -1.6503  2.3655
 4881SOL     OW26275   3.580   1.365   9.120  0.0591  0.2008 -0.1083
 4881SOL    HW126276   3.632   1.285   9.114 -0.6246 -0.3379  1.2532
 4881SOL    HW226277   3.638   1.426   9.074  0.2994  0.1181  0.0884
 4882SOL     OW26278   1.273   1.676  15.860  0.0113  0.1563 -0.0187
 4882SOL    HW126279   1.285   1.581  15.868 -2.4128 -0.3110 -1.8875
 4882SOL    HW226280   1.247   1.672  15.768 -0.1847  0.0183  0.0414
 4883SOL     OW26281   1.328   1.128  13.803 -0.0519 -0.8932 -0.4680
 4883SOL    HW126282   1.374   1.055  13.762  0.2442 -2.4467  2.6404
 4883SOL    HW226283   1.266   1.078  13.857 -0.7046  1.7829  1.2845
 4884SOL     OW26284   1.020   1.493   6.649 -0.3674  0.2184  0.4005
 4884SOL    HW126285   0.989   1.476   6.560 -3.3518  0.2945  1.4001
 4884SOL    HW226286   1.016   1.404   6.686  0.4253  1.2144  2.8614
 4885SOL     OW26287   4.290   0.504  15.957  0.4750  0.3981  0.1941
 4885SOL    HW126288   4.301   0.469  16.046  1.1307 -0.1648 -0.1109
 4885SOL    HW226289   4.379   0.509  15.924 -0.6170 -0.1814 -2.8137
 4886SOL     OW26290   2.364   3.071   6.408 -0.2248  0.6442  0.0808
 4886SOL    HW126291   2.273   3.073   6.437 -0.5123 -0.5994 -0.7381
 4886SOL    HW226292   2.377   2.979   6.431  1.7250  0.5854 -1.3088
 4887SOL     OW26293   3.413   3.556   8.035  0.0862  0.7086 -0.4804
 4887SOL    HW126294   3.389   3.615   7.964  0.5000  1.6091  0.1390
 4887SOL    HW226295   3.354   3.482   8.018 -1.4325  2.2161 -1.6584
 4888SOL     OW26296   0.346   3.549  14.387  0.3057  0.3017  0.7315
 4888SOL    HW126297   0.276   3.545  14.453 -0.4257 -0.8134 -0.1142
 4888SOL    HW226298   0.404   3.478  14.413 -0.2307  0.2611  1.8372
 4889SOL     OW26299   2.030   1.738   9.287 -0.6214  0.0897  0.1149
 4889SOL    HW126300   2.117   1.750   9.324 -0.4287  1.6925 -0.8377
 4889SOL    HW226301   2.031   1.643   9.273  2.4180  0.1078  0.2623
 4890SOL     OW26302   1.888   4.497  17.428 -0.4806 -0.3062 -0.2336
 4890SOL    HW126303   1.836   4.488  17.508 -0.6914  1.3490 -0.1955
 4890SOL    HW226304   1.903   4.591  17.430  2.4246 -0.7346 -2.0430
 4891SOL     OW26305   4.275   4.574   3.384  0.3480  0.1533  0.3831
 4891SOL    HW126306   4.252   4.622   3.463  1.3932  0.1628  0.6849
 4891SOL    HW226307   4.302   4.648   3.329  1.7329 -0.7557 -0.1518
 4892SOL     OW26308   1.434   2.881   6.029 -0.2593 -0.3762  0.3526
 4892SOL    HW126309   1.457   2.791   6.007  1.4239  0.0560  0.3159
 4892SOL    HW226310   1.517   2.929   6.023 -0.4278 -0.0239  0.8515
 4893SOL     OW26311   1.574   1.693  15.674  0.1963 -0.0032 -0.2079
 4893SOL    HW126312   1.502   1.751  15.698 -0.0390 -0.7043  0.7651
 4893SOL    HW226313   1.547   1.662  15.588 -1.2761 -0.5968  0.4825
 4894SOL     OW26314   4.252   0.760   0.997 -0.4135 -0.1339 -0.4793
 4894SOL    HW126315   4.295   0.692   0.945  0.0354 -0.1929 -0.0378
 4894SOL    HW226316   4.317   0.777   1.066 -1.2571  1.4494 -0.0686
 4895SOL     OW26317   4.695   0.468   4.719  0.1053  0.4316  0.0540
 4895SOL    HW126318   4.635   0.408   4.676  0.2854  1.5530 -1.7393
 4895SOL    HW226319   0.028   0.399   4.732  0.6313  1.3662  2.4958
 4896SOL     OW26320   2.014   0.923   2.024  0.0506  0.7266 -0.7057
 4896SOL    HW126321   1.933   0.876   2.044  0.8351  0.5672  2.1099
 4896SOL    HW226322   2.031   0.863   1.952 -0.5360  0.8728 -0.9639
 4897SOL     OW26323   1.198   3.298   8.839  1.1449  0.1404 -0.0228
 4897SOL    HW126324   1.161   3.356   8.773  0.2964 -1.1714 -0.6929
 4897SOL    HW226325   1.245   3.365   8.889  0.0540  1.1789 -0.3935
 4898SOL     OW26326   1.526   4.093   2.020 -0.7858  0.4577 -0.4151
 4898SOL    HW126327   1.503   4.030   2.088 -0.1739 -0.6343 -1.2191
 4898SOL    HW226328   1.586   4.042   1.965 -0.2739  1.1841 -0.5403
 4899SOL     OW26329   4.222   1.747   9.769 -0.4516 -0.1097 -0.1118
 4899SOL    HW126330   4.133   1.751   9.804 -0.8134  1.2091 -1.1903
 4899SOL    HW226331   4.242   1.653   9.771  0.3799  0.0751  0.0967
 4900SOL     OW26332   0.131   2.253   4.625 -0.2487  0.1456  0.5426
 4900SOL    HW126333   0.173   2.170   4.648 -0.1882  0.0009 -0.0975
 4900SOL    HW226334   0.129   2.289   4.714 -0.8287  1.3568  0.0426
 4901SOL     OW26335   0.820   0.571   6.038  0.1783 -0.1149  0.4898
 4901SOL    HW126336   0.842   0.541   6.126  3.8023 -1.0948 -0.7735
 4901SOL    HW226337   0.791   0.659   6.064 -1.0363 -0.8825  1.7102
 4902SOL     OW26338   3.362   2.597   5.166 -0.0315 -0.0470 -0.1813
 4902SOL    HW126339   3.291   2.533   5.169 -1.0555  0.9556 -2.9309
 4902SOL    HW226340   3.375   2.608   5.071  1.2358  0.5330  0.0622
 4903SOL     OW26341   2.019   0.714   6.890 -1.1034 -0.7450  0.1795
 4903SOL    HW126342   2.087   0.731   6.824 -2.8137  1.0324 -1.1018
 4903SOL    HW226343   1.964   0.791   6.881  0.3859  0.3254  0.2925
 4904SOL     OW26344   2.208   0.683   6.653  0.1611 -0.0087 -0.5522
 4904SOL    HW126345   2.221   0.702   6.560  1.2964 -1.4783 -0.6974
 4904SOL    HW226346   2.290   0.715   6.691  0.0019  0.0323 -0.2429
 4905SOL     OW26347   1.140   1.932   5.165 -0.4055  0.2458 -0.1604
 4905SOL    HW126348   1.099   1.875   5.099  1.9584  0.0879 -1.4884
 4905SOL    HW226349   1.120   2.019   5.132  1.3054  0.2206 -1.2620
 4906SOL     OW26350   0.943   4.190  13.796  0.5919  0.0275 -0.0818
 4906SOL    HW126351   1.014   4.253  13.789  0.4317  0.4596  2.3092
 4906SOL    HW226352   0.878   4.227  13.856  3.7845 -0.6562  3.8020
 4907SOL     OW26353   0.465   1.596   0.567 -0.0398  0.6020  0.4268
 4907SOL    HW126354   0.438   1.536   0.498 -0.8386 -0.5653  1.7638
 4907SOL    HW226355   0.467   1.685   0.532 -1.2232  0.2110 -0.5947
 4908SOL     OW26356   2.846   3.617   7.621 -0.1754 -0.6780  0.2255
 4908SOL    HW126357   2.751   3.621   7.608 -0.0905 -1.9011 -0.8738
 4908SOL    HW226358   2.851   3.593   7.713  1.2391  1.0370  0.5797
 4909SOL     OW26359   2.384   3.359   8.932 -0.4485 -0.2989 -0.3408
 4909SOL    HW126360   2.479   3.362   8.947 -0.6905  0.2838  1.0640
 4909SOL    HW226361   2.361   3.452   8.935 -0.3018 -0.2492 -0.7798
 4910SOL     OW26362   2.374   1.310   6.470 -0.2222  0.1273 -0.0568
 4910SOL    HW126363   2.344   1.237   6.416  0.2635 -1.8062  2.2831
 4910SOL    HW226364   2.451   1.328   6.416  0.4298 -1.2424  0.4162
 4911SOL     OW26365   2.037   2.984   2.982  0.5880 -0.1397  0.0872
 4911SOL    HW126366   2.012   2.922   3.051 -0.2425  1.4917  1.2277
 4911SOL    HW226367   2.026   3.067   3.028 -2.7256  0.6680 -2.1546
 4912SOL     OW26368   3.202   1.385   5.552 -0.5667  0.0323 -0.2984
 4912SOL    HW126369   3.211   1.291   5.534 -2.9939 -0.3089  0.2734
 4912SOL    HW226370   3.108   1.388   5.567 -0.2965 -1.5236  1.6961
 4913SOL     OW26371   0.224   1.812  14.139 -0.2440 -0.2738 -0.1363
 4913SOL    HW126372   0.244   1.733  14.089 -1.3896 -1.7445  1.7366
 4913SOL    HW226373   0.228   1.880  14.071 -0.4048 -0.3459 -0.2182
 4914SOL     OW26374   1.231   1.062   6.731  0.0129  0.3675 -0.0590
 4914SOL    HW126375   1.246   1.076   6.825 -2.7666  0.7547  0.3087
 4914SOL    HW226376   1.136   1.054   6.739 -0.1227  0.5103 -1.5499
 4915SOL     OW26377   3.013   1.221  10.306  0.0813  0.1476  0.5958
 4915SOL    HW126378   3.069   1.164  10.359  0.1673  0.7912  1.1928
 4915SOL    HW226379   3.072   1.296  10.297  2.6371 -2.0885 -1.2681
 4916SOL     OW26380   1.298   1.966   1.526  0.3272 -0.4841  0.4419
 4916SOL    HW126381   1.289   1.974   1.431 -0.8284 -1.9403  0.4397
 4916SOL    HW226382   1.344   2.049   1.540  3.7865 -2.6975  1.9721
 4917SOL     OW26383   0.020   1.857  17.472  0.4618  0.0479  0.3207
 4917SOL    HW126384   4.663   1.837  17.501  0.2451 -2.9574 -2.3447
 4917SOL    HW226385   0.058   1.892  17.553 -0.7942  2.6049 -0.1951
 4918SOL     OW26386   3.794   1.299  11.236 -0.2991  1.1443 -0.0717
 4918SOL    HW126387   3.721   1.259  11.189  0.0992 -0.5771  0.8053
 4918SOL    HW226388   3.798   1.385  11.193  1.2745 -0.3099 -2.7864
 4919SOL     OW26389   0.871   2.853   8.724 -0.2386 -0.5086  0.0936
 4919SOL    HW126390   0.879   2.919   8.793  0.1961 -1.8105  1.2809
 4919SOL    HW226391   0.959   2.816   8.719 -0.6791 -1.5248 -0.1085
 4920SOL     OW26392   1.447   3.597   0.082 -0.2161  0.0946 -0.1060
 4920SOL    HW126393   1.400   3.544   0.146  0.7720  0.2401  0.7494
 4920SOL    HW226394   1.442   3.688   0.111 -0.9023  0.4697 -1.3938
 4921SOL     OW26395   0.249   3.957   1.739  0.3229  0.0204 -0.0084
 4921SOL    HW126396   0.319   3.919   1.792  1.3044 -0.7068 -1.8668
 4921SOL    HW226397   0.213   3.876   1.705  0.0823  0.5832 -1.0800
 4922SOL     OW26398   2.525   0.362   9.321  0.5273  0.4279  0.5026
 4922SOL    HW126399   2.609   0.352   9.276  0.2151 -1.4573  0.3749
 4922SOL    HW226400   2.510   0.269   9.333 -0.1147  0.3604 -0.7994
 4923SOL     OW26401   1.661   1.630  11.467  0.1829  0.1275  0.5505
 4923SOL    HW126402   1.645   1.724  11.475 -3.9452 -0.6727  1.3620
 4923SOL    HW226403   1.752   1.615  11.441 -0.2086 -3.3437  1.2534
 4924SOL     OW26404   0.221   4.713   1.437  0.9462  0.4166 -0.6527
 4924SOL    HW126405   0.187   4.668   1.360 -2.4392 -0.2690  1.2484
 4924SOL    HW226406   0.150   4.696   1.499  0.0485 -1.4985 -2.1958
 4925SOL     OW26407   3.862   4.141   8.658  0.6321  0.5756 -0.3560
 4925SOL    HW126408   3.825   4.090   8.586  3.3034 -2.4961  0.4148
 4925SOL    HW226409   3.917   4.080   8.707  0.0223  0.5903  0.3449
 4926SOL     OW26410   0.208   0.533   8.205  0.1600 -0.1913 -0.6381
 4926SOL    HW126411   0.173   0.445   8.216  0.8753 -0.6110 -1.7381
 4926SOL    HW226412   0.130   0.589   8.197 -0.1599 -0.5693 -0.1035
 4927SOL     OW26413   0.023   1.678   6.978 -0.7261  0.0939  0.1704
 4927SOL    HW126414   0.003   1.585   6.964 -0.3232  0.3477 -2.0451
 4927SOL    HW226415   0.034   1.680   7.074 -0.5937 -2.0562  0.2115
 4928SOL     OW26416   0.774   1.108  11.331  0.1912 -0.2771  0.1728
 4928SOL    HW126417   0.696   1.161  11.351 -0.9836 -1.7703 -0.4076
 4928SOL    HW226418   0.772   1.109  11.235 -0.9671 -2.6570  0.1792
 4929SOL     OW26419   2.764   2.169   6.211  0.2298  0.1031 -0.0763
 4929SOL    HW126420   2.736   2.160   6.303  1.6809  3.1089  0.6645
 4929SOL    HW226421   2.814   2.250   6.216 -0.7284  0.5460  2.3788
 4930SOL     OW26422   0.464   1.644   3.275  0.0932 -0.2418  0.1035
 4930SOL    HW126423   0.421   1.678   3.354 -2.3508 -1.2058 -0.7951
 4930SOL    HW226424   0.456   1.549   3.279  0.1042 -0.3346 -2.2051
 4931SOL     OW26425   3.303   4.136  10.716  0.0770 -0.5631 -0.2855
 4931SOL    HW126426   3.295   4.217  10.767  0.1345 -0.2938 -0.7025
 4931SOL    HW226427   3.223   4.092  10.743  1.5002 -1.3045  2.7013
 4932SOL     OW26428   3.753   1.493   8.933 -0.3526 -0.4593 -0.2798
 4932SOL    HW126429   3.712   1.574   8.963 -1.2010 -1.0478  0.1412
 4932SOL    HW226430   3.844   1.498   8.964 -1.2455  0.0620  2.2118
 4933SOL     OW26431   1.830   3.701  14.172 -0.5197  0.4809  0.5566
 4933SOL    HW126432   1.841   3.785  14.215  0.4926  1.7663 -2.2005
 4933SOL    HW226433   1.759   3.734  14.118 -0.6918 -0.7764 -0.0042
 4934SOL     OW26434   3.545   2.636   4.923  0.4580  0.0003 -0.2785
 4934SOL    HW126435   3.487   2.573   4.881 -0.4787  1.2588 -0.8797
 4934SOL    HW226436   3.526   2.711   4.866  1.1691 -0.5706 -1.2754
 4935SOL     OW26437   1.946   2.420  15.658  0.2745  0.0517  0.2089
 4935SOL    HW126438   2.006   2.434  15.732  0.0937 -0.7813  0.5094
 4935SOL    HW226439   1.868   2.473  15.677  1.8816  1.7865  2.0263
 4936SOL     OW26440   0.801   0.402   8.709  0.1461 -0.3135  0.1464
 4936SOL    HW126441   0.814   0.309   8.731 -0.5682 -0.5027 -0.2407
 4936SOL    HW226442   0.866   0.440   8.768  0.4849 -0.7672  0.0717
 4937SOL     OW26443   1.504   4.725   6.754  0.3688 -0.2301  0.3483
 4937SOL    HW126444   1.592   4.690   6.773  0.4957 -0.1844 -0.1570
 4937SOL    HW226445   1.486   4.659   6.688 -0.7671 -0.7163  1.1464
 4938SOL     OW26446   4.248   2.120   5.611  0.0907  0.2114  0.3609
 4938SOL    HW126447   4.307   2.084   5.677 -0.9540  0.9464  1.6989
 4938SOL    HW226448   4.182   2.051   5.607  1.2894 -0.8961 -0.3837
 4939SOL     OW26449   4.084   4.499   6.710  0.1933  0.3076  0.4257
 4939SOL    HW126450   4.153   4.564   6.723  0.8335 -0.1568 -0.6339
 4939SOL    HW226451   4.095   4.449   6.791  4.0977 -1.4281 -1.1834
 4940SOL     OW26452   0.497   0.310   8.623  0.1342  0.0214  0.0328
 4940SOL    HW126453   0.454   0.395   8.614  0.5498  0.0814 -1.3310
 4940SOL    HW226454   0.578   0.334   8.578  0.4165 -3.1320 -1.0905
 4941SOL     OW26455   2.258   4.447   7.246  0.0744  0.0821  0.2639
 4941SOL    HW126456   2.279   4.392   7.321  1.0860  0.2521  0.1170
 4941SOL    HW226457   2.341   4.484   7.215  0.0454  0.8428  1.1092
 4942SOL     OW26458   3.641   2.671   2.850 -0.2973 -0.2785 -0.4120
 4942SOL    HW126459   3.597   2.732   2.790 -1.8661 -1.4912 -0.4949
 4942SOL    HW226460   3.728   2.679   2.810  0.9570  0.4087  2.5036
 4943SOL     OW26461   3.324   3.335   5.083  0.6552 -0.1603  0.2206
 4943SOL    HW126462   3.316   3.323   5.177  4.9462  0.8013  0.7105
 4943SOL    HW226463   3.230   3.349   5.070  0.7418  1.0192  0.8525
 4944SOL     OW26464   2.720   4.553   5.509 -0.3860  0.1858  0.6220
 4944SOL    HW126465   2.798   4.499   5.525 -2.4813 -3.0647 -0.3098
 4944SOL    HW226466   2.706   4.587   5.597 -0.3002 -0.4686  0.8918
 4945SOL     OW26467   4.096   3.859   5.491  0.0239 -0.6175  0.5910
 4945SOL    HW126468   4.053   3.801   5.428 -0.3621  1.3992 -1.0008
 4945SOL    HW226469   4.027   3.870   5.556 -2.0842 -1.8385 -1.4265
 4946SOL     OW26470   3.069   2.063  14.313 -0.3382 -0.5378  0.4030
 4946SOL    HW126471   3.144   2.038  14.367 -0.2366 -0.4495  0.3005
 4946SOL    HW226472   3.001   2.021  14.367 -1.9000 -1.5238 -2.3082
 4947SOL     OW26473   1.252   1.649   6.601 -0.5484  0.2217 -0.0454
 4947SOL    HW126474   1.268   1.628   6.509 -1.6646 -0.0709 -0.1772
 4947SOL    HW226475   1.164   1.613   6.614 -1.2933  2.2531  0.4869
 4948SOL     OW26476   4.287   1.807  14.581  0.4284  1.0016 -0.4692
 4948SOL    HW126477   4.379   1.829  14.588  0.8663 -1.0930  0.3830
 4948SOL    HW226478   4.267   1.791  14.673 -1.4951  0.2910 -1.0026
 4949SOL     OW26479   3.094   0.561   6.155 -0.3012  0.5096  0.3430
 4949SOL    HW126480   3.115   0.611   6.076 -0.7177  1.3850  0.7849
 4949SOL    HW226481   3.177   0.567   6.203  0.6439  1.4965 -1.4028
 4950SOL     OW26482   2.906   0.932   9.410 -0.0830  0.1381  0.3971
 4950SOL    HW126483   2.922   0.999   9.343 -3.1932  1.2767  0.8122
 4950SOL    HW226484   2.950   0.860   9.366 -1.3503 -0.1784 -0.3341
 4951SOL     OW26485   2.967   0.142   8.746  0.4919 -0.4136  0.1224
 4951SOL    HW126486   2.933   0.229   8.723  0.2162  0.3476  3.4564
 4951SOL    HW226487   3.059   0.162   8.763  0.5857  0.7932 -1.6971
 4952SOL     OW26488   2.530   0.059   2.684 -0.1334  0.9840  0.7856
 4952SOL    HW126489   2.539   0.002   2.761  1.6746 -0.4064 -0.4615
 4952SOL    HW226490   2.452   0.037   2.634 -0.2872  0.5993  1.1918
 4953SOL     OW26491   4.153   2.301   9.873  0.4792 -0.3336  0.0472
 4953SOL    HW126492   4.091   2.302   9.800  0.1136  0.0700  0.3590
 4953SOL    HW226493   4.125   2.225   9.924 -2.5176 -1.2310 -2.8673
 4954SOL     OW26494   2.549   4.158   6.286  0.2404 -0.7073 -0.3643
 4954SOL    HW126495   2.487   4.134   6.354  1.1838  2.8433  1.7575
 4954SOL    HW226496   2.487   4.201   6.228 -0.2161  1.7503  1.9525
 4955SOL     OW26497   0.396   0.215   7.552  0.1706  0.2300  0.4439
 4955SOL    HW126498   0.364   0.198   7.463 -2.3087  0.5854  1.2514
 4955SOL    HW226499   0.332   0.167   7.605  0.6504  0.5658  1.3303
 4956SOL     OW26500   0.631   4.645   8.586  0.7832 -0.4483  0.4009
 4956SOL    HW126501   0.632   4.621   8.679  0.6310 -1.5194  0.1283
 4956SOL    HW226502   0.645   4.560   8.544  0.3513  0.0264 -0.7093
 4957SOL     OW26503   3.355   4.042  15.794  0.5456 -0.8122 -0.6201
 4957SOL    HW126504   3.273   4.083  15.766  1.8747  1.4326 -1.2115
 4957SOL    HW226505   3.412   4.113  15.823  0.1916 -1.1061  0.7923
 4958SOL     OW26506   3.777   0.991   4.777 -0.5500 -0.2464 -0.1087
 4958SOL    HW126507   3.718   0.930   4.821 -0.6390 -1.7969 -2.3913
 4958SOL    HW226508   3.757   1.074   4.821 -2.2282 -0.5976 -0.2072
 4959SOL     OW26509   3.418   2.460  10.115  0.1100 -0.2559 -0.5266
 4959SOL    HW126510   3.375   2.445  10.199  1.7298 -0.5920  0.2350
 4959SOL    HW226511   3.413   2.556  10.108 -2.6908 -0.2817  1.2243
 4960SOL     OW26512   2.979   3.391   5.622  0.2158 -0.0392 -1.0303
 4960SOL    HW126513   3.073   3.406   5.607  0.6027 -0.2822  1.1693
 4960SOL    HW226514   2.980   3.373   5.715  1.7137 -0.1535 -1.0627
 4961SOL     OW26515   0.132   0.296   2.519  0.0589  0.4222 -0.4432
 4961SOL    HW126516   0.091   0.223   2.566 -1.1446  2.1487  1.2038
 4961SOL    HW226517   0.223   0.268   2.516 -0.5562 -1.5911 -0.3809
 4962SOL     OW26518   1.750   0.296   9.622  0.1322 -0.0515 -0.3141
 4962SOL    HW126519   1.684   0.284   9.690  0.9423  1.2459  0.7083
 4962SOL    HW226520   1.776   0.387   9.637 -1.0485  0.3763 -0.8625
 4963SOL     OW26521   2.763   3.189   4.724  0.1783 -0.2897 -0.2351
 4963SOL    HW126522   2.749   3.105   4.767  0.3537 -0.1874  0.0223
 4963SOL    HW226523   2.780   3.154   4.636 -0.8991  0.0993 -0.5905
 4964SOL     OW26524   2.376   4.256   1.595 -0.0409  0.1055 -0.4483
 4964SOL    HW126525   2.287   4.222   1.596  0.2806 -0.6470  2.0544
 4964SOL    HW226526   2.368   4.327   1.532  0.5121  1.8155  1.4375
 4965SOL     OW26527   0.129   2.546   0.379 -0.2568 -0.7934 -0.0707
 4965SOL    HW126528   0.158   2.552   0.470 -0.9659  0.7845  0.0456
 4965SOL    HW226529   0.035   2.525   0.380 -0.8779  1.9525 -0.7865
 4966SOL     OW26530   1.880   3.232  16.892  0.2373  0.4337  0.0238
 4966SOL    HW126531   1.922   3.146  16.889  0.6487  0.6275  0.3259
 4966SOL    HW226532   1.936   3.284  16.949 -0.6973  0.5327  0.8368
 4967SOL     OW26533   2.719   3.068   4.480  0.6835 -0.0050  0.3399
 4967SOL    HW126534   2.734   2.999   4.544 -1.4590 -1.3914 -0.6350
 4967SOL    HW226535   2.629   3.050   4.451  1.4295 -2.7406 -0.3313
 4968SOL     OW26536   2.096   4.692   4.875  0.3846  0.5697 -0.3194
 4968SOL    HW126537   2.144   0.043   4.871  0.9064  0.1916 -1.9137
 4968SOL    HW226538   2.116   4.676   4.967 -0.6901 -1.5408 -0.4653
 4969SOL     OW26539   3.963   1.509   0.434  0.1520  0.7276 -0.3809
 4969SOL    HW126540   3.967   1.448   0.360 -1.2790 -1.4681  1.3259
 4969SOL    HW226541   4.035   1.482   0.492  0.3782 -1.2244 -1.5616
 4970SOL     OW26542   3.250   3.063   2.282 -0.3984 -0.4278 -0.2470
 4970SOL    HW126543   3.176   3.108   2.323 -0.6071  0.7464 -1.9462
 4970SOL    HW226544   3.208   2.978   2.269 -0.6384 -0.0830 -1.7001
 4971SOL     OW26545   4.075   3.613  15.334  0.0655  0.2202  0.0826
 4971SOL    HW126546   4.132   3.541  15.306  1.6748  1.5162  0.0318
 4971SOL    HW226547   4.014   3.562  15.387  0.7774  0.2590  0.9499
 4972SOL     OW26548   0.674   1.749   1.346  0.3345 -0.8603 -0.6836
 4972SOL    HW126549   0.673   1.746   1.442 -1.2035 -1.8216 -0.7279
 4972SOL    HW226550   0.710   1.666   1.315 -1.7670 -1.0325 -2.6773
 4973SOL     OW26551   4.622   3.820   6.485 -0.1097  0.2594  0.3676
 4973SOL    HW126552   4.671   3.902   6.489  0.3638  0.0197 -0.7306
 4973SOL    HW226553   4.700   3.764   6.483 -0.0293  0.3883  0.0113
 4974SOL     OW26554   4.061   0.950   7.232  0.2297  0.1394 -0.7043
 4974SOL    HW126555   4.109   0.899   7.167  2.3954  0.6125  0.5078
 4974SOL    HW226556   4.118   1.025   7.251  1.1286 -0.5606 -0.6313
 4975SOL     OW26557   3.147   3.352  11.103  0.4675 -0.2035  0.1488
 4975SOL    HW126558   3.168   3.421  11.166 -1.1343 -0.1439  0.6191
 4975SOL    HW226559   3.114   3.282  11.160  2.1844  0.2898  1.7368
 4976SOL     OW26560   3.482   4.671  13.070 -0.2451 -0.2128 -0.5134
 4976SOL    HW126561   3.505   0.031  13.081 -3.7199  0.1934  3.1411
 4976SOL    HW226562   3.390   4.688  13.050  0.0984  2.4125  0.2119
 4977SOL     OW26563   4.437   1.707  17.576 -0.3665 -0.0158  0.1375
 4977SOL    HW126564   4.476   1.638  17.522 -0.5015 -0.3090  0.4179
 4977SOL    HW226565   4.476   1.678  17.658 -1.2374 -0.7266  0.2987
 4978SOL     OW26566   3.222   1.331   5.915 -0.7832 -0.1995  0.1084
 4978SOL    HW126567   3.165   1.256   5.933  0.3649 -1.4690 -1.5482
 4978SOL    HW226568   3.159   1.395   5.881  1.3161  2.9187  2.1482
 4979SOL     OW26569   2.213   3.481   6.466 -0.0704 -0.1516 -0.2242
 4979SOL    HW126570   2.277   3.438   6.523  0.1611  0.2592 -0.1697
 4979SOL    HW226571   2.134   3.459   6.515  1.4295 -0.0196  2.2693
 4980SOL     OW26572   1.516   3.625  13.925  0.6916  0.0022  0.8298
 4980SOL    HW126573   1.472   3.649  13.844  0.5432 -1.4807  0.4757
 4980SOL    HW226574   1.479   3.688  13.987 -1.6493 -1.8558  1.2951
 4981SOL     OW26575   3.982   3.516  11.311 -0.0327  0.5289  0.4154
 4981SOL    HW126576   4.038   3.594  11.306  0.1823  0.3860  0.5820
 4981SOL    HW226577   3.922   3.547  11.379  1.0654  1.4184  0.9907
 4982SOL     OW26578   0.607   2.981  12.359  0.3835  0.1923 -0.0611
 4982SOL    HW126579   0.668   2.993  12.286  1.3727  0.9768  0.9070
 4982SOL    HW226580   0.660   2.933  12.422 -1.0429  0.2507  1.1695
 4983SOL     OW26581   1.499   2.237   7.095  0.2390  0.0023 -0.3904
 4983SOL    HW126582   1.589   2.244   7.064  0.5020  0.5011  0.4629
 4983SOL    HW226583   1.462   2.188   7.022 -1.1150 -0.7721  0.8096
 4984SOL     OW26584   0.419   2.010   3.505 -0.3142  0.0617  0.0877
 4984SOL    HW126585   0.341   1.958   3.525 -1.8366  1.7286 -1.5847
 4984SOL    HW226586   0.377   2.096   3.499  0.6543  0.7679  3.0051
 4985SOL     OW26587   2.110   3.338   9.102 -0.5364  0.0930  0.1003
 4985SOL    HW126588   2.137   3.286   9.177  0.1851  1.5464  0.8623
 4985SOL    HW226589   2.184   3.359   9.046 -1.8221  2.0164 -0.8918
 4986SOL     OW26590   2.351   0.521   2.125  0.3799 -0.3986  0.3980
 4986SOL    HW126591   2.293   0.595   2.143  0.3669 -0.7823  1.9515
 4986SOL    HW226592   2.431   0.559   2.163  2.8553 -1.8111 -3.4444
 4987SOL     OW26593   3.310   3.348   8.998  0.0362  0.7776  0.2111
 4987SOL    HW126594   3.219   3.354   8.969  0.4470  0.3080 -1.1855
 4987SOL    HW226595   3.326   3.437   9.031 -0.9520  0.6801  0.9598
 4988SOL     OW26596   0.145   4.523   4.707 -0.0015  0.0704 -0.3931
 4988SOL    HW126597   0.070   4.526   4.766  0.8913  3.7114  0.5274
 4988SOL    HW226598   0.108   4.521   4.618 -1.3720 -3.1593  0.2398
 4989SOL     OW26599   2.007   3.349   7.426  0.8599 -0.6775 -0.2444
 4989SOL    HW126600   1.973   3.260   7.411  0.1486 -0.4207 -0.1811
 4989SOL    HW226601   2.073   3.352   7.357  1.8326  1.0762  0.7719
 4990SOL     OW26602   0.297   3.527   4.424  0.2420 -0.4065 -0.2219
 4990SOL    HW126603   0.230   3.530   4.492  0.3227  0.8989 -0.2070
 4990SOL    HW226604   0.286   3.613   4.383  0.8173 -1.3629 -2.4189
 4991SOL     OW26605   1.438   2.834   2.972  0.0864 -0.5445  0.1331
 4991SOL    HW126606   1.359   2.811   2.923  1.3321  1.5851 -2.8547
 4991SOL    HW226607   1.399   2.862   3.055 -0.2262 -1.7967  0.4258
 4992SOL     OW26608   4.571   4.083   4.786 -0.2068 -0.1016 -0.2613
 4992SOL    HW126609   4.504   4.016   4.774 -0.4240 -0.0955  0.8929
 4992SOL    HW226610   4.640   4.029   4.823  0.0582 -0.2572 -0.9902
 4993SOL     OW26611   3.015   2.365   6.002  0.1759  0.1445 -0.7019
 4993SOL    HW126612   2.992   2.412   6.082  0.1926 -1.2616  0.1301
 4993SOL    HW226613   3.094   2.321   6.033 -1.8196 -4.6297 -2.2514
 4994SOL     OW26614   3.990   0.477   5.395  0.5274  0.2681 -1.0271
 4994SOL    HW126615   4.078   0.477   5.359  0.4315  0.4762 -1.2555
 4994SOL    HW226616   3.980   0.382   5.384 -0.5059  0.4902 -2.0099
 4995SOL     OW26617   3.924   2.970   2.757 -0.2195 -0.3668 -0.0429
 4995SOL    HW126618   3.920   3.019   2.675  1.1749  0.2713  0.2781
 4995SOL    HW226619   3.929   2.879   2.728 -2.5553 -0.3594 -0.4624
 4996SOL     OW26620   0.705   4.249  16.309  0.0640  0.1894  0.3805
 4996SOL    HW126621   0.712   4.228  16.402  2.3068 -2.2137 -0.3333
 4996SOL    HW226622   0.610   4.244  16.312 -0.1316  2.4516 -2.0579
 4997SOL     OW26623   4.308   3.512   4.617 -0.7988 -0.1073  0.3919
 4997SOL    HW126624   4.372   3.441   4.610  0.0415  0.6766 -0.0582
 4997SOL    HW226625   4.251   3.482   4.687 -2.3319  2.4528  0.2550
 4998SOL     OW26626   2.595   2.043   2.493 -0.0765  0.0986  0.0966
 4998SOL    HW126627   2.508   2.021   2.458  0.3190 -0.5901 -0.4415
 4998SOL    HW226628   2.569   2.123   2.539 -0.5549  0.4413 -0.7606
 4999SOL     OW26629   2.059   3.205   3.358 -0.1503  0.3535 -0.5270
 4999SOL    HW126630   2.010   3.168   3.283  0.5877 -0.9853 -0.3521
 4999SOL    HW226631   2.142   3.218   3.313  0.6411 -0.5810  0.6572
 5000SOL     OW26632   2.573   0.904  11.456 -0.4351  0.3562  0.0824
 5000SOL    HW126633   2.500   0.885  11.397 -2.5834  0.7081  2.5651
 5000SOL    HW226634   2.612   0.817  11.460  2.8561  1.8305 -0.0362
 5001SOL     OW26635   0.831   0.480   5.481 -0.2702 -0.0107 -0.2484
 5001SOL    HW126636   0.776   0.526   5.418 -1.3991  0.9863  1.4660
 5001SOL    HW226637   0.918   0.492   5.443 -0.5756 -1.0424 -1.2620
 5002SOL     OW26638   0.244   0.036   4.827 -0.5236 -0.1818 -0.1600
 5002SOL    HW126639   0.335   0.007   4.821  0.0749  2.1626 -2.2286
 5002SOL    HW226640   0.194   4.695   4.790 -0.1256  0.0539 -1.1679
 5003SOL     OW26641   0.325   3.505   8.937 -0.3219  0.4658  0.1429
 5003SOL    HW126642   0.396   3.563   8.966 -0.6808 -0.5743  3.0674
 5003SOL    HW226643   0.347   3.424   8.983 -0.2036 -0.6889 -1.9412
 5004SOL     OW26644   4.238   1.169   7.607  0.7217  0.1071 -0.0608
 5004SOL    HW126645   4.325   1.130   7.597  1.1796  0.8987  0.7764
 5004SOL    HW226646   4.247   1.211   7.692  0.7500  1.4531 -0.7220
 5005SOL     OW26647   0.547   4.243  12.871 -0.6117  0.0569  0.1292
 5005SOL    HW126648   0.464   4.224  12.828 -0.3434 -0.5320 -0.1312
 5005SOL    HW226649   0.567   4.167  12.926 -0.6220 -0.4969 -0.6324
 5006SOL     OW26650   3.518   1.085   3.300  0.0125  0.0362  0.0464
 5006SOL    HW126651   3.466   1.156   3.261 -1.9113 -0.3205  1.9832
 5006SOL    HW226652   3.608   1.116   3.292  0.4643 -1.0614  1.0165
 5007SOL     OW26653   2.909   3.210  10.978 -0.4252 -0.4926  0.1135
 5007SOL    HW126654   2.995   3.235  11.010 -0.5210  1.2840 -1.0214
 5007SOL    HW226655   2.871   3.295  11.002  3.1248  0.8112  1.1160
 5008SOL     OW26656   0.086   1.494   7.951  0.2233 -0.1589  0.4718
 5008SOL    HW126657   0.130   1.549   8.016  1.2855  0.7414 -1.0233
 5008SOL    HW226658   4.724   1.509   7.963 -0.2102 -0.5750 -2.6005
 5009SOL     OW26659   2.755   0.039  10.121  0.1455  0.0147  0.2631
 5009SOL    HW126660   2.757   4.687  10.076 -1.7272 -0.3891  0.9652
 5009SOL    HW226661   2.843   0.068  10.095  0.9681 -2.6719  0.0868
 5010SOL     OW26662   2.361   3.702   8.317  0.0009  0.4919 -0.0597
 5010SOL    HW126663   2.305   3.676   8.390 -0.5310  0.6621 -0.4051
 5010SOL    HW226664   2.407   3.776   8.354  0.1616 -0.1089  0.9435
 5011SOL     OW26665   4.654   1.407  17.166  0.0007 -0.7807  0.2788
 5011SOL    HW126666   4.720   1.371  17.107  2.1055  0.2075  2.0257
 5011SOL    HW226667   4.672   1.348  17.239 -0.8018 -1.7267 -0.2961
 5012SOL     OW26668   2.003   2.328   8.562 -0.2650 -0.1011 -0.6312
 5012SOL    HW126669   1.908   2.338   8.573 -0.2595 -0.2676 -0.4502
 5012SOL    HW226670   2.032   2.419   8.571  0.2663 -0.2375 -0.9552
 5013SOL     OW26671   4.168   1.597  10.073  0.2177 -0.2623  0.1585
 5013SOL    HW126672   4.140   1.535  10.141  0.0856  0.1566  0.4835
 5013SOL    HW226673   4.178   1.678  10.124 -1.8470 -0.4611  0.8867
 5014SOL     OW26674   2.533   3.944   8.348 -0.0008  0.9847 -0.1046
 5014SOL    HW126675   2.530   3.989   8.433 -0.2191 -0.0136  0.4092
 5014SOL    HW226676   2.612   3.889   8.347 -0.7142 -0.0585  1.4927
 5015SOL     OW26677   0.775   3.613   5.594  0.2236 -0.2096 -0.4741
 5015SOL    HW126678   0.802   3.581   5.508 -1.1255  0.0054 -0.9826
 5015SOL    HW226679   0.696   3.665   5.581 -0.9223 -1.7986  0.1376
 5016SOL     OW26680   3.270   0.118   2.893 -0.4834  0.3164 -0.1431
 5016SOL    HW126681   3.328   0.124   2.817 -1.9627  0.4107 -1.2619
 5016SOL    HW226682   3.264   0.213   2.906 -0.3704  0.2608  0.2864
 5017SOL     OW26683   0.295   1.793  17.673 -0.4722  0.3686 -0.0060
 5017SOL    HW126684   0.346   1.837  17.605  0.1855 -0.4718 -0.0568
 5017SOL    HW226685   0.256   1.873  17.709  0.0521  0.0379  1.2847
 5018SOL     OW26686   4.285   1.524   9.272 -0.4755  0.3473  0.3486
 5018SOL    HW126687   4.329   1.546   9.190 -0.0336  0.3242  0.5807
 5018SOL    HW226688   4.358   1.542   9.331 -2.0389 -1.3588  2.8204
 5019SOL     OW26689   0.696   2.882  15.003 -0.1288  0.1908  0.2929
 5019SOL    HW126690   0.601   2.892  15.006 -0.2237 -0.2705 -1.3406
 5019SOL    HW226691   0.712   2.858  15.094  2.8906  1.3734  0.0860
 5020SOL     OW26692   4.618   4.438  14.990  0.5981 -0.1087  0.3017
 5020SOL    HW126693   4.626   4.510  14.928 -3.9661  0.1000  0.0055
 5020SOL    HW226694   4.525   4.415  14.987  0.2734  1.4614 -1.5073
 5021SOL     OW26695   2.641   0.467   8.638 -0.2434  0.3628  0.2242
 5021SOL    HW126696   2.590   0.401   8.685 -2.9547  1.5152 -1.0871
 5021SOL    HW226697   2.571   0.532   8.625  0.3527  1.2705  1.4775
 5022SOL     OW26698   0.254   3.052   6.549  0.1036 -0.2902 -0.1135
 5022SOL    HW126699   0.219   3.074   6.463 -0.8221  0.9351  0.5829
 5022SOL    HW226700   0.348   3.038   6.541  0.1501 -1.5546  2.4080
 5023SOL     OW26701   2.210   4.235   1.865 -0.5349 -0.5989 -0.3651
 5023SOL    HW126702   2.150   4.231   1.791  0.9046  0.0750 -1.5696
 5023SOL    HW226703   2.136   4.210   1.921 -3.3981  2.5312 -2.7767
 5024SOL     OW26704   4.180   1.221   2.617  0.7533  0.4229  0.8511
 5024SOL    HW126705   4.258   1.174   2.647  0.9872  2.1342  2.9050
 5024SOL    HW226706   4.195   1.264   2.533  1.0263  1.3609  1.3846
 5025SOL     OW26707   4.640   3.159   5.359 -0.2732  0.0854 -0.2437
 5025SOL    HW126708   4.730   3.189   5.367 -0.9759  2.0246  0.5734
 5025SOL    HW226709   4.638   3.108   5.440  0.2255 -0.9362 -0.8883
 5026SOL     OW26710   4.021   1.831  13.894  0.0126 -0.0882  0.0716
 5026SOL    HW126711   4.059   1.748  13.864 -1.1369 -0.6425  0.1509
 5026SOL    HW226712   4.077   1.842  13.971 -3.2166  0.0578  2.4158
 5027SOL     OW26713   4.369   4.069  13.601  0.5057  0.6268 -0.7413
 5027SOL    HW126714   4.404   4.007  13.537 -1.3754 -1.1912  0.0221
 5027SOL    HW226715   4.345   4.017  13.678 -2.9012  2.4776 -0.5530
 5028SOL     OW26716   2.897   0.739   2.685  0.0865  0.5706  0.0191
 5028SOL    HW126717   2.836   0.810   2.665 -0.6862 -0.8158 -2.5073
 5028SOL    HW226718   2.967   0.771   2.628 -1.1965 -1.3652 -2.6286
 5029SOL     OW26719   1.476   2.918   3.395  0.2592  0.2895  0.1097
 5029SOL    HW126720   1.484   2.971   3.316  0.0200 -0.1594 -0.2201
 5029SOL    HW226721   1.548   2.960   3.441  3.4550 -2.2675 -2.6169
 5030SOL     OW26722   3.608   3.364  12.029  0.2199  0.2998  0.1272
 5030SOL    HW126723   3.540   3.353  12.096 -0.0392  0.2748 -0.1422
 5030SOL    HW226724   3.689   3.340  12.073 -0.0074 -0.7603 -0.0282
 5031SOL     OW26725   0.378   0.285   3.033  0.1356  0.3439 -0.1167
 5031SOL    HW126726   0.393   0.195   3.061 -0.0089  1.2396  2.8045
 5031SOL    HW226727   0.452   0.326   3.076 -1.7170  0.6224  2.7945
 5032SOL     OW26728   1.332   1.299   9.029  0.4978  0.0270 -0.1227
 5032SOL    HW126729   1.292   1.382   9.004  0.0922 -0.1545 -0.0762
 5032SOL    HW226730   1.416   1.299   8.984  1.6398 -0.6888  1.9788
 5033SOL     OW26731   3.597   1.685   6.507 -0.3443 -0.3376 -0.1141
 5033SOL    HW126732   3.626   1.761   6.559 -0.0260 -0.6198  0.1225
 5033SOL    HW226733   3.656   1.615   6.535  2.4060  1.3699 -1.5950
 5034SOL     OW26734   0.544   2.906   4.075  0.0521  0.2100  0.0024
 5034SOL    HW126735   0.513   2.948   4.155  0.4480 -1.5393  1.0725
 5034SOL    HW226736   0.630   2.872   4.098  0.3335  0.4802 -0.6665
 5035SOL     OW26737   0.224   2.949   8.379  0.2856  0.7659  0.3007
 5035SOL    HW126738   0.278   2.958   8.458  0.0122 -1.8082  0.7939
 5035SOL    HW226739   0.285   2.971   8.308  0.9148 -0.8821  0.3347
 5036SOL     OW26740   3.316   4.539  12.755  0.2506  0.0570 -0.4697
 5036SOL    HW126741   3.243   4.510  12.700  0.2112  0.9061 -0.8564
 5036SOL    HW226742   3.388   4.534  12.692 -0.4422 -0.9766 -1.1938
 5037SOL     OW26743   3.510   4.516   6.647 -0.2286  0.1727 -0.6425
 5037SOL    HW126744   3.427   4.480   6.615 -0.0729 -0.6789 -0.0840
 5037SOL    HW226745   3.506   4.510   6.743  0.0440  2.3782 -0.5023
 5038SOL     OW26746   2.458   0.463   8.963  0.4244  0.6871  0.1893
 5038SOL    HW126747   2.523   0.397   8.941  1.2872  1.0716  1.5862
 5038SOL    HW226748   2.413   0.470   8.878 -1.8525  1.3735  1.4436
 5039SOL     OW26749   2.369   3.751   8.777  0.2251  0.7825  0.0880
 5039SOL    HW126750   2.440   3.749   8.713 -1.5042 -1.6290 -1.7480
 5039SOL    HW226751   2.293   3.774   8.723  0.2234  0.0769 -0.2099
 5040SOL     OW26752   1.844   2.393   2.014 -0.1911 -0.1040 -0.0484
 5040SOL    HW126753   1.924   2.438   2.041  0.4020 -0.5663 -1.0283
 5040SOL    HW226754   1.855   2.364   1.923  3.4418  2.8202 -0.5242
 5041SOL     OW26755   3.704   4.474   4.947 -0.3350 -0.6424 -0.1254
 5041SOL    HW126756   3.793   4.438   4.940 -0.5047 -1.2582  0.9042
 5041SOL    HW226757   3.670   4.430   4.869  0.5861  0.0194 -0.8965
 5042SOL     OW26758   0.778   4.200   8.189 -0.2649 -0.8037  0.2510
 5042SOL    HW126759   0.798   4.163   8.275 -0.1155 -0.2976  0.4342
 5042SOL    HW226760   0.768   4.293   8.208 -0.9017 -0.8657  0.2153
 5043SOL     OW26761   1.551   0.105   9.288  0.0549  0.1251 -0.2895
 5043SOL    HW126762   1.609   0.099   9.212  1.0124 -0.5162  0.4928
 5043SOL    HW226763   1.517   0.191   9.262  0.1165  0.2037 -0.1174
 5044SOL     OW26764   3.233   1.781   2.456  0.1250 -0.0046 -1.4530
 5044SOL    HW126765   3.143   1.752   2.441 -0.2298 -0.2370  1.1323
 5044SOL    HW226766   3.215   1.872   2.481 -1.4363 -0.5747 -0.4724
 5045SOL     OW26767   0.238   0.074  10.387 -0.1585  0.5101  0.7327
 5045SOL    HW126768   0.172   0.099  10.453  0.2943 -0.7028  1.6444
 5045SOL    HW226769   0.187   0.086  10.306  1.4658  0.8539 -0.2324
 5046SOL     OW26770   2.193   3.914   5.799 -0.0208  0.2612 -0.1232
 5046SOL    HW126771   2.164   3.970   5.727 -1.7672  1.0898  1.2227
 5046SOL    HW226772   2.174   3.980   5.866 -2.7243 -0.1798 -0.4420
 5047SOL     OW26773   0.687   3.435   2.189 -0.0903 -0.0277  0.1834
 5047SOL    HW126774   0.697   3.340   2.176  0.9770  0.6853 -4.2149
 5047SOL    HW226775   0.708   3.467   2.102 -0.0774  2.1325  0.9968
 5048SOL     OW26776   0.769   2.509   2.573 -0.4587 -0.4095 -0.5997
 5048SOL    HW126777   0.681   2.483   2.546 -1.4403 -0.4388  2.6772
 5048SOL    HW226778   0.796   2.556   2.494 -2.1073 -0.2717 -1.0833
 5049SOL     OW26779   0.342   3.362   0.225 -0.7147 -0.3927 -0.4006
 5049SOL    HW126780   0.304   3.449   0.213 -2.3248 -0.9159  0.9200
 5049SOL    HW226781   0.399   3.355   0.148 -2.0419 -2.3268 -1.1840
 5050SOL     OW26782   3.777   3.863   5.148 -0.1679  0.8520 -0.1097
 5050SOL    HW126783   3.835   3.871   5.072 -0.9603 -1.8338 -1.0122
 5050SOL    HW226784   3.695   3.856   5.099  1.0299  1.1172 -2.1455
 5051SOL     OW26785   0.433   2.987   8.192 -0.3103  0.3723 -0.5217
 5051SOL    HW126786   0.493   3.038   8.137 -0.3922  1.4933  0.4064
 5051SOL    HW226787   0.487   2.909   8.203 -0.7969  0.3781  1.9377
 5052SOL     OW26788   0.464   4.126   8.884 -0.1121  0.3474 -0.1916
 5052SOL    HW126789   0.514   4.207   8.883  0.7180 -0.1714 -1.4611
 5052SOL    HW226790   0.386   4.150   8.835  0.1667  2.0100  0.2032
 5053SOL     OW26791   1.327   2.337   6.635 -0.1084  0.0860 -0.1201
 5053SOL    HW126792   1.292   2.275   6.572 -1.5529 -1.6076  2.3591
 5053SOL    HW226793   1.420   2.344   6.616  0.1431  0.4753  1.2186
 5054SOL     OW26794   4.100   0.972   3.471 -0.1047  0.5136 -0.1341
 5054SOL    HW126795   4.186   0.995   3.436  0.3159 -0.4286  0.2773
 5054SOL    HW226796   4.103   0.900   3.535 -3.1038  0.4214 -0.1134
 5055SOL     OW26797   2.055   1.144   7.951 -1.0438 -0.0316 -0.4952
 5055SOL    HW126798   2.004   1.064   7.953 -1.1275  0.0444  0.3424
 5055SOL    HW226799   2.055   1.174   8.042  0.8408  0.4596 -0.6473
 5056SOL     OW26800   0.851   3.830  14.910  0.2436  0.7671  0.0243
 5056SOL    HW126801   0.848   3.869  14.823  0.1549  0.1327 -0.2548
 5056SOL    HW226802   0.876   3.742  14.882  1.6857  0.9701  0.6754
 5057SOL     OW26803   2.568   2.846  15.677 -0.0576  0.4335 -0.2683
 5057SOL    HW126804   2.577   2.773  15.617 -0.1347 -0.5131  0.8859
 5057SOL    HW226805   2.607   2.919  15.629  2.3340 -0.0040  0.9601
 5058SOL     OW26806   2.610   4.613  11.118  0.1392  0.2508 -0.3800
 5058SOL    HW126807   2.639   4.681  11.056  1.5784 -0.7641 -0.8254
 5058SOL    HW226808   2.685   4.558  11.140 -0.8562 -0.7924  0.3897
 5059SOL     OW26809   3.982   4.193   2.986 -0.0080  0.0730  0.1516
 5059SOL    HW126810   4.066   4.238   2.994  1.7120 -2.9989 -0.7267
 5059SOL    HW226811   3.986   4.209   2.891 -2.3277 -3.5699 -0.5428
 5060SOL     OW26812   2.303   0.521   9.184  0.8976  0.0062  0.5213
 5060SOL    HW126813   2.353   0.451   9.227  2.8977  0.9842 -0.1947
 5060SOL    HW226814   2.346   0.526   9.099  0.1117 -0.4576  0.1005
 5061SOL     OW26815   2.976   1.612  16.581  0.4343 -0.3032 -0.7988
 5061SOL    HW126816   2.947   1.529  16.621 -2.2118  1.2445  0.5132
 5061SOL    HW226817   2.988   1.575  16.493 -0.6275 -1.7996 -0.3257
 5062SOL     OW26818   0.119   3.014   4.084 -0.3230  0.1024 -0.5088
 5062SOL    HW126819   0.137   3.052   4.170 -0.2743  0.7981 -0.8264
 5062SOL    HW226820   0.168   3.071   4.025 -0.4342  0.2823 -0.4253
 5063SOL     OW26821   0.834   3.328   2.442  0.6285  0.1087 -0.2115
 5063SOL    HW126822   0.817   3.249   2.492 -0.9583  1.0918  0.8222
 5063SOL    HW226823   0.785   3.309   2.363  1.5588 -0.8929 -0.5386
 5064SOL     OW26824   0.950   1.836   7.980 -0.4470  0.4120 -0.3495
 5064SOL    HW126825   0.914   1.820   8.068 -0.8266  0.2342 -0.5392
 5064SOL    HW226826   0.917   1.923   7.961 -1.5091  0.0880  0.0033
 5065SOL     OW26827   1.873   3.465   0.908  0.0364  0.0535 -0.6304
 5065SOL    HW126828   1.948   3.465   0.849  0.0744 -1.7364 -0.5983
 5065SOL    HW226829   1.813   3.401   0.869 -1.9062  1.9150 -0.7230
 5066SOL     OW26830   0.988   1.747  14.692 -0.3774  0.2053 -0.4008
 5066SOL    HW126831   0.932   1.670  14.697 -0.1257  0.1584  1.4427
 5066SOL    HW226832   0.952   1.774  14.607  1.1807  1.8527 -0.5321
 5067SOL     OW26833   3.555   1.056   8.421 -0.1388 -0.6265 -0.4723
 5067SOL    HW126834   3.525   1.005   8.496 -1.6569 -0.8194 -1.2042
 5067SOL    HW226835   3.548   1.142   8.462  0.4795 -1.7306  1.9240
 5068SOL     OW26836   3.546   0.361   8.458 -0.4245  0.2545  0.2425
 5068SOL    HW126837   3.564   0.358   8.364  0.2472  0.7294  0.3574
 5068SOL    HW226838   3.540   0.271   8.490  0.1626  0.3682  0.6748
 5069SOL     OW26839   0.999   3.289   0.212 -0.7253  0.4725 -0.2122
 5069SOL    HW126840   0.968   3.299   0.122  1.4639  1.9303 -0.8026
 5069SOL    HW226841   1.043   3.204   0.208 -2.1693 -0.3164  0.6753
 5070SOL     OW26842   1.277   3.722   2.510  0.4047  0.1376 -0.5819
 5070SOL    HW126843   1.257   3.629   2.509  1.8501 -0.2035  1.4489
 5070SOL    HW226844   1.212   3.769   2.563  2.0732  1.0436  0.6872
 5071SOL     OW26845   4.114   4.153   7.625 -0.1769  0.2870  0.3169
 5071SOL    HW126846   4.149   4.221   7.683  0.8335  0.9274 -1.0431
 5071SOL    HW226847   4.021   4.160   7.645 -0.1209  2.1781 -0.0121
 5072SOL     OW26848   1.752   3.297   8.004  0.2072  0.3760 -0.1325
 5072SOL    HW126849   1.715   3.333   7.923  1.7429  1.8009 -0.1982
 5072SOL    HW226850   1.789   3.372   8.051  0.0210  0.1218  0.4297
 5073SOL     OW26851   0.814   2.233   8.448  0.1357 -0.1147 -0.3382
 5073SOL    HW126852   0.776   2.216   8.362  0.0554 -1.1699 -0.0911
 5073SOL    HW226853   0.856   2.150   8.473  2.3727  1.2688  0.5422
 5074SOL     OW26854   0.611   1.272   3.009 -0.1527 -0.1026  0.0396
 5074SOL    HW126855   0.693   1.266   3.059 -0.2961 -1.2720  0.1522
 5074SOL    HW226856   0.591   1.184   2.977  0.8560 -0.0143 -0.8387
 5075SOL     OW26857   0.489   0.853   2.751 -0.4145 -0.2975 -0.0354
 5075SOL    HW126858   0.568   0.808   2.720  0.2876  0.2681  0.9033
 5075SOL    HW226859   0.508   0.942   2.722 -0.7146 -0.2265 -0.0119
 5076SOL     OW26860   3.740   3.082   3.227  0.1056  0.6313  0.2654
 5076SOL    HW126861   3.791   3.001   3.237 -1.0940 -0.1508  0.0062
 5076SOL    HW226862   3.655   3.040   3.215  1.9056 -2.5989 -1.0363
 5077SOL     OW26863   3.348   4.011   8.592 -0.0997 -0.0363  0.1942
 5077SOL    HW126864   3.308   3.941   8.541  1.6594 -1.3991  0.6579
 5077SOL    HW226865   3.421   4.030   8.533  1.0085  1.1221  1.9402
 5078SOL     OW26866   4.315   1.307  15.704 -0.0581 -0.2715  0.1454
 5078SOL    HW126867   4.228   1.323  15.668 -0.3704  0.5772  1.2899
 5078SOL    HW226868   4.358   1.261  15.631 -3.0095 -1.3701 -0.9271
 5079SOL     OW26869   4.246   3.402   5.721 -0.2901 -0.0668 -0.2516
 5079SOL    HW126870   4.209   3.314   5.728  0.6996 -0.4939 -0.2418
 5079SOL    HW226871   4.334   3.392   5.760 -0.6688  0.3849  0.7309
 5080SOL     OW26872   2.392   3.624   4.847  0.0446  0.0478 -0.3367
 5080SOL    HW126873   2.303   3.633   4.813  0.9369  2.0126 -2.2005
 5080SOL    HW226874   2.399   3.543   4.896  0.2564  1.3217  1.7294
 5081SOL     OW26875   4.303   1.749   7.401  0.0766 -0.5955 -0.0614
 5081SOL    HW126876   4.377   1.769   7.458 -1.6626 -0.7984  2.2653
 5081SOL    HW226877   4.242   1.819   7.425  0.2965 -1.1314  2.0405
 5082SOL     OW26878   2.664   0.030   6.010 -0.4201  0.2788 -0.2000
 5082SOL    HW126879   2.637   4.704   6.082  0.4301  0.2167  0.0640
 5082SOL    HW226880   2.605   0.105   6.017 -1.2617 -0.6241  2.4186
 5083SOL     OW26881   1.824   4.601   3.234  0.1041 -0.2057 -0.1806
 5083SOL    HW126882   1.871   4.590   3.151 -1.4790 -1.6504 -0.8924
 5083SOL    HW226883   1.882   4.588   3.309  1.2764  2.1450 -0.6947
 5084SOL     OW26884   0.887   2.389  12.156  0.2103  0.1245 -0.3356
 5084SOL    HW126885   0.981   2.372  12.166  0.0900 -0.7035 -0.6464
 5084SOL    HW226886   0.851   2.353  12.237 -2.2732  2.0131 -0.5972
 5085SOL     OW26887   2.822   3.578  13.797  0.3133 -0.1495  0.4649
 5085SOL    HW126888   2.916   3.561  13.803  0.2441 -1.0124 -0.9764
 5085SOL    HW226889   2.787   3.493  13.771 -2.1325  1.0438 -0.0890
 5086SOL     OW26890   3.787   3.835   1.210 -0.5580 -0.4572  0.1298
 5086SOL    HW126891   3.789   3.929   1.191 -1.6635 -0.1084  1.7587
 5086SOL    HW226892   3.790   3.796   1.122  0.8881  0.7158 -0.3623
 5087SOL     OW26893   3.886   2.539   2.148 -0.2001 -0.1376  0.2394
 5087SOL    HW126894   3.891   2.511   2.239 -2.2633 -0.6847  0.1814
 5087SOL    HW226895   3.972   2.581   2.143 -0.4256  0.1750 -0.9545
 5088SOL     OW26896   2.852   2.730   2.129 -0.0574 -0.5280 -0.2579
 5088SOL    HW126897   2.847   2.823   2.104 -2.9608 -0.1556  1.6573
 5088SOL    HW226898   2.856   2.688   2.043  1.3995 -0.6098 -0.1442
 5089SOL     OW26899   0.189   0.745  12.890  0.0147  0.3522  0.4166
 5089SOL    HW126900   0.232   0.778  12.811  0.6501 -0.3466  0.4730
 5089SOL    HW226901   0.213   0.813  12.952  1.2346 -0.2040  0.5401
 5090SOL     OW26902   3.007   1.299  14.855  0.0249 -0.5784 -0.0673
 5090SOL    HW126903   3.032   1.277  14.945  0.0139  2.0417  0.5715
 5090SOL    HW226904   3.033   1.391  14.847  0.8757 -0.8460 -0.3419
 5091SOL     OW26905   3.361   2.178  11.546  0.0551  0.1777  0.2065
 5091SOL    HW126906   3.267   2.180  11.564  0.1167 -0.3209  0.5706
 5091SOL    HW226907   3.367   2.107  11.482  0.0050  0.9590 -0.6713
 5092SOL     OW26908   3.829   4.000   3.652  0.5761 -0.3455  0.1996
 5092SOL    HW126909   3.911   4.045   3.671  0.6901 -0.5422  0.1720
 5092SOL    HW226910   3.865   3.927   3.601  1.4508 -2.2928  3.5816
 5093SOL     OW26911   3.293   0.322   3.568 -0.5484 -0.8684 -0.7123
 5093SOL    HW126912   3.329   0.409   3.588  0.0774 -2.2488  4.0088
 5093SOL    HW226913   3.368   0.263   3.563  1.5987  1.5767  3.0299
 5094SOL     OW26914   2.772   1.453   4.585 -0.0540 -0.0296 -0.4726
 5094SOL    HW126915   2.748   1.546   4.590  2.7345  0.6426  0.1895
 5094SOL    HW226916   2.800   1.435   4.674  0.1153 -0.3211 -0.5827
 5095SOL     OW26917   1.814   1.448   5.331 -0.1144 -0.0787  0.6625
 5095SOL    HW126918   1.886   1.388   5.311  1.2463  1.9844 -0.6657
 5095SOL    HW226919   1.795   1.435   5.424 -2.1586  0.4778  0.3075
 5096SOL     OW26920   2.207   4.721   9.789  0.2178 -0.1109 -0.0398
 5096SOL    HW126921   2.116   4.690   9.793 -0.3711  1.8341  1.6773
 5096SOL    HW226922   2.197   0.071   9.837  1.1133 -0.4749  0.7613
 5097SOL     OW26923   3.918   0.901   6.339 -0.0814  0.0941  0.3783
 5097SOL    HW126924   3.971   0.937   6.267 -1.5629  0.8837 -0.3047
 5097SOL    HW226925   3.982   0.882   6.408  0.4307 -1.1943 -0.4286
 5098SOL     OW26926   3.765   2.631   5.095 -0.1353 -0.4388 -0.0454
 5098SOL    HW126927   3.772   2.725   5.079  3.4845 -0.4695  1.5117
 5098SOL    HW226928   3.689   2.625   5.037 -0.3395  1.2202  0.0564
 5099SOL     OW26929   4.248   4.670   8.671 -0.1909 -0.1132 -0.2452
 5099SOL    HW126930   4.323   4.712   8.629 -0.7385  0.2638 -0.8244
 5099SOL    HW226931   4.265   4.705   8.759 -0.3788  1.1346 -0.7025
 5100SOL     OW26932   3.989   1.322  17.046  0.1706 -0.1622  0.4381
 5100SOL    HW126933   3.924   1.341  16.978 -0.2276 -2.0073  0.3024
 5100SOL    HW226934   3.965   1.398  17.099  0.2126  1.3934 -1.7341
 5101SOL     OW26935   2.548   0.668   2.244  0.1519  0.2777 -0.1990
 5101SOL    HW126936   2.495   0.698   2.318  0.5269 -1.4683  0.7741
 5101SOL    HW226937   2.608   0.743   2.244  0.4221  0.0501  1.0374
 5102SOL     OW26938   3.863   4.406  16.122  0.1015 -0.0266  0.2811
 5102SOL    HW126939   3.801   4.462  16.168 -0.9534 -0.9697 -0.0231
 5102SOL    HW226940   3.800   4.346  16.082 -2.4760  1.1650  2.5858
 5103SOL     OW26941   4.060   4.387   7.880 -0.7384 -0.5035 -0.6146
 5103SOL    HW126942   4.131   4.324   7.893 -0.0247  0.3123 -0.5527
 5103SOL    HW226943   4.006   4.390   7.958  1.7851 -0.6053  1.1477
 5104SOL     OW26944   3.508   0.490   1.681 -0.5301 -0.1097  0.5157
 5104SOL    HW126945   3.570   0.551   1.641 -1.6695  1.2798  0.8713
 5104SOL    HW226946   3.438   0.501   1.616  0.2993 -0.1454 -0.3865
 5105SOL     OW26947   2.976   0.135  13.510 -0.3965 -0.1531  0.5136
 5105SOL    HW126948   2.920   0.074  13.559 -1.2217  0.9946  1.0066
 5105SOL    HW226949   2.946   0.122  13.421  4.3120 -1.3974 -0.8699
 5106SOL     OW26950   2.815   4.261   8.965 -0.1773  0.2444  0.2171
 5106SOL    HW126951   2.847   4.172   8.953 -2.9505 -0.9799  2.0950
 5106SOL    HW226952   2.730   4.252   8.923 -1.1248 -0.1887  2.2516
 5107SOL     OW26953   2.405   1.818   4.403 -0.0301 -0.4201 -0.2763
 5107SOL    HW126954   2.386   1.911   4.409  1.0321 -0.2452  0.4146
 5107SOL    HW226955   2.390   1.792   4.494 -1.3042  1.8422  0.1527
 5108SOL     OW26956   3.236   3.656   3.464 -0.8479 -0.0640 -0.0764
 5108SOL    HW126957   3.233   3.617   3.376 -0.4669  0.2304 -0.2220
 5108SOL    HW226958   3.327   3.639   3.488 -0.9248 -1.3263 -0.6543
 5109SOL     OW26959   2.129   0.656   9.493  0.2415  0.2345 -0.3682
 5109SOL    HW126960   2.101   0.679   9.582  0.2219 -0.9966 -0.0588
 5109SOL    HW226961   2.160   0.566   9.489  0.9985  0.5655 -1.9433
 5110SOL     OW26962   2.813   2.351   5.128  0.2453 -0.1118 -0.1617
 5110SOL    HW126963   2.756   2.337   5.053 -0.7030  3.1541 -0.0867
 5110SOL    HW226964   2.869   2.424   5.099 -1.5981  2.0589  1.7410
 5111SOL     OW26965   0.209   2.729   7.641  0.3886  0.4470  0.1270
 5111SOL    HW126966   0.149   2.786   7.690 -0.7119  0.0497 -0.7683
 5111SOL    HW226967   0.163   2.645   7.637  0.2640  0.4412  1.4612
 5112SOL     OW26968   4.428   1.716   2.342  0.0283  0.5425 -0.1474
 5112SOL    HW126969   4.409   1.776   2.415  1.4703  0.2122  0.4961
 5112SOL    HW226970   4.380   1.638   2.371  0.8116 -0.0450 -0.4203
 5113SOL     OW26971   4.239   2.225   7.156  0.4892  0.1905  0.3509
 5113SOL    HW126972   4.173   2.238   7.225  0.6989 -0.8427  0.7548
 5113SOL    HW226973   4.316   2.195   7.204 -0.2884 -1.5047  0.5338
 5114SOL     OW26974   0.288   4.343   8.689 -0.1240 -0.3366  0.3631
 5114SOL    HW126975   0.222   4.304   8.746 -0.6555 -0.4639 -0.3337
 5114SOL    HW226976   0.313   4.412   8.750 -1.2553  0.6262 -0.2604
 5115SOL     OW26977   0.802   1.825   7.387  0.3213  0.0520 -0.5892
 5115SOL    HW126978   0.794   1.746   7.441 -0.8396  1.8229  1.8393
 5115SOL    HW226979   0.789   1.797   7.296 -0.5890 -1.7225  0.0888
 5116SOL     OW26980   2.916   3.799   6.830 -0.0572 -0.5094 -0.1625
 5116SOL    HW126981   2.861   3.820   6.906 -1.1548  1.1686 -1.4030
 5116SOL    HW226982   2.910   3.704   6.820 -0.0358 -0.7352  2.0820
 5117SOL     OW26983   2.132   2.451   1.873 -0.1850 -0.6559  0.2950
 5117SOL    HW126984   2.168   2.531   1.835 -1.2126 -0.4277 -0.2191
 5117SOL    HW226985   2.151   2.454   1.967 -1.1216  0.9166  0.4394
 5118SOL     OW26986   2.425   1.428  10.745  0.7094  1.1484  0.7818
 5118SOL    HW126987   2.516   1.418  10.774  0.5902  1.0302  1.1184
 5118SOL    HW226988   2.443   1.453  10.655  0.0880  1.0077  0.6190
 5119SOL     OW26989   4.079   3.053  15.999 -0.6104  0.2870 -0.5170
 5119SOL    HW126990   4.051   2.964  15.981 -1.5910  0.1827  1.5400
 5119SOL    HW226991   4.101   3.052  16.092  0.6191  0.5168 -0.8058
 5120SOL     OW26992   0.544   1.270   7.380 -0.1808  0.0700  0.0928
 5120SOL    HW126993   0.572   1.210   7.312 -0.1200  0.2834 -0.0724
 5120SOL    HW226994   0.628   1.289   7.421  0.1494 -1.2903  0.0391
 5121SOL     OW26995   1.156   2.380  12.240 -0.3898 -0.3466 -0.5116
 5121SOL    HW126996   1.237   2.338  12.209 -0.1383 -0.9031  0.8852
 5121SOL    HW226997   1.159   2.384  12.335  1.9421 -2.1851 -0.4963
 5122SOL     OW26998   4.097   2.947   6.922 -0.3399 -0.2688 -0.5835
 5122SOL    HW126999   4.150   3.007   6.975  1.4871 -1.5550 -0.9386
 5122SOL    HW227000   4.062   2.884   6.985  0.5762 -2.0624 -1.8476
 5123SOL     OW27001   3.888   3.858  15.654  0.1397  0.1541 -0.2017
 5123SOL    HW127002   3.834   3.905  15.717 -0.2220  1.7248 -1.6932
 5123SOL    HW227003   3.906   3.779  15.705 -1.2707 -0.0450  0.0005
 5124SOL     OW27004   1.605   1.481   3.169  0.7641  0.1162 -0.5786
 5124SOL    HW127005   1.667   1.493   3.241  0.8169  1.4323 -0.8485
 5124SOL    HW227006   1.529   1.489   3.226  0.0644 -0.2877 -1.4670
 5125SOL     OW27007   1.576   3.237   6.539 -0.2570  0.1568 -0.2952
 5125SOL    HW127008   1.612   3.308   6.486 -0.8962 -0.9616 -2.2671
 5125SOL    HW227009   1.496   3.273   6.576  0.4898  1.4983 -0.0142
 5126SOL     OW27010   0.184   0.107   8.888 -0.2842  0.7871  0.5340
 5126SOL    HW127011   0.219   0.020   8.866  0.3171  0.9599  0.8090
 5126SOL    HW227012   0.159   0.136   8.801 -0.6223 -2.9007 -0.6230
 5127SOL     OW27013   4.720   4.578  17.292 -0.5853  0.0260 -0.0583
 5127SOL    HW127014   0.060   4.522  17.322 -0.1209 -0.2021 -1.5614
 5127SOL    HW227015   0.024   4.665  17.275  0.7487 -0.3815  0.6861
 5128SOL     OW27016   0.795   2.100  12.070 -0.1802  0.0131 -0.5843
 5128SOL    HW127017   0.860   2.104  12.140 -2.0339 -0.5321  1.1706
 5128SOL    HW227018   0.718   2.133  12.116  0.5978 -1.4244  1.7605
 5129SOL     OW27019   0.326   3.362   2.583 -0.2843  0.4208 -0.0463
 5129SOL    HW127020   0.315   3.354   2.678  5.1422 -1.4889  0.4346
 5129SOL    HW227021   0.318   3.458   2.576  0.8536  0.4961 -0.2924
 5130SOL     OW27022   1.018   2.769   4.012 -0.2260 -0.0355 -0.1886
 5130SOL    HW127023   1.082   2.830   4.048  2.0665 -3.1147  0.9518
 5130SOL    HW227024   0.942   2.766   4.070  0.1745 -0.5894  0.2974
 5131SOL     OW27025   4.585   2.963   2.768  0.2180  0.3136  0.1861
 5131SOL    HW127026   4.554   3.038   2.819 -1.5179 -0.7685  0.7383
 5131SOL    HW227027   4.629   2.914   2.837  0.9358  1.5295  0.6001
 5132SOL     OW27028   4.490   4.298   5.771 -0.4123 -0.5209 -0.0858
 5132SOL    HW127029   4.498   4.284   5.865  0.0086  0.6169  0.0407
 5132SOL    HW227030   4.559   4.364   5.764 -0.2022 -0.7988 -0.6951
 5133SOL     OW27031   3.896   0.819   8.105  0.0785 -1.0697  0.2910
 5133SOL    HW127032   3.856   0.743   8.148 -0.0480 -0.4222  1.3127
 5133SOL    HW227033   3.816   0.871   8.093  1.6429  1.3507  0.3273
 5134SOL     OW27034   1.582   1.020  17.285 -0.3032  0.2615  0.5818
 5134SOL    HW127035   1.662   1.003  17.234  0.0881  0.1738  1.2253
 5134SOL    HW227036   1.522   0.965  17.236  0.6024  1.8689 -2.3521
 5135SOL     OW27037   4.046   1.209  17.386  0.0084 -0.2577 -0.4451
 5135SOL    HW127038   4.122   1.268  17.391 -0.7252  0.7390 -1.0156
 5135SOL    HW227039   3.972   1.264  17.359 -0.2340 -0.9476 -1.1978
 5136SOL     OW27040   2.640   4.300   7.305 -0.2194  0.3006  0.0556
 5136SOL    HW127041   2.622   4.206   7.298 -0.1608  0.3625 -0.9077
 5136SOL    HW227042   2.732   4.300   7.279 -0.6486 -2.0480 -1.4720
 5137SOL     OW27043   3.193   1.998   4.958  0.2167  0.4671 -0.6171
 5137SOL    HW127044   3.249   2.067   4.994  0.6959 -0.4127  0.3219
 5137SOL    HW227045   3.140   1.982   5.036  0.9411 -0.4231 -0.3119
 5138SOL     OW27046   0.246   0.854  17.288  0.1157  0.1662 -0.2266
 5138SOL    HW127047   0.154   0.829  17.298  0.9950 -1.5714  3.4155
 5138SOL    HW227048   0.242   0.919  17.217 -0.2922  1.1902  0.7317
 5139SOL     OW27049   4.097   2.391   7.645 -0.3231  0.6698 -0.3152
 5139SOL    HW127050   4.096   2.458   7.713 -2.4168  0.7864 -0.4788
 5139SOL    HW227051   4.166   2.434   7.593 -0.5472  0.2907 -0.9283
 5140SOL     OW27052   2.954   3.550   5.981  0.1280  0.0512  0.3302
 5140SOL    HW127053   2.973   3.640   5.955 -0.4513  0.3154  0.8367
 5140SOL    HW227054   3.007   3.554   6.060  0.6568  1.6491 -0.1012
 5141SOL     OW27055   4.173   3.703   6.414 -0.0874  0.1639 -0.9051
 5141SOL    HW127056   4.246   3.725   6.357  1.3144 -1.6376  0.1739
 5141SOL    HW227057   4.103   3.763   6.388 -0.2845  0.7336  0.9187
 5142SOL     OW27058   3.044   0.540   7.774  0.5515  0.5222  0.1969
 5142SOL    HW127059   3.095   0.574   7.701 -0.3041  0.0838 -0.6183
 5142SOL    HW227060   2.996   0.614   7.813  2.3251  3.1249 -2.5505
 5143SOL     OW27061   1.722   1.381   1.536 -0.1917 -0.3934 -0.1808
 5143SOL    HW127062   1.635   1.417   1.554  0.3569  0.8187  0.0549
 5143SOL    HW227063   1.743   1.413   1.448  0.0771 -2.7297 -0.9712
 5144SOL     OW27064   0.873   1.805  12.346  0.0575 -0.0301  0.3470
 5144SOL    HW127065   0.905   1.747  12.414 -2.5028 -0.1724  1.4319
 5144SOL    HW227066   0.809   1.845  12.405  1.1041  0.3678  1.2082
 5145SOL     OW27067   4.645   3.559  17.255 -0.3522 -0.3340  0.7191
 5145SOL    HW127068   4.556   3.559  17.219 -0.5785  1.8308  1.2839
 5145SOL    HW227069   4.682   3.479  17.219  0.4333  0.4608 -0.2641
 5146SOL     OW27070   0.518   3.725   7.868  0.3316  0.7315  0.4681
 5146SOL    HW127071   0.460   3.683   7.804  0.3857  1.2800  0.0603
 5146SOL    HW227072   0.568   3.774   7.802  1.6892 -0.1103  0.8897
 5147SOL     OW27073   3.198   3.371   7.992 -0.2950  0.6479  0.5101
 5147SOL    HW127074   3.178   3.461   7.966  1.3586  0.6541 -0.7577
 5147SOL    HW227075   3.191   3.309   7.920 -0.9325 -0.9620  1.9480
 5148SOL     OW27076   1.692   4.164   8.788  0.0724 -0.2902 -0.1934
 5148SOL    HW127077   1.612   4.135   8.833  1.1982 -0.3607  1.7462
 5148SOL    HW227078   1.699   4.255   8.815 -1.4527 -1.2001  3.2515
 5149SOL     OW27079   3.879   2.104   3.315  0.3008  0.1321  0.4963
 5149SOL    HW127080   3.829   2.161   3.256 -0.7617  0.3341  1.6020
 5149SOL    HW227081   3.812   2.036   3.323  0.0751  0.0873 -1.6656
 5150SOL     OW27082   2.840   0.713  15.424  0.2813 -0.3249  0.5353
 5150SOL    HW127083   2.762   0.762  15.399 -1.3925 -2.5130  1.4461
 5150SOL    HW227084   2.871   0.691  15.336 -0.0789 -0.3058  0.4046
 5151SOL     OW27085   2.803   3.771  11.501  0.4772 -0.3957 -0.0377
 5151SOL    HW127086   2.895   3.753  11.520  0.2070  0.4561  2.0958
 5151SOL    HW227087   2.768   3.757  11.589 -0.6111  1.7108 -0.1179
 5152SOL     OW27088   2.210   3.439  14.285  0.2530 -0.2058  0.8541
 5152SOL    HW127089   2.174   3.355  14.316 -0.7716 -0.0207  0.1772
 5152SOL    HW227090   2.298   3.404  14.272  0.0653  0.0706 -1.1288
 5153SOL     OW27091   2.638   1.547  13.663  0.0062 -0.0678  0.1070
 5153SOL    HW127092   2.647   1.594  13.746  1.1414 -1.0217  0.5183
 5153SOL    HW227093   2.714   1.585  13.619 -0.2742 -0.3938 -0.6534
 5154SOL     OW27094   2.484   1.787   7.642 -0.0035  0.5694 -0.3054
 5154SOL    HW127095   2.571   1.766   7.607  0.5303  0.3100  1.1534
 5154SOL    HW227096   2.428   1.791   7.565 -1.0432  1.6033  0.5006
 5155SOL     OW27097   2.264   0.587   0.569  0.6602  0.1937  0.0578
 5155SOL    HW127098   2.179   0.623   0.596  0.2495 -0.2956 -0.5850
 5155SOL    HW227099   2.259   0.585   0.474  1.5949 -0.1362  0.0178
 5156SOL     OW27100   0.135   0.149   6.820  0.3387 -0.4582  0.1062
 5156SOL    HW127101   0.073   0.103   6.764  0.3536 -0.5128  0.1349
 5156SOL    HW227102   0.216   0.124   6.776  1.4640  1.9317  0.8301
 5157SOL     OW27103   0.533   2.365  16.573  0.1462 -0.2442 -0.0938
 5157SOL    HW127104   0.465   2.298  16.567  0.4940 -0.5212 -0.9868
 5157SOL    HW227105   0.477   2.436  16.606 -0.1269 -0.2835 -0.4744
 5158SOL     OW27106   4.380   1.148   9.069 -0.0077  0.5444 -0.5247
 5158SOL    HW127107   4.386   1.244   9.062 -1.3912  0.7534  1.0278
 5158SOL    HW227108   4.311   1.131   9.006 -2.8092 -0.4516  2.8237
 5159SOL     OW27109   0.617   1.191  14.667 -0.2009 -0.5038  0.4929
 5159SOL    HW127110   0.619   1.287  14.664  0.3473 -0.5128  0.5592
 5159SOL    HW227111   0.545   1.185  14.729 -1.2779 -0.9139 -0.7828
 5160SOL     OW27112   3.450   3.653   8.297 -0.1921  0.2162  0.0031
 5160SOL    HW127113   3.443   3.614   8.210  0.0867  0.3067 -0.0624
 5160SOL    HW227114   3.458   3.572   8.346  1.3212 -0.3269 -1.1178
 5161SOL     OW27115   1.031   3.783  15.871 -0.4640 -0.1500 -0.4463
 5161SOL    HW127116   0.946   3.797  15.913 -0.7483 -3.2539 -0.0223
 5161SOL    HW227117   1.015   3.816  15.782 -2.2325 -0.9330 -0.4122
 5162SOL     OW27118   1.104   3.115   4.606  0.4048  0.0100  0.3012
 5162SOL    HW127119   1.179   3.175   4.611  0.9565 -0.7423  1.2704
 5162SOL    HW227120   1.050   3.152   4.537 -2.1446 -3.6972  0.2876
 5163SOL     OW27121   4.339   2.252   6.299 -0.3741  0.4103  0.0203
 5163SOL    HW127122   4.290   2.170   6.298 -1.5074  1.0953 -0.5893
 5163SOL    HW227123   4.407   2.226   6.361  0.1312  0.8920 -0.3384
 5164SOL     OW27124   1.674   2.726   2.403  0.1564  0.5267  0.1632
 5164SOL    HW127125   1.656   2.633   2.415  0.2838  0.8641  3.0501
 5164SOL    HW227126   1.612   2.776   2.456 -0.3928  0.1559 -0.1348
 5165SOL     OW27127   4.445   1.649   3.874 -0.4174  0.5899 -0.2620
 5165SOL    HW127128   4.399   1.653   3.790  0.2229  2.0564 -0.5574
 5165SOL    HW227129   4.495   1.570   3.853 -2.0712 -0.5935  0.2953
 5166SOL     OW27130   2.208   0.078   4.318  0.0469 -0.2511  0.6172
 5166SOL    HW127131   2.119   0.111   4.328  0.3681  1.0655 -0.7602
 5166SOL    HW227132   2.238   0.082   4.410 -2.1195  2.5562  1.2088
 5167SOL     OW27133   0.482   3.817   2.829  0.2150 -0.3428  0.0600
 5167SOL    HW127134   0.557   3.856   2.785 -0.4600  3.2870  2.1561
 5167SOL    HW227135   0.514   3.735   2.866 -1.8406  0.0738  2.7084
 5168SOL     OW27136   2.282   1.695   4.611  0.0281  0.1663  0.1833
 5168SOL    HW127137   2.205   1.741   4.645  0.7268 -0.0832  2.0964
 5168SOL    HW227138   2.265   1.614   4.660  0.7234 -0.1461 -0.0945
 5169SOL     OW27139   4.425   0.838   5.209  0.5218  0.3484 -0.1286
 5169SOL    HW127140   4.369   0.760   5.212  0.2128  0.5819  0.1637
 5169SOL    HW227141   4.410   0.876   5.122  3.9789 -1.3134 -1.4580
 5170SOL     OW27142   1.275   3.639   1.338  0.6028  0.7490  0.2120
 5170SOL    HW127143   1.266   3.565   1.279  0.5897  0.7047  0.2690
 5170SOL    HW227144   1.371   3.648   1.342  0.7329  0.6821 -2.7628
 5171SOL     OW27145   2.042   2.308   0.438  0.0118  0.3892  0.2984
 5171SOL    HW127146   1.988   2.385   0.423  2.6814  2.1221 -0.5161
 5171SOL    HW227147   2.124   2.344   0.474  0.9483 -1.4069 -0.0429
 5172SOL     OW27148   0.531   0.049  13.838  0.4441  0.0910 -0.1678
 5172SOL    HW127149   0.507   0.040  13.745 -0.3600  3.9800 -0.3637
 5172SOL    HW227150   0.450   0.069  13.884  0.7096  0.0191  0.3300
 5173SOL     OW27151   1.922   1.732   4.936 -0.1128 -0.0009 -0.4613
 5173SOL    HW127152   1.829   1.710   4.951  0.0745 -0.5888 -0.1227
 5173SOL    HW227153   1.943   1.702   4.848 -0.5998  0.4187 -0.7184
 5174SOL     OW27154   4.521   4.148   6.258 -0.1256  0.1688 -0.1728
 5174SOL    HW127155   4.600   4.102   6.229 -1.3254 -1.8274 -0.2904
 5174SOL    HW227156   4.501   4.191   6.175 -2.1551 -0.4480 -0.0081
 5175SOL     OW27157   4.415   2.427   3.487  0.0009  0.0243  0.1849
 5175SOL    HW127158   4.350   2.447   3.554  2.1584 -0.9999  2.5832
 5175SOL    HW227159   4.348   2.390   3.430 -1.6256  2.4004  0.5261
 5176SOL     OW27160   2.592   3.210   6.477 -0.3090 -0.0026 -0.1833
 5176SOL    HW127161   2.533   3.135   6.468 -0.1217  0.0375 -1.7078
 5176SOL    HW227162   2.609   3.227   6.385  0.6290 -2.7529 -0.5367
 5177SOL     OW27163   3.530   3.956   0.190  0.2243 -0.3027  0.1342
 5177SOL    HW127164   3.543   3.973   0.096 -1.4448 -2.3030 -0.4515
 5177SOL    HW227165   3.559   3.865   0.197  1.8854  0.4101  2.5711
 5178SOL     OW27166   4.122   1.119   3.775  0.0800 -0.3292  0.2861
 5178SOL    HW127167   4.171   1.058   3.831 -0.5519 -0.8248  0.3043
 5178SOL    HW227168   4.097   1.054   3.709 -0.8835 -1.7153  2.0090
 5179SOL     OW27169   3.514   0.999   5.357  0.3856 -0.0874  0.2034
 5179SOL    HW127170   3.607   1.012   5.341  0.5282 -1.6532 -0.3016
 5179SOL    HW227171   3.492   0.957   5.273 -1.9843  0.1707  0.6862
 5180SOL     OW27172   2.316   3.726  10.104  0.0517 -0.0721  0.4360
 5180SOL    HW127173   2.292   3.666  10.034  2.7162  0.2452 -0.7667
 5180SOL    HW227174   2.258   3.688  10.170 -1.2477 -0.3040 -0.8475
 5181SOL     OW27175   0.811   3.856   3.700 -0.6304  0.3852  0.1793
 5181SOL    HW127176   0.754   3.783   3.675 -0.9723  1.4014 -2.0546
 5181SOL    HW227177   0.841   3.901   3.621 -1.4990  0.1268 -0.2944
 5182SOL     OW27178   1.804   4.555  12.798 -0.1860 -0.0852 -0.5047
 5182SOL    HW127179   1.854   4.484  12.838 -0.3590 -0.5077 -1.0455
 5182SOL    HW227180   1.870   4.613  12.759 -1.4863  1.8915  0.2238
 5183SOL     OW27181   0.499   3.283   0.449 -0.0380 -0.2062 -0.3426
 5183SOL    HW127182   0.554   3.297   0.371  0.1090  1.3712  0.0506
 5183SOL    HW227183   0.422   3.333   0.423 -0.4125 -1.1160 -0.9734
 5184SOL     OW27184   0.372   0.136   3.675 -1.1427 -0.3765 -0.4522
 5184SOL    HW127185   0.385   0.215   3.727 -2.1114 -1.0806  0.8862
 5184SOL    HW227186   0.417   0.175   3.601  1.0745  0.3629  1.2848
 5185SOL     OW27187   3.682   2.067   4.542  0.0857  0.9739  0.2495
 5185SOL    HW127188   3.651   2.046   4.631 -0.1715 -0.1386 -0.1006
 5185SOL    HW227189   3.604   2.114   4.512  0.7137  1.6085 -0.3635
 5186SOL     OW27190   3.397   2.633   6.048  0.3802 -0.6820 -0.2692
 5186SOL    HW127191   3.453   2.705   6.074  0.4060 -0.4335 -1.0313
 5186SOL    HW227192   3.466   2.572   6.020  1.0926 -0.0890  0.1980
 5187SOL     OW27193   0.235   2.403  10.805 -0.1832  0.3419 -0.5042
 5187SOL    HW127194   0.236   2.489  10.764  2.0471  0.0995 -0.9545
 5187SOL    HW227195   0.142   2.380  10.804 -0.8802  3.2869 -0.8041
 5188SOL     OW27196   2.993   1.247   3.363  0.1330 -0.2311  0.2281
 5188SOL    HW127197   2.936   1.275   3.291 -1.7907 -3.0558  0.6337
 5188SOL    HW227198   3.044   1.177   3.321 -1.6586 -2.0960  1.1341
 5189SOL     OW27199   2.008   0.612   8.010 -0.1510 -0.1232 -0.1001
 5189SOL    HW127200   2.100   0.591   8.026  0.2516  2.1952  0.6594
 5189SOL    HW227201   1.962   0.543   8.058  1.3736 -1.5039 -0.6112
 5190SOL     OW27202   3.741   3.501  16.006 -0.6560  0.4810  0.0855
 5190SOL    HW127203   3.810   3.511  16.072 -0.2723 -0.0006 -0.2422
 5190SOL    HW227204   3.673   3.461  16.061 -0.0149 -2.3648 -1.2090
 5191SOL     OW27205   1.374   1.141   5.447  0.5325 -0.1093  0.0773
 5191SOL    HW127206   1.422   1.134   5.530  0.4267 -0.1143  0.1376
 5191SOL    HW227207   1.352   1.050   5.424  0.6197 -0.0218 -0.3490
 5192SOL     OW27208   3.329   2.775   3.425 -0.6103 -0.0892 -0.2347
 5192SOL    HW127209   3.312   2.855   3.376 -0.3391 -0.2841 -0.6529
 5192SOL    HW227210   3.354   2.808   3.511  1.9199  0.0855 -1.0412
 5193SOL     OW27211   2.568   0.928   4.319 -0.2863  0.6861  0.0633
 5193SOL    HW127212   2.499   0.993   4.332 -0.2845  0.8053 -0.5033
 5193SOL    HW227213   2.522   0.845   4.322 -1.5758  1.4590  1.5849
 5194SOL     OW27214   3.723   3.760   8.331  0.1268 -0.3685  0.1555
 5194SOL    HW127215   3.818   3.749   8.337  0.0368 -0.6695  1.0672
 5194SOL    HW227216   3.692   3.673   8.355  0.2621 -1.0516 -2.0917
 5195SOL     OW27217   1.422   0.574   0.902  0.6701  0.2693  0.4449
 5195SOL    HW127218   1.493   0.509   0.900  0.4399 -0.0312  2.8125
 5195SOL    HW227219   1.472   0.645   0.942  0.5198  1.9500 -2.3695
 5196SOL     OW27220   1.690   4.710  11.782 -0.1130  0.4462  0.0388
 5196SOL    HW127221   1.757   4.710  11.850 -0.9494 -0.0671  0.8637
 5196SOL    HW227222   1.612   4.689  11.833 -0.7070  0.8948 -0.6815
 5197SOL     OW27223   0.899   1.053   4.993  0.1460  0.1500 -0.4069
 5197SOL    HW127224   0.907   0.982   4.929  1.8137 -0.5414  0.5660
 5197SOL    HW227225   0.939   1.018   5.072  0.2690  2.6885  0.6414
 5198SOL     OW27226   2.194   0.466   4.487  0.0333 -0.0628  0.1342
 5198SOL    HW127227   2.282   0.431   4.470  0.9255  1.8297  0.8527
 5198SOL    HW227228   2.167   0.504   4.404  0.5405  0.5214  0.2362
 5199SOL     OW27229   3.967   0.604   1.339  0.4617 -0.3466 -0.2167
 5199SOL    HW127230   3.925   0.536   1.392  0.8767  0.1225  0.7166
 5199SOL    HW227231   3.945   0.679   1.394 -0.3228  0.2121 -1.2810
 5200SOL     OW27232   0.334   3.906   3.113 -0.0094  0.2790 -0.4365
 5200SOL    HW127233   0.387   3.918   3.035 -0.4358  0.7453 -0.6537
 5200SOL    HW227234   0.270   3.977   3.116 -1.8523 -1.4689  1.8972
 5201SOL     OW27235   1.522   2.514   1.585  0.0181 -0.5612  0.0364
 5201SOL    HW127236   1.583   2.440   1.579  0.7067  0.1092 -1.0788
 5201SOL    HW227237   1.487   2.523   1.497  1.0755  2.4583 -0.0845
 5202SOL     OW27238   4.356   2.842   1.807  0.3829  0.3927  0.3196
 5202SOL    HW127239   4.274   2.891   1.803  0.6325  0.6953 -1.1577
 5202SOL    HW227240   4.370   2.836   1.902  1.4395 -0.4902  0.1108
 5203SOL     OW27241   1.334   0.646   2.599 -0.1296  0.3359  0.1228
 5203SOL    HW127242   1.255   0.642   2.652  0.4007  1.4631  1.0100
 5203SOL    HW227243   1.349   0.553   2.614 -0.0103  0.1306 -1.3008
 5204SOL     OW27244   0.026   0.772   8.815 -0.4894 -0.1922 -0.3315
 5204SOL    HW127245   0.013   0.866   8.824 -1.0593 -0.3807  0.7852
 5204SOL    HW227246   4.668   0.746   8.798 -0.9253 -0.8976  3.0678
 5205SOL     OW27247   3.601   0.241   7.617  0.1579 -0.0478  0.1378
 5205SOL    HW127248   3.617   0.272   7.706  0.8075 -1.4838  0.5287
 5205SOL    HW227249   3.535   0.172   7.629  0.1667 -0.0588  0.1243
 5206SOL     OW27250   3.352   0.067  17.027 -0.1801 -0.4042  0.1150
 5206SOL    HW127251   3.324   4.724  16.974  0.1248  0.5591 -1.3752
 5206SOL    HW227252   3.294   0.050  17.102  2.0879 -0.5627  1.8200
 5207SOL     OW27253   1.025   3.493   4.482  0.2423 -0.0213  0.1216
 5207SOL    HW127254   0.932   3.515   4.488  0.6027  1.8749 -1.3598
 5207SOL    HW227255   1.068   3.576   4.464 -2.6690  1.1597 -1.3942
 5208SOL     OW27256   0.919   1.611  17.665  0.0623  0.3320  0.9398
 5208SOL    HW127257   0.873   1.543  17.715 -0.0385 -0.8148 -0.7327
 5208SOL    HW227258   0.958   1.669   0.004 -1.0263  1.9531  0.1752
 5209SOL     OW27259   4.629   1.838   4.579 -0.3976 -0.2791  0.1834
 5209SOL    HW127260   4.689   1.764   4.568  0.4758  0.5069 -0.3943
 5209SOL    HW227261   4.563   1.817   4.512 -1.0935  1.8692  0.2040
 5210SOL     OW27262   2.168   2.070   4.827  0.5660  0.0022  0.5542
 5210SOL    HW127263   2.178   2.138   4.761  0.5760 -1.8777 -1.4000
 5210SOL    HW227264   2.096   2.109   4.876  0.1788  2.1767 -1.7721
 5211SOL     OW27265   0.996   2.192  12.873 -0.4225 -0.4354 -0.2949
 5211SOL    HW127266   0.940   2.269  12.873 -0.6472 -0.6011 -0.0520
 5211SOL    HW227267   0.935   2.128  12.837 -1.2788 -0.0481  0.4827
 5212SOL     OW27268   0.709   4.667   2.885 -0.4376  0.2564  0.1584
 5212SOL    HW127269   0.683   4.576   2.869 -1.4752  0.7703 -1.0702
 5212SOL    HW227270   0.794   4.649   2.925  0.0978 -0.6710 -1.4143
 5213SOL     OW27271   3.955   1.891   5.149  0.1543  0.2308  0.1693
 5213SOL    HW127272   3.991   1.816   5.196 -1.7860  0.2506  1.7033
 5213SOL    HW227273   3.976   1.969   5.201 -1.0527  0.3206  0.5227
 5214SOL     OW27274   0.009   2.108  13.419 -0.1161 -0.4136 -0.0657
 5214SOL    HW127275   0.098   2.094  13.451  0.4851 -1.3116 -2.1657
 5214SOL    HW227276   4.726   2.026  13.371  0.9581  0.6104 -2.1348
 5215SOL     OW27277   1.243   0.637  15.799 -0.2858 -0.0068 -0.5504
 5215SOL    HW127278   1.207   0.628  15.887  0.2126 -0.7694 -0.4181
 5215SOL    HW227279   1.287   0.721  15.810 -0.5829  0.0378  0.3078
 5216SOL     OW27280   2.416   1.980  16.594 -0.1287  0.2153  0.0703
 5216SOL    HW127281   2.389   1.909  16.535  1.2630  1.8861 -2.5415
 5216SOL    HW227282   2.443   1.934  16.674  1.9742  0.1293 -0.6806
 5217SOL     OW27283   4.724   3.671   5.754  0.0853  0.1926  0.2895
 5217SOL    HW127284   4.715   3.634   5.666 -2.3468  2.6546 -0.5012
 5217SOL    HW227285   4.671   3.750   5.745  0.9988  0.7719 -0.1058
 5218SOL     OW27286   0.928   3.795   8.782 -0.1565 -0.2644 -0.7552
 5218SOL    HW127287   1.011   3.838   8.802 -0.7696  0.1607  0.9005
 5218SOL    HW227288   0.936   3.775   8.689 -1.3677 -0.0539 -0.9119
 5219SOL     OW27289   0.093   1.356  13.962 -0.0859 -0.4003 -0.3679
 5219SOL    HW127290   0.111   1.445  13.934 -0.0162 -0.0844  0.6718
 5219SOL    HW227291   0.134   1.346  14.048 -0.2482  2.3824  0.0156
 5220SOL     OW27292   1.102   0.244   3.260 -0.8886  0.4121 -0.5578
 5220SOL    HW127293   1.026   0.298   3.238 -1.1725 -0.2761 -1.2676
 5220SOL    HW227294   1.126   0.274   3.348 -1.6960 -1.7450  0.4091
 5221SOL     OW27295   0.483   2.498   6.224  0.1141  0.1708  0.1652
 5221SOL    HW127296   0.414   2.452   6.177  1.1205 -0.1266 -1.0145
 5221SOL    HW227297   0.552   2.436   6.203 -0.5602  0.4363 -2.8783
 5222SOL     OW27298   0.357   3.273   5.226 -0.3195  0.2881 -0.3404
 5222SOL    HW127299   0.348   3.249   5.133 -3.0985  0.3882 -0.1108
 5222SOL    HW227300   0.421   3.344   5.231  0.6927 -0.4700 -2.5006
 5223SOL     OW27301   4.422   1.715   4.420  0.1411 -0.2957  0.3166
 5223SOL    HW127302   4.446   1.683   4.333 -0.0499 -0.3032  0.2645
 5223SOL    HW227303   4.390   1.635   4.463 -0.0216  0.0694  0.8717
 5224SOL     OW27304   1.464   1.425   1.590 -0.0446  0.3104 -0.0671
 5224SOL    HW127305   1.445   1.472   1.671  0.5235 -1.4622  1.0931
 5224SOL    HW227306   1.398   1.462   1.532  0.0477  0.3100 -0.1734
 5225SOL     OW27307   1.951   4.267   5.863 -0.3233 -0.2722  0.5480
 5225SOL    HW127308   1.990   4.214   5.793 -0.1378  1.6923 -0.8323
 5225SOL    HW227309   1.977   4.209   5.935 -0.5606 -1.1299 -0.0519
 5226SOL     OW27310   3.481   3.265   4.348 -0.2502 -0.3027 -0.2319
 5226SOL    HW127311   3.551   3.264   4.283 -1.3531 -2.5831 -1.3697
 5226SOL    HW227312   3.523   3.319   4.415  1.1767  0.1310 -1.5010
 5227SOL     OW27313   0.832   2.875   5.942 -0.0995  0.4455  0.1796
 5227SOL    HW127314   0.850   2.969   5.937 -0.9552  0.5932 -0.0449
 5227SOL    HW227315   0.916   2.839   5.972  0.4158  1.5994  0.1317
 5228SOL     OW27316   2.738   4.414   1.868  0.0285  0.1389 -0.3017
 5228SOL    HW127317   2.697   4.379   1.789  1.5313 -2.4236  0.0738
 5228SOL    HW227318   2.671   4.473   1.903  1.3558  1.4833 -0.0412
 5229SOL     OW27319   1.440   1.480  11.595  0.0814 -0.2165 -0.8158
 5229SOL    HW127320   1.500   1.511  11.662 -3.1148 -2.8032  3.2446
 5229SOL    HW227321   1.455   1.386  11.597  1.9119  0.1827  2.5785
 5230SOL     OW27322   0.068   2.565   2.976  0.1458 -0.7715 -0.0141
 5230SOL    HW127323   0.082   2.577   2.883 -3.0950 -0.3562 -0.4621
 5230SOL    HW227324   0.141   2.511   3.003  0.3233  0.7229  2.5286
 5231SOL     OW27325   3.959   1.791   1.736 -0.6791  0.5184 -0.1025
 5231SOL    HW127326   3.871   1.801   1.773 -0.8531 -2.9645  0.4938
 5231SOL    HW227327   4.010   1.826   1.808  0.3953  0.4612 -0.8374
 5232SOL     OW27328   1.068   1.494  17.458 -0.5248 -0.3323 -0.5562
 5232SOL    HW127329   1.003   1.429  17.431 -0.6626  0.9344 -3.2274
 5232SOL    HW227330   1.016   1.528  17.531  0.1687  0.9495 -0.6650
 5233SOL     OW27331   2.778   1.093  10.270  0.2908  0.2870  0.3069
 5233SOL    HW127332   2.734   1.168  10.230 -0.4299  0.2463  1.0224
 5233SOL    HW227333   2.861   1.139  10.282  0.1363  0.3318  1.2368
 5234SOL     OW27334   4.136   3.633   7.376 -0.2247 -0.6050 -0.4929
 5234SOL    HW127335   4.062   3.688   7.402  0.6760  1.7227 -2.8426
 5234SOL    HW227336   4.139   3.573   7.451 -1.1351 -1.7136 -1.3610
 5235SOL     OW27337   1.144   2.535   7.839 -0.3153  0.0064  0.2764
 5235SOL    HW127338   1.068   2.532   7.782  0.1077  0.1200 -0.2973
 5235SOL    HW227339   1.189   2.464   7.794  3.1052  3.7291 -2.2430
 5236SOL     OW27340   1.139   4.661   7.194  0.4692 -0.1222 -0.2998
 5236SOL    HW127341   1.115   4.598   7.263 -1.0516 -1.2999 -1.9115
 5236SOL    HW227342   1.138   4.594   7.126  0.2799 -0.4371  0.0066
 5237SOL     OW27343   3.823   0.647   7.693 -0.0634  0.2441 -0.5359
 5237SOL    HW127344   3.809   0.638   7.599  4.0852  2.6296 -1.3558
 5237SOL    HW227345   3.740   0.687   7.721 -0.1128 -1.4559  1.7954
 5238SOL     OW27346   2.881   1.679   8.771 -0.0691  0.1856  0.4645
 5238SOL    HW127347   2.901   1.757   8.823 -2.5351  0.0932  1.5270
 5238SOL    HW227348   2.937   1.704   8.697  0.1261  0.7850  0.8149
 5239SOL     OW27349   2.480   4.271  14.216  0.1352 -0.2199 -0.0941
 5239SOL    HW127350   2.468   4.346  14.157  0.2444 -1.3340 -1.5387
 5239SOL    HW227351   2.440   4.200  14.166  0.6298 -2.1594  2.2794
 5240SOL     OW27352   0.730   1.722  14.553  0.0950  0.5699  0.2099
 5240SOL    HW127353   0.705   1.810  14.579  1.5045  0.2374  2.5882
 5240SOL    HW227354   0.673   1.718  14.475 -0.4096 -2.0317  0.7073
 5241SOL     OW27355   1.053   3.689   6.796 -0.3105  0.1144 -0.2274
 5241SOL    HW127356   1.008   3.605   6.800  1.3968 -0.8148 -0.1613
 5241SOL    HW227357   0.985   3.756   6.801 -0.3184  0.0725  0.2727
 5242SOL     OW27358   2.904   4.419   2.358  0.2860 -0.1871 -0.1327
 5242SOL    HW127359   2.829   4.450   2.307  1.3038 -0.5576 -1.8726
 5242SOL    HW227360   2.851   4.372   2.423 -0.1923  1.4569  0.6527
 5243SOL     OW27361   2.053   0.130   6.756 -0.0141  0.0851  0.4309
 5243SOL    HW127362   1.979   0.106   6.702  0.7662 -0.1400 -0.5340
 5243SOL    HW227363   2.133   0.093   6.719 -0.6351  0.3069 -1.0996
 5244SOL     OW27364   0.087   0.821   1.829  0.3810 -0.2509  0.4398
 5244SOL    HW127365   0.133   0.797   1.748  0.6783  0.9086  0.2681
 5244SOL    HW227366   0.139   0.779   1.898 -1.9968 -1.3076  1.5589
 5245SOL     OW27367   2.055   1.680   1.328  0.3377 -0.1120 -0.2766
 5245SOL    HW127368   2.080   1.671   1.420 -1.1055 -0.4192  0.0915
 5245SOL    HW227369   2.038   1.587   1.314 -0.4955 -0.0510  0.3339
 5246SOL     OW27370   2.879   3.113   8.871  0.2982  0.0871 -0.1342
 5246SOL    HW127371   2.788   3.091   8.893 -0.6971  0.5973 -3.6916
 5246SOL    HW227372   2.893   3.162   8.952 -0.9796 -0.4392  0.4057
 5247SOL     OW27373   1.885   0.186   3.213 -0.1293 -0.1808  0.1223
 5247SOL    HW127374   1.798   0.181   3.253 -0.3302 -0.0520 -0.2991
 5247SOL    HW227375   1.883   0.136   3.132 -1.7043  0.1743 -0.0746
 5248SOL     OW27376   3.263   3.014   3.297 -0.1102  0.0776 -0.4265
 5248SOL    HW127377   3.272   3.109   3.298  2.6952 -0.1896  1.2571
 5248SOL    HW227378   3.181   3.002   3.343 -1.3128  1.9701 -2.1113
 5249SOL     OW27379   2.172   3.758   9.305  0.2693  0.5773 -0.0304
 5249SOL    HW127380   2.105   3.791   9.245 -0.6525  2.1697  1.8645
 5249SOL    HW227381   2.242   3.816   9.275  1.2060 -1.0358 -0.9330
 5250SOL     OW27382   2.589   2.487  14.357  0.0929  0.0797  0.3258
 5250SOL    HW127383   2.636   2.424  14.412  1.1520  0.7991  0.2580
 5250SOL    HW227384   2.654   2.534  14.305 -0.5271  0.4059 -0.1563
 5251SOL     OW27385   0.258   1.977   2.784  0.5096 -0.4218  0.1939
 5251SOL    HW127386   0.168   1.949   2.801  0.7660  0.7658  3.4920
 5251SOL    HW227387   0.235   2.043   2.719  1.2076  0.1542  0.5336
 5252SOL     OW27388   1.588   0.529   7.614 -0.2618  0.1754  0.2416
 5252SOL    HW127389   1.593   0.527   7.710 -0.3194 -0.2410  0.2333
 5252SOL    HW227390   1.539   0.449   7.596  0.4968  0.2471 -2.1375
 5253SOL     OW27391   2.098   0.190   9.956  0.0757 -0.2758 -0.7957
 5253SOL    HW127392   2.123   0.282   9.959 -0.5932 -0.2061  2.8254
 5253SOL    HW227393   2.101   0.164  10.048 -0.1218 -0.4024 -0.8246
 5254SOL     OW27394   4.020   1.621  11.615 -0.1203  0.0304  0.7376
 5254SOL    HW127395   4.027   1.703  11.566  0.4513 -0.2547  0.3394
 5254SOL    HW227396   4.096   1.619  11.673  1.4094 -1.3114 -1.2828
 5255SOL     OW27397   2.410   3.427   6.275  0.1081  0.3259 -0.6154
 5255SOL    HW127398   2.327   3.437   6.321  0.7846  1.9218  0.2662
 5255SOL    HW227399   2.451   3.514   6.274  0.2141  0.2892  2.6144
 5256SOL     OW27400   0.149   1.940   6.803 -0.1736 -0.3616 -0.0933
 5256SOL    HW127401   0.237   1.955   6.835 -0.0574  0.3855 -0.7489
 5256SOL    HW227402   0.134   1.850   6.831 -2.8333 -0.2503 -1.1436
 5257SOL     OW27403   1.657   4.195   7.430 -0.5895  0.5851 -0.3275
 5257SOL    HW127404   1.744   4.180   7.393 -0.1037 -0.0970  1.1233
 5257SOL    HW227405   1.656   4.291   7.423 -0.4428  0.6440  0.5104
 5258SOL     OW27406   0.336   4.250   4.598  0.1348  0.6093 -0.1448
 5258SOL    HW127407   0.425   4.271   4.628  0.8929  0.4967 -2.2865
 5258SOL    HW227408   0.323   4.303   4.519  0.0984 -0.1439 -0.6406
 5259SOL     OW27409   3.277   0.888   8.481 -0.0922 -0.2109  0.4715
 5259SOL    HW127410   3.307   0.963   8.532 -1.3245  0.2904  0.4702
 5259SOL    HW227411   3.254   0.836   8.559  1.7606 -1.0570  0.4558
 5260SOL     OW27412   4.334   0.187   2.436 -0.6796  0.2166  0.1923
 5260SOL    HW127413   4.242   0.204   2.414 -0.7417 -0.6777 -0.2245
 5260SOL    HW227414   4.356   0.265   2.488  0.9450  0.5059 -0.9407
 5261SOL     OW27415   4.047   0.669  10.381 -0.0864 -0.1708  0.2042
 5261SOL    HW127416   4.142   0.676  10.366  0.2002 -0.4203  1.8894
 5261SOL    HW227417   4.024   0.619  10.302  2.3994  0.9583 -1.2621
 5262SOL     OW27418   2.819   3.538   6.802 -0.1144 -0.0201  0.5923
 5262SOL    HW127419   2.724   3.547   6.800 -0.0928  0.3737  1.4765
 5262SOL    HW227420   2.827   3.468   6.738  1.6515 -0.7881  1.6627
 5263SOL     OW27421   2.049   0.113   0.432  0.2367  0.0452 -0.4857
 5263SOL    HW127422   2.043   0.044   0.498 -0.4930 -1.3618 -2.0264
 5263SOL    HW227423   2.043   0.194   0.483 -0.9409  0.3573 -1.1293
 5264SOL     OW27424   1.059   3.474   8.658  0.1880 -0.2361 -0.1768
 5264SOL    HW127425   1.036   3.457   8.567  1.8196  1.5051 -0.9142
 5264SOL    HW227426   1.100   3.561   8.655  0.8510 -0.5163  1.0123
 5265SOL     OW27427   2.809   0.739  11.151  0.2703  0.0787  0.2018
 5265SOL    HW127428   2.771   0.808  11.098  0.4479 -0.7694 -1.0352
 5265SOL    HW227429   2.893   0.774  11.182  0.2109 -0.3891  0.9043
 5266SOL     OW27430   1.136   0.546   7.567  0.1526  0.4815  0.3209
 5266SOL    HW127431   1.204   0.535   7.500 -0.0700  1.3721 -0.0430
 5266SOL    HW227432   1.071   0.486   7.531  1.8470 -1.4441  0.4227
 5267SOL     OW27433   1.819   0.221  10.029 -0.1181  0.0640  0.0195
 5267SOL    HW127434   1.825   0.316  10.026  1.9642 -0.0869 -1.1235
 5267SOL    HW227435   1.896   0.186   9.982  0.0734  0.2172  0.2195
 5268SOL     OW27436   0.915   0.090   2.647 -0.3903  0.1478 -0.1172
 5268SOL    HW127437   0.964   0.123   2.572  1.5376 -0.5903  0.8123
 5268SOL    HW227438   0.870   0.167   2.681 -0.1618 -0.9634  2.6808
 5269SOL     OW27439   3.037   0.255   3.108 -0.0924  0.2052 -0.1967
 5269SOL    HW127440   3.090   0.277   3.185 -1.6105  2.2004  0.2550
 5269SOL    HW227441   3.100   0.199   3.062 -0.2221 -0.9968  1.0850
 5270SOL     OW27442   1.329   0.966  12.553  0.3751  0.3475 -0.3422
 5270SOL    HW127443   1.334   0.881  12.597  0.0748  0.8786  0.7256
 5270SOL    HW227444   1.409   1.006  12.588 -1.3891  2.3758  1.3941
 5271SOL     OW27445   1.026   0.128   6.876 -0.0638  0.0877  0.0370
 5271SOL    HW127446   1.047   0.067   6.805  0.1618 -1.1436  1.1502
 5271SOL    HW227447   1.112   0.147   6.912 -0.9022 -0.4669  2.3222
 5272SOL     OW27448   2.034   3.917   6.995  0.3322  0.4135  0.7640
 5272SOL    HW127449   2.124   3.936   6.971  0.2892 -1.7250 -1.0734
 5272SOL    HW227450   2.041   3.841   7.053 -1.0226 -1.5160 -1.5942
 5273SOL     OW27451   2.213   4.229   7.050 -0.5632 -0.3056 -0.3794
 5273SOL    HW127452   2.127   4.223   7.007  0.0487 -0.0071 -1.6688
 5273SOL    HW227453   2.195   4.298   7.113 -1.8761 -0.2754 -0.7824
 5274SOL     OW27454   2.916   0.149  15.236 -0.1343  0.0619 -0.0011
 5274SOL    HW127455   2.973   0.115  15.305  0.5254  0.2550 -0.4576
 5274SOL    HW227456   2.956   0.111  15.158 -1.8370 -2.2399  0.2456
 5275SOL     OW27457   4.007   3.056  10.917  0.3022  0.0958  0.2927
 5275SOL    HW127458   3.965   2.971  10.931 -1.5072  0.8939 -0.2127
 5275SOL    HW227459   3.964   3.085  10.837  0.9023 -2.3954 -0.9431
 5276SOL     OW27460   3.161   1.240   7.500  0.1261  0.0877 -0.2639
 5276SOL    HW127461   3.086   1.233   7.441 -0.0760 -0.0912  0.0172
 5276SOL    HW227462   3.199   1.153   7.490  1.5778  0.4847  1.9150
 5277SOL     OW27463   2.732   2.943   1.491 -0.2105 -0.4722 -0.3949
 5277SOL    HW127464   2.781   2.953   1.410  0.2936  2.1404  0.2414
 5277SOL    HW227465   2.798   2.904   1.547 -0.3530  0.3624  0.3462
 5278SOL     OW27466   4.053   1.643   9.159  0.5123  1.0092 -0.3415
 5278SOL    HW127467   4.129   1.631   9.216  0.7337 -1.5414 -1.1608
 5278SOL    HW227468   4.055   1.562   9.107 -0.9116  1.1209 -0.5550
 5279SOL     OW27469   4.037   2.070   1.577  0.0065  1.0339  0.7039
 5279SOL    HW127470   4.100   2.114   1.521  0.1730 -1.2261 -0.9140
 5279SOL    HW227471   4.052   2.090   1.669  0.7039  2.7597  0.2190
 5280SOL     OW27472   4.103   4.604  10.468  0.0281 -0.0103 -0.1163
 5280SOL    HW127473   4.025   4.570  10.425 -0.1913 -0.1861  0.4220
 5280SOL    HW227474   4.113   4.539  10.538 -0.7471  0.2378  0.2247
 5281SOL     OW27475   4.435   4.168   2.418 -0.2756 -0.4636  0.6881
 5281SOL    HW127476   4.388   4.194   2.496  1.9379  0.8380  1.5892
 5281SOL    HW227477   4.466   4.254   2.392  0.0598 -1.4022 -2.1081
 5282SOL     OW27478   2.655   0.019  14.241 -0.4146 -0.3801 -0.3694
 5282SOL    HW127479   2.634   4.660  14.261 -3.3955  0.1430 -1.0943
 5282SOL    HW227480   2.749   0.010  14.225 -0.1462  0.4806  0.7169
 5283SOL     OW27481   0.046   1.007   1.456  0.0179  0.3664 -1.2109
 5283SOL    HW127482   0.107   1.041   1.521 -1.4059 -1.8830  1.3016
 5283SOL    HW227483   0.104   0.950   1.404 -0.1731 -1.8154  0.9714
 5284SOL     OW27484   4.579   2.835   4.273 -0.2482  0.4774 -0.0049
 5284SOL    HW127485   4.569   2.749   4.232 -2.7429  0.4429  0.6847
 5284SOL    HW227486   4.492   2.849   4.310 -0.2541  0.2752  0.0595
 5285SOL     OW27487   0.440   0.636   1.419 -0.3991 -0.0996  0.1868
 5285SOL    HW127488   0.410   0.577   1.351  0.6081 -0.8874  0.4186
 5285SOL    HW227489   0.480   0.588   1.492 -0.5252 -2.3535 -1.2323
 5286SOL     OW27490   3.568   3.283   2.989  0.0458 -0.7362  0.3033
 5286SOL    HW127491   3.611   3.198   2.976  0.4945 -0.6137  0.9551
 5286SOL    HW227492   3.544   3.269   3.081  2.0547 -0.6022  0.8576
 5287SOL     OW27493   4.073   3.039   4.440  0.3890  0.0076  0.4123
 5287SOL    HW127494   3.989   2.995   4.430  0.1497  0.7502 -0.7694
 5287SOL    HW227495   4.046   3.124   4.476 -2.6620 -0.3946 -0.9139
 5288SOL     OW27496   0.493   0.116   0.089 -0.2317  0.6937 -0.5992
 5288SOL    HW127497   0.565   0.149   0.036  1.0711 -0.4463  0.4679
 5288SOL    HW227498   0.535   0.137   0.173  0.0314 -2.5453  0.0940
 5289SOL     OW27499   2.216   2.991   4.873 -0.1274 -0.1242 -0.1138
 5289SOL    HW127500   2.166   3.061   4.831 -1.5819 -1.5862 -0.8201
 5289SOL    HW227501   2.148   2.925   4.864  0.9704 -1.2210 -0.2336
 5290SOL     OW27502   3.871   3.109  16.577 -0.1604  0.2151  0.0146
 5290SOL    HW127503   3.954   3.151  16.601 -0.2633  0.5777 -0.2527
 5290SOL    HW227504   3.849   3.169  16.506 -0.2883  0.4076  0.2161
 5291SOL     OW27505   1.750   4.467   8.839  0.0043 -0.0018  0.2940
 5291SOL    HW127506   1.769   4.548   8.791 -0.7300 -0.3454 -0.5896
 5291SOL    HW227507   1.663   4.497   8.864  0.4028  1.8823 -0.5591
 5292SOL     OW27508   4.618   3.835   4.452 -0.5022 -0.4021  0.8154
 5292SOL    HW127509   4.683   3.882   4.399  0.6703 -1.8630  0.9594
 5292SOL    HW227510   4.570   3.904   4.498 -1.3067 -0.6740  0.3811
 5293SOL     OW27511   3.218   2.355   6.180  0.0023 -0.1883  0.3025
 5293SOL    HW127512   3.251   2.310   6.257 -0.7943 -1.4551 -0.0937
 5293SOL    HW227513   3.233   2.445   6.209 -1.3717 -0.7583  2.7614
 5294SOL     OW27514   1.238   3.904   6.055  0.2044  0.7602  0.6077
 5294SOL    HW127515   1.224   3.835   6.119 -1.1892 -2.2954 -2.9692
 5294SOL    HW227516   1.331   3.896   6.033 -0.8533 -1.9212 -2.8125
 5295SOL     OW27517   0.325   0.258  14.903 -0.6542 -0.3012 -0.1044
 5295SOL    HW127518   0.252   0.219  14.951 -0.6437 -1.9464 -1.4607
 5295SOL    HW227519   0.379   0.186  14.873 -1.0078 -0.4135 -0.4665
 5296SOL     OW27520   0.777   0.624   4.602 -0.1174 -0.2259  0.0872
 5296SOL    HW127521   0.810   0.537   4.581 -0.4074 -0.4914  0.7194
 5296SOL    HW227522   0.760   0.635   4.695  1.5143  1.9408  0.1084
 5297SOL     OW27523   2.155   2.422  11.583  0.0102  0.2458  0.4666
 5297SOL    HW127524   2.096   2.457  11.650  1.1523 -0.5814  1.9184
 5297SOL    HW227525   2.096   2.418  11.508  1.1330  2.1784 -0.5119
 5298SOL     OW27526   3.068   2.972  13.451  0.3885  0.0206  0.0960
 5298SOL    HW127527   3.160   2.996  13.450  0.0672  1.2599  1.9116
 5298SOL    HW227528   3.069   2.912  13.525  0.8980  1.6792  1.4082
 5299SOL     OW27529   2.220   1.724   1.825  0.0231  0.1851 -0.5542
 5299SOL    HW127530   2.199   1.665   1.753  1.5947  0.7662 -1.5029
 5299SOL    HW227531   2.131   1.739   1.855  0.7468 -1.5244  2.4028
 5300SOL     OW27532   2.313   2.983   6.739  0.9226 -0.4766  0.1489
 5300SOL    HW127533   2.298   2.915   6.673  0.0511 -0.4650  0.3336
 5300SOL    HW227534   2.383   2.940   6.788  1.0331 -0.8364 -0.3220
 5301SOL     OW27535   3.282   2.817   7.017 -0.4417  0.2639  0.1092
 5301SOL    HW127536   3.258   2.909   7.005  1.7856  0.9878  1.1964
 5301SOL    HW227537   3.215   2.778   6.960 -0.5300  2.7407 -1.4666
 5302SOL     OW27538   4.199   2.838   2.481 -0.1923 -0.2941  0.1861
 5302SOL    HW127539   4.290   2.825   2.509  0.0245 -0.4635 -0.6102
 5302SOL    HW227540   4.158   2.792   2.555 -1.4896 -2.0609 -1.6174
 5303SOL     OW27541   3.296   1.714  12.132  0.0376  0.0144  0.0295
 5303SOL    HW127542   3.378   1.764  12.127  0.1158  0.2419  3.5445
 5303SOL    HW227543   3.262   1.722  12.043  0.0455  1.6163  0.1760
 5304SOL     OW27544   0.295   0.598   5.719  1.3776 -0.2106 -0.5501
 5304SOL    HW127545   0.378   0.627   5.756  0.5508  0.0594  1.1141
 5304SOL    HW227546   0.332   0.528   5.665  0.2221 -0.0355 -1.5718
 5305SOL     OW27547   3.707   4.538   2.866  0.1207  0.2667 -0.0599
 5305SOL    HW127548   3.795   4.561   2.894  0.7376 -1.3711 -0.6761
 5305SOL    HW227549   3.709   4.443   2.852  3.3895 -0.0574  2.6460
 5306SOL     OW27550   2.297   4.323   6.221 -0.4004 -0.8779  0.1131
 5306SOL    HW127551   2.361   4.369   6.166  1.1560  0.5146  3.0831
 5306SOL    HW227552   2.313   4.389   6.288  0.7344 -0.9766 -0.0571
 5307SOL     OW27553   2.813   4.253   2.583 -0.2238  0.0642  0.0295
 5307SOL    HW127554   2.784   4.205   2.661 -1.1282  0.2352 -0.2001
 5307SOL    HW227555   2.905   4.250   2.610 -0.1866 -3.9770 -0.4687
 5308SOL     OW27556   3.155   4.483   1.642  0.3935 -0.4325  0.1579
 5308SOL    HW127557   3.160   4.389   1.626 -0.5014 -0.3391 -0.6548
 5308SOL    HW227558   3.090   4.485   1.712  1.6066 -0.3982  1.2915
 5309SOL     OW27559   4.280   1.441   4.082 -0.1770  0.4875  0.2474
 5309SOL    HW127560   4.185   1.434   4.078 -0.0691 -1.2815  0.7880
 5309SOL    HW227561   4.298   1.420   3.991 -2.9249 -1.5922  0.1798
 5310SOL     OW27562   3.449   2.806   6.601 -0.3351  0.1659  0.0688
 5310SOL    HW127563   3.492   2.776   6.521 -0.1284 -1.1219  0.6644
 5310SOL    HW227564   3.490   2.741   6.657 -0.2742 -2.4866 -3.0352
 5311SOL     OW27565   3.132   2.101   4.246  0.4046 -0.3233 -0.3289
 5311SOL    HW127566   3.085   2.027   4.208 -1.8214  1.7231 -1.6009
 5311SOL    HW227567   3.060   2.165   4.240  1.2159  0.5635 -0.5769
 5312SOL     OW27568   1.514   0.919   3.060 -0.0747  0.1636  0.2101
 5312SOL    HW127569   1.549   0.951   3.143 -1.7459 -0.6582  1.2447
 5312SOL    HW227570   1.421   0.930   3.079 -0.7380 -2.1355 -1.7138
 5313SOL     OW27571   3.775   1.768   3.207 -0.0999  0.8235 -0.6315
 5313SOL    HW127572   3.856   1.788   3.254 -0.6087  1.5976 -0.0871
 5313SOL    HW227573   3.716   1.795   3.278 -1.8373  1.7100 -2.4148
 5314SOL     OW27574   1.120   4.241   8.249 -0.1096 -0.1261  0.5356
 5314SOL    HW127575   1.052   4.197   8.199 -0.3257  0.9988 -0.1731
 5314SOL    HW227576   1.076   4.321   8.279  2.0439  1.0256  0.6598
 5315SOL     OW27577   0.041   2.256   7.155  0.3276 -0.3216  0.2271
 5315SOL    HW127578   0.068   2.167   7.178 -0.9536 -0.6278  0.5624
 5315SOL    HW227579   0.097   2.285   7.084 -1.3115  0.3885 -0.7879
 5316SOL     OW27580   0.358   4.155   6.761 -1.0649 -0.0532  0.0328
 5316SOL    HW127581   0.436   4.211   6.761 -0.1798 -1.3105  0.4147
 5316SOL    HW227582   0.345   4.140   6.855 -0.1972  2.4669  0.5663
 5317SOL     OW27583   3.125   2.455  13.983  0.2791 -0.1580  0.4348
 5317SOL    HW127584   3.055   2.474  14.045  1.1312 -1.8005  1.9091
 5317SOL    HW227585   3.163   2.380  14.029  0.3422 -1.0960 -1.1560
 5318SOL     OW27586   4.118   2.010   8.384  0.1075  0.1025 -0.2434
 5318SOL    HW127587   4.139   2.095   8.346  1.1808  0.0140  0.1382
 5318SOL    HW227588   4.031   1.996   8.347  0.4826 -1.7039 -0.4779
 5319SOL     OW27589   2.323   4.499  16.710 -0.2173 -0.1691  1.0185
 5319SOL    HW127590   2.385   4.477  16.640 -1.2621 -0.3576  0.1495
 5319SOL    HW227591   2.271   4.419  16.706 -1.1021  0.4640 -0.3611
 5320SOL     OW27592   4.430   1.142   1.774 -0.0722  0.3433  0.1366
 5320SOL    HW127593   4.420   1.229   1.813 -2.2588  0.5840 -0.9894
 5320SOL    HW227594   4.500   1.161   1.712  0.3405  0.5894  0.6713
 5321SOL     OW27595   1.146   1.552   1.112  0.2768 -0.2250 -0.9045
 5321SOL    HW127596   1.119   1.564   1.020 -1.1121  0.8109 -0.3645
 5321SOL    HW227597   1.126   1.459   1.121  1.1625 -0.1343  1.7588
 5322SOL     OW27598   4.557   3.117   3.767 -0.2409 -0.2688  0.1827
 5322SOL    HW127599   4.476   3.089   3.724 -1.7288  1.1006  2.0535
 5322SOL    HW227600   4.537   3.068   3.847 -0.3099 -1.9191 -0.8527
 5323SOL     OW27601   1.197   4.702   4.061  0.1638  0.2068 -0.0455
 5323SOL    HW127602   1.156   4.675   4.143  0.0996 -3.4303 -1.2629
 5323SOL    HW227603   1.123   4.670   4.008 -0.1596  0.2231  0.3908
 5324SOL     OW27604   0.085   1.147   6.411  0.0528 -0.4672 -0.1273
 5324SOL    HW127605   0.064   1.061   6.375 -2.2186  0.1260 -0.2354
 5324SOL    HW227606   0.131   1.129   6.492 -0.1947 -0.1294  0.0889
 5325SOL     OW27607   1.105   0.461   1.896 -0.1168  0.4277  0.2433
 5325SOL    HW127608   1.193   0.486   1.922  0.0680  0.9825 -0.9028
 5325SOL    HW227609   1.119   0.367   1.896 -0.0902  0.4299 -0.6644
 5326SOL     OW27610   0.575   3.752   5.488 -0.5160 -0.4497  0.0575
 5326SOL    HW127611   0.605   3.837   5.520 -0.6386 -1.6096  3.1616
 5326SOL    HW227612   0.492   3.776   5.445 -1.3889 -1.5803  1.1116
 5327SOL     OW27613   3.062   4.339   7.462  0.7273  0.3267  0.2301
 5327SOL    HW127614   3.007   4.412   7.493 -1.1022 -0.9764  0.0698
 5327SOL    HW227615   3.067   4.283   7.540  0.2588  1.3326  0.9880
 5328SOL     OW27616   0.062   2.298  11.313 -0.0783  0.3617 -0.1112
 5328SOL    HW127617   0.116   2.249  11.374  1.0005  1.1103 -0.4500
 5328SOL    HW227618   0.126   2.345  11.258  0.1447 -1.6822 -1.5985
 5329SOL     OW27619   0.709   4.509   2.575 -0.3363  0.0589 -0.0103
 5329SOL    HW127620   0.683   4.539   2.488  0.8263  1.5279  0.1556
 5329SOL    HW227621   0.659   4.427   2.577  0.7736 -0.6128  0.6081
 5330SOL     OW27622   3.844   0.405   7.865  0.3672  0.3417  0.1228
 5330SOL    HW127623   3.842   0.491   7.822  2.7392  0.0744 -0.5327
 5330SOL    HW227624   3.750   0.388   7.853  0.8054 -0.1086 -2.5031
 5331SOL     OW27625   4.304   1.500   4.558  0.1317 -0.1620  0.2596
 5331SOL    HW127626   4.223   1.502   4.508  0.8311 -2.0567 -0.9635
 5331SOL    HW227627   4.304   1.411   4.595 -1.1866 -0.3372 -0.1781
 5332SOL     OW27628   2.719   0.180   7.215  0.2596  0.0539  0.9618
 5332SOL    HW127629   2.758   0.167   7.128 -0.5160 -1.7779  0.8929
 5332SOL    HW227630   2.626   0.186   7.192  0.9215  3.0528 -0.9706
 5333SOL     OW27631   2.672   0.740   8.860 -0.6765 -0.0839 -0.1051
 5333SOL    HW127632   2.691   0.715   8.951 -2.6083 -0.1029  0.2780
 5333SOL    HW227633   2.753   0.786   8.838 -0.5100 -0.5166 -0.4012
 5334SOL     OW27634   3.236   0.883   9.684 -0.5390 -0.0499  0.0094
 5334SOL    HW127635   3.270   0.805   9.728 -0.2639  0.7440  1.1940
 5334SOL    HW227636   3.264   0.953   9.742  0.6113  0.7823 -1.5299
 5335SOL     OW27637   0.008   2.244   9.097 -0.1732 -0.4066 -0.0350
 5335SOL    HW127638   0.013   2.339   9.099 -0.1836 -0.3769 -2.1773
 5335SOL    HW227639   4.677   2.235   9.025 -2.0477 -0.1111  1.5627
 5336SOL     OW27640   1.625   2.879  13.524 -0.7452  0.1125 -0.3832
 5336SOL    HW127641   1.617   2.785  13.510 -0.7445 -0.0455  0.6426
 5336SOL    HW227642   1.532   2.901  13.511 -0.8634 -1.0625 -1.4998
 5337SOL     OW27643   3.767   3.518   9.125  0.1199 -0.3070  0.5351
 5337SOL    HW127644   3.775   3.508   9.030  2.9386 -1.3409  0.9096
 5337SOL    HW227645   3.678   3.483   9.134 -0.3384  0.5187 -0.6433
 5338SOL     OW27646   2.026   2.137  16.318  0.7479  0.0096 -0.4086
 5338SOL    HW127647   2.057   2.051  16.344 -0.1607 -0.4702 -0.9031
 5338SOL    HW227648   1.940   2.119  16.279  1.5133 -1.3052 -1.4938
 5339SOL     OW27649   1.709   2.092  11.927  0.2293 -0.0764 -0.1033
 5339SOL    HW127650   1.796   2.132  11.931 -0.1330  0.9119 -1.9745
 5339SOL    HW227651   1.666   2.149  11.864  1.3493  0.3312 -0.4908
 5340SOL     OW27652   0.955   0.186   2.381 -0.5811 -0.2118 -0.6234
 5340SOL    HW127653   0.891   0.240   2.335 -0.1684  0.5323 -0.3198
 5340SOL    HW227654   0.936   0.106   2.332  1.7617 -0.6890 -0.7661
 5341SOL     OW27655   0.535   0.444   9.474 -0.0908 -0.2228 -0.3679
 5341SOL    HW127656   0.535   0.495   9.393 -1.0316  1.3848  0.6309
 5341SOL    HW227657   0.468   0.491   9.525 -0.9388 -2.5004  0.6073
 5342SOL     OW27658   4.090   4.567   9.691 -0.4535  0.0090 -0.2694
 5342SOL    HW127659   4.126   4.611   9.768 -1.0246  1.4140 -0.7958
 5342SOL    HW227660   4.064   4.478   9.717 -0.0720 -0.0275 -0.0228
 5343SOL     OW27661   2.939   1.549   3.639 -0.1904 -0.6661 -0.2818
 5343SOL    HW127662   3.020   1.534   3.590  0.7571  0.0860  1.0357
 5343SOL    HW227663   2.891   1.471   3.610 -1.7918  0.3031 -0.2167
 5344SOL     OW27664   2.554   0.012   7.687  0.0630 -0.4546 -0.3088
 5344SOL    HW127665   2.595   4.728   7.602  0.4353  0.0011 -0.2131
 5344SOL    HW227666   2.482   4.681   7.680  0.4583 -0.6916 -2.3377
 5345SOL     OW27667   3.281   0.129  16.737 -0.4763 -0.3336  0.1188
 5345SOL    HW127668   3.205   0.076  16.715 -0.5189 -1.0712  2.1130
 5345SOL    HW227669   3.344   0.057  16.730 -1.4673 -1.1446 -0.3953
 5346SOL     OW27670   4.716   0.477   4.260 -0.0108 -0.0302 -0.8109
 5346SOL    HW127671   4.714   0.562   4.215 -0.0887 -0.2104 -1.1456
 5346SOL    HW227672   4.628   0.449   4.236 -0.9587  0.1997  2.3953
 5347SOL     OW27673   3.726   3.582   3.310 -0.0510  0.2164 -0.3935
 5347SOL    HW127674   3.754   3.581   3.401 -0.0551 -0.8974 -0.4023
 5347SOL    HW227675   3.737   3.491   3.282 -1.4763  0.0424 -0.3957
 5348SOL     OW27676   0.904   2.071  11.809  0.2397  0.2199 -0.6604
 5348SOL    HW127677   0.934   2.160  11.824 -0.6968  0.7720 -2.0868
 5348SOL    HW227678   0.857   2.060  11.891  1.0770  4.3151  0.3791
 5349SOL     OW27679   0.452   0.825   5.464 -0.3116 -0.1808 -0.2730
 5349SOL    HW127680   0.445   0.731   5.446 -0.0712 -0.5374  1.4287
 5349SOL    HW227681   0.405   0.832   5.548  0.8664 -3.1817  0.6366
 5350SOL     OW27682   3.726   1.150   4.111 -0.6188  0.3266  0.3767
 5350SOL    HW127683   3.699   1.109   4.193 -0.8268  0.8440  0.5616
 5350SOL    HW227684   3.800   1.204   4.138  0.6637 -1.2550  0.0129
 5351SOL     OW27685   4.523   3.975   1.812 -0.2764  0.0194 -0.5511
 5351SOL    HW127686   4.445   4.011   1.855  2.3776  1.4549  2.9719
 5351SOL    HW227687   4.512   4.010   1.724  1.2423 -0.3494 -0.8778
 5352SOL     OW27688   2.938   2.096  17.498 -0.5205  0.6461 -0.0374
 5352SOL    HW127689   3.008   2.148  17.539  0.3341  0.5790 -1.4160
 5352SOL    HW227690   2.901   2.053  17.575  1.8921 -0.6981  0.3897
 5353SOL     OW27691   1.773   0.797  11.651  0.0643  0.1003  0.4171
 5353SOL    HW127692   1.794   0.882  11.614 -0.6610  0.0782 -0.0329
 5353SOL    HW227693   1.714   0.763  11.584 -1.2102  0.9633  1.1094
 5354SOL     OW27694   2.777   0.855   6.782 -0.2917 -0.3029 -0.0935
 5354SOL    HW127695   2.695   0.900   6.800 -0.7548 -1.3551  0.4691
 5354SOL    HW227696   2.807   0.827   6.869 -0.0187 -0.4431 -0.2306
 5355SOL     OW27697   0.104   1.786   5.135  0.4133 -0.1917 -0.3899
 5355SOL    HW127698   0.184   1.735   5.147 -1.5773 -3.7583 -2.2300
 5355SOL    HW227699   0.132   1.878   5.135  0.5254 -0.2367  0.6032
 5356SOL     OW27700   0.320   4.109   6.099  0.6825  0.0813 -0.3488
 5356SOL    HW127701   0.414   4.118   6.108  0.7557  0.0122 -1.0618
 5356SOL    HW227702   0.305   4.029   6.048  0.2719 -0.8420  1.2104
 5357SOL     OW27703   0.847   1.058   4.320 -0.1505  0.1965  0.3187
 5357SOL    HW127704   0.821   0.971   4.290 -2.2745  0.5813  1.0692
 5357SOL    HW227705   0.924   1.056   4.263 -0.8583  0.1193 -0.6347
 5358SOL     OW27706   3.361   1.632   6.598  0.1908  0.0514 -0.4682
 5358SOL    HW127707   3.444   1.633   6.549  0.5294  0.6665  0.1183
 5358SOL    HW227708   3.391   1.694   6.664 -0.5889 -1.2892  1.1522
 5359SOL     OW27709   2.135   2.252   8.018 -0.1465 -0.1356 -0.1212
 5359SOL    HW127710   2.207   2.314   8.006  0.0284 -0.5454 -1.2046
 5359SOL    HW227711   2.175   2.192   8.080 -1.7809  0.0303  1.1045
 5360SOL     OW27712   3.820   1.770   4.705  0.1132  0.3255  0.0601
 5360SOL    HW127713   3.760   1.838   4.736  1.5165  0.9235  1.4614
 5360SOL    HW227714   3.767   1.726   4.638 -0.4379 -0.7340  1.2019
 5361SOL     OW27715   3.351   3.588   4.876 -0.7281  0.2524 -0.7494
 5361SOL    HW127716   3.301   3.614   4.953 -1.0019  2.5657 -1.7284
 5361SOL    HW227717   3.356   3.494   4.897  2.1105  0.7900  1.0020
 5362SOL     OW27718   3.098   4.463  15.783 -0.2380 -0.1698  0.0068
 5362SOL    HW127719   3.086   4.373  15.754 -1.0976  0.4753 -1.6514
 5362SOL    HW227720   3.091   4.454  15.878 -2.6643  0.1377 -0.1524
 5363SOL     OW27721   4.267   3.117   6.188 -0.0018 -0.4871 -0.0309
 5363SOL    HW127722   4.187   3.094   6.139 -0.6323  1.5508  0.0188
 5363SOL    HW227723   4.303   3.180   6.126  0.6446  0.0176  0.8617
 5364SOL     OW27724   0.906   1.490   3.953 -0.5978 -1.2535  0.1252
 5364SOL    HW127725   0.938   1.468   3.865 -0.8554  0.3755 -0.3774
 5364SOL    HW227726   0.830   1.544   3.932  0.6282  0.0221 -1.0630
 5365SOL     OW27727   2.477   4.538   6.667 -0.8583 -0.3223  0.7681
 5365SOL    HW127728   2.549   4.499   6.717 -0.9519 -0.3239  0.9025
 5365SOL    HW227729   2.519   4.594   6.602 -2.4868 -0.0060 -0.0248
 5366SOL     OW27730   0.916   3.810   3.171 -0.3646 -0.0754  0.0079
 5366SOL    HW127731   0.872   3.892   3.194  0.4277  0.3430  0.0048
 5366SOL    HW227732   0.998   3.848   3.141 -0.9248  0.9341 -0.2440
 5367SOL     OW27733   3.809   0.278  11.398 -0.4658 -0.1649  0.2275
 5367SOL    HW127734   3.876   0.345  11.383 -2.6277  1.5587 -1.8385
 5367SOL    HW227735   3.814   0.227  11.317 -1.1018 -0.4640  0.3755
 5368SOL     OW27736   3.008   1.216   4.259 -0.3000  0.5359 -0.5044
 5368SOL    HW127737   3.054   1.155   4.202  2.1005  1.9651 -0.1014
 5368SOL    HW227738   2.935   1.161   4.290 -1.3018  1.2501 -1.5954
 5369SOL     OW27739   0.299   4.637   4.217  1.2189 -0.1376 -0.1146
 5369SOL    HW127740   0.302   4.699   4.290 -0.7157 -0.2351  0.0454
 5369SOL    HW227741   0.263   4.691   4.147 -0.5069 -1.2422 -0.0796
 5370SOL     OW27742   1.351   0.748   1.608 -0.5513  0.3699 -0.6797
 5370SOL    HW127743   1.257   0.759   1.615 -0.6078 -0.8907  0.6138
 5370SOL    HW227744   1.362   0.653   1.619 -1.1940  0.2460 -1.1492
 5371SOL     OW27745   1.706   4.125   4.176 -0.1932 -0.4149 -0.9349
 5371SOL    HW127746   1.659   4.196   4.132 -0.3779 -0.0157 -0.1032
 5371SOL    HW227747   1.754   4.093   4.101  0.8791 -1.5976  0.2599
 5372SOL     OW27748   1.253   4.426   7.117  0.3089 -0.1745  0.0347
 5372SOL    HW127749   1.285   4.381   7.195 -0.9590 -0.5868  0.3280
 5372SOL    HW227750   1.332   4.470   7.088 -0.8878  2.0182  0.0738
 5373SOL     OW27751   2.927   4.222   8.118 -0.5667 -0.1554  0.1447
 5373SOL    HW127752   2.856   4.175   8.074  0.0320  0.2683 -1.2916
 5373SOL    HW227753   2.892   4.309   8.133  0.8436  0.5321 -0.5227
 5374SOL     OW27754   3.799   0.371   8.632  0.4333  0.0253  0.5979
 5374SOL    HW127755   3.853   0.348   8.557 -0.6449 -2.0652  0.4438
 5374SOL    HW227756   3.714   0.394   8.593  0.3242 -1.3398  0.0100
 5375SOL     OW27757   2.051   3.812  14.533  0.4376  0.3190  0.4332
 5375SOL    HW127758   2.025   3.720  14.541 -2.7763  1.1571 -0.2959
 5375SOL    HW227759   2.111   3.806  14.459  1.6566  1.4654  1.3300
 5376SOL     OW27760   4.181   0.909   1.448 -0.2296 -0.8712 -0.0121
 5376SOL    HW127761   4.214   0.996   1.468  1.1432 -1.4715  0.3001
 5376SOL    HW227762   4.251   0.889   1.386  0.4647 -0.7181  0.7315
 5377SOL     OW27763   2.605   3.028   8.863 -0.1966 -0.1403 -0.4042
 5377SOL    HW127764   2.582   2.936   8.868  0.3302 -0.1989  0.7830
 5377SOL    HW227765   2.535   3.083   8.825  0.4166  1.8985  1.4014
 5378SOL     OW27766   2.995   4.534   3.427  0.4074  0.1082 -0.1975
 5378SOL    HW127767   2.977   4.624   3.456  1.1872 -0.2965  1.5398
 5378SOL    HW227768   2.981   4.491   3.511 -0.2423 -0.9479 -0.8530
 5379SOL     OW27769   1.688   0.224   2.162 -0.0499 -0.3237  0.3555
 5379SOL    HW127770   1.663   0.140   2.126  1.9576 -1.1769  0.9209
 5379SOL    HW227771   1.679   0.203   2.255 -1.1183 -0.1708  0.2795
 5380SOL     OW27772   2.588   0.110  13.998  0.3390  0.1895 -0.0513
 5380SOL    HW127773   2.495   0.129  13.991  0.4350  1.0426  1.2556
 5380SOL    HW227774   2.595   0.073  14.086 -1.1484 -4.5986 -1.9413
 5381SOL     OW27775   0.570   4.333   6.800  0.3297  0.1421  0.1229
 5381SOL    HW127776   0.532   4.401   6.744 -0.0008  0.7566  1.0792
 5381SOL    HW227777   0.612   4.390   6.865 -0.5074  0.4435  0.3984
 5382SOL     OW27778   2.713   0.889  17.186 -0.5518 -0.1345  0.5143
 5382SOL    HW127779   2.637   0.856  17.137 -0.9839  1.1690  0.3027
 5382SOL    HW227780   2.681   0.910  17.273  4.1812  0.4161  2.1136
 5383SOL     OW27781   0.734   3.599   3.874 -0.2498  0.3670 -0.1766
 5383SOL    HW127782   0.707   3.667   3.814  2.1012  0.5318 -1.0655
 5383SOL    HW227783   0.795   3.554   3.816 -2.0751 -1.0975 -0.9405
 5384SOL     OW27784   0.782   3.139   5.592 -0.1422 -0.3583  0.3094
 5384SOL    HW127785   0.873   3.115   5.607  0.5092  0.3617 -2.4524
 5384SOL    HW227786   0.763   3.078   5.522 -0.4672  2.7565 -2.3218
 5385SOL     OW27787   2.479   0.121   2.222 -0.1329  0.4381  0.2163
 5385SOL    HW127788   2.431   0.099   2.143 -2.3075  1.1655  1.3470
 5385SOL    HW227789   2.535   0.044   2.233  0.3999  0.5458 -1.6934
 5386SOL     OW27790   1.447   0.564  14.315 -0.4498  0.2582 -0.4237
 5386SOL    HW127791   1.376   0.554  14.252 -0.0993 -0.5275 -0.6917
 5386SOL    HW227792   1.399   0.562  14.398  2.3433 -0.6642  1.1652
 5387SOL     OW27793   1.969   1.857   8.926 -0.2298  0.6014  0.2735
 5387SOL    HW127794   2.010   1.919   8.987 -0.7011 -0.8454  2.0808
 5387SOL    HW227795   1.900   1.830   8.987  0.1435  1.0918  0.9210
 5388SOL     OW27796   1.071   3.393   5.953  0.0654 -0.1190  0.1472
 5388SOL    HW127797   1.117   3.476   5.959  2.2709 -1.2508 -1.3315
 5388SOL    HW227798   0.990   3.431   5.919  0.8951  0.2838 -1.3667
 5389SOL     OW27799   1.176   1.319   8.747 -1.0727  0.3047 -0.2237
 5389SOL    HW127800   1.246   1.259   8.771 -2.0319 -0.7837 -0.1266
 5389SOL    HW227801   1.112   1.300   8.816 -0.9543  1.2125  0.1363
 5390SOL     OW27802   1.828   3.426   7.135  0.4380  0.0251 -0.1420
 5390SOL    HW127803   1.852   3.429   7.227  1.0239 -0.9435 -0.2634
 5390SOL    HW227804   1.785   3.340   7.140  3.1420 -1.1829  2.3329
 5391SOL     OW27805   2.854   3.005   8.221  0.3052 -0.0303 -0.1264
 5391SOL    HW127806   2.947   3.000   8.200  0.4048 -1.8704  0.7633
 5391SOL    HW227807   2.836   2.911   8.222  1.0017 -0.1876 -2.1392
 5392SOL     OW27808   1.689   3.217   7.526  0.5609 -0.9475 -0.5425
 5392SOL    HW127809   1.641   3.142   7.492 -1.0439 -0.0380 -0.2493
 5392SOL    HW227810   1.757   3.170   7.574  0.3444 -0.3223  0.3623
 5393SOL     OW27811   0.934   0.422   3.536  0.7446 -0.3207  0.4348
 5393SOL    HW127812   0.857   0.477   3.523  0.9702 -0.4802 -1.5635
 5393SOL    HW227813   0.891   0.340   3.562  2.1592 -0.6200  1.7989
 5394SOL     OW27814   4.344   2.449   1.921  0.5949  0.5572  0.3839
 5394SOL    HW127815   4.399   2.370   1.918  1.1823  1.0290 -1.4261
 5394SOL    HW227816   4.393   2.511   1.975  2.2106  0.8681 -1.4273
 5395SOL     OW27817   4.490   4.326   6.071 -0.0599 -0.5412 -0.1305
 5395SOL    HW127818   4.403   4.366   6.060  0.0993 -0.2768 -0.4413
 5395SOL    HW227819   4.547   4.400   6.092 -0.1599 -0.3641 -0.4722
 5396SOL     OW27820   3.326   2.826   8.856  0.0070  0.2107 -0.7781
 5396SOL    HW127821   3.263   2.891   8.827 -1.2464  0.7219  3.0669
 5396SOL    HW227822   3.401   2.879   8.881 -1.0399  1.0059  0.6302
 5397SOL     OW27823   0.679   3.140   7.849 -0.6427 -0.5910 -0.1911
 5397SOL    HW127824   0.660   3.219   7.798 -3.0099 -0.5690  0.7548
 5397SOL    HW227825   0.619   3.075   7.813 -0.2440 -1.1356  0.1213
 5398SOL     OW27826   2.806   4.153  14.325 -0.7151 -0.0361  0.2395
 5398SOL    HW127827   2.728   4.138  14.378 -0.3939 -0.0510  0.7107
 5398SOL    HW227828   2.846   4.067  14.310  1.5715  0.4540  3.3847
 5399SOL     OW27829   1.477   4.121   8.935 -0.2400 -0.1342 -0.4499
 5399SOL    HW127830   1.421   4.169   8.996  0.8506 -0.3705  0.7348
 5399SOL    HW227831   1.472   4.039   8.984 -0.5814 -0.1211 -0.4569
 5400SOL     OW27832   1.717   0.599   6.505  0.3846  0.1383 -0.1878
 5400SOL    HW127833   1.641   0.616   6.448  0.1680  2.3073  0.7594
 5400SOL    HW227834   1.780   0.662   6.470  1.2465  1.1151  3.1629
 5401SOL     OW27835   1.672   4.642   8.070  0.4719  0.8617 -0.0443
 5401SOL    HW127836   1.678   4.633   8.165 -0.0531  0.7185 -0.0246
 5401SOL    HW227837   1.585   4.684   8.064 -0.0051 -0.2176 -0.7305
 5402SOL     OW27838   1.040   2.660   3.754 -0.0330 -0.1285  0.4543
 5402SOL    HW127839   1.109   2.594   3.763  1.3654  1.3756  0.7282
 5402SOL    HW227840   1.037   2.700   3.841 -0.7399 -0.8740  0.7749
 5403SOL     OW27841   1.660   2.137   8.198 -0.0753 -0.0723 -0.1116
 5403SOL    HW127842   1.736   2.079   8.192 -1.0268 -1.4000  0.5871
 5403SOL    HW227843   1.614   2.113   8.117 -0.1505  2.2953 -0.7462
 5404SOL     OW27844   4.599   0.523   3.623 -0.3314  0.2354 -0.1056
 5404SOL    HW127845   4.557   0.539   3.539 -1.0926 -0.2763  0.1764
 5404SOL    HW227846   4.633   0.435   3.604  0.3449  0.6042 -0.5844
 5405SOL     OW27847   3.219   0.785   2.323  0.2214 -0.3105 -0.7927
 5405SOL    HW127848   3.268   0.867   2.316 -0.1585  0.0141  0.3707
 5405SOL    HW227849   3.287   0.726   2.288  1.2333  0.4615 -0.1284
 5406SOL     OW27850   3.912   3.045   8.995 -0.5526  0.1546  0.4155
 5406SOL    HW127851   3.956   3.116   9.042  1.1583  0.6782 -1.9475
 5406SOL    HW227852   3.890   2.994   9.072 -2.6614  0.2426 -0.1286
 5407SOL     OW27853   2.761   2.443   0.113 -0.2392  0.2963  0.1050
 5407SOL    HW127854   2.757   2.538   0.116  0.1003  0.3272 -0.6455
 5407SOL    HW227855   2.808   2.417   0.192  1.1479 -0.7539 -1.0718
 5408SOL     OW27856   1.650   4.098   5.800  0.6082 -1.1147  0.1570
 5408SOL    HW127857   1.572   4.086   5.855 -0.0403 -0.5001 -0.6250
 5408SOL    HW227858   1.699   4.018   5.820  2.5544  0.2518  0.8640
 5409SOL     OW27859   1.394   1.457   6.708  0.1504  0.3907 -0.0704
 5409SOL    HW127860   1.359   1.537   6.669 -2.2403 -1.2216 -1.2125
 5409SOL    HW227861   1.340   1.462   6.788 -0.7883  1.0864 -0.7469
 5410SOL     OW27862   0.354   4.272   9.309  0.5383  0.3504 -0.2143
 5410SOL    HW127863   0.265   4.244   9.292  0.7879 -0.5042 -0.0795
 5410SOL    HW227864   0.371   4.246   9.400 -1.1146  0.2091  0.0476
 5411SOL     OW27865   0.004   0.324   9.407  0.0809  0.2078  0.1784
 5411SOL    HW127866   4.688   0.350   9.485 -0.1210 -0.1312  0.1656
 5411SOL    HW227867   0.080   0.281   9.446 -0.9405 -2.4577 -0.7667
 5412SOL     OW27868   0.764   1.821  17.257  0.1001  0.0156 -0.1618
 5412SOL    HW127869   0.699   1.854  17.319 -1.7908  0.4028 -2.3519
 5412SOL    HW227870   0.779   1.741  17.307 -0.6307  0.0605  0.1309
 5413SOL     OW27871   0.342   1.465   1.601 -0.1340 -0.2522 -0.4923
 5413SOL    HW127872   0.315   1.422   1.682  2.6453 -3.5691 -1.3257
 5413SOL    HW227873   0.345   1.387   1.546 -0.1316  0.0493 -0.9195
 5414SOL     OW27874   2.168   0.554   1.498  0.0966  0.5173 -0.4959
 5414SOL    HW127875   2.185   0.503   1.577 -2.2151 -1.2468 -1.1498
 5414SOL    HW227876   2.075   0.567   1.512  0.3669  0.2307  1.4961
 5415SOL     OW27877   0.028   0.961   8.172 -0.0060 -0.1937  0.1095
 5415SOL    HW127878   0.108   0.957   8.119  0.0055  0.8410  0.0426
 5415SOL    HW227879   0.007   1.053   8.154  2.6515  0.3138 -0.4707
 5416SOL     OW27880   1.527   1.991   0.928 -0.4938 -0.3133  0.2759
 5416SOL    HW127881   1.609   2.017   0.886 -0.5633  1.6681  1.3615
 5416SOL    HW227882   1.545   2.007   1.020 -0.9283  1.1579  0.1147
 5417SOL     OW27883   2.728   2.031   8.849  0.5648  0.1807 -0.7454
 5417SOL    HW127884   2.679   1.954   8.875 -0.4668 -0.2813 -4.0438
 5417SOL    HW227885   2.797   2.038   8.915  0.0454 -0.6454 -0.1297
 5418SOL     OW27886   2.946   3.167  10.526  0.1521  0.1022  0.4202
 5418SOL    HW127887   2.865   3.159  10.476  2.1695 -3.8097 -2.2256
 5418SOL    HW227888   2.906   3.141  10.609 -0.7896 -0.3666 -0.1873
 5419SOL     OW27889   2.605   0.030   8.292 -0.2147 -0.1336  0.1635
 5419SOL    HW127890   2.681   0.027   8.233 -1.0743  2.1947 -1.0261
 5419SOL    HW227891   2.598   0.124   8.304  1.2908  0.1777 -1.4434
 5420SOL     OW27892   1.091   4.125   6.054 -0.6905  0.4896  0.1762
 5420SOL    HW127893   1.053   4.129   6.142 -0.6084 -2.4051  0.3540
 5420SOL    HW227894   1.125   4.035   6.057  0.9415  1.1664  1.8118
 5421SOL     OW27895   2.781   1.998   1.878  0.1422 -0.0376 -0.6514
 5421SOL    HW127896   2.717   1.945   1.831 -0.4883  0.4936 -0.3890
 5421SOL    HW227897   2.865   1.968   1.843  1.1615  4.9872 -2.5306
 5422SOL     OW27898   3.997   2.490  14.846 -0.3290  0.0957  0.0920
 5422SOL    HW127899   3.917   2.476  14.795 -0.5336  0.2490  0.3745
 5422SOL    HW227900   4.022   2.573  14.804 -0.4447 -0.3347 -0.8324
 5423SOL     OW27901   0.588   1.383   7.860  0.1085 -0.1897 -0.0010
 5423SOL    HW127902   0.574   1.292   7.834 -2.3901 -0.4507  2.2582
 5423SOL    HW227903   0.683   1.391   7.866  0.3122 -1.1345 -1.8547
 5424SOL     OW27904   0.915   4.697   2.243 -0.6561  0.4795 -0.2174
 5424SOL    HW127905   0.945   0.002   2.161 -0.6550  1.4206  0.2062
 5424SOL    HW227906   0.891   4.614   2.201  0.2798 -0.3348  0.8309
 5425SOL     OW27907   3.083   2.013   8.497 -0.1203 -0.3011 -0.2452
 5425SOL    HW127908   3.069   2.036   8.406  1.0849 -0.7048 -0.5293
 5425SOL    HW227909   2.993   2.008   8.527  0.6218 -4.2724  1.3570
 5426SOL     OW27910   3.939   2.919  13.194 -0.1247  0.3250  0.1322
 5426SOL    HW127911   4.032   2.941  13.202  0.0316  0.4385 -1.9868
 5426SOL    HW227912   3.905   2.922  13.283  0.6427 -0.8504  0.4764
 5427SOL     OW27913   4.635   3.156   6.628 -0.2814  0.2145  0.6212
 5427SOL    HW127914   4.639   3.226   6.563  1.2648  0.7468  1.2785
 5427SOL    HW227915   4.692   3.176   6.702  1.8206 -1.7185 -0.4893
 5428SOL     OW27916   4.725   1.157  15.967 -0.0924  0.2654 -0.1678
 5428SOL    HW127917   4.694   1.159  15.876  2.4827 -0.4319 -1.0739
 5428SOL    HW227918   4.650   1.190  16.016  0.4539  1.9682 -0.4910
 5429SOL     OW27919   4.287   1.175   2.896 -0.2239 -0.0711  0.2450
 5429SOL    HW127920   4.318   1.116   2.965 -1.6256 -1.4238 -0.2646
 5429SOL    HW227921   4.205   1.131   2.874 -0.4089  0.8319 -0.9061
 5430SOL     OW27922   3.987   4.650   8.063 -0.0898 -0.5451 -0.2488
 5430SOL    HW127923   4.026   4.599   8.134 -1.7496  0.4216  1.3428
 5430SOL    HW227924   4.056   4.642   7.998 -0.6763 -2.3931 -0.6485
 5431SOL     OW27925   4.406   4.452   6.496  0.1925  0.3507  0.0125
 5431SOL    HW127926   4.413   4.516   6.425  1.5562 -2.0561 -2.0267
 5431SOL    HW227927   4.344   4.496   6.554  0.3001  1.0068 -0.3740
 5432SOL     OW27928   1.199   1.605   4.385  0.4937 -0.9191 -0.2494
 5432SOL    HW127929   1.142   1.582   4.312 -0.2911  0.6360 -0.1278
 5432SOL    HW227930   1.153   1.569   4.461  0.2921 -1.1379 -0.4772
 5433SOL     OW27931   2.846   2.823   7.870  0.1052  0.1715  0.0301
 5433SOL    HW127932   2.905   2.834   7.944  0.4782  1.0214 -0.4001
 5433SOL    HW227933   2.760   2.825   7.913 -0.6389  0.5395 -1.4574
 5434SOL     OW27934   2.105   0.422  15.846 -0.7518  0.0484  0.4727
 5434SOL    HW127935   2.198   0.433  15.866 -0.2835  0.0508 -1.7566
 5434SOL    HW227936   2.073   0.374  15.923 -1.3991 -0.9226 -0.4115
 5435SOL     OW27937   4.559   0.979  17.383  0.4954  0.5982 -0.1248
 5435SOL    HW127938   4.482   0.992  17.328 -0.0945  0.0320  0.5647
 5435SOL    HW227939   4.578   1.065  17.419 -3.4899  1.2721  0.3286
 5436SOL     OW27940   1.177   0.337   5.728 -0.2424  0.6289 -0.5902
 5436SOL    HW127941   1.257   0.320   5.678  0.6727 -1.1146  1.4697
 5436SOL    HW227942   1.128   0.255   5.718  0.4139  0.2307 -0.5543
 5437SOL     OW27943   0.596   2.379   3.033  0.0399  0.5881  0.2899
 5437SOL    HW127944   0.585   2.305   2.973  1.2054  0.7395 -0.1146
 5437SOL    HW227945   0.604   2.326   3.112 -2.2326 -2.0851 -1.2890
 5438SOL     OW27946   2.064   1.201   8.218  0.1158 -0.2078 -0.2507
 5438SOL    HW127947   2.108   1.277   8.255  2.0238 -1.8509  0.9153
 5438SOL    HW227948   2.089   1.142   8.289 -0.1201 -2.7080 -2.2025
 5439SOL     OW27949   0.623   4.656   1.594  0.1508 -0.2322 -0.0663
 5439SOL    HW127950   0.590   4.580   1.641 -0.4295  0.9027  1.3530
 5439SOL    HW227951   0.588   4.728   1.646 -0.2181 -1.8790  1.9385
 5440SOL     OW27952   0.554   0.376   1.595  0.2468 -0.4211 -0.3405
 5440SOL    HW127953   0.501   0.353   1.519 -1.4824  0.3878  0.6200
 5440SOL    HW227954   0.508   0.324   1.660 -0.3007  0.4275 -0.0383
 5441SOL     OW27955   2.708   2.848   6.207 -0.1739  0.3644 -0.2383
 5441SOL    HW127956   2.664   2.901   6.141  1.7765 -0.3214 -2.0671
 5441SOL    HW227957   2.777   2.810   6.153 -1.1685 -0.5190 -0.8885
 5442SOL     OW27958   4.014   2.049  11.842 -0.0645 -0.2632  0.0038
 5442SOL    HW127959   4.025   1.955  11.856 -1.8048 -0.0193  3.0441
 5442SOL    HW227960   4.088   2.066  11.783  0.5502  0.1207  0.8729
 5443SOL     OW27961   0.163   4.580   2.493  0.1335  0.1157  0.3902
 5443SOL    HW127962   0.253   4.611   2.497 -0.2727  1.2829  0.6710
 5443SOL    HW227963   0.113   4.653   2.530  0.6356  0.6531 -0.0134
 5444SOL     OW27964   1.221   3.592   7.016  0.1742  0.0858  0.0558
 5444SOL    HW127965   1.246   3.501   7.000  1.7227  0.8702 -2.0752
 5444SOL    HW227966   1.178   3.615   6.933  1.1624 -1.3337 -0.8666
 5445SOL     OW27967   0.458   2.307   6.427 -0.1909  0.4730  0.7143
 5445SOL    HW127968   0.455   2.229   6.372 -0.1840  0.9935 -0.0308
 5445SOL    HW227969   0.480   2.378   6.365  2.8165  0.3731  1.6396
 5446SOL     OW27970   0.683   2.099   9.628  0.0552 -0.3684  0.3968
 5446SOL    HW127971   0.635   2.056   9.557  1.2268  2.3769 -2.0304
 5446SOL    HW227972   0.631   2.089   9.708  0.6925  2.7686  1.2077
 5447SOL     OW27973   1.256   3.279   2.407 -0.0586  0.2658 -0.0647
 5447SOL    HW127974   1.244   3.339   2.333 -0.4578  0.2883  0.0191
 5447SOL    HW227975   1.220   3.340   2.472 -0.6319 -0.4710  0.3063
 5448SOL     OW27976   4.184   3.721   5.060  0.4246  0.1976 -0.0965
 5448SOL    HW127977   4.211   3.631   5.078  1.1755  0.2722 -0.8509
 5448SOL    HW227978   4.232   3.769   5.126 -2.3359  1.3860  1.0615
 5449SOL     OW27979   3.068   1.940   1.969 -0.5524 -0.2859  0.0020
 5449SOL    HW127980   3.144   1.902   1.924 -1.6756  0.5670 -2.6062
 5449SOL    HW227981   3.032   2.003   1.907  0.1448 -0.8874 -1.0304
 5450SOL     OW27982   0.466   0.466   9.175  0.1285 -0.1254 -0.0208
 5450SOL    HW127983   0.372   0.450   9.178  0.1422 -0.0986  0.7610
 5450SOL    HW227984   0.476   0.526   9.101 -1.0256  0.1607  0.0546
 5451SOL     OW27985   4.059   0.848   3.708  0.2356  0.2544 -0.2415
 5451SOL    HW127986   4.125   0.781   3.690  1.1723  1.3260 -0.8255
 5451SOL    HW227987   4.037   0.821   3.797  1.5864 -0.0474 -0.0101
 5452SOL     OW27988   2.054   1.595   4.079  0.0289 -0.2718  0.2165
 5452SOL    HW127989   2.063   1.528   4.147 -0.1897 -0.0533  0.4629
 5452SOL    HW227990   2.042   1.665   4.144  1.5000 -0.0369  0.2156
 5453SOL     OW27991   1.228   1.056   8.342 -0.4250 -0.0063 -0.1521
 5453SOL    HW127992   1.195   1.051   8.253  0.8472 -3.7167 -0.4420
 5453SOL    HW227993   1.213   1.147   8.369  1.8995  0.5631 -0.7334
 5454SOL     OW27994   2.749   0.695   4.005  0.1076 -0.1567 -0.0528
 5454SOL    HW127995   2.706   0.675   3.922 -1.5661  1.2639  0.4638
 5454SOL    HW227996   2.819   0.630   3.996  0.6102  0.7400 -2.3778
 5455SOL     OW27997   1.224   3.438   6.361 -0.2453  0.0106  0.0057
 5455SOL    HW127998   1.299   3.485   6.325 -1.5239  1.4031 -0.8303
 5455SOL    HW227999   1.209   3.364   6.301 -1.2212  1.6216 -1.7363
 5456SOL     OW28000   2.557   1.355   6.240  0.2282  0.6474 -0.1392
 5456SOL    HW128001   2.519   1.389   6.159  1.3308  1.7814 -0.1845
 5456SOL    HW228002   2.587   1.267   6.217 -0.2241  0.4923 -0.1277
 5457SOL     OW28003   0.647   3.113  17.454  0.9547 -0.4856 -0.1318
 5457SOL    HW128004   0.728   3.133  17.500 -0.5216  0.8721  1.8541
 5457SOL    HW228005   0.663   3.154  17.369 -1.4539  1.0188  0.1366
 5458SOL     OW28006   3.572   0.211   1.871 -0.1373 -0.1575 -0.0635
 5458SOL    HW128007   3.650   0.211   1.927  2.0373  1.9849 -3.0457
 5458SOL    HW228008   3.582   0.275   1.801 -1.1572 -0.9736 -0.9476
 5459SOL     OW28009   3.340   1.711   8.118 -0.2162 -0.0516 -0.1515
 5459SOL    HW128010   3.433   1.724   8.099 -0.2168 -0.0751 -0.1705
 5459SOL    HW228011   3.348   1.619   8.090 -2.7269 -0.3215  0.0239
 5460SOL     OW28012   1.625   3.511  17.621  0.3225  0.3483  0.2002
 5460SOL    HW128013   1.553   3.513  17.558  2.3616  0.6229 -2.1135
 5460SOL    HW228014   1.574   3.561  17.684 -0.1575  0.8594 -0.5899
 5461SOL     OW28015   0.027   4.332   8.038  0.3443  0.6779  0.1092
 5461SOL    HW128016   0.120   4.313   8.036  0.5985  1.6834  1.9716
 5461SOL    HW228017   0.009   4.256   8.092 -0.5887  0.0462 -1.1011
 5462SOL     OW28018   1.390   4.432   7.979 -0.5341 -0.3653  0.0447
 5462SOL    HW128019   1.407   4.477   7.896  0.5709 -1.6590 -0.4358
 5462SOL    HW228020   1.387   4.512   8.030 -0.9302 -0.5868  0.3675
 5463SOL     OW28021   2.202   1.451   6.823 -0.4561  0.8308 -0.1508
 5463SOL    HW128022   2.143   1.376   6.830  1.2574 -0.5277 -0.2977
 5463SOL    HW228023   2.270   1.441   6.890  1.1889  1.4077 -1.7542
 5464SOL     OW28024   2.654   1.082  15.373 -0.3429 -0.3023  0.1560
 5464SOL    HW128025   2.716   1.071  15.300 -0.1448  0.6964  0.1699
 5464SOL    HW228026   2.615   0.995  15.368 -1.8139  0.3162  0.9546
 5465SOL     OW28027   2.275   0.463   7.304 -0.0880 -0.0675  0.1749
 5465SOL    HW128028   2.197   0.431   7.349  0.0031  1.7691  1.6630
 5465SOL    HW228029   2.279   0.402   7.231 -1.5052  0.2414 -0.1726
 5466SOL     OW28030   2.772   1.567   7.251  0.1857  1.0247  0.4577
 5466SOL    HW128031   2.810   1.606   7.172  2.6116  1.1915  1.6966
 5466SOL    HW228032   2.761   1.475   7.229 -0.9051  1.0634  0.8610
 5467SOL     OW28033   0.020   2.028   1.011 -0.1596 -0.3170 -0.1597
 5467SOL    HW128034   0.043   2.007   1.101 -0.7192 -1.1432 -0.2092
 5467SOL    HW228035   0.100   2.008   0.963 -0.0666 -0.8845  0.2386
 5468SOL     OW28036   3.284   1.122   4.446 -0.0428  0.2004  0.4937
 5468SOL    HW128037   3.296   1.178   4.370 -4.6176  1.2066  0.4771
 5468SOL    HW228038   3.237   1.048   4.407 -1.9645  1.9799 -0.5459
 5469SOL     OW28039   0.604   2.122   2.889  0.3027  0.2702  0.3856
 5469SOL    HW128040   0.690   2.126   2.847  0.5988  0.1230  0.9879
 5469SOL    HW228041   0.555   2.058   2.837 -0.5106 -0.1959  1.7426
 5470SOL     OW28042   1.923   3.166   4.921 -0.5425  0.2920  0.3064
 5470SOL    HW128043   1.960   3.145   4.835  0.1044 -2.2377  1.2089
 5470SOL    HW228044   1.899   3.079   4.952  0.5372  1.1741  3.5844
 5471SOL     OW28045   1.752   1.500   9.013  0.8208  0.3245 -0.5556
 5471SOL    HW128046   1.777   1.592   9.026  1.5112  0.1825 -0.9001
 5471SOL    HW228047   1.741   1.476   9.105 -0.3696  0.4840 -0.6575
 5472SOL     OW28048   4.254   1.704   5.044  0.3175 -0.0233 -0.6403
 5472SOL    HW128049   4.177   1.747   5.006 -0.3657  0.8159  1.6763
 5472SOL    HW228050   4.281   1.643   4.975  0.7507  0.0309 -0.5155
 5473SOL     OW28051   2.434   4.472   6.069 -0.3831 -0.3127  0.2727
 5473SOL    HW128052   2.517   4.511   6.099 -1.1479  0.9096  0.8029
 5473SOL    HW228053   2.453   4.437   5.982 -1.9002 -1.0801  0.2632
 5474SOL     OW28054   4.382   1.779  10.446 -0.7385 -0.3723  0.1731
 5474SOL    HW128055   4.450   1.718  10.421 -0.8407 -1.2656  2.1024
 5474SOL    HW228056   4.417   1.860  10.409 -0.3646 -1.2407 -1.3708
 5475SOL     OW28057   4.006   3.304  15.948  0.3184 -0.0388 -0.2794
 5475SOL    HW128058   4.040   3.215  15.956  0.4843 -0.1265 -2.0219
 5475SOL    HW228059   4.040   3.335  16.032 -2.0650  0.7599  0.3921
 5476SOL     OW28060   2.986   0.503   8.409  0.0326 -0.4116 -0.0805
 5476SOL    HW128061   2.974   0.411   8.385  0.5159 -0.0100 -1.8464
 5476SOL    HW228062   3.057   0.495   8.473 -0.0116 -2.5036 -0.3000
 5477SOL     OW28063   1.975   4.280   6.916  0.2041  0.4114 -0.3103
 5477SOL    HW128064   1.928   4.255   6.837 -3.6210  1.0926  1.7557
 5477SOL    HW228065   1.975   4.376   6.910  0.8467  0.3987 -0.5195
 5478SOL     OW28066   3.578   1.287   8.551 -0.4556 -0.4834 -0.0388
 5478SOL    HW128067   3.655   1.290   8.494 -1.4723 -1.8163 -1.4842
 5478SOL    HW228068   3.600   1.361   8.607  0.3211 -0.0904 -0.8587
 5479SOL     OW28069   4.527   0.180   4.666 -0.3445 -0.0777  0.2803
 5479SOL    HW128070   4.481   0.105   4.702 -2.5406  0.1727 -2.0497
 5479SOL    HW228071   4.533   0.236   4.744 -0.9122  4.1928 -2.6969
 5480SOL     OW28072   3.597   1.992   4.791  0.4303 -0.5713  0.0974
 5480SOL    HW128073   3.640   1.967   4.873 -2.1854  2.8819  2.5080
 5480SOL    HW228074   3.519   1.938   4.796  0.0713 -0.1239 -0.7846
 5481SOL     OW28075   1.081   4.481   6.107  0.4781 -0.0435  0.3824
 5481SOL    HW128076   1.141   4.462   6.035 -1.0609 -2.1341 -0.3631
 5481SOL    HW228077   1.140   4.531   6.163  0.1185 -0.4076  1.0802
 5482SOL     OW28078   2.185   2.403  13.847 -0.1152 -0.1335  0.2995
 5482SOL    HW128079   2.199   2.497  13.837  0.8823 -0.2597  0.4697
 5482SOL    HW228080   2.200   2.372  13.758 -0.5338 -1.6871  0.7683
 5483SOL     OW28081   2.116   3.168   1.373 -0.2970 -0.0932  0.1462
 5483SOL    HW128082   2.072   3.165   1.287 -0.0200  0.4772 -0.0182
 5483SOL    HW228083   2.074   3.098   1.422  1.5555 -1.7968 -0.7344
 5484SOL     OW28084   3.382   1.847   6.296  0.4884 -0.1438 -0.3632
 5484SOL    HW128085   3.449   1.898   6.342  2.2404 -1.9145 -0.9371
 5484SOL    HW228086   3.304   1.902   6.299  0.7301  0.3655 -3.0767
 5485SOL     OW28087   0.062   0.794  17.707 -0.1262  0.0542 -0.2875
 5485SOL    HW128088   0.138   0.741  17.681 -1.0950 -0.9766 -1.0119
 5485SOL    HW228089   0.080   0.877  17.662  0.7003 -1.2910 -2.4462
 5486SOL     OW28090   0.284   1.830  14.655  0.4290  0.3034 -0.5000
 5486SOL    HW128091   0.339   1.770  14.705  0.6208  0.3087 -0.7056
 5486SOL    HW228092   0.294   1.801  14.564  0.9188 -0.8449 -0.0791
 5487SOL     OW28093   3.150   2.233   6.740  0.0764 -1.0021 -0.2692
 5487SOL    HW128094   3.101   2.232   6.657  0.6190  1.1557 -0.6328
 5487SOL    HW228095   3.159   2.325   6.768 -1.0884 -0.1551 -2.6382
 5488SOL     OW28096   2.466   1.576   4.073 -0.1898 -0.4136  0.0406
 5488SOL    HW128097   2.478   1.482   4.062  2.2005 -0.2137  0.8885
 5488SOL    HW228098   2.459   1.611   3.984 -1.0310  2.5948  1.2624
 5489SOL     OW28099   0.439   0.435  13.250  0.2682 -0.0673  0.8472
 5489SOL    HW128100   0.501   0.507  13.257  0.2161 -0.0471  1.0985
 5489SOL    HW228101   0.367   0.479  13.205  0.3303  0.2546  1.0635
 5490SOL     OW28102   3.177   1.676  14.419 -0.0226 -0.0440 -0.3424
 5490SOL    HW128103   3.196   1.735  14.345  1.7712 -0.4969 -0.2322
 5490SOL    HW228104   3.253   1.618  14.421 -1.1328 -1.4499  1.1959
 5491SOL     OW28105   1.777   0.309   4.140  0.2541  0.7637 -0.7429
 5491SOL    HW128106   1.853   0.279   4.092 -0.4827 -0.1793 -1.3042
 5491SOL    HW228107   1.811   0.392   4.176  0.4258  1.3670 -2.3151
 5492SOL     OW28108   2.617   2.650   1.595  0.0160 -0.3294  0.4345
 5492SOL    HW128109   2.694   2.663   1.651  0.5034  0.6743 -0.4461
 5492SOL    HW228110   2.650   2.610   1.514  2.4815  3.0559 -0.2510
 5493SOL     OW28111   4.501   3.954  13.363 -0.5432  0.0900 -0.1600
 5493SOL    HW128112   4.499   4.047  13.345  1.7253  0.4393  1.3971
 5493SOL    HW228113   4.454   3.912  13.291 -0.2381  2.2838 -1.6143
 5494SOL     OW28114   2.698   0.403   5.944  0.3654  0.1705 -0.4387
 5494SOL    HW128115   2.630   0.354   5.990  0.4302 -1.3643 -1.9580
 5494SOL    HW228116   2.756   0.421   6.019  0.5104 -0.1132 -0.4829
 5495SOL     OW28117   3.186   0.449   8.563  0.4287  0.0350  0.5071
 5495SOL    HW128118   3.160   0.385   8.630 -2.4466  0.9122  0.2085
 5495SOL    HW228119   3.180   0.534   8.608  0.0042 -0.2049  0.9054
 5496SOL     OW28120   3.874   1.944   5.963 -0.7985  0.5716 -0.2928
 5496SOL    HW128121   3.791   1.922   5.920 -0.8702 -0.1390  0.2098
 5496SOL    HW228122   3.910   1.857   5.948  1.1117  1.3666 -0.2921
 5497SOL     OW28123   1.855   4.157  17.106 -0.1105 -0.4253  0.0614
 5497SOL    HW128124   1.817   4.095  17.044 -0.4297 -1.7975  1.6088
 5497SOL    HW228125   1.940   4.117  17.125  0.3880  0.7945  0.4123
 5498SOL     OW28126   4.032   0.225   3.964  0.3753 -0.3602 -0.1297
 5498SOL    HW128127   3.945   0.189   3.947 -0.2383  1.2624 -0.4017
 5498SOL    HW228128   4.066   0.275   3.891 -0.1283  1.7153  1.0744
 5499SOL     OW28129   0.142   0.958  16.302 -0.5409 -0.2748  0.1317
 5499SOL    HW128130   0.065   0.941  16.358 -0.2230 -2.9884 -0.2494
 5499SOL    HW228131   0.213   0.949  16.366  0.1278 -1.6967 -0.8342
 5500SOL     OW28132   2.723   0.342   6.604  0.0971 -0.1344 -0.0263
 5500SOL    HW128133   2.649   0.391   6.639 -0.9061 -1.7753  0.1064
 5500SOL    HW228134   2.790   0.405   6.632  0.6737 -0.3741 -0.8619
 5501SOL     OW28135   2.813   1.094   9.182  0.4706 -0.6764  0.3556
 5501SOL    HW128136   2.851   1.105   9.095 -0.1087 -1.6255 -0.0192
 5501SOL    HW228137   2.718   1.090   9.168  0.3261 -0.1915  1.2156
 5502SOL     OW28138   2.413   3.379   4.951 -0.2336 -0.3406 -0.7833
 5502SOL    HW128139   2.505   3.354   4.959 -0.3158 -0.3421  0.1307
 5502SOL    HW228140   2.372   3.300   4.915  0.2639  0.6190 -3.4670
 5503SOL     OW28141   1.552   0.371   8.617 -0.6704 -0.0867  0.0133
 5503SOL    HW128142   1.532   0.426   8.693  1.4075  1.6351 -0.6892
 5503SOL    HW228143   1.468   0.374   8.572 -0.4829 -2.2367 -0.4731
 5504SOL     OW28144   1.397   4.495   7.405 -0.1233 -0.0821 -0.5468
 5504SOL    HW128145   1.408   4.589   7.388  1.2520 -0.2658 -0.6541
 5504SOL    HW228146   1.448   4.448   7.338 -2.2188 -1.9142 -0.8650
 5505SOL     OW28147   3.055   2.984   9.147  0.3828 -0.6343 -0.4461
 5505SOL    HW128148   3.000   3.024   9.080 -0.4998 -0.0821  0.5984
 5505SOL    HW228149   3.019   2.895   9.149 -0.4543 -0.2406  2.4235
 5506SOL     OW28150   0.785   2.567   9.241 -0.3046 -0.7681  0.3931
 5506SOL    HW128151   0.778   2.571   9.336 -0.2746  0.0033  0.3629
 5506SOL    HW228152   0.694   2.554   9.217 -0.5919  0.8622  0.5852
 5507SOL     OW28153   3.765   4.163   5.205 -1.0014  0.8416  0.1889
 5507SOL    HW128154   3.788   4.071   5.198  0.2506  1.1269  0.4794
 5507SOL    HW228155   3.734   4.163   5.295  0.3788 -0.1727  0.6541
 5508SOL     OW28156   1.957   1.984  14.875 -0.1919  0.0128  0.0968
 5508SOL    HW128157   1.921   1.901  14.842  0.7608 -1.0751  1.7856
 5508SOL    HW228158   1.879   2.038  14.874 -0.2869 -0.1529 -1.8550
 5509SOL     OW28159   2.726   0.316  14.671 -0.0633  0.2796  0.1095
 5509SOL    HW128160   2.750   0.265  14.748  0.5910 -2.6300 -2.0361
 5509SOL    HW228161   2.659   0.382  14.687  2.2254  2.7077 -0.2629
 5510SOL     OW28162   4.657   1.894   0.115  0.4215 -0.3485 -0.6630
 5510SOL    HW128163   4.681   1.977   0.155  0.7097 -1.6143  1.7816
 5510SOL    HW228164   4.643   1.939   0.031  2.5304 -0.9872 -1.3539
 5511SOL     OW28165   3.774   0.548   4.150  0.0646 -0.2429 -0.4328
 5511SOL    HW128166   3.827   0.536   4.228 -0.8479  1.0342  0.3919
 5511SOL    HW228167   3.736   0.461   4.137  1.2878 -0.8379  0.0450
 5512SOL     OW28168   0.825   1.278  15.705  0.4223  0.1208 -0.1480
 5512SOL    HW128169   0.899   1.339  15.705  0.6453 -0.1477  0.9524
 5512SOL    HW228170   0.809   1.269  15.799 -0.2698  1.0164 -0.1809
 5513SOL     OW28171   0.128   3.358   3.959  0.2491  0.2468 -0.3661
 5513SOL    HW128172   0.214   3.335   3.995 -0.4542  0.2990  1.3624
 5513SOL    HW228173   0.144   3.343   3.866 -0.2348  2.5469 -0.8031
 5514SOL     OW28174   2.876   2.520   4.354  0.8236  0.0245  0.1324
 5514SOL    HW128175   2.889   2.456   4.424  0.3062  0.0664  0.2659
 5514SOL    HW228176   2.796   2.559   4.391  1.0466  0.3453  0.2801
 5515SOL     OW28177   0.105   2.366   7.871 -0.0301 -0.0599 -0.2145
 5515SOL    HW128178   0.185   2.370   7.819 -0.6788  0.7471 -1.1511
 5515SOL    HW228179   0.125   2.291   7.926 -2.8174 -0.5326  0.1700
 5516SOL     OW28180   4.147   2.044  10.304  0.0293  0.0168  0.3870
 5516SOL    HW128181   4.166   2.049  10.397 -0.8155 -0.2446  0.5697
 5516SOL    HW228182   4.235   2.047  10.267  0.6808 -1.3588  1.8745
 5517SOL     OW28183   3.393   3.544  17.520  0.1791  0.3554 -0.4130
 5517SOL    HW128184   3.393   3.462  17.471 -0.9429  0.3540 -0.3954
 5517SOL    HW228185   3.401   3.612  17.453 -0.7814 -0.7178 -1.6100
 5518SOL     OW28186   3.258   3.777   6.112 -0.3610 -0.1313 -0.0460
 5518SOL    HW128187   3.181   3.782   6.168  0.2825  1.1361  0.7206
 5518SOL    HW228188   3.319   3.746   6.179  0.7077  1.3093 -0.3413
 5519SOL     OW28189   1.294   0.299   4.472 -0.0524 -0.2762  0.1714
 5519SOL    HW128190   1.317   0.228   4.412 -1.0727  1.3534 -2.1575
 5519SOL    HW228191   1.374   0.350   4.485  1.1016 -1.4903 -2.2133
 5520SOL     OW28192   2.414   3.857   7.266  0.2936 -0.3591 -0.3742
 5520SOL    HW128193   2.378   3.769   7.277 -1.5047  0.1715 -2.0200
 5520SOL    HW228194   2.389   3.878   7.176  0.3210  2.4633  0.2706
 5521SOL     OW28195   4.392   0.160   3.628 -0.9379 -0.6189  0.0198
 5521SOL    HW128196   4.313   0.122   3.591  0.5402 -1.8347 -1.9149
 5521SOL    HW228197   4.364   0.160   3.719  1.6376 -2.5666  0.8282
 5522SOL     OW28198   3.095   2.559   4.036  0.5217  0.3853  0.1344
 5522SOL    HW128199   3.131   2.514   4.112 -0.4507 -1.1561 -0.3177
 5522SOL    HW228200   3.066   2.642   4.074  1.0291  1.4864 -1.8884
 5523SOL     OW28201   3.483   0.489   7.545 -0.1431  0.2042 -0.5852
 5523SOL    HW128202   3.545   0.416   7.552 -1.9773 -0.9494  3.5466
 5523SOL    HW228203   3.490   0.502   7.451 -1.5212  3.5022 -0.2130
 5524SOL     OW28204   2.031   0.406   7.418  0.0072 -0.0756 -0.1472
 5524SOL    HW128205   1.968   0.478   7.423 -0.8665 -0.9730  1.5049
 5524SOL    HW228206   2.034   0.394   7.513 -1.5168 -1.9221 -0.3449
 5525SOL     OW28207   1.007   4.612   9.567 -0.3723 -0.1236 -0.0064
 5525SOL    HW128208   0.967   4.696   9.546  0.9882  0.5932  0.2557
 5525SOL    HW228209   1.060   4.635   9.643 -1.6394  1.8543  0.2548
 5526SOL     OW28210   1.228   0.452   6.421  0.2960 -1.1899 -0.1824
 5526SOL    HW128211   1.156   0.513   6.409 -0.3283 -1.8294  0.3639
 5526SOL    HW228212   1.266   0.434   6.335  2.3784  2.6674 -0.0626
 5527SOL     OW28213   4.367   0.070  16.477 -0.0002  1.0276 -0.0084
 5527SOL    HW128214   4.411   0.109  16.553 -0.5613  1.6085  0.0227
 5527SOL    HW228215   4.372   0.146  16.420 -0.4680  0.2474 -1.0795
 5528SOL     OW28216   2.866   3.851   3.339 -0.5312  0.0395 -0.1016
 5528SOL    HW128217   2.786   3.850   3.286 -0.2368 -0.6129 -0.5325
 5528SOL    HW228218   2.829   3.895   3.416  1.3404  2.7089 -0.7395
 5529SOL     OW28219   1.425   1.002  13.359 -0.3357 -0.2511 -0.6236
 5529SOL    HW128220   1.421   1.015  13.454  0.5161 -0.1417 -0.5934
 5529SOL    HW228221   1.420   1.094  13.333  0.3625  0.0659  0.3319
 5530SOL     OW28222   0.803   2.264  15.470  0.5039 -0.1492  0.8292
 5530SOL    HW128223   0.866   2.208  15.423 -2.2768  0.4107 -3.5289
 5530SOL    HW228224   0.852   2.309  15.540  0.4414  1.4538 -0.1546
 5531SOL     OW28225   4.376   3.090   2.620  0.1948 -0.2386 -0.0190
 5531SOL    HW128226   4.305   3.047   2.667 -0.3380  0.0063 -0.6082
 5531SOL    HW228227   4.437   3.018   2.641  0.4252  0.1828  0.7537
 5532SOL     OW28228   4.023   4.666  12.086 -0.0941 -0.1333  0.0144
 5532SOL    HW128229   4.074   4.586  12.090  0.9518  0.5401  0.1399
 5532SOL    HW228230   4.054   4.709  12.006  1.7937 -1.3702  0.0980
 5533SOL     OW28231   1.654   2.373   3.797  0.3233  0.3067 -0.1095
 5533SOL    HW128232   1.683   2.299   3.743  0.2445  0.2333 -0.0497
 5533SOL    HW228233   1.640   2.445   3.735 -3.3766 -1.2561 -1.0581
 5534SOL     OW28234   3.815   3.647   7.919  0.0606  0.5949 -0.5873
 5534SOL    HW128235   3.821   3.596   7.838  3.8354 -3.3001  2.0958
 5534SOL    HW228236   3.902   3.658   7.959  0.7897 -1.5838 -1.5621
 5535SOL     OW28237   2.432   3.173  13.350  0.2130  0.8363  0.0771
 5535SOL    HW128238   2.402   3.127  13.428 -0.5801 -1.4135 -1.5497
 5535SOL    HW228239   2.436   3.264  13.381 -1.3046  0.0224  2.6429
 5536SOL     OW28240   4.171   0.191   8.342 -0.0653 -0.0603 -0.2852
 5536SOL    HW128241   4.195   0.128   8.274  1.5932  2.6006 -2.1713
 5536SOL    HW228242   4.247   0.248   8.346 -0.2184  0.1833 -0.7476
 5537SOL     OW28243   0.901   4.652   7.493  0.1650 -0.3665  0.3236
 5537SOL    HW128244   0.861   4.657   7.579 -0.5475 -0.6485  0.0091
 5537SOL    HW228245   0.841   4.690   7.429 -0.8274 -0.9991  0.8839
 5538SOL     OW28246   4.628   1.940   6.922  0.3462  0.1135 -0.0419
 5538SOL    HW128247   4.707   1.975   6.880  0.3526  0.7862  0.5294
 5538SOL    HW228248   4.662   1.856   6.953 -0.2917 -0.0255  0.2656
 5539SOL     OW28249   1.168   2.724  13.673  0.2114  0.2825 -0.0526
 5539SOL    HW128250   1.127   2.645  13.708 -0.8054  0.1517 -1.5590
 5539SOL    HW228251   1.228   2.739  13.746 -1.1978  2.3279  0.6848
 5540SOL     OW28252   2.530   0.467   2.553  0.7136  0.2743  0.2669
 5540SOL    HW128253   2.583   0.429   2.483 -0.0005  0.7022 -0.5037
 5540SOL    HW228254   2.492   0.543   2.510  1.0411 -0.9760 -2.2178
 5541SOL     OW28255   0.919   2.536   9.526  0.0907 -0.2574  0.4021
 5541SOL    HW128256   0.902   2.445   9.502  2.3283  0.1362 -2.5594
 5541SOL    HW228257   0.911   2.528   9.621 -0.8157  0.2861  0.3749
 5542SOL     OW28258   4.131   2.850   6.295 -0.0938 -0.3292 -0.3449
 5542SOL    HW128259   4.082   2.805   6.363 -1.0474  1.2625  0.0334
 5542SOL    HW228260   4.209   2.872   6.347  0.4071 -2.0640 -0.3593
 5543SOL     OW28261   1.265   2.064   7.170 -0.1392  0.7693  0.1946
 5543SOL    HW128262   1.186   2.048   7.223 -0.1347  1.9044  0.5477
 5543SOL    HW228263   1.326   2.016   7.227 -2.1800 -2.5433 -0.4082
 5544SOL     OW28264   1.932   1.572   8.535  0.2215  0.3378 -0.1285
 5544SOL    HW128265   1.918   1.547   8.627 -1.0885  3.7287  0.5736
 5544SOL    HW228266   2.013   1.619   8.553  0.6491 -0.6299  0.5344
 5545SOL     OW28267   3.475   0.241   8.843 -0.0627 -0.1508 -0.6159
 5545SOL    HW128268   3.558   0.230   8.796  0.9423 -1.4962  1.4690
 5545SOL    HW228269   3.495   0.200   8.927 -0.5345  2.1337  0.6102
 5546SOL     OW28270   2.894   2.609  16.469  0.3909  0.1130 -0.1322
 5546SOL    HW128271   2.937   2.621  16.384  0.1975 -0.0857 -0.2571
 5546SOL    HW228272   2.838   2.532  16.459  1.6540 -0.5463 -2.1315
 5547SOL     OW28273   3.777   4.000   3.057 -0.1852  0.0601 -0.2343
 5547SOL    HW128274   3.737   3.976   2.973 -1.3276  1.9238 -0.2155
 5547SOL    HW228275   3.855   4.047   3.027  0.8633 -1.3169  0.3460
 5548SOL     OW28276   0.796   3.557   7.775 -0.2783  0.2436  0.3158
 5548SOL    HW128277   0.739   3.617   7.726  0.6225 -0.7825 -1.9913
 5548SOL    HW228278   0.859   3.622   7.806 -0.4929  0.3152  0.6085
 5549SOL     OW28279   0.029   2.151   6.678  0.0146  0.7472  0.2094
 5549SOL    HW128280   4.729   2.077   6.627  1.9538 -0.1496  0.2656
 5549SOL    HW228281   0.094   2.117   6.740 -0.3201 -0.2826 -0.0028
 5550SOL     OW28282   2.497   2.174   8.419 -0.6953 -0.8056 -0.1246
 5550SOL    HW128283   2.409   2.212   8.428  0.2348  1.0201  1.2643
 5550SOL    HW228284   2.478   2.087   8.453 -1.0180  0.4405  2.8889
 5551SOL     OW28285   0.132   1.468  16.619  0.1638 -0.1395 -0.0184
 5551SOL    HW128286   0.219   1.443  16.649  0.5230  1.3016  0.1377
 5551SOL    HW228287   0.085   1.393  16.583 -0.2095  1.2840 -2.5366
 5552SOL     OW28288   2.920   0.453   4.016  0.1974 -0.0506 -0.5233
 5552SOL    HW128289   2.873   0.390   4.071 -1.2780  1.7176  0.2037
 5552SOL    HW228290   3.009   0.420   4.028  0.1336 -0.5217 -1.3164
 5553SOL     OW28291   2.858   0.938   5.354 -0.1879  0.3085  0.0179
 5553SOL    HW128292   2.787   1.002   5.345  0.9763  2.0560  2.9549
 5553SOL    HW228293   2.845   0.886   5.275 -0.9680  2.1352 -1.0652
 5554SOL     OW28294   1.967   4.612   9.828  1.0605  0.3332 -0.3855
 5554SOL    HW128295   1.946   4.599   9.736  2.9846  0.1930 -0.7877
 5554SOL    HW228296   1.880   4.640   9.858  1.4245  0.4971  0.5303
 5555SOL     OW28297   0.651   2.810  10.595 -0.1037 -0.6904 -0.1405
 5555SOL    HW128298   0.603   2.821  10.677  1.7985 -1.2112  1.0404
 5555SOL    HW228299   0.740   2.826  10.626 -0.1860  0.2768 -0.4248
 5556SOL     OW28300   2.943   2.173   4.803 -0.3609  0.2321 -0.8624
 5556SOL    HW128301   2.941   2.124   4.885 -1.5596  1.2334 -0.2884
 5556SOL    HW228302   2.915   2.259   4.833 -2.4626 -0.1790 -1.6327
 5557SOL     OW28303   0.940   3.393   5.504 -0.1903  0.7139  0.4580
 5557SOL    HW128304   0.881   3.390   5.428  0.7555  1.1995 -0.3087
 5557SOL    HW228305   0.910   3.324   5.563  0.4925  0.6306  0.7037
 5558SOL     OW28306   0.858   4.402   1.705  0.0333 -0.6291 -0.5360
 5558SOL    HW128307   0.936   4.390   1.758  0.2141 -1.0424 -0.8888
 5558SOL    HW228308   0.806   4.335   1.749  0.9701 -1.6272 -0.9393
 5559SOL     OW28309   1.349   2.321   8.990  0.0469 -0.0365  0.0012
 5559SOL    HW128310   1.277   2.381   9.009  1.2153  0.9462  1.3205
 5559SOL    HW228311   1.420   2.384   8.976 -0.3323  0.0577 -1.5096
 5560SOL     OW28312   1.720   3.702   8.418  0.3455  0.0530  0.6022
 5560SOL    HW128313   1.696   3.757   8.343  0.7089  0.9525  1.1407
 5560SOL    HW228314   1.635   3.662   8.434 -0.2756  0.1087 -2.4651
 5561SOL     OW28315   1.751   1.128   0.192  0.3752  0.0328  0.1458
 5561SOL    HW128316   1.748   1.192   0.121  0.7903  0.2821  0.3503
 5561SOL    HW228317   1.747   1.193   0.262 -0.0014  0.8686 -0.6667
 5562SOL     OW28318   1.349   2.809  15.818 -0.2402  0.3517 -0.0866
 5562SOL    HW128319   1.398   2.753  15.758 -2.3558  1.9797 -3.3426
 5562SOL    HW228320   1.362   2.767  15.903 -1.1646 -0.6617 -0.4432
 5563SOL     OW28321   2.086   4.526   1.379 -0.2095  0.3580 -0.1724
 5563SOL    HW128322   2.033   4.584   1.433  2.0706  3.8218 -1.6645
 5563SOL    HW228323   2.026   4.506   1.307  0.3383  1.3920 -0.9116
 5564SOL     OW28324   4.029   4.589   3.708 -0.1286 -0.0911 -0.0272
 5564SOL    HW128325   3.987   4.512   3.670  0.9998  0.8867 -3.2267
 5564SOL    HW228326   3.978   4.597   3.788 -2.1425  1.8205 -1.4854
 5565SOL     OW28327   2.113   3.706   0.502 -0.7827  0.3276 -0.0735
 5565SOL    HW128328   2.120   3.799   0.523  1.8378 -0.3498  2.0143
 5565SOL    HW228329   2.194   3.690   0.453 -0.9796 -0.3520 -0.1741
 5566SOL     OW28330   3.962   3.100   9.438  0.3856  0.4648 -0.7565
 5566SOL    HW128331   3.974   3.106   9.533 -2.8592 -1.7225 -0.2138
 5566SOL    HW228332   3.876   3.143   9.428 -0.8120 -1.1821  2.5212
 5567SOL     OW28333   0.696   0.047  16.714  0.7229 -0.7661  0.2685
 5567SOL    HW128334   0.657   4.706  16.762 -1.9653  0.8920  0.6284
 5567SOL    HW228335   0.776   0.064  16.763 -0.8679  0.9749  2.2505
 5568SOL     OW28336   3.140   3.088   8.793 -0.2140 -0.3668  0.0651
 5568SOL    HW128337   3.147   3.180   8.818 -1.8630  0.5811 -2.9429
 5568SOL    HW228338   3.046   3.076   8.809 -0.3534  0.3341 -0.2486
 5569SOL     OW28339   3.326   2.397   2.481  0.2322  0.4979  0.5252
 5569SOL    HW128340   3.231   2.384   2.472  0.0619  1.8721  0.2555
 5569SOL    HW228341   3.366   2.315   2.451  0.4187  0.6073  0.4737
 5570SOL     OW28342   2.978   4.700   1.888  0.5374 -0.2426  0.5177
 5570SOL    HW128343   3.027   4.719   1.808  1.3632  1.9907  1.5547
 5570SOL    HW228344   3.021   0.024   1.952 -2.2370  1.6278  0.7294
 5571SOL     OW28345   0.746   2.263  16.452 -0.3450 -0.6716 -0.2129
 5571SOL    HW128346   0.659   2.288  16.484  0.6592  2.0019  0.4865
 5571SOL    HW228347   0.764   2.339  16.395  0.5499  0.0341  1.0054
 5572SOL     OW28348   3.502   2.550   8.630 -0.1056 -0.2118 -0.0408
 5572SOL    HW128349   3.416   2.539   8.589  0.6588  0.5704 -1.8930
 5572SOL    HW228350   3.506   2.499   8.710  0.3783  0.2798  0.2482
 5573SOL     OW28351   3.945   1.366   5.121 -0.1737 -0.3562  0.3836
 5573SOL    HW128352   3.946   1.414   5.038  1.3589  1.0335  1.2015
 5573SOL    HW228353   3.890   1.416   5.180 -0.4132 -1.0548  0.7518
 5574SOL     OW28354   0.322   4.230   2.311 -0.4986 -0.1280  0.4158
 5574SOL    HW128355   0.248   4.289   2.325 -2.3946 -1.7403 -2.6967
 5574SOL    HW228356   0.336   4.225   2.216 -0.7245 -1.5486  0.4619
 5575SOL     OW28357   0.401   2.238   3.219  0.0067 -0.5994 -0.1487
 5575SOL    HW128358   0.480   2.191   3.193  1.9310  1.3977  2.1488
 5575SOL    HW228359   0.432   2.297   3.288 -0.8894 -0.6418  0.2903
 5576SOL     OW28360   1.141   2.929   8.999  0.3262  0.6042 -0.5021
 5576SOL    HW128361   1.069   2.895   9.052  1.4472  1.9695  1.8966
 5576SOL    HW228362   1.076   2.985   8.956 -0.0061 -0.1810 -1.0319
 5577SOL     OW28363   4.394   2.965   6.376  0.0054  0.0949 -0.0200
 5577SOL    HW128364   4.360   3.039   6.325  0.5442  0.1478 -0.3056
 5577SOL    HW228365   4.451   2.918   6.314  0.8508  0.9786  0.0896
 5578SOL     OW28366   0.817   2.070   6.094 -0.4288 -0.3358  0.0780
 5578SOL    HW128367   0.824   2.008   6.021 -2.3537 -0.7221  0.2168
 5578SOL    HW228368   0.824   2.008   6.166  1.6261  0.1279  0.2648
 5579SOL     OW28369   2.397   4.060  16.180  0.3963 -0.2731 -0.3687
 5579SOL    HW128370   2.423   3.968  16.187  0.7666  0.0491  2.3751
 5579SOL    HW228371   2.350   4.052  16.097  0.1811  0.7533 -0.3456
 5580SOL     OW28372   0.773   3.031   5.170 -0.0426 -0.6006 -0.7869
 5580SOL    HW128373   0.722   2.959   5.131  0.6528 -1.2786 -0.4309
 5580SOL    HW228374   0.793   3.003   5.259  2.3405  0.2913 -1.0552
 5581SOL     OW28375   3.368   1.098   1.965  0.0343 -0.4543 -0.2510
 5581SOL    HW128376   3.382   1.161   1.895  0.2340  0.0669  0.2572
 5581SOL    HW228377   3.302   1.049   1.916 -0.2761 -1.3926  1.1141
 5582SOL     OW28378   4.686   3.777   3.492  0.1895 -0.1401  0.1715
 5582SOL    HW128379   0.023   3.778   3.426  0.0399 -1.4474  0.0094
 5582SOL    HW228380   4.615   3.810   3.437 -0.9027  1.5099  2.5633
 5583SOL     OW28381   3.317   4.029   2.915 -0.6564  0.1164  0.4739
 5583SOL    HW128382   3.340   3.938   2.935  0.7714  0.6125  1.0950
 5583SOL    HW228383   3.311   4.032   2.819  1.8524  3.1993  0.4367
 5584SOL     OW28384   1.403   4.314   2.843  0.0752 -0.1704  0.0693
 5584SOL    HW128385   1.333   4.358   2.794  0.6264  0.8759  0.2190
 5584SOL    HW228386   1.384   4.223   2.818 -3.0802  0.1434  1.3145
 5585SOL     OW28387   1.581   3.006  16.416 -0.2141 -0.1402  0.1186
 5585SOL    HW128388   1.628   3.077  16.460 -0.2821 -0.2656  0.3918
 5585SOL    HW228389   1.491   3.036  16.427  1.1063  3.8929 -0.1928
 5586SOL     OW28390   1.749   3.482   7.405  0.5101 -0.3586  0.1139
 5586SOL    HW128391   1.708   3.402   7.439 -0.2231  0.4549  1.1364
 5586SOL    HW228392   1.670   3.531   7.382  0.3925 -1.4549 -1.8032
 5587SOL     OW28393   0.350   2.390   8.097 -0.2602 -0.1788 -0.4726
 5587SOL    HW128394   0.359   2.437   8.180 -2.1029 -2.0079  0.7497
 5587SOL    HW228395   0.256   2.375   8.099 -0.4084  0.9019  0.6096
 5588SOL     OW28396   0.410   0.299   5.144 -0.9251  0.4617  0.2640
 5588SOL    HW128397   0.394   0.205   5.139 -2.7678  0.8281 -0.7491
 5588SOL    HW228398   0.325   0.340   5.156 -0.0083  2.3611  0.3466
 5589SOL     OW28399   0.648   2.899   2.593  0.3209 -0.3352 -0.4866
 5589SOL    HW128400   0.651   2.855   2.678  2.2900  0.6863 -0.0393
 5589SOL    HW228401   0.613   2.987   2.607 -2.0779 -1.1214 -1.5702
 5590SOL     OW28402   2.445   1.985  15.464  0.2167 -0.6527 -0.0322
 5590SOL    HW128403   2.515   1.981  15.399  0.6602 -0.1444  0.4148
 5590SOL    HW228404   2.390   1.915  15.429 -2.9260  1.9599 -0.2783
 5591SOL     OW28405   2.680   3.687   5.312  0.3875 -0.3170 -0.2684
 5591SOL    HW128406   2.730   3.641   5.380 -0.8900 -0.2350  0.7288
 5591SOL    HW228407   2.602   3.632   5.312 -0.5316  0.9674 -0.5504
 5592SOL     OW28408   2.116   2.608   7.663 -0.5874 -0.1387  0.0620
 5592SOL    HW128409   2.067   2.654   7.595 -1.9515  0.5567  1.5038
 5592SOL    HW228410   2.193   2.575   7.617  0.4308 -0.2288  1.8330
 5593SOL     OW28411   1.372   4.157  13.815 -0.1635  0.4490  0.2499
 5593SOL    HW128412   1.381   4.136  13.722 -0.8598 -0.4020  0.3773
 5593SOL    HW228413   1.447   4.115  13.856  0.8527  0.5651 -1.4974
 5594SOL     OW28414   0.027   3.979  15.632  0.2327  0.0357 -0.4041
 5594SOL    HW128415   4.671   3.944  15.622  0.5784 -0.7494 -0.6492
 5594SOL    HW228416   0.050   3.977  15.539  1.1791 -0.4954 -0.1571
 5595SOL     OW28417   0.254   2.862   9.080  0.1467 -0.1166  0.0427
 5595SOL    HW128418   0.165   2.898   9.073  0.6118  1.2551  0.9978
 5595SOL    HW228419   0.275   2.885   9.171 -0.8273  0.4039  0.1433
 5596SOL     OW28420   3.778   4.398   3.156 -0.4209 -0.3272  0.1965
 5596SOL    HW128421   3.685   4.413   3.137 -0.0546 -0.6895 -1.8089
 5596SOL    HW228422   3.824   4.368   3.078 -1.4035 -1.4014  0.0331
 5597SOL     OW28423   1.932   0.374   1.849 -0.6636  0.3440 -0.4571
 5597SOL    HW128424   1.925   0.282   1.874  1.5881  0.4365  0.5784
 5597SOL    HW228425   1.919   0.425   1.929  0.5635  0.0106 -0.0365
 5598SOL     OW28426   4.111   4.487   1.702  0.0582 -0.1465 -0.0304
 5598SOL    HW128427   4.113   4.396   1.672 -0.2379  0.2340 -1.2055
 5598SOL    HW228428   4.026   4.489   1.746  0.1410 -0.8683  0.1576
 5599SOL     OW28429   4.589   2.115  11.316 -0.2269 -0.2465 -0.0523
 5599SOL    HW128430   4.680   2.141  11.302 -0.2708 -1.0145 -1.7590
 5599SOL    HW228431   4.600   2.041  11.376 -0.5713  0.0219  0.3476
 5600SOL     OW28432   3.502   1.369   2.749  0.2721 -0.1611 -0.1629
 5600SOL    HW128433   3.437   1.300   2.735 -0.4753  1.1050 -2.8613
 5600SOL    HW228434   3.580   1.321   2.779  0.2253 -0.5727 -0.7070
 5601SOL     OW28435   2.523   3.811   9.769  0.2700  0.1019  0.4501
 5601SOL    HW128436   2.452   3.782   9.711 -1.8842  1.5662  2.3577
 5601SOL    HW228437   2.500   3.904   9.772  1.7613  0.4800  0.2313
 5602SOL     OW28438   3.994   0.465   5.873  0.0478  0.4384 -0.0756
 5602SOL    HW128439   3.907   0.428   5.890 -0.6396  2.1108  0.0234
 5602SOL    HW228440   3.992   0.543   5.928 -0.2215 -0.5589  1.3078
 5603SOL     OW28441   2.971   1.753   0.729  0.4441 -0.3995 -0.1671
 5603SOL    HW128442   3.013   1.834   0.757 -1.1887  0.7797 -1.0980
 5603SOL    HW228443   3.008   1.696   0.797  0.1005 -1.4492 -0.8550
 5604SOL     OW28444   1.074   4.048   4.984 -0.6579  0.0943  0.0450
 5604SOL    HW128445   1.037   4.051   5.072 -0.0521  0.8004  0.2812
 5604SOL    HW228446   1.065   4.135   4.945  1.0101 -0.0112 -0.5875
 5605SOL     OW28447   3.763   2.660   8.616 -0.4373  0.0369  0.3105
 5605SOL    HW128448   3.681   2.632   8.574 -1.2609 -1.0146  2.6042
 5605SOL    HW228449   3.754   2.755   8.611  0.7498  0.0664 -1.1494
 5606SOL     OW28450   2.723   2.794   4.469  1.1691  0.1806  0.9614
 5606SOL    HW128451   2.643   2.776   4.420  0.9852  2.3592  0.4399
 5606SOL    HW228452   2.778   2.837   4.403 -0.8234  1.8160  0.3389
 5607SOL     OW28453   2.351   1.917  17.712 -0.1810 -0.0053 -0.6436
 5607SOL    HW128454   2.290   1.973   0.032 -0.3074 -0.2782 -0.4855
 5607SOL    HW228455   2.384   1.859   0.053 -0.5469  1.7716  1.0380
 5608SOL     OW28456   2.056   3.482   1.161  0.6363 -0.0975  0.3719
 5608SOL    HW128457   2.065   3.389   1.142 -0.5982 -0.2635  0.6185
 5608SOL    HW228458   1.992   3.509   1.095  2.2450 -1.0009 -1.5602
 5609SOL     OW28459   3.369   0.201   4.660 -0.2960 -0.1330  0.3002
 5609SOL    HW128460   3.402   0.266   4.722  0.7533 -0.9073  0.5680
 5609SOL    HW228461   3.379   0.118   4.707  1.0201 -0.4736 -0.5635
 5610SOL     OW28462   3.373   3.230   5.838 -0.6398 -0.2705 -0.1955
 5610SOL    HW128463   3.298   3.175   5.815 -1.6324  1.3383 -0.7730
 5610SOL    HW228464   3.323   3.288   5.896  0.6896  2.0389 -1.3479
 5611SOL     OW28465   0.260   0.511   7.016  0.7654 -0.3450  0.0796
 5611SOL    HW128466   0.297   0.514   6.927  0.0274  0.0088 -0.2111
 5611SOL    HW228467   0.199   0.437   7.017 -0.8626  0.9787 -2.8672
 5612SOL     OW28468   4.430   0.632   5.567 -0.0389  0.7200 -0.1793
 5612SOL    HW128469   4.403   0.599   5.652 -0.4163  0.2509 -0.4788
 5612SOL    HW228470   4.457   0.554   5.519  3.1580  1.1554  0.9361
 5613SOL     OW28471   3.660   3.927   6.505  0.9005  0.2232  0.3417
 5613SOL    HW128472   3.576   3.941   6.549  0.4564 -1.1952 -0.0502
 5613SOL    HW228473   3.690   3.853   6.558 -1.0002  0.3470  1.5708
 5614SOL     OW28474   4.640   0.100   9.262 -0.0718  0.1512  0.1810
 5614SOL    HW128475   4.635   0.191   9.289 -0.6230  0.3436 -0.5558
 5614SOL    HW228476   4.562   0.064   9.303  1.2840  0.4814  3.0548
 5615SOL     OW28477   3.328   2.269   6.409 -1.0720 -0.3252  0.3532
 5615SOL    HW128478   3.247   2.234   6.447  0.2169 -1.4657  2.0319
 5615SOL    HW228479   3.356   2.334   6.474  1.7021 -1.9290  0.7116
 5616SOL     OW28480   4.606   0.385  16.516  0.0146 -0.2985 -0.0239
 5616SOL    HW128481   4.655   0.460  16.549  1.4054 -0.9889 -0.5563
 5616SOL    HW228482   4.605   0.316  16.584 -0.1950  0.0634  0.3401
 5617SOL     OW28483   1.407   1.710   8.786 -0.3473 -0.2860 -0.0870
 5617SOL    HW128484   1.470   1.782   8.786  1.0619 -1.5355 -1.2051
 5617SOL    HW228485   1.370   1.713   8.697 -0.4293  0.3448 -0.0356
 5618SOL     OW28486   1.141   2.420   6.829  0.0555  0.2552  0.5307
 5618SOL    HW128487   1.212   2.406   6.766  1.1818  0.5718  1.7245
 5618SOL    HW228488   1.181   2.377   6.905  0.2936 -0.1525  0.1698
 5619SOL     OW28489   1.682   1.323   7.190  0.3039  0.3166 -0.0093
 5619SOL    HW128490   1.746   1.290   7.128 -0.6253 -0.4487 -0.5583
 5619SOL    HW228491   1.732   1.349   7.267 -0.3914  3.3007 -0.5487
 5620SOL     OW28492   0.703   3.981   5.848 -0.8184  0.0876  0.4131
 5620SOL    HW128493   0.731   3.904   5.897 -0.1411  0.1631  0.1424
 5620SOL    HW228494   0.779   4.039   5.843 -1.3778  0.6704 -1.4690
 5621SOL     OW28495   3.105   1.231   8.321 -0.4437 -0.3990 -0.0002
 5621SOL    HW128496   3.118   1.320   8.353 -1.6682 -0.4935  0.7598
 5621SOL    HW228497   3.101   1.242   8.226 -0.3107  0.4747  0.1006
 5622SOL     OW28498   4.485   4.728   9.480  0.3485 -0.2433 -0.7814
 5622SOL    HW128499   4.407   0.040   9.514  2.1042  0.2807  2.6013
 5622SOL    HW228500   4.538   4.719   9.559  0.0877  0.0029 -0.5788
 5623SOL     OW28501   3.023   2.697   7.661  0.0193  0.2960 -0.3100
 5623SOL    HW128502   2.950   2.696   7.722 -0.2911 -2.8890 -0.7333
 5623SOL    HW228503   3.044   2.791   7.665 -1.9676  0.6016  2.8879
 5624SOL     OW28504   4.553   1.887   9.470 -0.1325  0.1506 -0.2236
 5624SOL    HW128505   4.564   1.802   9.428 -1.4265  1.3206 -2.9834
 5624SOL    HW228506   4.556   1.955   9.402  2.2621 -0.8814 -1.1573
 5625SOL     OW28507   2.295   0.099  17.626 -0.0502  0.2182  0.6497
 5625SOL    HW128508   2.390   0.097  17.640  0.0046  2.4409  0.6245
 5625SOL    HW228509   2.278   0.018  17.577  1.4421 -0.2879  0.9528
 5626SOL     OW28510   0.901   4.300   2.851 -0.0202 -0.0263 -0.1163
 5626SOL    HW128511   0.961   4.373   2.869  0.6968 -0.9775  1.3794
 5626SOL    HW228512   0.818   4.342   2.828  0.3425  0.9391  0.3283
 5627SOL     OW28513   1.353   3.157   5.929  0.4529  0.1675  0.2313
 5627SOL    HW128514   1.363   3.066   5.957 -0.0227 -0.1440 -0.5797
 5627SOL    HW228515   1.419   3.209   5.975  1.4794  1.1274 -2.2944
 5628SOL     OW28516   2.216   4.256  16.622  0.1817  0.7885 -0.0894
 5628SOL    HW128517   2.211   4.225  16.532 -1.4645  0.6717  0.0524
 5628SOL    HW228518   2.148   4.208  16.669  1.4925 -2.2613 -1.3258
 5629SOL     OW28519   1.965   4.217  13.714  0.5282 -0.2087  1.0122
 5629SOL    HW128520   2.015   4.194  13.636 -1.3274  0.2735 -0.3251
 5629SOL    HW228521   1.918   4.293  13.680  1.4858  0.0608  0.2876
 5630SOL     OW28522   3.066   1.405   8.968  0.1136  0.9603  0.7359
 5630SOL    HW128523   3.038   1.379   9.056 -0.3170  0.8365  0.5632
 5630SOL    HW228524   3.115   1.486   8.982  2.2486 -0.2572  0.2931
 5631SOL     OW28525   0.706   0.890   7.949 -0.0709  0.3576 -0.0598
 5631SOL    HW128526   0.622   0.891   7.903 -0.1830 -2.0192  0.1291
 5631SOL    HW228527   0.681   0.880   8.040 -0.9671  1.1597 -0.2204
 5632SOL     OW28528   3.712   3.246   1.644 -0.2928 -0.0944  0.3271
 5632SOL    HW128529   3.719   3.331   1.600  0.4778  0.6622  1.9243
 5632SOL    HW228530   3.743   3.191   1.572 -1.9349  0.2594 -0.6314
 5633SOL     OW28531   0.900   4.706   1.626 -0.4523 -0.5268  0.0398
 5633SOL    HW128532   0.835   4.636   1.634 -1.3479  0.1447 -1.2547
 5633SOL    HW228533   0.966   4.679   1.690 -0.7977 -1.3243  0.0558
 5634SOL     OW28534   2.656   1.254  16.230  0.0981 -0.0197  0.0650
 5634SOL    HW128535   2.607   1.292  16.157  1.6486  0.5715 -0.6450
 5634SOL    HW228536   2.700   1.335  16.256 -0.6042  0.0535  1.0732
 5635SOL     OW28537   2.653   3.409  10.825 -0.5819 -0.2338  0.4671
 5635SOL    HW128538   2.681   3.486  10.776 -1.7637 -1.5430 -2.2689
 5635SOL    HW228539   2.664   3.436  10.916  1.2465  0.5314  0.0291
 5636SOL     OW28540   1.247   2.407   8.418 -0.4141 -1.0641 -0.8193
 5636SOL    HW128541   1.193   2.381   8.493  0.1936  1.2318  0.4059
 5636SOL    HW228542   1.333   2.376   8.444  0.6713  1.7204 -1.1092
 5637SOL     OW28543   0.043   1.141   7.735  0.3491  0.1788 -0.1264
 5637SOL    HW128544   0.049   1.198   7.659  0.8451  0.0148 -0.2075
 5637SOL    HW228545   0.115   1.173   7.790  1.2931  0.8218 -1.7373
 5638SOL     OW28546   2.968   2.775   4.206  0.3394 -0.1151 -0.1877
 5638SOL    HW128547   2.976   2.712   4.277 -1.6292 -1.5830 -1.2703
 5638SOL    HW228548   3.003   2.848   4.257  0.8038 -0.3393 -0.1918
 5639SOL     OW28549   0.052   1.877  14.785  0.1015 -0.3260  0.7834
 5639SOL    HW128550   0.145   1.866  14.765  0.4357  1.2201  1.4885
 5639SOL    HW228551   0.049   1.968  14.817  0.2272 -0.7192  1.9122
 5640SOL     OW28552   1.398   1.466   8.668  0.4483  0.0965 -0.2936
 5640SOL    HW128553   1.323   1.415   8.698 -0.6365  1.6446 -0.3415
 5640SOL    HW228554   1.425   1.503   8.752 -0.5468 -0.5327  0.3051
 5641SOL     OW28555   3.170   0.869   4.510  0.3102 -0.2888  0.4144
 5641SOL    HW128556   3.141   0.948   4.556  3.0598 -0.9287  3.2602
 5641SOL    HW228557   3.147   0.810   4.582  1.4393 -2.1705 -0.7715
 5642SOL     OW28558   1.981   0.141   9.564  0.2899  0.3460  0.0521
 5642SOL    HW128559   1.923   0.142   9.488 -0.8001  0.5180  0.8799
 5642SOL    HW228560   1.935   0.207   9.617  0.5413  0.0864  0.5809
 5643SOL     OW28561   3.986   0.284   2.756 -0.6764 -0.1186  0.5842
 5643SOL    HW128562   4.024   0.372   2.753 -0.6146 -0.1162  1.6834
 5643SOL    HW228563   3.905   0.304   2.803 -0.8058  4.1977 -1.4764
 5644SOL     OW28564   3.405   0.569   3.575 -0.2284 -0.5279 -0.0729
 5644SOL    HW128565   3.351   0.626   3.520 -0.5426 -1.6077 -0.8803
 5644SOL    HW228566   3.482   0.626   3.579  1.7018 -2.9804 -2.0380
 5645SOL     OW28567   0.899   3.807   7.862 -0.2203 -0.1418  0.0015
 5645SOL    HW128568   0.857   3.892   7.875 -0.5020 -0.2325 -0.3106
 5645SOL    HW228569   0.968   3.830   7.800 -1.3287  0.9571 -0.8104
 5646SOL     OW28570   0.032   0.338   8.998  0.1019  0.1556  0.0169
 5646SOL    HW128571   0.098   0.284   9.043  1.0977  0.8935 -0.5548
 5646SOL    HW228572   4.704   0.275   8.959 -0.7836  0.1363  1.4125
 5647SOL     OW28573   2.855   2.026   9.180 -0.4059 -0.1834 -0.0132
 5647SOL    HW128574   2.760   2.022   9.168 -0.0620 -0.6058 -2.5252
 5647SOL    HW228575   2.879   1.995   9.267  0.5666  1.8200  0.4307
 5648SOL     OW28576   1.821   2.520   3.062 -0.2543 -0.4103  0.3121
 5648SOL    HW128577   1.843   2.458   2.992  1.4517  0.0995  0.3789
 5648SOL    HW228578   1.798   2.603   3.020  0.9101 -0.6828 -0.8907
 5649SOL     OW28579   1.728   3.599  10.428  0.8645 -0.2130  0.3471
 5649SOL    HW128580   1.697   3.582  10.339  1.5972  1.4609 -0.2204
 5649SOL    HW228581   1.679   3.538  10.483  0.1231 -0.7497 -0.8999
 5650SOL     OW28582   0.773   2.080  15.881 -0.4501  0.1601 -0.3175
 5650SOL    HW128583   0.758   2.156  15.937 -0.8923  0.1060 -0.3625
 5650SOL    HW228584   0.690   2.077  15.833 -0.9475  0.1126  0.5535
 5651SOL     OW28585   0.360   0.495   6.440 -0.3408 -0.5299 -0.1130
 5651SOL    HW128586   0.367   0.400   6.436 -1.0507 -0.6715  1.9471
 5651SOL    HW228587   0.310   0.507   6.521  1.5604  0.7352  0.8559
 5652SOL     OW28588   4.072   3.433   4.763  0.0111 -0.1183  0.4169
 5652SOL    HW128589   4.024   3.510   4.794  0.3784  1.1574 -2.1787
 5652SOL    HW228590   4.077   3.376   4.839 -0.7095 -0.4875  0.1915
 5653SOL     OW28591   3.111   2.004   3.295 -0.6775 -1.0190  0.4601
 5653SOL    HW128592   3.090   2.026   3.205  2.1137  0.7096  0.2310
 5653SOL    HW228593   3.178   2.064   3.326 -1.3666 -0.8918  1.7192
 5654SOL     OW28594   0.934   2.304   5.914 -0.4470  0.3230 -0.7544
 5654SOL    HW128595   1.008   2.244   5.920 -1.5153 -0.7600  1.3509
 5654SOL    HW228596   0.864   2.253   5.954 -1.1751  0.9189 -1.2576
 5655SOL     OW28597   1.231   3.498   4.126  0.1262 -0.0143 -0.1944
 5655SOL    HW128598   1.137   3.488   4.111  0.2261 -0.2868 -0.6596
 5655SOL    HW228599   1.243   3.437   4.198  0.1419  0.4353  0.1833
 5656SOL     OW28600   3.209   2.824   4.372  0.5947  0.3793  0.7803
 5656SOL    HW128601   3.220   2.758   4.441  2.9910 -1.1319 -1.0785
 5656SOL    HW228602   3.138   2.881   4.403 -0.0819  0.1485 -0.3316
 5657SOL     OW28603   3.633   2.382   1.171  0.3624  0.0576  0.6516
 5657SOL    HW128604   3.727   2.401   1.173 -0.1439  2.8838 -1.9742
 5657SOL    HW228605   3.626   2.307   1.229  2.3288 -0.3523  0.3663
 5658SOL     OW28606   4.673   0.033   6.704  0.4510 -0.0263  0.2516
 5658SOL    HW128607   4.664   0.026   6.609 -0.1446 -0.2550  0.3239
 5658SOL    HW228608   4.630   4.686   6.738  0.5493 -0.3382 -0.3496
 5659SOL     OW28609   2.119   3.246   8.035 -0.1167  0.0379  0.2440
 5659SOL    HW128610   2.095   3.334   8.066  2.4848  0.7741  0.1589
 5659SOL    HW228611   2.187   3.223   8.098 -0.8172 -0.2142  0.8977
 5660SOL     OW28612   0.266   2.431   5.802  0.0040  0.0165  0.1452
 5660SOL    HW128613   0.230   2.397   5.720 -1.2123 -0.9848  1.0905
 5660SOL    HW228614   0.294   2.518   5.775 -0.2325  0.3513  0.9831
 5661SOL     OW28615   2.772   0.063   2.861  0.1607  0.4189 -0.3013
 5661SOL    HW128616   2.684   0.096   2.881  0.0193 -0.9256  1.3098
 5661SOL    HW228617   2.803   0.066   2.951 -0.1276  1.2759 -0.2344
 5662SOL     OW28618   1.093   2.161  14.052  0.1954  0.1862  0.0907
 5662SOL    HW128619   1.095   2.206  14.137 -1.0895 -0.8601  0.6591
 5662SOL    HW228620   1.004   2.178  14.022 -0.1402 -0.0472  0.9566
 5663SOL     OW28621   3.666   1.989  14.434  0.1201 -0.3426  0.0816
 5663SOL    HW128622   3.649   1.968  14.526 -1.9659 -0.2491 -0.2896
 5663SOL    HW228623   3.598   2.055  14.426 -2.0413 -2.6697 -0.6075
 5664SOL     OW28624   1.455   1.815   1.276  0.2276  0.3147 -0.1231
 5664SOL    HW128625   1.429   1.900   1.242  0.1791  0.0951 -0.6335
 5664SOL    HW228626   1.495   1.843   1.358 -0.5210 -1.5243  0.8843
 5665SOL     OW28627   2.766   2.557   6.566  0.0942  0.7923 -0.2318
 5665SOL    HW128628   2.674   2.565   6.591  0.5916  2.3892  1.1140
 5665SOL    HW228629   2.791   2.642   6.531 -2.2753  1.3536 -0.5472
 5666SOL     OW28630   2.694   1.634   3.750  0.1002 -0.6239  0.3911
 5666SOL    HW128631   2.665   1.543   3.746 -2.5059  0.2065 -0.0580
 5666SOL    HW228632   2.780   1.622   3.710  0.1550  0.0891  0.2836
 5667SOL     OW28633   3.223   0.089   7.134 -0.1145  0.2505  0.3244
 5667SOL    HW128634   3.281   0.103   7.059 -2.6271 -0.4493 -1.7742
 5667SOL    HW228635   3.273   0.030   7.189 -0.3188 -0.3938 -0.1777
 5668SOL     OW28636   4.728   2.767   9.268  0.1270  0.0776  0.2402
 5668SOL    HW128637   0.018   2.681   9.232 -0.9653 -0.5868  1.1325
 5668SOL    HW228638   4.637   2.753   9.295  0.8727  1.3715  3.4825
 5669SOL     OW28639   2.870   1.443   0.652 -0.0792  0.1340  0.5968
 5669SOL    HW128640   2.819   1.394   0.587  0.2291 -2.1691  2.0823
 5669SOL    HW228641   2.951   1.459   0.604 -0.1381  1.5910  0.9935
 5670SOL     OW28642   2.180   3.366  14.602  0.6010 -0.7555 -0.0359
 5670SOL    HW128643   2.171   3.283  14.647  0.3399  0.5588  2.3331
 5670SOL    HW228644   2.093   3.406  14.601  1.5039  1.2287  0.7947
 5671SOL     OW28645   4.325   0.903   1.729  0.2603  0.3087  0.1287
 5671SOL    HW128646   4.369   0.984   1.754 -1.3221  0.5251  2.2771
 5671SOL    HW228647   4.284   0.915   1.644 -1.4894 -2.2743  0.6083
 5672SOL     OW28648   4.240   0.066   9.592  0.3900  0.1674 -0.2188
 5672SOL    HW128649   4.185   0.126   9.642  0.9361  0.2787  0.2530
 5672SOL    HW228650   4.197   4.713   9.598 -0.0982  0.5023  0.9826
 5673SOL     OW28651   1.868   0.747   6.346  0.2491 -0.6783  0.2664
 5673SOL    HW128652   1.867   0.687   6.271  0.6052  2.0660 -1.9578
 5673SOL    HW228653   1.956   0.784   6.334 -0.8745  1.6922 -0.6686
 5674SOL     OW28654   0.101   2.302   8.163  0.2835 -0.0700 -0.0674
 5674SOL    HW128655   0.032   2.367   8.176 -0.7040 -0.9788 -0.8458
 5674SOL    HW228656   0.058   2.223   8.131 -3.0723  1.3410  1.0113
 5675SOL     OW28657   3.849   1.972   7.846 -0.3594  0.1319 -0.3540
 5675SOL    HW128658   3.929   1.957   7.897  0.1989 -1.5926 -1.7187
 5675SOL    HW228659   3.858   2.065   7.825 -0.7877 -0.0159 -1.1648
 5676SOL     OW28660   2.356   4.252   6.603  0.0196 -0.0251  0.3068
 5676SOL    HW128661   2.350   4.345   6.579  0.8887 -0.1997 -0.5702
 5676SOL    HW228662   2.402   4.272   6.684  0.9795  0.1272 -0.2776
 5677SOL     OW28663   3.731   1.246   4.850  0.3501  0.0590 -0.0038
 5677SOL    HW128664   3.795   1.310   4.880 -2.7372  3.8150 -1.4883
 5677SOL    HW228665   3.651   1.289   4.881  1.7493  3.2194 -0.7999
 5678SOL     OW28666   3.869   3.463   4.205 -0.2702  0.3516  0.1522
 5678SOL    HW128667   3.859   3.515   4.125 -0.4327  0.0579 -0.0205
 5678SOL    HW228668   3.795   3.405   4.191  0.5950 -0.3274 -1.6173
 5679SOL     OW28669   2.807   4.084   2.217  0.8170  0.0575 -0.4221
 5679SOL    HW128670   2.775   4.164   2.258  1.2375  0.5923 -1.1318
 5679SOL    HW228671   2.816   4.033   2.297 -0.5985  1.4522  0.6166
 5680SOL     OW28672   3.415   3.196  10.435 -0.1188 -0.0960  0.1968
 5680SOL    HW128673   3.418   3.113  10.482  0.9682 -0.2865 -0.2192
 5680SOL    HW228674   3.377   3.242  10.510 -1.6056 -0.8984 -0.0685
 5681SOL     OW28675   2.686   3.052  15.564 -0.6216 -0.0388  0.3481
 5681SOL    HW128676   2.780   3.059  15.582 -0.2789  0.2279 -1.5011
 5681SOL    HW228677   2.675   3.104  15.484 -0.0210  1.1186  1.0076
 5682SOL     OW28678   1.274   2.141   6.420  0.0169 -0.3613  0.0583
 5682SOL    HW128679   1.234   2.129   6.334  0.7078  2.7587 -0.7087
 5682SOL    HW228680   1.205   2.102   6.474  0.7304 -1.1925  0.3742
 5683SOL     OW28681   3.328   0.514   9.670 -0.2388 -0.5438 -0.0676
 5683SOL    HW128682   3.410   0.465   9.671 -0.2288 -0.4393  2.3872
 5683SOL    HW228683   3.343   0.570   9.746 -0.5006 -1.3874  0.5931
 5684SOL     OW28684   0.667   1.500  15.449  0.2765  0.1286  0.3982
 5684SOL    HW128685   0.626   1.425  15.492 -0.2130  0.5324  0.6269
 5684SOL    HW228686   0.705   1.540  15.527  1.3809 -0.9331  0.4134
 5685SOL     OW28687   1.056   2.206   5.136  0.3999 -0.3485 -0.2730
 5685SOL    HW128688   1.022   2.273   5.196  2.7335 -0.1565  0.8165
 5685SOL    HW228689   1.142   2.244   5.120  0.5081 -0.9372 -1.0619
 5686SOL     OW28690   0.504   0.736  15.421 -0.1441  0.1892  0.7315
 5686SOL    HW128691   0.562   0.730  15.345 -0.8006 -1.2802  0.3528
 5686SOL    HW228692   0.448   0.659  15.423 -1.1743  0.9843  2.4961
 5687SOL     OW28693   3.021   0.806   7.145 -0.1535  0.2029  0.7096
 5687SOL    HW128694   3.069   0.754   7.081 -2.0867 -1.5722  0.6704
 5687SOL    HW228695   3.060   0.892   7.135  1.5955 -0.6176  0.5084
 5688SOL     OW28696   2.636   0.982   7.632 -0.2718 -0.0364  0.4837
 5688SOL    HW128697   2.607   0.892   7.648  1.8850 -0.4225  2.1950
 5688SOL    HW228698   2.731   0.971   7.631 -0.2779 -0.1359  1.4861
 5689SOL     OW28699   0.197   0.101   2.108 -0.1693  0.2449 -0.5400
 5689SOL    HW128700   0.166   0.189   2.129 -0.5638  0.4779 -2.1366
 5689SOL    HW228701   0.110   0.063   2.115  0.2390 -1.5125 -5.2157
 5690SOL     OW28702   4.387   1.186  15.446 -0.5031 -0.5607 -0.2480
 5690SOL    HW128703   4.313   1.151  15.397 -0.7536 -1.5911  0.8514
 5690SOL    HW228704   4.457   1.205  15.384 -1.6998 -0.1556 -1.4760
 5691SOL     OW28705   1.559   1.080  12.634  0.4957  0.0527  0.3756
 5691SOL    HW128706   1.531   1.130  12.711  0.6507  0.0468  0.4356
 5691SOL    HW228707   1.592   0.999  12.674 -3.2761 -1.2189  0.9319
 5692SOL     OW28708   0.386   0.663  17.162 -0.1060 -0.2259 -0.4161
 5692SOL    HW128709   0.388   0.717  17.084  0.0651 -0.4685 -0.5805
 5692SOL    HW228710   0.357   0.729  17.224  1.3103 -0.6531  0.6915
 5693SOL     OW28711   0.581   3.235   2.862 -0.0746 -0.3343 -0.0165
 5693SOL    HW128712   0.585   3.274   2.775 -2.8903 -0.8852 -0.3848
 5693SOL    HW228713   0.494   3.194   2.860  0.1368 -0.7654 -0.2966
 5694SOL     OW28714   1.847   1.596   1.895 -0.1730  0.0432  0.0862
 5694SOL    HW128715   1.882   1.533   1.832  1.0750 -2.1155  2.9011
 5694SOL    HW228716   1.919   1.658   1.906 -0.6077  0.0384  2.9419
 5695SOL     OW28717   3.942   3.377   6.584  0.5113  0.0844  0.7023
 5695SOL    HW128718   4.002   3.360   6.657  0.6393  1.7575  1.0016
 5695SOL    HW228719   4.000   3.403   6.513 -1.0190 -2.5120 -1.4879
 5696SOL     OW28720   1.446   1.948  17.689  0.6185  0.5648  0.1155
 5696SOL    HW128721   1.541   1.938  17.684  0.5266 -1.4644  2.2493
 5696SOL    HW228722   1.418   1.859  17.667  1.7325  0.1588  0.3360
 5697SOL     OW28723   0.010   3.394  12.981  0.1449 -0.6136  0.3087
 5697SOL    HW128724   0.033   3.487  12.978 -0.2861 -0.5637 -1.2406
 5697SOL    HW228725   0.088   3.350  13.015 -0.5415 -1.3701  0.8967
 5698SOL     OW28726   3.709   3.709   2.304  0.5722  0.1534  0.1356
 5698SOL    HW128727   3.678   3.783   2.252  0.7065  0.9123  1.1268
 5698SOL    HW228728   3.791   3.687   2.259 -1.2886 -1.5805 -2.3698
 5699SOL     OW28729   0.779   2.731   4.123  0.4079 -0.3104  0.1029
 5699SOL    HW128730   0.753   2.735   4.215  0.5974 -0.1168  0.1472
 5699SOL    HW228731   0.712   2.674   4.085 -1.1607  0.4640  1.7092
 5700SOL     OW28732   0.544   0.846  16.024 -0.2689  0.0437  0.1087
 5700SOL    HW128733   0.547   0.938  16.049  0.2338  0.6584 -2.2502
 5700SOL    HW228734   0.450   0.843  16.041  0.2485 -0.2599  2.9597
 5701SOL     OW28735   2.359   0.155  10.443  0.7515 -0.5615 -0.1301
 5701SOL    HW128736   2.424   0.097  10.404  1.4215  0.9949 -1.3176
 5701SOL    HW228737   2.415   0.216  10.490  2.7900 -1.0936 -1.8614
 5702SOL     OW28738   4.111   3.677   4.137  0.1946  0.1895 -0.3283
 5702SOL    HW128739   4.053   3.622   4.189  1.7994  0.1855  1.4203
 5702SOL    HW228740   4.106   3.761   4.182  2.0035  0.1809 -0.0899
 5703SOL     OW28741   0.607   2.395   3.337  0.2614 -0.8523 -0.2320
 5703SOL    HW128742   0.663   2.398   3.414  3.2375  0.6533 -2.4102
 5703SOL    HW228743   0.612   2.487   3.310 -1.7344 -0.0982  1.9619
 5704SOL     OW28744   1.026   2.784  14.936  1.1214 -0.2552  0.7273
 5704SOL    HW128745   1.069   2.700  14.953  0.6676 -0.5248  0.5507
 5704SOL    HW228746   0.949   2.762  14.989 -0.9109  0.5597 -1.8655
 5705SOL     OW28747   3.496   3.191   9.630 -0.0751 -0.0185 -0.2348
 5705SOL    HW128748   3.413   3.146   9.616 -0.0689 -1.0446  2.9945
 5705SOL    HW228749   3.478   3.229   9.716  1.7417 -0.6711  0.4540
 5706SOL     OW28750   3.738   3.678   5.667 -0.1126 -0.0620 -0.2221
 5706SOL    HW128751   3.668   3.703   5.606  0.5423  1.0365 -0.5137
 5706SOL    HW228752   3.742   3.583   5.657  0.7167 -0.1953  1.3697
 5707SOL     OW28753   2.124   1.324  11.600 -0.1947  0.6468  0.5341
 5707SOL    HW128754   2.204   1.349  11.646 -0.2399  0.3953  0.7459
 5707SOL    HW228755   2.070   1.301  11.675 -1.6500  2.2884  0.0032
 5708SOL     OW28756   0.690   1.543  15.731  0.5327 -0.4510  0.4119
 5708SOL    HW128757   0.622   1.482  15.759  0.3066 -0.1414  0.5389
 5708SOL    HW228758   0.760   1.526  15.794  0.7356  0.7400  0.5199
 5709SOL     OW28759   0.649   1.701  17.529  0.2111 -0.4241  0.4329
 5709SOL    HW128760   0.588   1.746  17.588  0.3723  1.0639 -0.5349
 5709SOL    HW228761   0.714   1.672  17.592 -0.5405  0.5144  1.6488
 5710SOL     OW28762   0.205   1.577   4.787 -0.1742  0.5157 -0.1512
 5710SOL    HW128763   0.160   1.560   4.704  0.5051  1.2629 -0.6676
 5710SOL    HW228764   0.132   1.586   4.849 -1.3418 -0.2008 -1.4137
 5711SOL     OW28765   4.172   1.787   8.943 -0.0017 -0.1836 -0.6561
 5711SOL    HW128766   4.113   1.751   9.009  0.0205  0.3163 -0.3663
 5711SOL    HW228767   4.226   1.843   8.999  0.1896  0.4861 -1.5227
 5712SOL     OW28768   1.275   3.445   2.186  0.1188 -0.0309  0.2132
 5712SOL    HW128769   1.222   3.421   2.109  1.2758  0.2351 -0.6767
 5712SOL    HW228770   1.265   3.538   2.165 -3.3252 -0.6854 -1.0977
 5713SOL     OW28771   3.504   2.955  16.575  0.3074 -0.5137 -0.0099
 5713SOL    HW128772   3.435   2.925  16.635  0.7574  0.6912  1.1165
 5713SOL    HW228773   3.581   2.910  16.611  0.6660  0.2156  0.1322
 5714SOL     OW28774   2.927   3.188  17.319  0.2920  0.0245 -0.1622
 5714SOL    HW128775   2.875   3.119  17.278  0.2022 -0.7854  1.3071
 5714SOL    HW228776   3.005   3.137  17.340 -0.8636 -1.2182  1.0727
 5715SOL     OW28777   0.742   4.039  13.598  0.7471 -0.1598  0.3001
 5715SOL    HW128778   0.795   4.085  13.533  3.1701 -0.4947  2.0564
 5715SOL    HW228779   0.811   3.988  13.639  1.5886  1.1605  0.5493
 5716SOL     OW28780   4.427   3.321   7.079 -0.0160  0.3783 -0.9142
 5716SOL    HW128781   4.428   3.365   6.994 -0.2789 -2.4361 -2.3473
 5716SOL    HW228782   4.453   3.402   7.125 -0.2433 -0.5952  0.9268
 5717SOL     OW28783   0.112   2.591   6.662  0.4708  0.3984  0.2602
 5717SOL    HW128784   0.118   2.496   6.652  0.1544  0.4695 -0.5693
 5717SOL    HW228785   0.046   2.600   6.731  1.5582 -1.1076  1.5054
 5718SOL     OW28786   3.018   4.363   3.076 -0.2704  0.6403  0.4170
 5718SOL    HW128787   3.058   4.330   2.995  0.0417  3.3446 -0.5129
 5718SOL    HW228788   3.073   4.429   3.116  1.2219  1.0190 -2.2367
 5719SOL     OW28789   1.512   1.719   7.469  0.2189 -0.3156  0.7571
 5719SOL    HW128790   1.599   1.680   7.484 -0.5175 -2.7030 -1.1637
 5719SOL    HW228791   1.468   1.674   7.541  0.9996 -1.9596  0.2241
 5720SOL     OW28792   0.617   3.926  13.244 -0.0466 -0.5471  0.3484
 5720SOL    HW128793   0.596   3.989  13.313 -1.9386  0.1297 -0.8595
 5720SOL    HW228794   0.554   3.854  13.257 -1.7076  0.6168 -1.2883
 5721SOL     OW28795   4.096   1.975   3.852  1.0036  0.2476  0.6220
 5721SOL    HW128796   4.168   2.026   3.890  1.8791 -0.1195 -0.5431
 5721SOL    HW228797   4.051   1.946   3.932  1.4192 -1.0188  0.3900
 5722SOL     OW28798   3.197   2.032   3.021 -0.3412  0.2502 -0.2006
 5722SOL    HW128799   3.177   2.099   2.955  0.2375 -0.1504 -0.7795
 5722SOL    HW228800   3.220   1.958   2.966  0.3441  1.3786 -1.4381
 5723SOL     OW28801   0.690   0.729   2.614 -0.3062 -0.8531 -0.1668
 5723SOL    HW128802   0.773   0.703   2.653 -1.4938 -2.1663  1.5297
 5723SOL    HW228803   0.697   0.690   2.527  0.8035 -1.8149  0.3571
 5724SOL     OW28804   0.595   0.115  12.830 -0.1358  0.3886  0.3817
 5724SOL    HW128805   0.664   0.170  12.866  0.5051 -0.1653 -0.0114
 5724SOL    HW228806   0.659   0.055  12.791 -1.8095  0.1473 -1.9882
 5725SOL     OW28807   0.872   4.086   7.948 -0.1035  0.5812 -0.3862
 5725SOL    HW128808   0.843   4.144   7.877  0.9097  0.1895 -1.1157
 5725SOL    HW228809   0.827   4.119   8.026 -0.5503 -3.3648  1.0298
 5726SOL     OW28810   3.944   0.727   4.607 -0.2188  0.2451  0.1199
 5726SOL    HW128811   3.955   0.637   4.637 -1.4143  0.4108  1.0353
 5726SOL    HW228812   4.028   0.765   4.635 -0.1346  1.1602 -1.3800
 5727SOL     OW28813   0.532   1.328   8.884 -0.0617 -0.9528  0.0578
 5727SOL    HW128814   0.601   1.391   8.863  0.4457 -2.1777 -1.9328
 5727SOL    HW228815   0.530   1.331   8.980  0.6305  1.5979 -0.0187
 5728SOL     OW28816   2.989   1.782   3.306 -0.5497  0.5358 -0.1247
 5728SOL    HW128817   3.046   1.734   3.246  0.4163  1.1967  0.2629
 5728SOL    HW228818   3.025   1.871   3.303 -0.0142  0.3681  1.3145
 5729SOL     OW28819   3.095   2.166   7.320  0.2833 -0.4340 -0.1616
 5729SOL    HW128820   3.092   2.208   7.235 -0.9240 -0.0033  0.0911
 5729SOL    HW228821   3.160   2.217   7.369  0.9698 -1.1288 -0.3506
 5730SOL     OW28822   2.910   1.069   3.620 -0.1726  0.6028 -0.2177
 5730SOL    HW128823   2.977   1.074   3.553 -0.5023 -1.3094 -0.6887
 5730SOL    HW228824   2.948   1.130   3.684  0.4186  1.1775 -1.1205
 5731SOL     OW28825   2.513   0.617   5.931 -0.0571  0.1604 -0.0836
 5731SOL    HW128826   2.555   0.645   6.012  0.0915  1.8906 -0.7644
 5731SOL    HW228827   2.585   0.569   5.890  0.9904  2.0403 -0.4401
 5732SOL     OW28828   2.002   4.020   2.752  0.1407  0.1303 -0.1204
 5732SOL    HW128829   2.051   4.051   2.829  0.5098  0.9998 -0.7045
 5732SOL    HW228830   2.021   3.927   2.743 -0.6520  0.0567 -0.9842
 5733SOL     OW28831   2.627   4.680  13.381  0.4755  0.4865  0.4564
 5733SOL    HW128832   2.601   0.004  13.454 -0.5011  0.0908  0.4006
 5733SOL    HW228833   2.680   4.615  13.427 -0.3783  0.3126  1.1891
 5734SOL     OW28834   4.168   4.014  12.979 -0.3163  0.2572 -0.1831
 5734SOL    HW128835   4.225   3.969  12.916 -1.6730 -1.5774 -0.0953
 5734SOL    HW228836   4.209   4.098  13.001 -0.1200  0.6453 -1.9517
 5735SOL     OW28837   0.516   0.255   2.318  0.2617  0.3117 -0.0651
 5735SOL    HW128838   0.462   0.240   2.396  1.4231 -0.8298  0.5123
 5735SOL    HW228839   0.483   0.180   2.269 -0.5089 -0.6976  1.9889
 5736SOL     OW28840   1.471   0.139   2.587  0.3349 -0.7493 -0.2903
 5736SOL    HW128841   1.391   0.112   2.542 -0.6040  1.0401  0.3200
 5736SOL    HW228842   1.479   0.080   2.662  2.8333 -1.8602 -1.4110
 5737SOL     OW28843   2.852   3.614   9.419  0.2900  0.3150 -0.4481
 5737SOL    HW128844   2.872   3.614   9.513  2.3186 -1.8349 -0.8890
 5737SOL    HW228845   2.762   3.584   9.420 -0.6876  3.3040  1.5106
 5738SOL     OW28846   3.696   2.008  11.328 -0.3137 -0.2812  0.1329
 5738SOL    HW128847   3.605   1.978  11.326  0.2308 -1.9495  0.6975
 5738SOL    HW228848   3.669   2.100  11.328  1.7168  0.3293  3.7316
 5739SOL     OW28849   3.704   0.944   6.201  0.4792 -0.2378  0.1554
 5739SOL    HW128850   3.701   1.038   6.223 -1.0350 -0.0979 -0.6044
 5739SOL    HW228851   3.776   0.913   6.255  3.0167  1.6671 -2.1289
 5740SOL     OW28852   2.383   3.206   7.662  0.2187  0.4605 -0.2750
 5740SOL    HW128853   2.290   3.186   7.662 -0.0984  1.9560  0.0298
 5740SOL    HW228854   2.398   3.194   7.756  0.7354  0.7294 -0.3219
 5741SOL     OW28855   0.423   2.378   2.729  0.4306 -0.0029  0.6905
 5741SOL    HW128856   0.465   2.314   2.672 -1.6945  0.1671 -1.0956
 5741SOL    HW228857   0.337   2.357   2.692  1.0372 -1.3565  0.0357
 5742SOL     OW28858   4.457   2.435   7.079  0.2894 -0.6625 -0.3954
 5742SOL    HW128859   4.531   2.436   7.018  0.4534  2.0481 -0.1749
 5742SOL    HW228860   4.431   2.343   7.070  0.7911 -0.9568  1.1966
 5743SOL     OW28861   1.977   4.241  14.875  0.2153  0.5435 -0.0150
 5743SOL    HW128862   2.041   4.311  14.888  2.4055 -1.1534 -1.7024
 5743SOL    HW228863   2.028   4.173  14.833 -1.5843 -1.2888  0.7697
 5744SOL     OW28864   0.222   1.723   6.629  0.1328 -0.0524 -0.3349
 5744SOL    HW128865   0.274   1.668   6.688  1.0187 -0.7371 -1.7402
 5744SOL    HW228866   0.268   1.808   6.632  0.2535 -0.0607 -1.8802
 5745SOL     OW28867   2.155   3.920   7.486 -0.1793 -0.0915  0.6156
 5745SOL    HW128868   2.206   3.928   7.406  0.4248 -1.2898  0.8856
 5745SOL    HW228869   2.183   3.833   7.514  0.1183 -0.5210 -1.0464
 5746SOL     OW28870   2.190   4.509  10.000 -0.4144 -0.1453 -0.1049
 5746SOL    HW128871   2.154   4.556  10.074  0.0517 -0.5233  0.3615
 5746SOL    HW228872   2.125   4.537   9.935  0.7020 -1.5492 -1.8600
 5747SOL     OW28873   3.400   1.656   5.723  0.4230  0.3159 -0.2309
 5747SOL    HW128874   3.386   1.742   5.763  0.5876  0.3495 -0.2498
 5747SOL    HW228875   3.423   1.591   5.790 -2.0883 -2.7903 -2.3624
 5748SOL     OW28876   1.469   1.486   8.135  0.1184 -0.3249  0.6551
 5748SOL    HW128877   1.424   1.452   8.212 -0.9837  0.4046  0.3398
 5748SOL    HW228878   1.523   1.412   8.107  0.7103 -0.0542  1.0886
 5749SOL     OW28879   1.592   1.236   7.640 -0.0588  1.0142  0.3973
 5749SOL    HW128880   1.538   1.157   7.634  1.0046  0.4815 -2.2380
 5749SOL    HW228881   1.555   1.288   7.568 -0.5614  1.9683  1.3470
 5750SOL     OW28882   2.876   0.657   3.699  0.0858  0.5829 -0.1311
 5750SOL    HW128883   2.915   0.578   3.736 -1.0833  0.4113  0.7161
 5750SOL    HW228884   2.950   0.719   3.701  2.6722 -2.6537  4.4094
 5751SOL     OW28885   1.423   1.337   7.459  0.3752 -0.0791 -0.5456
 5751SOL    HW128886   1.359   1.399   7.422 -0.3978 -1.4570 -1.5069
 5751SOL    HW228887   1.396   1.256   7.415 -0.8895 -0.8854  1.7335
 5752SOL     OW28888   3.037   3.342   2.497 -0.0493  0.0880  0.0144
 5752SOL    HW128889   3.049   3.293   2.416 -0.8170  1.4799 -0.9338
 5752SOL    HW228890   3.008   3.431   2.478 -1.6870 -0.4200  0.0754
 5753SOL     OW28891   1.716   1.264   1.864 -0.1996 -0.4306 -0.4460
 5753SOL    HW128892   1.800   1.274   1.909 -0.5528 -0.5648  0.2403
 5753SOL    HW228893   1.730   1.172   1.840  0.3782 -0.1216 -1.3140
 5754SOL     OW28894   2.459   3.202  12.455  1.0089  0.0761  0.6770
 5754SOL    HW128895   2.411   3.251  12.521 -0.0455 -0.2331  0.1265
 5754SOL    HW228896   2.548   3.184  12.485  0.8736 -0.1726  0.9243
 5755SOL     OW28897   0.278   2.156  17.394  0.2888  0.0625  0.0687
 5755SOL    HW128898   0.278   2.247  17.367 -0.0134 -0.5436 -1.9475
 5755SOL    HW228899   0.247   2.120  17.311  1.6657  3.1038 -1.7371
 5756SOL     OW28900   3.641   3.406   8.026 -0.2403 -0.9693 -0.0675
 5756SOL    HW128901   3.711   3.469   8.042 -0.7697 -0.2271 -0.6691
 5756SOL    HW228902   3.571   3.456   7.985  0.9994 -0.2945 -1.3627
 5757SOL     OW28903   4.000   3.049   8.411  0.2017  0.1862 -0.0149
 5757SOL    HW128904   4.032   2.964   8.441  4.3337  1.7430  0.0516
 5757SOL    HW228905   3.913   3.028   8.377  0.2505  0.3297 -0.2289
 5758SOL     OW28906   1.669   3.146   2.005 -0.4439  0.4697  0.1419
 5758SOL    HW128907   1.639   3.162   2.095 -2.6928 -0.6465 -0.3894
 5758SOL    HW228908   1.758   3.118   2.026 -0.6694 -0.3118  0.0726
 5759SOL     OW28909   1.343   0.744  12.702  0.2099 -0.5575 -0.4462
 5759SOL    HW128910   1.302   0.674  12.650  0.2718 -0.8238 -0.1337
 5759SOL    HW228911   1.317   0.709  12.787  1.9231  0.1071  0.3461
 5760SOL     OW28912   0.904   0.942   5.257  0.7580  0.4581  0.1194
 5760SOL    HW128913   0.836   0.894   5.209  2.7858 -2.0697 -0.1908
 5760SOL    HW228914   0.851   0.967   5.333 -1.1734 -0.3034 -0.9773
 5761SOL     OW28915   2.257   4.289   5.539  0.0603  0.3200  0.2171
 5761SOL    HW128916   2.256   4.245   5.454 -1.5269  1.6612 -0.4594
 5761SOL    HW228917   2.344   4.327   5.530 -0.5114  1.2583 -1.2581
 5762SOL     OW28918   3.174   2.688  11.263 -0.3884  0.2869 -0.5978
 5762SOL    HW128919   3.219   2.659  11.342 -0.2679  1.0142 -0.4078
 5762SOL    HW228920   3.202   2.779  11.261  3.2811 -0.8319  1.0350
 5763SOL     OW28921   1.524   0.253  12.975  0.2532  0.2313 -0.2039
 5763SOL    HW128922   1.441   0.266  13.022  0.3679  0.5467 -0.0884
 5763SOL    HW228923   1.550   0.164  13.002 -2.8672 -0.1306  1.6618
 5764SOL     OW28924   0.576   1.247   8.202 -0.8168  0.6846 -0.6319
 5764SOL    HW128925   0.574   1.158   8.166  1.7257  0.1188  0.6300
 5764SOL    HW228926   0.640   1.283   8.142  0.4813  1.2593  1.1052
 5765SOL     OW28927   1.781   1.315  15.324 -0.5720  0.4964 -0.4216
 5765SOL    HW128928   1.776   1.398  15.276  1.4676  0.3720 -0.8692
 5765SOL    HW228929   1.693   1.278  15.330 -0.0856 -0.7005 -0.8580
 5766SOL     OW28930   2.488   4.069   9.767 -0.1391 -0.5603  0.2506
 5766SOL    HW128931   2.541   4.106   9.838 -0.9342 -0.0044  0.5551
 5766SOL    HW228932   2.413   4.127   9.774  1.8746  1.7948  2.2382
 5767SOL     OW28933   1.086   2.144   2.630  0.2425  0.5868  0.4382
 5767SOL    HW128934   1.106   2.201   2.555  0.5393 -0.7087 -0.4659
 5767SOL    HW228935   1.104   2.055   2.598  0.6565  0.1430  1.9457
 5768SOL     OW28936   2.006   1.817   1.955  0.1660 -0.0112  0.3627
 5768SOL    HW128937   2.021   1.882   2.023 -1.6294 -0.7716  1.4802
 5768SOL    HW228938   1.934   1.848   1.900 -0.8011  1.0765  2.2316
 5769SOL     OW28939   2.847   0.922   3.167 -0.8905  0.2974  0.4568
 5769SOL    HW128940   2.815   0.866   3.096  3.2504  0.1817 -1.3717
 5769SOL    HW228941   2.839   0.863   3.242 -1.3202  0.0100  0.1801
 5770SOL     OW28942   0.130   4.085   2.964 -0.1681  0.5146 -0.0269
 5770SOL    HW128943   0.058   4.082   3.028 -0.5236  0.3353 -0.4335
 5770SOL    HW228944   0.143   4.179   2.963  1.5658  0.2504 -1.3280
 5771SOL     OW28945   0.059   0.401   1.078 -0.4085  0.0525  0.1062
 5771SOL    HW128946   0.111   0.425   1.155 -0.1032  1.7512 -0.6276
 5771SOL    HW228947   0.027   0.488   1.057  0.2317  0.0362 -0.9439
 5772SOL     OW28948   3.163   2.637  10.141 -0.3474  0.6489 -0.5817
 5772SOL    HW128949   3.245   2.644  10.092  0.7337  0.3969  1.1808
 5772SOL    HW228950   3.170   2.697  10.215 -0.3225 -0.2897  0.1697
 5773SOL     OW28951   4.119   0.855  11.524  0.3086  0.2615  0.1859
 5773SOL    HW128952   4.119   0.784  11.588  0.6356 -0.6461 -0.8094
 5773SOL    HW228953   4.043   0.909  11.546  0.3462 -0.1014  1.1931
 5774SOL     OW28954   3.522   3.425   3.902  0.5906  0.0100 -0.2237
 5774SOL    HW128955   3.476   3.501   3.869  0.5338  0.2440  0.3944
 5774SOL    HW228956   3.451   3.368   3.931  0.8541 -1.3363 -2.1879
 5775SOL     OW28957   3.032   3.870   4.745  0.5023  0.0866  0.4579
 5775SOL    HW128958   3.068   3.914   4.822 -1.5173  0.2616  1.3141
 5775SOL    HW228959   3.029   3.781   4.779 -0.6900 -0.5946 -1.4645
 5776SOL     OW28960   2.749   1.752   2.575 -0.0072 -0.0112 -0.4102
 5776SOL    HW128961   2.774   1.812   2.645  0.9139 -0.1797 -0.5929
 5776SOL    HW228962   2.653   1.753   2.582 -0.0048  1.2437 -0.5390
 5777SOL     OW28963   4.439   1.065   2.534  0.1657  0.0954  0.3095
 5777SOL    HW128964   4.363   1.007   2.535  1.0410 -1.0214  2.7250
 5777SOL    HW228965   4.507   1.024   2.482 -0.4105 -0.1643 -0.2382
 5778SOL     OW28966   0.937   1.911   1.799  0.1833 -0.6490 -0.4089
 5778SOL    HW128967   0.960   1.857   1.723  0.2862 -1.1019 -0.0597
 5778SOL    HW228968   0.863   1.857   1.827 -3.3726  4.1144 -0.7776
 5779SOL     OW28969   4.254   1.557  11.417 -0.0977 -0.3164 -0.0991
 5779SOL    HW128970   4.246   1.499  11.342 -1.9485  0.2695 -0.3753
 5779SOL    HW228971   4.178   1.537  11.472  0.3475 -1.7118 -0.0047
 5780SOL     OW28972   4.025   3.685  16.891  0.1745  0.2220  0.0901
 5780SOL    HW128973   3.964   3.672  16.964  1.0255  1.2171  0.9747
 5780SOL    HW228974   3.967   3.699  16.816  1.5915  2.3037 -0.6078
 5781SOL     OW28975   2.696   0.738   9.592 -0.3428 -0.3270  0.0062
 5781SOL    HW128976   2.767   0.674   9.587 -0.6512 -0.5431 -1.4947
 5781SOL    HW228977   2.625   0.689   9.551 -1.1680 -0.2625  1.3332
 5782SOL     OW28978   0.374   3.131  15.212  0.4747 -0.2464 -0.0456
 5782SOL    HW128979   0.341   3.221  15.220 -2.8516 -1.4838 -0.0784
 5782SOL    HW228980   0.433   3.125  15.287 -0.4735  1.1070  0.8176
 5783SOL     OW28981   0.657   0.171   6.242 -0.0677 -0.0720  0.4291
 5783SOL    HW128982   0.661   0.260   6.275 -1.1302 -0.1714  0.8027
 5783SOL    HW228983   0.611   0.172   6.158  2.0784  2.8714 -0.6969
 5784SOL     OW28984   2.610   1.969  15.244 -0.0415 -0.3389  0.2910
 5784SOL    HW128985   2.614   2.046  15.187  0.0312 -1.0984 -0.7473
 5784SOL    HW228986   2.701   1.947  15.263  0.6108  2.7956  0.7080
 5785SOL     OW28987   0.650   4.530  12.345 -0.1671  0.5857  0.2778
 5785SOL    HW128988   0.655   4.554  12.252 -0.7371  0.1655  0.1385
 5785SOL    HW228989   0.599   4.607  12.370 -0.0611  0.0280  2.1515
 5786SOL     OW28990   3.067   3.917  11.912 -0.2283 -0.7020  0.4046
 5786SOL    HW128991   3.046   3.929  11.820 -0.2321 -1.9806  0.2402
 5786SOL    HW228992   2.981   3.919  11.954  0.3597  0.5062  1.5651
 5787SOL     OW28993   0.582   4.503   4.871 -0.0859  0.3981 -0.4144
 5787SOL    HW128994   0.612   4.592   4.853  2.2626 -0.5620 -1.2546
 5787SOL    HW228995   0.658   4.462   4.913  0.3073  0.9224 -0.6215
 5788SOL     OW28996   4.200   4.459  11.115  0.0546  0.0577 -0.4432
 5788SOL    HW128997   4.239   4.534  11.069 -0.7124 -0.5639 -2.1024
 5788SOL    HW228998   4.237   4.482  11.200  0.2636  2.8047 -1.2699
 5789SOL     OW28999   2.210   1.905   5.093  0.1065 -0.6162 -0.0779
 5789SOL    HW129000   2.142   1.964   5.059  0.3805  0.4487  1.2373
 5789SOL    HW229001   2.293   1.942   5.064  1.5827 -3.8330  0.0110
 5790SOL     OW29002   0.792   2.792   6.407  0.9029 -0.4240 -0.3337
 5790SOL    HW129003   0.873   2.780   6.457  0.3635 -1.9976  0.1582
 5790SOL    HW229004   0.742   2.714   6.429 -3.2372  2.1411 -0.8087
 5791SOL     OW29005   3.931   2.175  10.355  0.7773  0.5662 -0.0533
 5791SOL    HW129006   3.976   2.249  10.395 -0.3975  1.8637 -1.1445
 5791SOL    HW229007   3.996   2.110  10.327 -1.7976 -1.8027 -0.5540
 5792SOL     OW29008   1.004   3.364   8.398  0.0276 -0.0829 -0.3256
 5792SOL    HW129009   0.925   3.403   8.362 -1.6875 -1.1493  2.2189
 5792SOL    HW229010   1.051   3.330   8.322  0.8684  0.8206 -0.2082
 5793SOL     OW29011   2.877   2.381  13.023  0.1972  0.2533 -0.2780
 5793SOL    HW129012   2.962   2.426  13.026 -0.5207  1.5043  1.2741
 5793SOL    HW229013   2.902   2.292  13.000  0.3329  0.0786  0.5372
 5794SOL     OW29014   3.539   2.594   1.333  0.4700 -0.2295 -0.2188
 5794SOL    HW129015   3.566   2.570   1.422 -0.4886 -2.0033 -0.4007
 5794SOL    HW229016   3.591   2.533   1.280  0.1144  0.4996 -1.4006
 5795SOL     OW29017   0.191   3.056   7.991 -0.2677  0.0310  0.0914
 5795SOL    HW129018   0.123   3.115   8.023  0.5934 -0.0056  2.0558
 5795SOL    HW229019   0.239   3.062   8.075  0.2924 -1.2849 -0.1289
 5796SOL     OW29020   1.428   0.572   9.369  0.0132 -0.1733 -0.2397
 5796SOL    HW129021   1.499   0.636   9.365 -1.3313  1.4223  1.1629
 5796SOL    HW229022   1.442   0.538   9.457 -0.9812 -0.9672 -0.3880
 5797SOL     OW29023   2.100   1.966   9.120 -0.1328  0.1613  0.3569
 5797SOL    HW129024   2.076   2.035   9.182 -1.8587 -1.2554  1.2546
 5797SOL    HW229025   2.083   1.890   9.175  1.9517 -0.8888 -0.4630
 5798SOL     OW29026   2.919   1.665   3.975 -0.2094  0.7053 -0.6944
 5798SOL    HW129027   2.976   1.590   3.957  0.3546  1.2388 -1.1377
 5798SOL    HW229028   2.857   1.613   4.026  0.0705  3.1830  2.2054
 5799SOL     OW29029   3.318   4.180  10.254  0.2385  0.1907 -0.1263
 5799SOL    HW129030   3.348   4.150  10.340 -0.6893  1.0809  0.4974
 5799SOL    HW229031   3.342   4.272  10.260  1.1054  0.0978 -2.0921
 5800SOL     OW29032   0.253   0.635  13.207 -0.5112  0.3832  0.0280
 5800SOL    HW129033   0.186   0.693  13.171  0.2914  0.2145 -1.7763
 5800SOL    HW229034   0.249   0.644  13.302  1.4586  2.2717 -0.0707
 5801SOL     OW29035   3.749   2.534   0.558  0.1532 -0.1665 -0.7616
 5801SOL    HW129036   3.816   2.546   0.491  1.6409  0.4275  0.8469
 5801SOL    HW229037   3.804   2.550   0.634 -2.1590  1.4636  0.5794
 5802SOL     OW29038   1.597   3.396   5.333  0.2535 -0.3397 -0.0054
 5802SOL    HW129039   1.660   3.343   5.283 -1.0726 -2.3976  0.5070
 5802SOL    HW229040   1.604   3.484   5.296 -0.6739  0.5518  1.9760
 5803SOL     OW29041   2.878   2.858   6.465 -0.1674  0.4117 -0.1418
 5803SOL    HW129042   2.899   2.942   6.423 -0.3384  1.3675  1.6531
 5803SOL    HW229043   2.925   2.796   6.410 -0.9841 -0.6450  0.3488
 5804SOL     OW29044   3.119   0.154   4.532 -0.0003 -0.4685 -0.0584
 5804SOL    HW129045   3.201   0.176   4.576 -0.4323  0.3601  0.3128
 5804SOL    HW229046   3.050   0.204   4.576 -1.0103 -1.2010 -0.8127
 5805SOL     OW29047   4.507   0.042  17.147  0.1461  0.0579  0.5149
 5805SOL    HW129048   4.473   4.684  17.151  1.5333 -0.5560 -1.7542
 5805SOL    HW229049   4.458   0.081  17.219 -3.0551  1.2579 -2.2972
 5806SOL     OW29050   2.023   3.393  11.896 -0.5270 -0.4016 -0.2273
 5806SOL    HW129051   1.992   3.323  11.837  1.5640 -1.9477  0.4994
 5806SOL    HW229052   2.055   3.336  11.966 -0.7979  0.3727  0.5175
 5807SOL     OW29053   0.727   4.595  15.165  0.1636  0.4786  0.7578
 5807SOL    HW129054   0.757   4.548  15.087 -2.8119  0.0415 -0.1161
 5807SOL    HW229055   0.678   4.530  15.215  0.1673  0.7239  1.0813
 5808SOL     OW29056   0.435   0.802   7.344 -1.2925  0.1747 -0.1237
 5808SOL    HW129057   0.494   0.786   7.270  0.5806  1.2812  1.1395
 5808SOL    HW229058   0.469   0.732   7.401 -2.3704  0.6567  1.1036
 5809SOL     OW29059   4.322   0.885   4.951  0.3561  0.3737  0.0751
 5809SOL    HW129060   4.227   0.876   4.956  0.3498 -0.3108 -1.3015
 5809SOL    HW229061   4.342   0.831   4.874 -0.6937  1.4476 -0.9583
 5810SOL     OW29062   2.316   3.276   8.227  0.1476  0.4114  0.4049
 5810SOL    HW129063   2.380   3.346   8.243  0.2897  0.4852 -0.5358
 5810SOL    HW229064   2.257   3.292   8.301  1.1478  1.0939  1.0614
 5811SOL     OW29065   2.819   3.586   8.206 -0.0251  0.2591 -0.0313
 5811SOL    HW129066   2.795   3.610   8.117 -1.2161  3.4974  1.1703
 5811SOL    HW229067   2.845   3.496   8.188 -2.4440 -0.4756  0.1669
 5812SOL     OW29068   1.472   2.015   6.230 -0.0974 -0.0411  0.0458
 5812SOL    HW129069   1.470   1.936   6.282 -1.6351 -0.0822 -0.0751
 5812SOL    HW229070   1.424   2.082   6.279  2.5552  0.8067  1.4814
 5813SOL     OW29071   4.505   2.546   1.076 -0.7204  0.8830 -0.0179
 5813SOL    HW129072   4.482   2.598   1.153  1.8234 -0.7964  1.8703
 5813SOL    HW229073   4.492   2.454   1.101  0.1800  0.9122  0.5453
 5814SOL     OW29074   0.166   4.350   3.008  0.3292  0.0615  0.3705
 5814SOL    HW129075   0.144   4.438   2.977 -1.5050 -1.5535 -2.9256
 5814SOL    HW229076   0.121   4.356   3.092 -0.7913 -0.3461 -0.1961
 5815SOL     OW29077   0.333   2.586   4.087  0.5973 -0.0087 -0.0128
 5815SOL    HW129078   0.284   2.627   4.016  0.1748 -1.5237 -0.5933
 5815SOL    HW229079   0.408   2.558   4.034  0.8519  1.2090 -0.2977
 5816SOL     OW29080   2.706   3.596  16.075 -0.0624 -0.4364  1.0673
 5816SOL    HW129081   2.786   3.597  16.021  0.3768  0.4503  1.7374
 5816SOL    HW229082   2.733   3.662  16.139 -1.9673  0.9659  0.4233
 5817SOL     OW29083   4.074   1.919   5.633  0.6878  0.6732  0.5823
 5817SOL    HW129084   4.084   1.880   5.720  1.2950 -3.1735 -1.2335
 5817SOL    HW229085   3.984   1.950   5.626  0.8326  0.9212 -0.1728
 5818SOL     OW29086   0.245   0.163   6.258  0.2438 -0.2895 -0.1618
 5818SOL    HW129087   0.297   0.237   6.226 -0.4156 -0.2755 -1.2017
 5818SOL    HW229088   0.239   0.113   6.176  2.4499  3.2431 -2.4790
 5819SOL     OW29089   3.300   0.734   8.702 -0.1063  0.1119 -0.3280
 5819SOL    HW129090   3.378   0.685   8.678  1.4067  2.6009 -0.4912
 5819SOL    HW229091   3.275   0.725   8.795  1.7110 -0.6874  0.0757
 5820SOL     OW29092   1.078   0.152   3.791 -0.0184  0.0761 -0.2384
 5820SOL    HW129093   1.089   0.064   3.826 -2.3014 -1.0939 -2.4232
 5820SOL    HW229094   0.995   0.147   3.743 -0.4356  1.3990  0.3497
 5821SOL     OW29095   4.115   2.363  14.039 -0.4910  0.3287 -0.5642
 5821SOL    HW129096   4.089   2.444  13.996 -2.7317 -0.3410 -0.5162
 5821SOL    HW229097   4.031   2.322  14.062 -0.9982 -0.5676 -4.1224
 5822SOL     OW29098   0.215   0.043   5.862 -0.0250 -0.3358  0.1688
 5822SOL    HW129099   0.236   0.004   5.947  1.9781 -1.1571 -0.7009
 5822SOL    HW229100   0.125   0.071   5.878 -0.3320 -0.7360 -0.8248
 5823SOL     OW29101   4.042   4.181   6.286  0.1614 -0.0697 -0.1445
 5823SOL    HW129102   4.005   4.217   6.366  2.1497  0.6642  0.4484
 5823SOL    HW229103   4.132   4.162   6.312  0.3637  1.3905  0.2482
 5824SOL     OW29104   0.187   1.240   6.677 -0.1652  0.1701 -0.3284
 5824SOL    HW129105   0.161   1.238   6.769  1.2722  0.5092  0.0806
 5824SOL    HW229106   0.151   1.322   6.642 -3.8644 -1.1864  0.3653
 5825SOL     OW29107   3.466   2.221   4.500 -0.0722 -0.2957  0.1066
 5825SOL    HW129108   3.392   2.218   4.438  0.7181  0.8392 -0.8777
 5825SOL    HW229109   3.486   2.314   4.503 -0.7728 -0.1919  1.3173
 5826SOL     OW29110   0.474   4.368   4.074  0.5037 -0.0257  0.0637
 5826SOL    HW129111   0.436   4.389   4.159 -0.5325 -1.3878 -0.0545
 5826SOL    HW229112   0.568   4.351   4.086  0.1000 -1.4442  1.2257
 5827SOL     OW29113   0.968   2.841   2.644 -0.9467  0.5976 -0.3566
 5827SOL    HW129114   0.876   2.829   2.622 -0.8899 -0.7333  0.1118
 5827SOL    HW229115   0.993   2.891   2.567  0.8113 -0.0109 -0.1894
 5828SOL     OW29116   2.644   4.683   4.046  0.4109 -0.2942 -0.2484
 5828SOL    HW129117   2.681   4.676   3.958  0.2380  3.7142 -0.6292
 5828SOL    HW229118   2.591   4.605   4.060 -0.9764  0.5800 -0.6394
 5829SOL     OW29119   3.095   1.449   1.234 -0.0475 -0.2171 -0.4437
 5829SOL    HW129120   3.130   1.467   1.147  0.2784 -0.8668 -0.4454
 5829SOL    HW229121   3.009   1.490   1.223 -0.2263 -0.4391  0.0959
 5830SOL     OW29122   2.150   3.792   2.719  0.2769  0.6807  1.1935
 5830SOL    HW129123   2.190   3.711   2.750  1.9314  1.1582  0.3346
 5830SOL    HW229124   2.202   3.856   2.768 -1.3080  2.0210  1.1377
 5831SOL     OW29125   1.205   0.011   9.732 -0.1010  0.0956  0.6054
 5831SOL    HW129126   1.274   4.704   9.678 -0.5389 -0.7546  0.6437
 5831SOL    HW229127   1.246   4.724   9.817  1.3817 -0.2474 -0.1860
 5832SOL     OW29128   0.442   0.119   1.747 -0.1258  0.5353 -0.7439
 5832SOL    HW129129   0.367   0.059   1.746  0.8523 -0.6845  0.0139
 5832SOL    HW229130   0.491   0.089   1.823 -0.1169  1.1114 -0.5227
 5833SOL     OW29131   4.281   2.585   8.931  0.2610 -0.2509  0.4803
 5833SOL    HW129132   4.219   2.528   8.977  2.2224 -1.2903  1.8460
 5833SOL    HW229133   4.256   2.577   8.839  0.9176  1.1992  0.1683
 5834SOL     OW29134   0.710   1.712   0.506 -0.1805 -0.1268 -0.3678
 5834SOL    HW129135   0.639   1.767   0.473 -0.2976  0.4825  0.8873
 5834SOL    HW229136   0.663   1.630   0.522  0.9704 -0.6970  0.0927
 5835SOL     OW29137   3.986   0.945   9.118 -0.4513  0.1412  0.2787
 5835SOL    HW129138   3.992   0.914   9.209  0.2002 -2.1874 -0.5715
 5835SOL    HW229139   3.945   0.866   9.082  0.4244 -0.2007  0.0414
 5836SOL     OW29140   1.425   4.563   7.741  0.3296  0.8277  0.5781
 5836SOL    HW129141   1.482   4.640   7.742 -0.7072  1.6266 -1.2900
 5836SOL    HW229142   1.444   4.528   7.653  2.1259  1.0333  0.8909
 5837SOL     OW29143   0.411   2.925  14.997  0.2535 -0.3688  0.1196
 5837SOL    HW129144   0.368   3.005  15.028  3.0971  0.9005  0.7161
 5837SOL    HW229145   0.343   2.858  15.000 -0.7729  0.5197 -3.1262
 5838SOL     OW29146   3.361   4.727   2.567  0.1884  0.0366 -0.2354
 5838SOL    HW129147   3.365   4.671   2.490  1.2405  1.1494 -0.9731
 5838SOL    HW229148   3.266   4.719   2.574  0.1480  0.5853 -0.1028
 5839SOL     OW29149   3.647   1.703   7.598  0.2811 -0.2133 -0.2110
 5839SOL    HW129150   3.681   1.786   7.564 -0.3637  0.6094  1.1464
 5839SOL    HW229151   3.653   1.659   7.514 -1.6885 -1.2840  0.2126
 5840SOL     OW29152   2.344   1.572   6.616 -0.2588 -0.3629 -0.3639
 5840SOL    HW129153   2.282   1.561   6.688  1.9811 -1.0540  1.4548
 5840SOL    HW229154   2.357   1.482   6.589 -3.8625 -0.8872 -0.3333
 5841SOL     OW29155   2.995   0.543   1.978 -0.2833 -0.2317 -0.5180
 5841SOL    HW129156   2.906   0.521   2.006 -0.3018  0.6461  0.0823
 5841SOL    HW229157   3.016   0.461   1.933 -0.0963  0.7105 -2.1745
 5842SOL     OW29158   1.614   0.807   8.135 -0.0120  0.1231  0.0131
 5842SOL    HW129159   1.520   0.826   8.127 -0.3644 -1.4726  0.2288
 5842SOL    HW229160   1.639   0.851   8.216  3.6596 -1.2240 -0.4121
 5843SOL     OW29161   0.740   0.253   1.987  0.0981 -0.2992  0.1209
 5843SOL    HW129162   0.666   0.192   1.993 -1.5165  1.6678  0.4446
 5843SOL    HW229163   0.742   0.276   1.894  0.9750 -3.7936 -0.7253
 5844SOL     OW29164   4.715   2.568   8.478  0.3740 -0.0239  0.4647
 5844SOL    HW129165   4.708   2.473   8.482  2.7603 -0.2838 -1.4523
 5844SOL    HW229166   0.040   2.597   8.550  1.9339 -2.3987  0.1892
 5845SOL     OW29167   1.142   0.754  16.869  0.4451  0.2882  0.0360
 5845SOL    HW129168   1.101   0.770  16.783  0.9979 -0.6376 -0.4026
 5845SOL    HW229169   1.081   0.773  16.940 -1.6391  1.2016 -1.9959
 5846SOL     OW29170   0.552   1.667   5.868  0.1470 -0.0546 -0.4311
 5846SOL    HW129171   0.485   1.665   5.799 -0.3556  1.3823  0.0270
 5846SOL    HW229172   0.565   1.572   5.877  2.0584  0.3301  0.8614
 5847SOL     OW29173   3.296   3.175   0.998  0.6818  0.0252  0.2080
 5847SOL    HW129174   3.370   3.142   1.049 -0.9055 -1.8952  1.2407
 5847SOL    HW229175   3.342   3.195   0.916  0.2500  1.2904  0.2780
 5848SOL     OW29176   0.752   3.735   4.972 -0.2197  0.4805  0.3052
 5848SOL    HW129177   0.696   3.658   4.982 -0.0875 -0.2470 -4.4994
 5848SOL    HW229178   0.730   3.782   5.052 -1.2612 -0.6015  0.6508
 5849SOL     OW29179   1.292   0.138   6.849  0.4098  0.1603  0.2728
 5849SOL    HW129180   1.370   0.083   6.836 -0.1800 -0.8335  0.9993
 5849SOL    HW229181   1.305   0.208   6.785  2.0475  0.4486  0.9175
 5850SOL     OW29182   3.739   0.886   5.938 -0.1694 -0.1349  0.2631
 5850SOL    HW129183   3.697   0.942   6.004  1.6406  1.4712  0.0581
 5850SOL    HW229184   3.739   0.804   5.986  3.0832 -0.3691 -0.1278
 5851SOL     OW29185   3.741   2.480   3.708  0.2168 -0.8416 -0.6977
 5851SOL    HW129186   3.793   2.442   3.779 -0.7510 -0.4313  0.2255
 5851SOL    HW229187   3.732   2.406   3.648  1.1530 -1.5061 -0.0056
 5852SOL     OW29188   0.170   0.847   3.956 -0.1467  0.2004  0.4769
 5852SOL    HW129189   0.226   0.811   3.887 -3.3244 -1.0730 -1.4414
 5852SOL    HW229190   0.235   0.895   4.007  0.1824 -0.2763  0.5113
 5853SOL     OW29191   1.523   0.849  14.321  0.4917 -0.2180 -0.2387
 5853SOL    HW129192   1.536   0.835  14.415  1.7312  2.1142 -0.0805
 5853SOL    HW229193   1.555   0.763  14.294  0.3456  0.1797 -1.6452
 5854SOL     OW29194   2.585   1.349   5.818 -0.1615 -0.1754 -0.3142
 5854SOL    HW129195   2.631   1.270   5.845  0.1402 -0.2195 -0.9652
 5854SOL    HW229196   2.520   1.324   5.751  0.9155 -1.6104 -0.8210
 5855SOL     OW29197   2.902   1.349  16.650  0.6500  0.1418 -0.1213
 5855SOL    HW129198   2.874   1.275  16.704 -2.9022  1.9848  0.6165
 5855SOL    HW229199   2.929   1.298  16.574 -2.3207 -2.6205  0.6765
 5856SOL     OW29200   1.296   2.840  10.316  0.1601 -0.0973  0.5862
 5856SOL    HW129201   1.369   2.855  10.255 -0.9964 -0.4691 -0.8723
 5856SOL    HW229202   1.299   2.745  10.325  0.2103 -0.3744 -2.6705
 5857SOL     OW29203   3.620   2.793   6.064 -0.2629  0.6630  0.1455
 5857SOL    HW129204   3.689   2.858   6.051  1.6549 -1.8613 -2.2618
 5857SOL    HW229205   3.674   2.719   6.094 -0.2738  0.6214  0.0639
 5858SOL     OW29206   0.100   4.183   9.266  0.4476  0.0864  0.1640
 5858SOL    HW129207   0.039   4.157   9.336 -0.0857 -2.5736 -1.3242
 5858SOL    HW229208   0.105   4.102   9.216  0.9520 -0.2848  0.8053
 5859SOL     OW29209   3.642   0.469   9.622  0.0295  0.3380 -0.1810
 5859SOL    HW129210   3.671   0.387   9.663 -1.2552 -0.2866 -0.5204
 5859SOL    HW229211   3.683   0.533   9.681 -1.2852  0.2428  0.8461
 5860SOL     OW29212   1.079   3.892   4.756 -0.2681 -0.1089  0.4847
 5860SOL    HW129213   1.094   3.934   4.841  1.5996  0.3840 -0.0901
 5860SOL    HW229214   0.986   3.906   4.739 -0.0369 -0.5308 -1.0582
 5861SOL     OW29215   1.750   1.340   4.678 -0.0839 -0.2965  0.0007
 5861SOL    HW129216   1.766   1.264   4.623  1.8593 -0.4980  0.8562
 5861SOL    HW229217   1.825   1.344   4.738  1.6330 -0.5633 -2.1501
 5862SOL     OW29218   2.674   2.516   1.979  0.4454  0.2810 -0.2556
 5862SOL    HW129219   2.698   2.593   1.927 -3.8910  1.3770 -0.5974
 5862SOL    HW229220   2.639   2.468   1.904  0.6287 -2.3118  1.2864
 5863SOL     OW29221   4.219   3.603  10.250 -0.3144  0.5354 -0.2714
 5863SOL    HW129222   4.299   3.654  10.262 -0.4681  0.8120 -0.4391
 5863SOL    HW229223   4.155   3.670  10.274  0.8227  2.4226 -2.4716
 5864SOL     OW29224   0.093   1.190   1.996 -0.5053 -0.2552  0.3790
 5864SOL    HW129225   0.042   1.221   2.071 -0.0505 -0.8576  0.9324
 5864SOL    HW229226   0.116   1.103   2.028 -0.7289 -0.4829 -0.0768
 5865SOL     OW29227   1.004   0.931   5.848 -0.3354 -0.6087 -0.7486
 5865SOL    HW129228   0.939   0.867   5.822 -1.7152 -0.3903  2.1321
 5865SOL    HW229229   1.085   0.881   5.838 -0.2264 -0.9543  1.9031
 5866SOL     OW29230   4.671   3.983  12.780 -0.8897  0.6794  0.4750
 5866SOL    HW129231   4.645   4.073  12.761  2.7827  1.4759 -0.9508
 5866SOL    HW229232   0.018   3.978  12.726 -1.9735  0.1096 -1.0588
 5867SOL     OW29233   1.004   4.287   9.603 -0.2951  0.0636  0.3625
 5867SOL    HW129234   0.937   4.312   9.540 -0.1643 -1.5105 -0.3902
 5867SOL    HW229235   1.063   4.239   9.545 -1.3032 -0.8651  0.1094
 5868SOL     OW29236   2.856   0.316   4.272 -0.3799  0.1676 -0.4183
 5868SOL    HW129237   2.929   0.374   4.295 -0.8151  0.5689 -0.0443
 5868SOL    HW229238   2.892   0.231   4.296 -1.8050  0.3317  2.3358
 5869SOL     OW29239   3.730   1.422   7.055 -0.7777 -0.3490 -0.3271
 5869SOL    HW129240   3.660   1.395   7.114 -1.5210 -2.4788 -2.1899
 5869SOL    HW229241   3.804   1.372   7.090  1.1996  1.2940 -2.1530
 5870SOL     OW29242   4.452   4.511  12.585 -0.3619 -0.5251 -0.3160
 5870SOL    HW129243   4.481   4.450  12.518 -0.4533 -1.5575  0.5909
 5870SOL    HW229244   4.533   4.533  12.630 -1.1059  0.0033  0.7558
 5871SOL     OW29245   3.614   1.976  12.274  0.1288  0.1423  0.4315
 5871SOL    HW129246   3.673   1.916  12.230 -0.4034 -0.3688  0.4204
 5871SOL    HW229247   3.657   2.062  12.274  0.8145 -0.2020  0.8967
 5872SOL     OW29248   0.952   1.357   8.325  0.5150 -0.4942  0.1544
 5872SOL    HW129249   0.999   1.297   8.267 -0.5572 -1.7904  0.6361
 5872SOL    HW229250   0.938   1.436   8.273 -0.2364 -0.4612  0.4122
 5873SOL     OW29251   4.699   2.477   3.515 -0.0234  0.3224  0.3769
 5873SOL    HW129252   4.606   2.477   3.493 -0.2467 -1.5352  1.3201
 5873SOL    HW229253   4.729   2.387   3.530 -0.0374 -0.0291 -1.6487
 5874SOL     OW29254   1.915   2.896   3.521  0.8997 -0.0024 -0.0156
 5874SOL    HW129255   1.870   2.814   3.502 -0.3375  0.3308  1.4513
 5874SOL    HW229256   1.992   2.892   3.465  0.2928  0.0085 -0.8419
 5875SOL     OW29257   2.724   0.176  17.409 -0.1738 -0.1583  0.6120
 5875SOL    HW129258   2.741   0.256  17.459  0.0536  1.6637 -2.3748
 5875SOL    HW229259   2.813   0.156  17.379 -0.8799  0.3044 -1.7819
 5876SOL     OW29260   4.259   0.136   5.440  0.1911  1.0928 -0.0393
 5876SOL    HW129261   4.204   0.090   5.503 -0.4354  3.0078  0.8223
 5876SOL    HW229262   4.250   0.074   5.368 -1.8404  1.4373 -0.0964
 5877SOL     OW29263   3.736   4.458  11.207  0.5101  0.2091 -0.4185
 5877SOL    HW129264   3.754   4.366  11.227  0.3313  0.1785 -0.3970
 5877SOL    HW229265   3.786   4.478  11.128  0.0965 -1.1054 -1.0083
 5878SOL     OW29266   2.432   1.212   5.609  0.5181  0.0434  0.3842
 5878SOL    HW129267   2.430   1.119   5.632 -0.3285 -0.1732 -0.6107
 5878SOL    HW229268   2.341   1.230   5.630 -0.1283 -0.3481 -2.2313
 5879SOL     OW29269   4.118   4.431   8.793  0.3799 -0.2596 -0.2137
 5879SOL    HW129270   4.123   4.457   8.885  3.8825 -1.5935 -0.0450
 5879SOL    HW229271   4.143   4.511   8.746 -1.7912  0.0879 -0.8215
 5880SOL     OW29272   3.811   3.909  15.997 -1.2170 -0.1594  0.0690
 5880SOL    HW129273   3.824   4.004  16.004  0.3584 -0.1770 -2.6623
 5880SOL    HW229274   3.735   3.908  15.939 -0.1055 -4.0478 -1.2876
 5881SOL     OW29275   1.941   4.024   6.758 -0.1522  0.0694  0.1742
 5881SOL    HW129276   1.870   3.964   6.780  1.2691 -1.1806  1.3846
 5881SOL    HW229277   1.987   4.015   6.841  3.5842 -2.3952 -2.1665
 5882SOL     OW29278   0.104   3.170   7.269  0.5195  0.4225 -0.1440
 5882SOL    HW129279   0.091   3.198   7.360 -0.9560 -0.6309 -0.0334
 5882SOL    HW229280   0.128   3.252   7.226 -1.9812  1.4272  0.3798
 5883SOL     OW29281   2.744   1.399  14.818  0.1160  0.3218 -0.1154
 5883SOL    HW129282   2.823   1.345  14.823 -0.0540  0.3068  2.1002
 5883SOL    HW229283   2.756   1.466  14.886 -0.0235 -0.0142  0.2378
 5884SOL     OW29284   0.193   0.787   2.861 -0.5541  0.3877 -0.7569
 5884SOL    HW129285   0.115   0.819   2.815 -2.3197 -1.6361  0.8318
 5884SOL    HW229286   0.262   0.798   2.795 -1.2669 -0.7984 -1.7061
 5885SOL     OW29287   2.506   3.993  17.633 -0.4984  0.5249 -0.0161
 5885SOL    HW129288   2.490   4.029  17.546  0.5890  0.1902 -0.3493
 5885SOL    HW229289   2.459   3.909  17.640  1.8798 -0.7996 -0.1324
 5886SOL     OW29290   4.281   1.205  12.542 -0.2436  0.2650 -0.0397
 5886SOL    HW129291   4.199   1.207  12.591  0.9229  0.0677  1.9368
 5886SOL    HW229292   4.317   1.136  12.597  0.7530 -0.0092 -1.0459
 5887SOL     OW29293   0.360   3.800   7.193 -0.1146  0.4753 -0.0128
 5887SOL    HW129294   0.318   3.745   7.259  0.4371 -1.6127 -1.4217
 5887SOL    HW229295   0.330   3.757   7.113 -0.7249  1.6831 -0.4425
 5888SOL     OW29296   4.536   4.336   4.645  0.0872  0.1600 -0.3878
 5888SOL    HW129297   4.476   4.296   4.583  0.5274 -0.8054 -0.1901
 5888SOL    HW229298   4.571   4.251   4.673 -0.7343 -0.8064 -2.3268
 5889SOL     OW29299   3.272   1.529   0.084  0.0491  0.2915  0.2235
 5889SOL    HW129300   3.239   1.615   0.109  2.0157  1.0260  0.3562
 5889SOL    HW229301   3.351   1.557   0.037 -0.5417  0.2979 -0.7787
 5890SOL     OW29302   1.749   3.192   2.681  0.4224 -0.0085  0.1919
 5890SOL    HW129303   1.806   3.228   2.613 -0.4773  0.2546 -0.4203
 5890SOL    HW229304   1.663   3.198   2.639 -0.2119 -0.2986  1.4578
 5891SOL     OW29305   2.248   4.189   9.761  0.7348  0.2121 -0.2159
 5891SOL    HW129306   2.213   4.149   9.682 -1.4250 -0.3365  1.0183
 5891SOL    HW229307   2.232   4.283   9.746 -0.2079  0.2753  1.1179
 5892SOL     OW29308   3.661   4.159   5.449 -0.4977 -0.2879 -0.0194
 5892SOL    HW129309   3.596   4.224   5.420 -0.4107  0.6936  1.9799
 5892SOL    HW229310   3.618   4.119   5.525 -0.6069 -0.1457 -0.0046
 5893SOL     OW29311   4.388   0.571   0.842 -0.5607 -0.3387 -0.3315
 5893SOL    HW129312   4.349   0.487   0.866 -0.5176 -0.5955 -1.1661
 5893SOL    HW229313   4.462   0.542   0.788  1.1655 -0.3900  2.0525
 5894SOL     OW29314   4.271   1.828  14.019  0.5581  0.1101  0.0134
 5894SOL    HW129315   4.346   1.809  13.963 -1.0729  0.8406 -2.4081
 5894SOL    HW229316   4.264   1.921  13.998  0.1087 -0.3896 -2.0881
 5895SOL     OW29317   2.979   0.243   8.024 -0.3565  0.0877  0.0395
 5895SOL    HW129318   2.991   0.245   7.929 -1.2563 -0.1294 -0.0777
 5895SOL    HW229319   3.052   0.190   8.055  0.0993 -0.2473 -1.6017
 5896SOL     OW29320   2.170   4.323   0.756  0.0239 -0.3514 -0.4644
 5896SOL    HW129321   2.172   4.377   0.835  2.2041  0.0019 -0.7583
 5896SOL    HW229322   2.214   4.243   0.786  0.2895 -0.8413 -2.1358
 5897SOL     OW29323   4.014   0.462  11.396 -0.5980 -0.4465  0.4686
 5897SOL    HW129324   4.106   0.434  11.390 -0.2183  0.8927  0.1149
 5897SOL    HW229325   4.015   0.512  11.477 -1.9460  1.8702 -0.9396
 5898SOL     OW29326   0.248   2.769   0.065 -0.3940 -0.2261  0.5395
 5898SOL    HW129327   0.250   2.764  17.697  1.0624 -1.1637  0.6132
 5898SOL    HW229328   0.157   2.776   0.095 -0.2018 -0.7254  1.2533
 5899SOL     OW29329   4.565   1.555  12.372 -0.5068  0.0072 -0.2477
 5899SOL    HW129330   4.488   1.502  12.352 -1.0919  0.2497  1.3655
 5899SOL    HW229331   4.634   1.533  12.309 -0.5336 -1.5531  0.2597
 5900SOL     OW29332   2.711   0.273   7.482  0.5330  0.2008 -0.9112
 5900SOL    HW129333   2.715   0.197   7.540 -1.8009  0.8740  0.0931
 5900SOL    HW229334   2.705   0.227   7.398  1.7746 -1.0702 -0.2878
 5901SOL     OW29335   1.914   2.965   4.451  0.1132 -0.0266  0.0376
 5901SOL    HW129336   1.819   2.961   4.460 -0.0428  1.4186 -0.9663
 5901SOL    HW229337   1.939   2.876   4.426  0.8008 -0.2055  1.3449
 5902SOL     OW29338   3.977   0.225   6.197 -0.1191 -0.4625  0.0944
 5902SOL    HW129339   3.941   0.254   6.281 -0.1741 -0.2531 -0.0020
 5902SOL    HW229340   4.061   0.269   6.209  0.6499 -1.5928 -1.2229
 5903SOL     OW29341   4.667   2.335  10.805 -0.3459 -0.0765  0.7968
 5903SOL    HW129342   4.588   2.386  10.785 -0.5064  0.3649  2.4670
 5903SOL    HW229343   4.644   2.302  10.892  0.7206 -0.4151  0.9482
 5904SOL     OW29344   2.011   1.108   4.902 -0.5002  0.2863 -0.0498
 5904SOL    HW129345   1.922   1.083   4.927 -0.4280  2.3182  2.1753
 5904SOL    HW229346   2.042   1.023   4.869 -0.9759  0.3872 -0.7760
 5905SOL     OW29347   2.477   2.783   0.340 -0.4570 -0.1797  0.0736
 5905SOL    HW129348   2.479   2.876   0.362 -0.7624  0.0150 -0.7127
 5905SOL    HW229349   2.477   2.786   0.245  0.0618  2.1497  0.1548
 5906SOL     OW29350   0.076   0.030   8.217  0.6381 -0.4697 -0.3816
 5906SOL    HW129351   0.164   4.728   8.233  1.1867  1.6243  1.0556
 5906SOL    HW229352   0.024   4.683   8.235 -0.6947  0.2621 -1.0444
 5907SOL     OW29353   0.144   2.838   9.497 -0.6855  0.2207  0.6598
 5907SOL    HW129354   0.086   2.828   9.421 -0.0163 -0.0494  0.1806
 5907SOL    HW229355   0.222   2.868   9.450 -1.4551  0.5649 -0.4149
 5908SOL     OW29356   4.593   0.423   5.412 -0.1228 -0.1502 -0.5679
 5908SOL    HW129357   4.631   0.509   5.432  0.4872 -0.1307 -1.8065
 5908SOL    HW229358   4.674   0.384   5.379 -0.7791 -1.1391 -1.0103
 5909SOL     OW29359   1.864   0.722   9.881  0.1650  0.4004  0.1143
 5909SOL    HW129360   1.943   0.729   9.828  2.3907 -2.7396  2.9741
 5909SOL    HW229361   1.866   0.810   9.919 -2.2501  0.6709 -0.3790
 5910SOL     OW29362   4.445   1.471   2.063  0.2615  0.6487 -0.3540
 5910SOL    HW129363   4.507   1.399   2.057 -1.5644 -1.1886  3.1200
 5910SOL    HW229364   4.380   1.460   1.992  0.5464 -1.4818 -0.2851
 5911SOL     OW29365   3.630   0.924   5.061  0.2897 -0.0157 -0.8509
 5911SOL    HW129366   3.715   0.934   5.103  1.2344 -1.3050 -2.4531
 5911SOL    HW229367   3.645   0.838   5.022 -2.1649  0.9053 -3.8773
 5912SOL     OW29368   2.773   1.879   0.444 -0.4761 -0.5830  0.5313
 5912SOL    HW129369   2.833   1.826   0.392 -0.4233 -0.9772  0.9929
 5912SOL    HW229370   2.761   1.956   0.388 -2.1687 -0.4539  1.0866
 5913SOL     OW29371   3.342   2.934  10.594  0.2257  0.1801 -0.0096
 5913SOL    HW129372   3.249   2.918  10.574 -0.4161  2.6364  0.9940
 5913SOL    HW229373   3.336   2.964  10.684  2.5258  0.4790  0.0396
 5914SOL     OW29374   0.413   1.829   7.537 -0.0936  0.3394  0.3873
 5914SOL    HW129375   0.486   1.889   7.525  1.3476 -1.5488 -0.3492
 5914SOL    HW229376   0.463   1.747   7.545 -2.6369 -1.6152 -3.4891
 5915SOL     OW29377   3.015   0.618  15.213 -0.0749 -0.0394  0.1106
 5915SOL    HW129378   2.970   0.559  15.152 -0.1909 -0.0965  0.2537
 5915SOL    HW229379   3.059   0.552  15.267  0.2825 -0.9060 -1.2352
 5916SOL     OW29380   2.542   2.450   4.711 -0.1630 -0.5057  0.4426
 5916SOL    HW129381   2.480   2.426   4.779 -0.9568 -0.8229 -0.3901
 5916SOL    HW229382   2.532   2.545   4.708 -0.6613 -0.5722 -0.0292
 5917SOL     OW29383   3.699   4.656   2.224 -0.1278  0.4368 -0.4712
 5917SOL    HW129384   3.604   4.666   2.218  0.0230  1.5229 -0.9178
 5917SOL    HW229385   3.716   4.568   2.189  2.1298  0.4311  0.6822
 5918SOL     OW29386   1.225   4.214   9.441  0.0727  0.2161 -0.0723
 5918SOL    HW129387   1.226   4.151   9.370  2.3108  0.1821 -0.0138
 5918SOL    HW229388   1.198   4.298   9.402  1.1534  1.1727  1.2312
 5919SOL     OW29389   2.475   2.463   1.777  0.0427  0.0066  0.6393
 5919SOL    HW129390   2.511   2.501   1.697 -1.0503 -0.7134 -0.1933
 5919SOL    HW229391   2.431   2.540   1.812 -1.7305 -1.0735  0.7933
 5920SOL     OW29392   3.375   4.555   7.911 -0.1580  0.3229 -0.0341
 5920SOL    HW129393   3.304   4.495   7.885 -0.3866  1.4891 -2.0656
 5920SOL    HW229394   3.429   4.487   7.952 -0.2259 -0.2361 -0.8717
 5921SOL     OW29395   2.066   3.647  13.728 -0.4321  0.2971 -0.6302
 5921SOL    HW129396   1.989   3.608  13.687  0.0427 -1.2919 -0.0159
 5921SOL    HW229397   2.128   3.651  13.655  1.8327 -0.3092  1.2257
 5922SOL     OW29398   0.674   2.822   2.854 -0.1258 -0.1446 -0.1759
 5922SOL    HW129399   0.625   2.783   2.926  0.0499 -0.8850 -0.4625
 5922SOL    HW229400   0.744   2.757   2.854  0.7278  0.7714 -1.7385
 5923SOL     OW29401   2.441   3.654  12.448  0.5971 -0.1013 -0.2357
 5923SOL    HW129402   2.452   3.640  12.354 -2.0995  2.3562 -0.9210
 5923SOL    HW229403   2.450   3.567  12.487  0.8566  0.0877  0.1250
 5924SOL     OW29404   0.930   2.885  15.990  0.1634  0.4519 -0.1807
 5924SOL    HW129405   1.023   2.906  15.995  0.3815 -0.0869 -1.9795
 5924SOL    HW229406   0.907   2.954  15.928 -0.4672  1.6212  1.3613
 5925SOL     OW29407   0.447   0.590   4.507 -0.5408 -0.4390  0.1823
 5925SOL    HW129408   0.412   0.634   4.430  1.0815 -0.3597 -0.5143
 5925SOL    HW229409   0.534   0.564   4.476  0.6272  2.0502  1.3736
 5926SOL     OW29410   3.673   3.616   4.953 -0.0785 -0.5718 -0.5865
 5926SOL    HW129411   3.630   3.551   4.898 -1.0218  0.2336 -0.8003
 5926SOL    HW229412   3.739   3.649   4.892  1.2542  0.3486  1.3552
 5927SOL     OW29413   1.865   1.138   3.281  0.5936 -0.0010 -0.1064
 5927SOL    HW129414   1.907   1.205   3.335  1.9747 -1.1836  0.2992
 5927SOL    HW229415   1.873   1.183   3.197 -0.9023  0.3959 -0.0254
 5928SOL     OW29416   0.456   3.626  13.697 -0.7562  0.2633  0.0880
 5928SOL    HW129417   0.497   3.698  13.745 -0.2912  1.4424 -2.0515
 5928SOL    HW229418   0.445   3.657  13.607  0.4476 -0.4330 -0.2992
 5929SOL     OW29419   0.715   2.707   2.142 -0.1111 -0.1605  0.2467
 5929SOL    HW129420   0.757   2.706   2.228 -0.4984 -1.4805  0.4175
 5929SOL    HW229421   0.794   2.718   2.088  1.0802 -1.6291  1.7219
 5930SOL     OW29422   1.046   0.296   8.270  0.2084  0.4260 -0.2819
 5930SOL    HW129423   0.996   0.256   8.199  0.5472  0.8162 -0.7349
 5930SOL    HW229424   1.004   0.381   8.281  1.6245  0.9308  1.3616
 5931SOL     OW29425   2.405   4.452   1.827  0.1157  0.3663 -0.6574
 5931SOL    HW129426   2.347   4.389   1.870 -0.1638 -0.4168 -2.1912
 5931SOL    HW229427   2.392   4.433   1.735  0.5968 -2.0809 -0.2273
 5932SOL     OW29428   3.636   3.719   0.198 -0.2632  0.4629  0.0238
 5932SOL    HW129429   3.731   3.705   0.205 -0.7072 -1.2183  2.6529
 5932SOL    HW229430   3.609   3.656   0.265 -2.1397  0.5991 -0.6133
 5933SOL     OW29431   1.631   2.441  11.195 -0.4995 -0.7313  0.4191
 5933SOL    HW129432   1.648   2.460  11.102 -1.5117 -1.1139  0.1616
 5933SOL    HW229433   1.579   2.516  11.223 -1.2194 -0.5701 -1.3660
 5934SOL     OW29434   1.840   2.266  14.064 -0.2807  0.8737  0.3031
 5934SOL    HW129435   1.810   2.175  14.054  0.9063  0.4110  0.9104
 5934SOL    HW229436   1.801   2.303  14.143 -0.0341 -1.5595  1.5774
 5935SOL     OW29437   1.740   2.628   7.276  0.8696 -0.2668  0.1025
 5935SOL    HW129438   1.673   2.697   7.274 -1.0168 -2.0842  0.3718
 5935SOL    HW229439   1.713   2.602   7.364  1.6275 -1.5847 -0.0510
 5936SOL     OW29440   2.283   0.961  16.957  0.1108  0.1930  0.0552
 5936SOL    HW129441   2.333   1.017  16.898  1.5598  1.0651  2.0986
 5936SOL    HW229442   2.352   0.904  16.991 -1.0496 -0.7207  0.8778
 5937SOL     OW29443   3.848   0.105   2.374 -0.6130 -0.1901  0.4063
 5937SOL    HW129444   3.806   0.075   2.294  0.2032  0.8545 -0.4229
 5937SOL    HW229445   3.769   0.095   2.427 -0.3585  0.9711  1.0112
 5938SOL     OW29446   3.623   2.940   4.157 -0.0521 -0.0444  0.2386
 5938SOL    HW129447   3.619   2.890   4.075  1.9746  0.6487 -0.2775
 5938SOL    HW229448   3.538   2.983   4.152 -0.5214 -0.9190  0.7494
 5939SOL     OW29449   3.402   3.918   1.268 -0.4464 -0.2104 -0.0955
 5939SOL    HW129450   3.399   3.825   1.292 -1.8271  0.1770  1.1874
 5939SOL    HW229451   3.448   3.948   1.346 -0.0958 -0.9243 -0.0230
 5940SOL     OW29452   3.488   2.815  11.260  0.0532  0.0059 -0.1846
 5940SOL    HW129453   3.449   2.761  11.329  0.3408  0.4229  0.3038
 5940SOL    HW229454   3.582   2.817  11.281  0.4048 -1.6240 -1.5659
 5941SOL     OW29455   4.295   3.247   8.094  0.9509 -0.3584  0.0211
 5941SOL    HW129456   4.373   3.195   8.078 -0.7797 -2.8380 -0.4004
 5941SOL    HW229457   4.325   3.284   8.177  2.4538 -1.3333 -0.0973
 5942SOL     OW29458   0.398   2.430   8.597 -0.5403 -0.4345 -0.5017
 5942SOL    HW129459   0.358   2.486   8.531 -0.3130 -0.6189 -0.7982
 5942SOL    HW229460   0.439   2.501   8.646 -1.3902 -0.2588 -0.0553
 5943SOL     OW29461   0.213   3.352   7.869 -0.1819 -0.4214 -0.2425
 5943SOL    HW129462   0.165   3.326   7.790  1.1188 -2.2549 -0.4256
 5943SOL    HW229463   0.183   3.282   7.927  2.8441  1.3675  3.3873
 5944SOL     OW29464   2.026   4.488   6.204  0.3864 -0.3691  0.3094
 5944SOL    HW129465   2.112   4.464   6.239  0.7453 -1.4274 -1.3008
 5944SOL    HW229466   1.971   4.500   6.281 -0.0787 -0.7091  0.0278
 5945SOL     OW29467   1.787   1.515   0.528 -0.7205 -0.4200  0.6592
 5945SOL    HW129468   1.826   1.530   0.614 -0.7707 -0.6300  0.7205
 5945SOL    HW229469   1.696   1.493   0.551 -1.0131 -0.2130 -0.3004
 5946SOL     OW29470   1.963   4.437   5.074 -0.5026 -0.3405  0.5938
 5946SOL    HW129471   2.038   4.383   5.101  1.3486  2.6810  1.5406
 5946SOL    HW229472   1.985   4.450   4.982 -0.8184 -1.7383  0.3075
 5947SOL     OW29473   0.302   1.491   9.341  0.0341 -0.6687  0.5564
 5947SOL    HW129474   0.221   1.472   9.294 -1.1947  1.8884  1.6643
 5947SOL    HW229475   0.301   1.413   9.396  0.1981 -0.8330  0.3295
 5948SOL     OW29476   2.733   1.197  15.603 -0.1055 -0.2651 -0.2645
 5948SOL    HW129477   2.822   1.164  15.601  1.2246  3.2826  1.6214
 5948SOL    HW229478   2.708   1.163  15.517 -3.4007  1.3614  0.0361
 5949SOL     OW29479   4.350   0.197  11.470 -0.3254 -0.0346 -0.0087
 5949SOL    HW129480   4.298   0.131  11.515 -0.6312 -1.0632 -1.8779
 5949SOL    HW229481   4.428   0.227  11.516 -1.4986  1.3290  1.1018
 5950SOL     OW29482   2.985   3.006   4.398 -0.5349 -0.5364 -0.2480
 5950SOL    HW129483   3.047   3.079   4.398 -0.1077 -0.9032 -0.5835
 5950SOL    HW229484   2.905   3.055   4.418 -0.9551 -0.7464 -1.3931
 5951SOL     OW29485   0.953   3.593   2.119  0.3007 -0.3051  0.2549
 5951SOL    HW129486   0.975   3.502   2.096 -0.0922 -0.1343 -0.7918
 5951SOL    HW229487   0.891   3.620   2.051 -0.8033 -3.7197 -0.1211
 5952SOL     OW29488   2.792   1.763   4.373 -0.3640 -0.2777  0.1608
 5952SOL    HW129489   2.871   1.804   4.337 -0.4350 -0.6077 -0.3593
 5952SOL    HW229490   2.726   1.787   4.308  0.6976  0.8696 -0.5087
 5953SOL     OW29491   2.197   3.071   1.967 -0.4792  0.0995 -0.1341
 5953SOL    HW129492   2.148   3.153   1.960 -0.2631  0.3207  0.8720
 5953SOL    HW229493   2.129   3.006   1.989  2.0241 -2.6768 -0.6386
 5954SOL     OW29494   3.046   2.424   2.452 -0.0979  0.0296  0.8285
 5954SOL    HW129495   2.970   2.381   2.413 -0.4430  0.9989  0.4268
 5954SOL    HW229496   3.043   2.508   2.405  2.3585 -0.6008 -0.4425
 5955SOL     OW29497   4.624   0.537   0.740  0.2945 -0.3615 -0.5050
 5955SOL    HW129498   4.682   0.463   0.725 -0.3458 -1.1461  0.8075
 5955SOL    HW229499   4.671   0.599   0.685 -1.4201 -0.6717 -2.3061
 5956SOL     OW29500   0.492   1.288  15.786 -0.1740 -0.7654  0.5900
 5956SOL    HW129501   0.489   1.199  15.821  2.1726 -0.1251  2.4351
 5956SOL    HW229502   0.411   1.301  15.737  0.2698 -0.1807  0.0161
 5957SOL     OW29503   1.157   1.733   2.009 -0.0740 -0.1943  0.1254
 5957SOL    HW129504   1.124   1.693   1.929  2.6368 -2.3468  0.0696
 5957SOL    HW229505   1.252   1.726   2.015 -0.2944 -2.2601  1.1095
 5958SOL     OW29506   3.732   2.060   2.873  0.5820  0.3344  0.1981
 5958SOL    HW129507   3.656   2.087   2.925  0.9563  1.5690  0.1195
 5958SOL    HW229508   3.802   2.059   2.938  0.6317 -0.4662  0.1277
 5959SOL     OW29509   2.687   3.877   8.953  0.2282  0.0361 -0.3273
 5959SOL    HW129510   2.683   3.788   8.990  0.4034  1.2859  2.6675
 5959SOL    HW229511   2.600   3.910   8.974 -1.2592 -2.4051 -2.7240
 5960SOL     OW29512   3.939   3.646   2.220 -1.0430 -0.2452 -0.1859
 5960SOL    HW129513   4.019   3.690   2.248 -1.6437 -0.7070  2.2438
 5960SOL    HW229514   3.968   3.615   2.134 -0.7091 -0.5684  0.0447
 5961SOL     OW29515   0.789   4.577  11.088 -0.1124  0.3220 -0.1576
 5961SOL    HW129516   0.860   4.639  11.105  0.6351 -0.8045  0.8354
 5961SOL    HW229517   0.844   4.524  11.031 -1.3608 -0.5641 -0.5239
 5962SOL     OW29518   3.202   3.942   5.646  0.0214  0.3746 -0.0821
 5962SOL    HW129519   3.123   3.906   5.685  1.6572 -1.4742  1.4966
 5962SOL    HW229520   3.235   3.993   5.720 -1.7304  2.0950 -0.4878
 5963SOL     OW29521   0.431   2.594   8.353  0.0955 -0.0559 -0.0955
 5963SOL    HW129522   0.455   2.686   8.340  1.6487 -0.3807  0.4075
 5963SOL    HW229523   0.521   2.562   8.344  0.0024  0.5637 -3.2384
 5964SOL     OW29524   2.621   4.495  14.377  0.0129 -0.3488  0.0303
 5964SOL    HW129525   2.681   4.460  14.443  0.9129 -1.0500 -1.1631
 5964SOL    HW229526   2.566   4.419  14.358 -2.6356  1.4267  0.5887
 5965SOL     OW29527   3.367   3.613   4.187  0.0541  0.5343 -0.1608
 5965SOL    HW129528   3.385   3.686   4.128  0.5343  0.7421  0.2449
 5965SOL    HW229529   3.284   3.591   4.146 -0.4015 -0.6477  1.3804
 5966SOL     OW29530   1.817   2.408  12.048  0.1032 -0.5726  0.1869
 5966SOL    HW129531   1.835   2.483  12.105  2.1165 -2.7568  2.4692
 5966SOL    HW229532   1.727   2.423  12.021  0.3462 -1.0624 -0.8841
 5967SOL     OW29533   3.687   3.931   2.126  0.2204 -0.4569  0.1165
 5967SOL    HW129534   3.662   3.936   2.034  1.0445 -0.4111 -0.1047
 5967SOL    HW229535   3.771   3.975   2.123  0.0042  0.0379  1.3593
 5968SOL     OW29536   0.594   1.569   3.636  0.3347  0.0568  0.2647
 5968SOL    HW129537   0.543   1.494   3.666 -4.1430  2.0877 -2.1722
 5968SOL    HW229538   0.639   1.529   3.561 -1.1214  1.0146 -1.1332
 5969SOL     OW29539   3.169   3.520   2.185  0.2519 -0.5504 -0.3631
 5969SOL    HW129540   3.236   3.529   2.253 -0.5021 -2.1327  0.5959
 5969SOL    HW229541   3.206   3.452   2.130 -3.1184 -2.8105  0.1507
 5970SOL     OW29542   3.789   1.389   9.929 -0.1379  0.0532  0.2148
 5970SOL    HW129543   3.857   1.443   9.890 -0.3400  1.3232  1.5949
 5970SOL    HW229544   3.811   1.398  10.022  0.6507 -0.6630  0.0986
 5971SOL     OW29545   4.298   0.047   3.205 -0.4169  0.0323  0.0131
 5971SOL    HW129546   4.367   0.044   3.138 -0.7260 -0.4892 -0.2756
 5971SOL    HW229547   4.217   0.053   3.156 -0.7742  0.3144  0.6423
 5972SOL     OW29548   1.061   1.232   8.062  0.4559 -0.4933 -0.3357
 5972SOL    HW129549   1.114   1.181   8.001  0.3339 -2.4145  1.1745
 5972SOL    HW229550   0.975   1.217   8.023  0.9521 -1.5976 -1.0008
 5973SOL     OW29551   3.502   4.272   4.023 -0.0201 -0.4371  0.0760
 5973SOL    HW129552   3.505   4.222   4.105 -3.0085  2.2622  1.8270
 5973SOL    HW229553   3.411   4.299   4.008  0.1554  0.4644  0.6808
 5974SOL     OW29554   2.033   1.222   3.695  0.1159 -0.3591 -0.3171
 5974SOL    HW129555   2.009   1.135   3.663 -2.7572  0.1795  0.3722
 5974SOL    HW229556   2.044   1.206   3.789  2.0809 -0.3417 -0.5523
 5975SOL     OW29557   0.898   3.908   6.858  0.0571 -0.2799  0.1882
 5975SOL    HW129558   0.904   3.995   6.819 -1.4841  0.4669  1.6337
 5975SOL    HW229559   0.904   3.929   6.951 -0.1070 -1.8203  0.5445
 5976SOL     OW29560   3.558   1.992   2.019 -0.4542  0.0833  0.2980
 5976SOL    HW129561   3.527   2.006   1.929  0.1006  0.3157  0.1421
 5976SOL    HW229562   3.478   1.952   2.053 -0.4764 -1.2976 -1.3677
 5977SOL     OW29563   3.079   0.124   1.010  0.0990  0.0156 -0.3969
 5977SOL    HW129564   3.148   0.127   1.075 -0.6159 -2.4016  0.4962
 5977SOL    HW229565   3.120   0.090   0.930 -1.0303 -1.1195 -0.4994
 5978SOL     OW29566   4.190   2.674   4.439  0.6364 -0.1140  0.0909
 5978SOL    HW129567   4.100   2.685   4.409  0.9399 -0.7835 -1.0648
 5978SOL    HW229568   4.177   2.661   4.533  0.7658  0.2822  0.1648
 5979SOL     OW29569   4.466   3.184   9.254  0.2470 -0.7375  0.0539
 5979SOL    HW129570   4.477   3.105   9.201  0.6288 -2.5498  2.8334
 5979SOL    HW229571   4.375   3.189   9.281  0.3370 -0.5138  0.3136
 5980SOL     OW29572   2.002   0.271   4.318 -0.0535  0.5820 -0.5054
 5980SOL    HW129573   1.910   0.258   4.343  0.1384 -0.3408 -0.2810
 5980SOL    HW229574   2.004   0.367   4.313  1.6958  0.6491  1.5643
 5981SOL     OW29575   1.639   2.954   4.516 -0.1350 -0.0957 -0.4634
 5981SOL    HW129576   1.633   3.021   4.584 -0.7722 -0.5515 -0.0743
 5981SOL    HW229577   1.554   2.962   4.474  0.3387  2.0229 -1.0021
 5982SOL     OW29578   2.330   4.607  17.451  0.7370 -0.2390 -0.3071
 5982SOL    HW129579   2.301   4.580  17.364 -1.8563 -0.2317  0.5439
 5982SOL    HW229580   2.416   4.642  17.429  1.6029 -1.4889  1.1730
 5983SOL     OW29581   3.395   1.599   4.679  0.4637 -1.0165  0.0081
 5983SOL    HW129582   3.314   1.584   4.629 -0.0683  0.8601  0.2867
 5983SOL    HW229583   3.360   1.677   4.723  1.9511 -0.5529  0.3568
 5984SOL     OW29584   4.114   0.370  12.440  0.0398  0.4130  0.1515
 5984SOL    HW129585   4.145   0.285  12.410  3.3615  0.9355  2.1944
 5984SOL    HW229586   4.023   0.376  12.410  0.5824  0.6785 -1.4669
 5985SOL     OW29587   4.048   2.264   7.349 -0.1091  0.2308  0.2155
 5985SOL    HW129588   4.092   2.318   7.415  0.5625 -0.9443  0.7450
 5985SOL    HW229589   3.967   2.252   7.399 -0.4323  1.1562 -0.0821
 5986SOL     OW29590   0.878   1.986  15.214 -0.2559 -0.1552 -0.4476
 5986SOL    HW129591   0.876   1.957  15.123 -2.7545  0.4225 -0.5902
 5986SOL    HW229592   0.827   1.924  15.266  0.9382 -0.0599  0.8155
 5987SOL     OW29593   2.508   2.239   6.468 -0.5475 -0.7302  0.0684
 5987SOL    HW129594   2.458   2.194   6.400  0.5660  1.5652 -2.2771
 5987SOL    HW229595   2.482   2.194   6.548 -1.2945  0.5599  0.5395
 5988SOL     OW29596   2.974   1.708   2.429 -0.6309 -0.0875  0.2777
 5988SOL    HW129597   2.949   1.701   2.337 -2.1214  0.0816  0.6664
 5988SOL    HW229598   2.894   1.680   2.474 -0.4171 -2.7741 -1.0231
 5989SOL     OW29599   4.081   2.980   1.778  0.1418  0.6859 -0.0712
 5989SOL    HW129600   4.053   3.053   1.833  0.0230  1.2379 -0.8692
 5989SOL    HW229601   3.999   2.943   1.744 -0.3722  1.7179  0.0624
 5990SOL     OW29602   4.641   1.662   2.163 -0.1407 -0.5823  0.0395
 5990SOL    HW129603   4.587   1.677   2.240 -0.6708  1.1585 -0.6890
 5990SOL    HW229604   4.574   1.619   2.108 -1.2838  0.4719  0.6260
 5991SOL     OW29605   2.622   1.004   4.961  0.2726  0.0595  0.3243
 5991SOL    HW129606   2.531   1.032   4.965  0.5736  1.0897 -0.1201
 5991SOL    HW229607   2.639   1.022   4.869  1.5852  0.3601  0.6336
 5992SOL     OW29608   3.167   2.093  13.144 -0.4202 -0.3018 -0.0611
 5992SOL    HW129609   3.096   2.098  13.080  1.1331  0.2438 -1.7454
 5992SOL    HW229610   3.225   2.151  13.094 -0.9115  0.7285  0.5670
 5993SOL     OW29611   2.429   1.624  17.126  0.1631  0.2871 -0.0853
 5993SOL    HW129612   2.381   1.543  17.108  0.3823  0.1211  0.0837
 5993SOL    HW229613   2.466   1.637  17.039  2.1433  0.4463  0.7762
 5994SOL     OW29614   3.012   2.271   3.105  0.0673  0.2480  0.5408
 5994SOL    HW129615   3.097   2.315   3.105  0.2449 -0.0946 -0.8048
 5994SOL    HW229616   2.996   2.277   3.199  1.0232  1.0056  0.6564
 5995SOL     OW29617   4.030   0.931  17.291 -0.6095  0.4208 -0.4684
 5995SOL    HW129618   3.937   0.914  17.280 -0.3461 -1.0419 -0.3794
 5995SOL    HW229619   4.028   1.020  17.328 -0.5060  0.1210  0.2513
 5996SOL     OW29620   3.042   2.061  15.565  0.0133  0.1140  0.1448
 5996SOL    HW129621   3.116   2.083  15.621  1.2988  0.1552 -1.5654
 5996SOL    HW229622   3.092   2.033  15.488  1.5429  0.7287  0.9140
 5997SOL     OW29623   1.035   0.312  14.407  0.7093  0.7705 -0.5857
 5997SOL    HW129624   0.958   0.310  14.464 -0.2755 -2.1495 -2.0213
 5997SOL    HW229625   1.092   0.248  14.450 -1.3762 -0.8180 -0.2113
 5998SOL     OW29626   2.605   2.674   8.080  0.1219 -0.0038  0.7635
 5998SOL    HW129627   2.531   2.685   8.020  1.1289  0.6317 -0.3601
 5998SOL    HW229628   2.565   2.615   8.144 -0.2483 -2.6280 -1.9139
 5999SOL     OW29629   0.560   2.647   3.026 -0.1006 -0.0413  0.2211
 5999SOL    HW129630   0.599   2.666   3.111 -0.2713  3.4389 -0.4823
 5999SOL    HW229631   0.557   2.552   3.027  1.8814 -0.0891  0.9552
 6000SOL     OW29632   4.074   1.137   6.553  0.1124 -0.2672  0.2314
 6000SOL    HW129633   4.081   1.056   6.603 -1.3249  0.2886  1.3111
 6000SOL    HW229634   3.979   1.149   6.547 -0.5378 -4.9259  0.8645
 6001SOL     OW29635   1.607   4.315   4.773  0.1630 -0.6094  0.3519
 6001SOL    HW129636   1.593   4.248   4.706 -5.1703  0.5112  0.3558
 6001SOL    HW229637   1.564   4.278   4.849  1.0752  0.2015  1.2567
 6002SOL     OW29638   0.636   2.668   4.348  0.6567  0.0744  0.2300
 6002SOL    HW129639   0.541   2.664   4.347  0.6390  0.8227 -0.9297
 6002SOL    HW229640   0.649   2.573   4.346  0.4436 -0.0223  3.3642
 6003SOL     OW29641   4.600   1.384   5.855  0.4479 -0.3094 -0.5248
 6003SOL    HW129642   4.569   1.354   5.769 -1.6193 -0.0997  0.1520
 6003SOL    HW229643   4.609   1.477   5.838  0.7082 -0.4793 -1.3565
 6004SOL     OW29644   4.380   0.931   9.612  0.1093 -0.0701  0.2437
 6004SOL    HW129645   4.286   0.912   9.611 -0.2411  1.5571  2.8865
 6004SOL    HW229646   4.413   0.930   9.522  2.2185  0.1341  1.0232
 6005SOL     OW29647   0.885   0.869   2.427 -0.3629  0.0228 -0.1987
 6005SOL    HW129648   0.791   0.858   2.443  0.0220 -1.4024  1.1125
 6005SOL    HW229649   0.914   0.777   2.434  3.0285  1.1583  0.8245
 6006SOL     OW29650   4.273   1.234   4.708 -0.2699  0.1036 -0.0084
 6006SOL    HW129651   4.308   1.145   4.701  0.5564  0.3658  0.8826
 6006SOL    HW229652   4.201   1.223   4.769 -0.7917  1.0912 -0.4385
 6007SOL     OW29653   2.222   0.457   6.240  0.0201 -0.0106 -0.3155
 6007SOL    HW129654   2.130   0.461   6.214 -0.3731 -0.8649  0.9485
 6007SOL    HW229655   2.228   0.547   6.273 -0.6891  0.1019 -0.5097
 6008SOL     OW29656   3.408   0.817   1.727  0.1090 -0.1118  0.2436
 6008SOL    HW129657   3.319   0.839   1.754  0.1162 -2.3264  1.9606
 6008SOL    HW229658   3.399   0.776   1.641 -2.6137  0.0441  0.4263
 6009SOL     OW29659   2.233   2.955   7.463 -0.1843 -0.5855  0.4349
 6009SOL    HW129660   2.165   2.888   7.451 -0.1768 -0.6398  0.6890
 6009SOL    HW229661   2.201   2.981   7.550  0.4740 -1.0808  0.8218
 6010SOL     OW29662   1.446   0.589  17.012  0.3116 -0.2064 -0.1160
 6010SOL    HW129663   1.457   0.658  16.946 -0.8145  0.4243  0.3564
 6010SOL    HW229664   1.446   0.512  16.955  0.1955  1.2830 -2.1455
 6011SOL     OW29665   0.982   1.873   3.367  0.2697  0.3702  0.2831
 6011SOL    HW129666   1.028   1.914   3.440 -1.3997  0.8430  1.0546
 6011SOL    HW229667   0.933   1.805   3.413  0.0895  1.4916  1.7350
 6012SOL     OW29668   4.376   2.891   7.762 -0.5714  0.0199  0.2078
 6012SOL    HW129669   4.463   2.853   7.752  0.0553  1.1538  1.3234
 6012SOL    HW229670   4.395   2.940   7.842 -0.6792  0.1200  0.1719
 6013SOL     OW29671   1.790   1.646  10.420  0.8623  0.2903 -0.0423
 6013SOL    HW129672   1.801   1.735  10.386  1.4552  0.0729 -0.4258
 6013SOL    HW229673   1.877   1.605  10.414  0.9223  0.5090 -0.6972
 6014SOL     OW29674   1.443   2.019   8.860 -0.5503 -0.2535 -0.1127
 6014SOL    HW129675   1.430   2.103   8.816  0.1881 -1.4363 -2.6012
 6014SOL    HW229676   1.531   2.002   8.826 -1.0964 -0.7334 -1.2938
 6015SOL     OW29677   4.682   1.541   1.685  0.0884  0.5923 -0.1624
 6015SOL    HW129678   0.001   1.466   1.716 -0.2390  1.2387  1.9338
 6015SOL    HW229679   4.713   1.551   1.595 -0.7492  0.2357 -0.4834
 6016SOL     OW29680   2.960   3.299   3.423  0.3240 -0.0438 -0.0502
 6016SOL    HW129681   2.978   3.322   3.332  0.5070 -2.0749 -0.5249
 6016SOL    HW229682   3.026   3.231   3.439  0.6855  0.0438 -1.1954
 6017SOL     OW29683   2.300   4.654  10.925 -0.6606  0.2308  0.3876
 6017SOL    HW129684   2.377   4.647  10.868  1.0596  0.9772  2.5999
 6017SOL    HW229685   2.319   0.006  10.967 -1.4528  0.5057  0.1930
 6018SOL     OW29686   2.181   1.729  11.637 -0.1835  0.0181 -0.3950
 6018SOL    HW129687   2.252   1.666  11.624  0.3933  0.4141  0.8898
 6018SOL    HW229688   2.177   1.725  11.732 -0.8805 -2.0118 -0.5081
 6019SOL     OW29689   3.640   3.167   5.871  0.5817 -0.3860  0.1887
 6019SOL    HW129690   3.559   3.218   5.877 -0.5994 -2.5162  2.5013
 6019SOL    HW229691   3.655   3.126   5.956 -0.6290 -3.4125 -1.0564
 6020SOL     OW29692   3.712   1.516   6.020  0.0740  0.4682 -0.2663
 6020SOL    HW129693   3.616   1.513   6.015  0.0295  0.5574  0.5597
 6020SOL    HW229694   3.720   1.569   6.099  1.3389  2.2829 -1.5863
 6021SOL     OW29695   1.062   3.139   2.935  0.8130  0.0252  0.5385
 6021SOL    HW129696   1.075   3.228   2.968  1.5864  0.5250 -1.1074
 6021SOL    HW229697   0.974   3.126   2.971  0.2446 -1.8576 -1.5753
 6022SOL     OW29698   4.607   1.414   6.158 -0.6237  0.6824 -0.3646
 6022SOL    HW129699   4.527   1.362   6.154 -0.1800  0.0417 -0.8105
 6022SOL    HW229700   4.629   1.423   6.065  1.2914 -0.6964 -0.0595
 6023SOL     OW29701   3.865   2.987   2.349  1.1638  0.7105 -0.3543
 6023SOL    HW129702   3.823   3.071   2.367 -2.9983 -1.2779 -0.8086
 6023SOL    HW229703   3.957   3.011   2.348  1.3963 -0.1600  0.0653
 6024SOL     OW29704   3.734   0.497  16.663  0.5318 -0.1982  0.0222
 6024SOL    HW129705   3.814   0.456  16.695  1.4711  0.6916 -1.2171
 6024SOL    HW229706   3.763   0.534  16.580 -2.4394 -0.1675 -1.0070
 6025SOL     OW29707   2.589   2.330   2.616  0.2475 -0.9262  0.1976
 6025SOL    HW129708   2.656   2.374   2.564 -0.3816 -0.7959 -0.4902
 6025SOL    HW229709   2.550   2.404   2.662  0.8432 -0.6411  0.2556
 6026SOL     OW29710   0.846   2.972   9.138 -0.3121  0.3107  0.4443
 6026SOL    HW129711   0.784   2.905   9.111  1.9715 -0.4192 -3.0712
 6026SOL    HW229712   0.804   3.048   9.096  0.0559  1.3898  2.0163
 6027SOL     OW29713   0.216   0.422  10.813 -0.1808 -0.3933 -0.3597
 6027SOL    HW129714   0.212   0.372  10.894  1.7761 -0.0355 -0.0516
 6027SOL    HW229715   0.275   0.368  10.760  0.1102  0.0705 -0.5086
 6028SOL     OW29716   2.414   3.258  10.749  0.2547 -0.3560  0.4138
 6028SOL    HW129717   2.410   3.320  10.676 -0.8334  1.4859  2.0582
 6028SOL    HW229718   2.497   3.287  10.788  1.0291 -1.3683 -0.4696
 6029SOL     OW29719   0.738   2.226   7.603  0.5543  0.2997 -0.0094
 6029SOL    HW129720   0.762   2.286   7.673 -0.8602  0.6409  0.1927
 6029SOL    HW229721   0.725   2.289   7.532 -0.8752  0.9992  0.8785
 6030SOL     OW29722   4.051   0.984   6.099 -0.0330  0.7183  0.2333
 6030SOL    HW129723   4.015   1.063   6.060 -1.9557 -0.8236 -1.1126
 6030SOL    HW229724   4.129   0.975   6.044  1.2204  0.5786  2.0557
 6031SOL     OW29725   1.495   0.034  12.568  0.6265  0.2647 -0.4741
 6031SOL    HW129726   1.496   0.129  12.570 -0.6739  0.2794 -0.2460
 6031SOL    HW229727   1.521   0.011  12.657 -3.6110 -1.5522  0.2790
 6032SOL     OW29728   0.231   0.747   1.615  0.4842 -0.2582 -0.5932
 6032SOL    HW129729   0.299   0.810   1.591  0.2789 -0.0923 -0.7385
 6032SOL    HW229730   0.190   0.729   1.530  0.0360  2.8792 -1.0163
 6033SOL     OW29731   3.525   2.984   5.694  0.3848  0.2040  0.5118
 6033SOL    HW129732   3.446   2.971   5.747 -0.9075  1.3665 -1.1366
 6033SOL    HW229733   3.564   3.051   5.751  1.3069  0.1579 -0.0576
 6034SOL     OW29734   3.692   2.289   3.164 -0.0453  0.2790  0.0261
 6034SOL    HW129735   3.623   2.243   3.117  0.2198 -1.7913  1.6714
 6034SOL    HW229736   3.724   2.347   3.095  1.2188 -1.0300 -0.4842
 6035SOL     OW29737   0.752   0.414   0.013 -0.2667  0.2506 -0.2527
 6035SOL    HW129738   0.807   0.479  17.696  2.2412 -2.1527 -0.6912
 6035SOL    HW229739   0.754   0.337  17.683 -0.6017 -1.7845  2.4672
 6036SOL     OW29740   2.933   3.284   5.871  0.4425  0.0306 -0.0701
 6036SOL    HW129741   2.844   3.251   5.864  0.9584 -1.1877 -0.9983
 6036SOL    HW229742   2.915   3.375   5.893 -1.4864 -0.1242 -1.0778
 6037SOL     OW29743   1.767   1.797   9.079  0.0916 -0.2113  0.0799
 6037SOL    HW129744   1.782   1.803   9.173 -1.1984 -1.8006  0.3946
 6037SOL    HW229745   1.673   1.812   9.070  0.1397 -0.8641 -1.5899
 6038SOL     OW29746   0.250   0.341  16.298 -0.0656  0.3322 -0.6681
 6038SOL    HW129747   0.173   0.348  16.242 -0.8241  0.3791  0.3870
 6038SOL    HW229748   0.231   0.373  16.386  2.5713  1.3376 -0.4717
 6039SOL     OW29749   2.850   1.243   9.872 -0.1471  0.2467  0.4444
 6039SOL    HW129750   2.806   1.231   9.788 -0.0532  0.3472  0.3802
 6039SOL    HW229751   2.797   1.191   9.932  0.2644  1.4729  1.8699
 6040SOL     OW29752   0.761   0.244  14.504 -0.2717  0.0716  0.2059
 6040SOL    HW129753   0.745   0.150  14.498  0.0044  0.0354  0.0557
 6040SOL    HW229754   0.733   0.282  14.421 -0.3930 -0.3642  0.0488
 6041SOL     OW29755   2.405   1.203   5.275 -0.0415 -0.1468  0.0929
 6041SOL    HW129756   2.310   1.192   5.282 -0.0656  1.5941  2.5448
 6041SOL    HW229757   2.425   1.224   5.366 -1.1324  2.8793 -0.3761
 6042SOL     OW29758   0.832   1.756   7.124 -0.1256  0.0177 -0.0929
 6042SOL    HW129759   0.894   1.709   7.068 -0.5097 -0.3393 -0.2264
 6042SOL    HW229760   0.749   1.714   7.100  0.5073 -2.0832  1.3017
 6043SOL     OW29761   3.175   1.850   5.321 -0.0768 -0.2125  0.8450
 6043SOL    HW129762   3.083   1.854   5.292 -0.3150 -0.7731  1.5015
 6043SOL    HW229763   3.203   1.775   5.269  1.0956  1.1978 -0.5591
 6044SOL     OW29764   3.600   3.241   3.722 -0.1811  0.5777 -0.2870
 6044SOL    HW129765   3.581   3.310   3.786 -0.8563 -1.3551  1.6123
 6044SOL    HW229766   3.694   3.228   3.733  0.0081 -0.8162 -3.5859
 6045SOL     OW29767   1.857   0.832   4.525  0.3754  0.4158  0.6676
 6045SOL    HW129768   1.842   0.822   4.619  1.4202  1.1136  0.9080
 6045SOL    HW229769   1.951   0.812   4.532  0.4267 -0.7808 -2.9843
 6046SOL     OW29770   0.903   2.254   9.467 -0.6197 -0.3683  0.0339
 6046SOL    HW129771   0.870   2.219   9.550  1.1454  1.4909  1.5139
 6046SOL    HW229772   0.833   2.225   9.408 -2.0682  0.5189  1.3035
 6047SOL     OW29773   2.415   3.858  12.639  0.2612 -0.0052 -0.0638
 6047SOL    HW129774   2.420   3.782  12.581 -0.6559 -0.7935  0.8850
 6047SOL    HW229775   2.455   3.926  12.585 -1.2227  1.5787  0.8744
 6048SOL     OW29776   2.609   2.721   6.842  0.3398  0.4626  0.3655
 6048SOL    HW129777   2.679   2.659   6.863  0.0237 -0.3195 -0.8578
 6048SOL    HW229778   2.659   2.796   6.809  0.1053 -0.5850 -2.3833
 6049SOL     OW29779   1.537   0.326   0.628  0.1127  0.8481 -0.5820
 6049SOL    HW129780   1.460   0.374   0.660 -1.4874 -2.3391  0.3753
 6049SOL    HW229781   1.552   0.372   0.546 -0.5901 -0.7308 -1.6056
 6050SOL     OW29782   3.615   2.447   4.472  0.4984 -0.3723 -0.1407
 6050SOL    HW129783   3.673   2.392   4.524  0.8889 -0.2340 -0.4262
 6050SOL    HW229784   3.657   2.533   4.465 -0.3347  0.0841  0.5515
 6051SOL     OW29785   3.736   0.204   3.876 -0.2878  0.3474 -0.4030
 6051SOL    HW129786   3.726   0.125   3.823 -0.3483 -0.0666  0.2383
 6051SOL    HW229787   3.692   0.263   3.815  1.6962  1.3443 -0.8945
 6052SOL     OW29788   1.655   3.518   2.739 -0.4478 -0.4604  0.3128
 6052SOL    HW129789   1.719   3.583   2.769 -0.4433 -0.0665 -0.5442
 6052SOL    HW229790   1.611   3.569   2.671 -0.1609 -0.5396  0.0674
 6053SOL     OW29791   4.562   2.437   3.043  0.1281 -0.0840 -0.1079
 6053SOL    HW129792   4.509   2.490   2.983  1.0293  1.8776  0.8415
 6053SOL    HW229793   4.646   2.482   3.032  1.0687 -0.7476  4.3001
 6054SOL     OW29794   4.440   0.227   7.604  0.2072  0.0372 -0.6546
 6054SOL    HW129795   4.390   0.296   7.561  1.2851 -0.6625 -3.0155
 6054SOL    HW229796   4.373   0.164   7.633  0.4227  1.1673  2.2955
 6055SOL     OW29797   2.809   1.511   5.730  0.0604 -0.2361  0.2882
 6055SOL    HW129798   2.717   1.488   5.745  0.0599 -0.3331  0.1370
 6055SOL    HW229799   2.843   1.426   5.701  1.4271  0.5663 -0.4583
 6056SOL     OW29800   1.648   4.620   9.873  0.2640  0.5815  0.0801
 6056SOL    HW129801   1.571   4.672   9.895  0.5415  1.6493 -1.5122
 6056SOL    HW229802   1.642   4.543   9.929  0.6011 -0.0913 -0.8155
 6057SOL     OW29803   2.456   0.739   7.963 -0.2452 -0.1930 -0.5311
 6057SOL    HW129804   2.464   0.688   8.044  1.2484 -1.7316 -1.6554
 6057SOL    HW229805   2.437   0.823   8.005  0.6420  0.3755 -1.2767
 6058SOL     OW29806   4.374   4.064   6.974 -0.3689  0.5931  0.4989
 6058SOL    HW129807   4.349   3.987   6.922  1.6205  0.8089 -0.7950
 6058SOL    HW229808   4.323   4.039   7.050 -1.5868 -0.2263 -0.5835
 6059SOL     OW29809   1.238   1.157   5.749 -0.7411  0.0232 -0.0076
 6059SOL    HW129810   1.163   1.163   5.809 -0.3343 -0.9476  0.6018
 6059SOL    HW229811   1.208   1.203   5.671 -1.8391 -0.7062 -0.0186
 6060SOL     OW29812   3.279   2.254  12.953  0.4864 -0.3115  0.1191
 6060SOL    HW129813   3.363   2.300  12.955 -1.4552  3.0908  4.3283
 6060SOL    HW229814   3.216   2.325  12.941 -0.7169 -1.3695  0.2531
 6061SOL     OW29815   1.865   2.198   5.823 -0.1097 -0.0544 -0.5287
 6061SOL    HW129816   1.901   2.173   5.738  0.5848 -0.9465  0.0316
 6061SOL    HW229817   1.847   2.112   5.861  2.6687 -0.0627  0.6692
 6062SOL     OW29818   0.737   1.149   5.655  0.3038 -0.0223 -0.0150
 6062SOL    HW129819   0.670   1.112   5.712 -1.8726  1.2013 -1.7976
 6062SOL    HW229820   0.719   1.102   5.573 -1.1027 -0.2358  0.4257
 6063SOL     OW29821   3.385   2.363   3.568  0.4161  0.0367 -0.1988
 6063SOL    HW129822   3.469   2.317   3.561  0.0182 -0.5439 -1.2283
 6063SOL    HW229823   3.421   2.450   3.586  1.1146  0.0974 -1.8721
 6064SOL     OW29824   1.538   2.430   3.532 -0.2845  0.1882  0.1851
 6064SOL    HW129825   1.485   2.476   3.466  1.0929 -0.6365 -1.5111
 6064SOL    HW229826   1.615   2.414   3.478 -0.2952 -1.4648  0.6536
 6065SOL     OW29827   0.569   1.808   4.588  0.3734 -0.3758 -0.4384
 6065SOL    HW129828   0.547   1.877   4.527 -1.2309  0.7656  1.4519
 6065SOL    HW229829   0.491   1.800   4.643 -0.2513 -0.1929 -1.2987
 6066SOL     OW29830   1.894   3.066   2.138  0.1340 -0.5192  0.0743
 6066SOL    HW129831   1.882   3.037   2.229 -0.6329  0.4139  0.2589
 6066SOL    HW229832   1.979   3.106   2.155 -0.2911  0.6068 -0.4988
 6067SOL     OW29833   2.421   0.710   4.684 -0.3523 -0.0805 -0.0064
 6067SOL    HW129834   2.348   0.714   4.622  0.2340 -0.1560 -0.7047
 6067SOL    HW229835   2.401   0.625   4.724  0.0756  0.2749  0.9782
 6068SOL     OW29836   0.709   1.264   5.028 -0.1106 -0.2043  0.3113
 6068SOL    HW129837   0.778   1.198   5.025 -0.5523 -0.6563  0.2238
 6068SOL    HW229838   0.690   1.271   4.934 -1.1966 -1.6895  0.4218
 6069SOL     OW29839   0.648   1.974   3.375 -0.0694 -0.7444 -0.5808
 6069SOL    HW129840   0.611   2.042   3.319 -1.8497  1.1914  2.9805
 6069SOL    HW229841   0.565   1.952   3.418 -0.3612 -0.3589 -0.9471
 6070SOL     OW29842   0.175   1.431  15.901  0.2747  0.4115 -0.5768
 6070SOL    HW129843   0.222   1.423  15.984  0.5594  0.2297 -0.7529
 6070SOL    HW229844   0.148   1.340  15.893  1.9550 -0.2501  1.1224
 6071SOL     OW29845   1.845   3.768   0.518  0.1071  0.2176  0.0640
 6071SOL    HW129846   1.881   3.759   0.430 -0.8552 -1.1619 -0.1937
 6071SOL    HW229847   1.922   3.776   0.574 -0.1493  3.6718 -0.0879
 6072SOL     OW29848   0.402   3.860   2.365  0.4197  0.4461 -0.5818
 6072SOL    HW129849   0.399   3.768   2.338 -1.2881 -0.4602  2.7984
 6072SOL    HW229850   0.399   3.910   2.283  0.5717 -0.2682 -1.0205
 6073SOL     OW29851   0.010   4.367   3.227 -0.4526 -0.2438  0.2896
 6073SOL    HW129852   0.034   4.459   3.240 -0.1101 -0.6661  2.5210
 6073SOL    HW229853   4.680   4.363   3.299  0.3152 -0.6110  0.9346
 6074SOL     OW29854   0.058   3.341   4.661 -0.5861 -0.0344 -0.0894
 6074SOL    HW129855   0.038   3.306   4.748 -0.6427 -0.6508 -0.3530
 6074SOL    HW229856   0.089   3.258   4.625  0.5060 -0.3700  1.6113
 6075SOL     OW29857   0.375   1.914   3.963 -0.2174 -0.0174  0.0498
 6075SOL    HW129858   0.453   1.931   4.017  0.1889 -0.2775 -0.4597
 6075SOL    HW229859   0.416   1.857   3.898 -1.6040 -0.0400 -0.8022
 6076SOL     OW29860   3.718   2.017  10.690  0.1119 -0.1895  0.2730
 6076SOL    HW129861   3.765   2.030  10.608 -0.1541  1.1876  0.3431
 6076SOL    HW229862   3.629   2.045  10.669  0.4948  0.6360 -0.2629
 6077SOL     OW29863   0.937   0.543   8.292  0.2393  0.0021 -0.3422
 6077SOL    HW129864   0.877   0.558   8.365  0.2718 -2.5899  0.2390
 6077SOL    HW229865   0.875   0.558   8.221  0.2767 -0.0506 -0.3866
 6078SOL     OW29866   3.631   2.620  12.921  0.1243 -0.0696 -0.3432
 6078SOL    HW129867   3.684   2.678  12.976 -0.5787  1.3164 -1.1115
 6078SOL    HW229868   3.669   2.641  12.835  0.8484  0.6437  0.1493
 6079SOL     OW29869   1.836   1.701   3.552 -0.3827 -0.1610  0.2332
 6079SOL    HW129870   1.790   1.740   3.627 -0.4603  2.4536 -1.1535
 6079SOL    HW229871   1.841   1.771   3.486  0.8761 -0.7160 -0.2591
 6080SOL     OW29872   1.850   0.442  12.905  0.0959 -0.4405  0.3696
 6080SOL    HW129873   1.766   0.406  12.876 -0.2523 -1.3875  2.5454
 6080SOL    HW229874   1.876   0.492  12.828 -2.0121 -1.9812 -1.3253
 6081SOL     OW29875   2.843   1.307   6.788  0.1517 -0.0245  0.2813
 6081SOL    HW129876   2.916   1.356   6.826 -1.2658  1.9068  0.5238
 6081SOL    HW229877   2.889   1.225   6.774 -0.4508  0.2296 -3.2193
 6082SOL     OW29878   1.464   3.857   2.148  0.2167 -0.3166 -0.2954
 6082SOL    HW129879   1.402   3.805   2.098  0.0807  0.8450 -1.3378
 6082SOL    HW229880   1.423   3.887   2.229 -1.2836  1.9242 -1.8857
 6083SOL     OW29881   0.803   1.258   3.635  0.5050 -0.3482 -0.4359
 6083SOL    HW129882   0.879   1.287   3.686 -0.1435  1.7111 -0.6586
 6083SOL    HW229883   0.841   1.273   3.549  1.6692  2.2590  0.5576
 6084SOL     OW29884   2.699   1.562   6.415  0.0864 -0.5102  0.0564
 6084SOL    HW129885   2.770   1.514   6.457  1.2822  1.3052  0.1423
 6084SOL    HW229886   2.665   1.498   6.353  1.2399  0.5603 -1.6976
 6085SOL     OW29887   2.124   0.460   6.924 -0.5118 -0.0293 -0.0859
 6085SOL    HW129888   2.091   0.550   6.923  2.7901  1.1969  0.2388
 6085SOL    HW229889   2.049   0.413   6.960 -0.0152  0.3474  1.3987
 6086SOL     OW29890   2.749   3.630   4.315 -0.0265 -0.1793  0.1394
 6086SOL    HW129891   2.729   3.646   4.407 -1.8751 -0.2579 -0.2489
 6086SOL    HW229892   2.821   3.570   4.330 -1.5159 -1.9495  0.1538
 6087SOL     OW29893   4.460   1.782   1.456 -0.2588 -0.4698 -0.3385
 6087SOL    HW129894   4.374   1.817   1.433  0.1331  0.3473 -0.5648
 6087SOL    HW229895   4.500   1.760   1.372  2.5495  4.5593 -0.3130
 6088SOL     OW29896   3.185   0.088   6.688  0.2989  0.6068 -0.8517
 6088SOL    HW129897   3.143   0.173   6.699 -1.1132  0.0764 -2.0441
 6088SOL    HW229898   3.152   0.065   6.601  1.4065 -0.1779 -1.0622
 6089SOL     OW29899   3.822   4.422  16.810  1.2260 -0.4643  0.0172
 6089SOL    HW129900   3.842   4.394  16.900 -2.4650  0.4890  1.1547
 6089SOL    HW229901   3.782   4.508  16.827 -4.7233 -3.2690  0.1024
 6090SOL     OW29902   3.697   1.703   6.220 -0.4960  0.2680  0.4783
 6090SOL    HW129903   3.653   1.732   6.300  0.7553 -1.2855  1.7259
 6090SOL    HW229904   3.734   1.788   6.194  2.3161 -0.8253  0.9495
 6091SOL     OW29905   4.023   1.466  12.095  0.0635  0.3697  0.2492
 6091SOL    HW129906   4.107   1.420  12.089 -0.2067  0.0275 -0.8837
 6091SOL    HW229907   4.008   1.488  12.187  0.5993  0.6473  0.2642
 6092SOL     OW29908   3.438   4.076  10.463 -0.0066  0.1616  0.1364
 6092SOL    HW129909   3.400   4.084  10.551 -1.8144 -1.0496 -0.5428
 6092SOL    HW229910   3.499   4.006  10.488  0.6058  0.2448 -1.1506
 6093SOL     OW29911   1.114   2.236   2.401  0.7516 -0.2507  0.0335
 6093SOL    HW129912   1.098   2.301   2.333 -0.8900 -1.1531 -0.4325
 6093SOL    HW229913   1.033   2.186   2.396  1.3687 -1.3034  0.3923
 6094SOL     OW29914   3.492   1.771   5.490  0.2680 -0.3819 -0.0232
 6094SOL    HW129915   3.469   1.718   5.567 -0.4562 -0.2185 -0.1297
 6094SOL    HW229916   3.422   1.738   5.434  0.1009  2.3716 -1.4432
 6095SOL     OW29917   0.003   1.237   5.624 -0.2325 -0.7510  0.2332
 6095SOL    HW129918   0.014   1.317   5.572 -0.6281 -0.9583 -0.1634
 6095SOL    HW229919   4.642   1.221   5.612  0.3289 -3.4402 -0.4462
 6096SOL     OW29920   1.128   0.148   7.589 -0.2210  0.0307  0.4505
 6096SOL    HW129921   1.218   0.168   7.564 -0.3569 -0.4439 -0.4021
 6096SOL    HW229922   1.087   0.098   7.519 -0.1418  1.2237 -0.4449
 6097SOL     OW29923   1.472   3.349  16.428 -0.4568  0.2394 -0.1672
 6097SOL    HW129924   1.444   3.387  16.345  0.6022 -2.5679 -1.8084
 6097SOL    HW229925   1.567   3.346  16.416 -0.4482  0.3675 -0.1333
 6098SOL     OW29926   3.510   3.784   3.558  0.2609 -0.1490  0.2197
 6098SOL    HW129927   3.508   3.837   3.479 -2.6556 -0.4346  0.1130
 6098SOL    HW229928   3.504   3.849   3.628  0.5062  0.7515 -0.6075
 6099SOL     OW29929   1.464   3.772  13.466 -0.1214 -0.3231  0.1919
 6099SOL    HW129930   1.514   3.732  13.395 -1.3283 -1.2060 -0.1612
 6099SOL    HW229931   1.476   3.865  13.443 -0.2533 -0.3854 -0.1266
 6100SOL     OW29932   1.971   2.732  15.793  0.1778 -0.2192  0.0457
 6100SOL    HW129933   2.045   2.688  15.835 -0.9066 -0.0296  2.1495
 6100SOL    HW229934   1.897   2.683  15.829  0.1349 -0.8742 -0.9404
 6101SOL     OW29935   0.424   1.830   6.872  0.1261 -0.0812 -0.5726
 6101SOL    HW129936   0.486   1.762   6.896  1.1799  0.4517 -1.7572
 6101SOL    HW229937   0.456   1.906   6.921 -0.6298  0.7617 -1.3820
 6102SOL     OW29938   1.661   3.282   4.242 -0.2670  0.7991  0.6036
 6102SOL    HW129939   1.637   3.275   4.149 -2.5230 -1.6819  1.3755
 6102SOL    HW229940   1.574   3.265   4.279 -0.9062  0.9745 -0.8112
 6103SOL     OW29941   4.085   3.685   6.016 -0.4495  0.0870  0.0319
 6103SOL    HW129942   4.164   3.730   5.986  0.0474 -1.1796 -0.5319
 6103SOL    HW229943   4.011   3.732   5.977  0.1445  0.8143 -0.2223
 6104SOL     OW29944   4.307   2.470  11.312  0.1520  0.1865 -0.0563
 6104SOL    HW129945   4.311   2.376  11.293  1.0973  0.0667  0.7179
 6104SOL    HW229946   4.371   2.470  11.383 -0.9536 -0.4092  0.9411
 6105SOL     OW29947   1.019   3.595   6.463  0.1542 -0.0679  0.3655
 6105SOL    HW129948   1.045   3.676   6.420  0.6994 -2.5093 -3.9815
 6105SOL    HW229949   1.089   3.538   6.432 -1.8585 -1.5146 -1.5790
 6106SOL     OW29950   3.303   0.419   7.809  0.8503  0.6345 -0.5127
 6106SOL    HW129951   3.210   0.434   7.797  1.1590  1.5853 -1.6970
 6106SOL    HW229952   3.332   0.510   7.819  1.4018  0.4487 -0.3996
 6107SOL     OW29953   2.468   2.502   6.593 -0.7648 -0.5779 -0.9019
 6107SOL    HW129954   2.447   2.421   6.546 -0.8665  0.1877 -2.1737
 6107SOL    HW229955   2.455   2.466   6.681  1.2924  1.4452  0.2324
 6108SOL     OW29956   3.506   1.551   2.053  0.2694 -0.7601 -0.1214
 6108SOL    HW129957   3.491   1.617   2.121 -0.0428 -0.3151 -0.6230
 6108SOL    HW229958   3.524   1.466   2.094  0.8458 -0.6339 -0.1082
 6109SOL     OW29959   3.745   3.045   8.807  0.2918  0.6231 -0.0751
 6109SOL    HW129960   3.665   3.023   8.855  0.2012 -0.4457 -0.7109
 6109SOL    HW229961   3.810   3.045   8.877  0.4452 -1.1256 -0.2262
 6110SOL     OW29962   3.836   2.844   3.275  0.6073 -0.1963  0.2070
 6110SOL    HW129963   3.775   2.782   3.235 -0.1255 -0.4020  1.6628
 6110SOL    HW229964   3.816   2.817   3.364  1.6543 -0.4531  0.3663
 6111SOL     OW29965   1.579   2.959   7.496 -0.2965  0.7385 -0.3139
 6111SOL    HW129966   1.490   2.939   7.466 -0.9628 -0.2680  2.3003
 6111SOL    HW229967   1.593   2.918   7.581 -2.3920 -0.0191 -0.3392
 6112SOL     OW29968   3.376   3.749  14.781 -0.0204  0.0806  0.2857
 6112SOL    HW129969   3.425   3.827  14.806  0.2284  0.3471 -1.0141
 6112SOL    HW229970   3.307   3.731  14.844  1.8778  0.1133  2.3743
 6113SOL     OW29971   1.586   2.015   3.852  0.6124 -0.4734 -0.5442
 6113SOL    HW129972   1.626   2.073   3.787  1.2173 -0.4725 -0.1659
 6113SOL    HW229973   1.644   1.939   3.846  1.4184  0.0603  0.6405
 6114SOL     OW29974   1.833   3.468   9.662  0.1194  0.6044 -0.0347
 6114SOL    HW129975   1.854   3.562   9.661  0.3132  0.5848  1.3393
 6114SOL    HW229976   1.805   3.464   9.754 -2.2232 -2.9719 -0.9239
 6115SOL     OW29977   2.965   1.997   4.597 -0.4174  0.2901  0.2994
 6115SOL    HW129978   2.889   2.038   4.555 -0.8976 -1.2533 -0.3371
 6115SOL    HW229979   2.970   2.052   4.675  4.3355  0.5491 -0.1550
 6116SOL     OW29980   2.549   2.193   8.954  0.1767 -0.4670  0.4659
 6116SOL    HW129981   2.487   2.121   8.965 -0.5715  0.4073  2.1018
 6116SOL    HW229982   2.621   2.153   8.905  1.2523  1.7138  0.2571
 6117SOL     OW29983   1.422   4.115   4.882 -0.2167 -0.5569  0.0848
 6117SOL    HW129984   1.426   4.063   4.962 -0.0416 -1.9429 -0.8383
 6117SOL    HW229985   1.429   4.060   4.804  0.9305 -1.7739  1.0539
 6118SOL     OW29986   3.319   3.224   7.434 -0.0997 -0.3708  0.4898
 6118SOL    HW129987   3.295   3.144   7.386  0.1168  0.4234 -0.9248
 6118SOL    HW229988   3.311   3.189   7.523  2.7219 -1.6824  0.2244
 6119SOL     OW29989   4.581   4.071   3.960 -0.0937 -0.0530 -0.1041
 6119SOL    HW129990   4.566   3.982   3.991 -1.6424  0.1450 -0.2804
 6119SOL    HW229991   4.675   4.071   3.943  0.3151  1.0087  2.2002
 6120SOL     OW29992   1.101   1.406   7.440  0.3171  0.2080  0.2321
 6120SOL    HW129993   1.094   1.318   7.402  1.4378  0.3403 -0.2762
 6120SOL    HW229994   1.134   1.461   7.370  0.4143  0.9386  0.8542
 6121SOL     OW29995   2.240   2.293  16.311 -0.1705  0.0549 -0.7106
 6121SOL    HW129996   2.161   2.239  16.301  0.4163 -0.2265 -3.8150
 6121SOL    HW229997   2.297   2.255  16.245  0.1035 -0.7548 -0.0021
 6122SOL     OW29998   4.332   2.666  17.584  0.2667 -0.1565  0.3747
 6122SOL    HW129999   4.368   2.752  17.562 -2.7678  1.1703  0.6434
 6122SOL    HW230000   4.294   2.643  17.500 -0.5377  0.0230  0.6887
 6123SOL     OW30001   0.485   4.284   3.062 -0.5281  0.7145  0.1160
 6123SOL    HW130002   0.477   4.248   3.150  1.6933  1.3389  0.5531
 6123SOL    HW230003   0.392   4.308   3.053 -0.7084  1.6329  4.4230
 6124SOL     OW30004   0.756   2.327  11.887 -0.3813 -0.3817  0.2654
 6124SOL    HW130005   0.663   2.343  11.902 -0.3519 -2.1812  2.3808
 6124SOL    HW230006   0.788   2.296  11.971 -0.6557  0.6876  0.7621
 6125SOL     OW30007   2.765   0.393   7.963 -0.6551 -0.2134  0.2303
 6125SOL    HW130008   2.798   0.356   7.881  0.7635  2.0950 -0.2208
 6125SOL    HW230009   2.827   0.357   8.026  0.7245 -0.5301 -1.3129
 6126SOL     OW30010   4.665   2.011   4.771  0.0304 -0.0346 -0.0827
 6126SOL    HW130011   4.610   1.954   4.826  1.1492 -1.8031 -0.8157
 6126SOL    HW230012   4.674   1.961   4.690  0.3539 -0.1214  0.0094
 6127SOL     OW30013   4.628   1.929  11.516  0.1051 -0.2138 -0.5925
 6127SOL    HW130014   4.662   1.925  11.606  0.1226 -0.2692 -0.6016
 6127SOL    HW230015   4.535   1.951  11.526 -0.5261 -3.2646  0.3225
 6128SOL     OW30016   0.360   1.556   8.555 -0.3764 -0.3152  0.7560
 6128SOL    HW130017   0.444   1.543   8.510 -0.6745 -0.9365  0.3784
 6128SOL    HW230018   0.373   1.642   8.595 -1.7087  0.0184  0.4833
 6129SOL     OW30019   2.102   3.374   9.612  0.1979  0.1770  0.5164
 6129SOL    HW130020   2.008   3.359   9.623  0.2965 -0.2433  0.7941
 6129SOL    HW230021   2.113   3.468   9.599  1.9974  0.0891  1.4040
 6130SOL     OW30022   1.205   1.325   4.633 -0.9883  0.5354 -0.7878
 6130SOL    HW130023   1.223   1.419   4.629  1.0179  0.2021  0.5119
 6130SOL    HW230024   1.257   1.302   4.710 -2.8973  2.4702  1.0973
 6131SOL     OW30025   2.847   3.332   6.625 -0.5668  0.7156  0.3379
 6131SOL    HW130026   2.841   3.277   6.702  0.9014  0.3353  0.1895
 6131SOL    HW230027   2.794   3.281   6.564  0.8660  1.0393 -1.1715
 6132SOL     OW30028   3.204   2.013   2.234  0.0081 -0.3559  0.1871
 6132SOL    HW130029   3.154   2.008   2.316  1.5468 -1.5722  1.0502
 6132SOL    HW230030   3.129   2.022   2.175 -0.4168  0.2368  0.8238
 6133SOL     OW30031   4.544   2.641  11.626  0.4127  0.6376 -0.5292
 6133SOL    HW130032   4.552   2.560  11.576 -0.2795 -0.5272  1.2606
 6133SOL    HW230033   4.630   2.683  11.626 -0.4749  2.4779 -1.3983
 6134SOL     OW30034   0.706   1.806   1.876 -0.1414 -0.2151  0.2492
 6134SOL    HW130035   0.717   1.804   1.971  1.3507 -0.0883  0.0750
 6134SOL    HW230036   0.615   1.837   1.870 -0.0352 -0.0448 -0.4689
 6135SOL     OW30037   2.803   2.659   2.798 -0.7470  0.1685 -0.2025
 6135SOL    HW130038   2.744   2.629   2.730  0.5227  3.8618 -2.9534
 6135SOL    HW230039   2.801   2.583   2.855  1.5929  1.0929  1.1056
 6136SOL     OW30040   3.722   2.273   6.313 -0.3467  0.5738 -0.2904
 6136SOL    HW130041   3.691   2.232   6.394 -1.1809  2.2554  0.2405
 6136SOL    HW230042   3.807   2.230   6.302 -0.7764 -0.5121  0.6847
 6137SOL     OW30043   0.637   4.185  16.561  0.7697  1.1911 -0.4049
 6137SOL    HW130044   0.601   4.245  16.626 -0.8828  0.2313 -0.4387
 6137SOL    HW230045   0.570   4.120  16.541 -0.2310  1.5167  1.9205
 6138SOL     OW30046   4.652   3.657   2.235  0.2431 -0.2795  0.0137
 6138SOL    HW130047   4.625   3.572   2.269  1.1057 -0.0376  1.2881
 6138SOL    HW230048   0.012   3.635   2.217  0.4217 -2.5146  3.9325
 6139SOL     OW30049   3.269   0.833  10.028 -0.0462 -0.6936  0.1442
 6139SOL    HW130050   3.300   0.919  10.056  0.2278  0.2137 -2.9790
 6139SOL    HW230051   3.189   0.814  10.078  0.7498  0.7602  1.9821
 6140SOL     OW30052   0.808   1.522   1.562 -0.2193 -0.5273  0.0541
 6140SOL    HW130053   0.873   1.488   1.501 -0.3579 -0.7290  0.0202
 6140SOL    HW230054   0.734   1.464   1.542 -1.5286  0.4828  1.8611
 6141SOL     OW30055   2.465   3.972   2.296 -0.1303 -0.1284 -0.2523
 6141SOL    HW130056   2.499   4.059   2.317  0.6960 -0.5433  0.1553
 6141SOL    HW230057   2.425   3.959   2.382  0.8919  0.8581  0.3729
 6142SOL     OW30058   4.648   0.720   1.650 -0.0036 -0.0253 -0.2813
 6142SOL    HW130059   4.704   0.755   1.720  2.1350  1.0848 -2.5504
 6142SOL    HW230060   4.666   0.626   1.644 -1.0657 -0.2819  0.4611
 6143SOL     OW30061   0.470   0.087  14.702 -0.0340 -0.1531 -0.1674
 6143SOL    HW130062   0.451   0.117  14.613 -0.1271 -0.7547 -0.3557
 6143SOL    HW230063   0.558   0.050  14.698 -0.7100 -1.6761 -1.3278
 6144SOL     OW30064   4.123   0.880   2.532  0.2316  0.4844 -0.2616
 6144SOL    HW130065   4.052   0.832   2.574  1.5163 -1.1932 -0.0172
 6144SOL    HW230066   4.092   0.900   2.443  1.8038 -1.5224 -1.2924
 6145SOL     OW30067   2.504   3.723   2.700 -0.4352  0.1657  0.3566
 6145SOL    HW130068   2.527   3.743   2.791  0.1050 -2.6320  0.8525
 6145SOL    HW230069   2.594   3.711   2.672 -0.1375 -1.1564  1.8736
 6146SOL     OW30070   1.681   4.487   9.161  0.9705  0.1665  0.5741
 6146SOL    HW130071   1.589   4.506   9.147  1.3756  1.5805 -0.1952
 6146SOL    HW230072   1.686   4.485   9.256 -0.6197 -0.7786  0.6436
 6147SOL     OW30073   0.460   0.760   4.984  0.1620  0.0811 -0.5555
 6147SOL    HW130074   0.426   0.717   5.062  0.3132  1.6308  0.3601
 6147SOL    HW230075   0.381   0.769   4.931 -0.3031  0.6990  0.2603
 6148SOL     OW30076   1.061   2.123   8.751 -0.1572  0.2286 -0.1902
 6148SOL    HW130077   1.053   2.065   8.675 -0.1612  0.0797 -0.0771
 6148SOL    HW230078   1.076   2.058   8.820  2.0729  0.7612 -0.1871
 6149SOL     OW30079   2.543   1.636   1.175  0.3031  0.1855  0.1027
 6149SOL    HW130080   2.519   1.729   1.169 -2.9634 -0.5010  2.4487
 6149SOL    HW230081   2.596   1.632   1.096  2.3972  1.4831  1.4437
 6150SOL     OW30082   3.196   0.157   7.788 -0.0596  0.3902  0.1638
 6150SOL    HW130083   3.212   0.124   7.700  0.3007 -0.0683  0.4042
 6150SOL    HW230084   3.231   0.246   7.781  1.4143 -0.0195  2.2522
 6151SOL     OW30085   3.851   3.172   4.782 -0.0736  0.0340  0.2866
 6151SOL    HW130086   3.842   3.218   4.865 -1.4438  1.8364 -0.8598
 6151SOL    HW230087   3.829   3.084   4.813 -2.0915  0.4229 -0.0592
 6152SOL     OW30088   3.024   1.139   5.917  0.0574 -0.3314 -0.1179
 6152SOL    HW130089   3.026   1.090   5.835 -1.6543 -1.9574  0.8090
 6152SOL    HW230090   3.054   1.078   5.984 -0.1360 -0.1179  0.1659
 6153SOL     OW30091   2.419   3.225   8.685 -0.5040  0.5388 -0.0409
 6153SOL    HW130092   2.421   3.273   8.768  0.5307  0.1166  0.1725
 6153SOL    HW230093   2.401   3.291   8.619 -2.7050 -0.2014 -0.1776
 6154SOL     OW30094   3.773   3.419   2.009  0.7637 -0.2920 -0.3763
 6154SOL    HW130095   3.845   3.372   2.050 -0.8314 -0.4261  2.2597
 6154SOL    HW230096   3.701   3.407   2.071  2.1358 -0.6145  1.1391
 6155SOL     OW30097   4.386   3.246   2.399  0.1071 -0.5410 -0.3877
 6155SOL    HW130098   4.375   3.197   2.480 -1.6893  1.5675  0.6510
 6155SOL    HW230099   4.319   3.313   2.414  0.0567 -0.4199 -1.1354
 6156SOL     OW30100   4.490   2.200   4.994 -0.3599 -0.6935 -0.5507
 6156SOL    HW130101   4.434   2.271   4.963  0.3472  0.7877  1.5932
 6156SOL    HW230102   4.438   2.126   4.962 -0.8558 -0.1049 -1.1151
 6157SOL     OW30103   4.427   0.556  11.502  0.1331 -0.5176 -0.1668
 6157SOL    HW130104   4.493   0.523  11.563 -0.4238  2.3591  1.9858
 6157SOL    HW230105   4.395   0.636  11.543 -2.5016 -0.2192 -2.8513
 6158SOL     OW30106   2.792   1.253   8.219  0.0035 -0.0862  0.0447
 6158SOL    HW130107   2.804   1.306   8.298  0.0824  1.2367 -0.8479
 6158SOL    HW230108   2.875   1.275   8.177  0.1130 -4.2757 -1.8889
 6159SOL     OW30109   1.781   0.165   4.462 -0.4674  0.1142 -0.7289
 6159SOL    HW130110   1.841   0.141   4.532 -0.4454 -1.4832 -1.3030
 6159SOL    HW230111   1.714   0.210   4.515  0.0605 -1.3132  1.1043
 6160SOL     OW30112   3.821   4.459   5.520  0.5555  0.1235  0.3438
 6160SOL    HW130113   3.790   4.372   5.547  0.6270  0.2150  0.7213
 6160SOL    HW230114   3.871   4.484   5.598  0.5860  1.3765 -0.0749
 6161SOL     OW30115   3.486   4.242   1.951  0.6489  0.9661 -0.2440
 6161SOL    HW130116   3.410   4.299   1.946  1.0664  1.7354  2.0747
 6161SOL    HW230117   3.441   4.158   1.961 -1.6183  2.2150 -0.1382
 6162SOL     OW30118   4.557   2.317  15.509 -0.1376 -0.3686  0.3421
 6162SOL    HW130119   4.635   2.282  15.464 -0.7744  0.0598 -1.0746
 6162SOL    HW230120   4.581   2.314  15.601 -0.3940  3.1082  0.4848
 6163SOL     OW30121   2.040   4.089   9.921 -0.0385  0.0669  0.3544
 6163SOL    HW130122   2.096   4.062   9.994  2.0296  2.7565 -0.2485
 6163SOL    HW230123   2.109   4.125   9.865 -1.9020  2.3816 -0.4144
 6164SOL     OW30124   0.342   0.194  15.215 -0.0826 -0.6890  0.3066
 6164SOL    HW130125   0.413   0.255  15.237  0.5430 -1.5789  0.7610
 6164SOL    HW230126   0.360   0.174  15.123  0.7080  1.5346 -0.0483
 6165SOL     OW30127   0.094   2.755   8.222  0.0561 -0.2304 -0.6969
 6165SOL    HW130128   0.097   2.839   8.268  0.4750  0.2622 -1.6057
 6165SOL    HW230129   0.093   2.698   8.299 -1.8399  0.5220 -0.1647
 6166SOL     OW30130   3.839   2.936   4.323  0.8399 -0.8051 -1.0573
 6166SOL    HW130131   3.758   2.943   4.272  0.1900  1.1451  0.2519
 6166SOL    HW230132   3.896   2.935   4.247  0.3370 -0.9943 -1.4300
 6167SOL     OW30133   3.742   4.403   2.161  0.8207  0.3554  0.1188
 6167SOL    HW130134   3.806   4.347   2.205 -0.8072 -0.6943  1.1952
 6167SOL    HW230135   3.658   4.359   2.176  1.7405 -1.6915 -0.6386
 6168SOL     OW30136   1.968   0.074   5.452 -1.1382  0.8697  0.9805
 6168SOL    HW130137   2.063   0.076   5.443 -1.2402  3.1709  0.6749
 6168SOL    HW230138   1.969   4.716   5.487  3.4040  1.0282  1.2255
 6169SOL     OW30139   4.667   4.369   6.382  0.1551 -0.8321 -0.3541
 6169SOL    HW130140   4.581   4.393   6.418  0.0861  2.6778 -2.8886
 6169SOL    HW230141   4.639   4.279   6.367 -0.7728 -0.2611 -2.0772
 6170SOL     OW30142   4.088   1.762   2.669 -0.5942  0.2510  0.4298
 6170SOL    HW130143   4.015   1.806   2.627 -0.3396 -0.7112 -1.0133
 6170SOL    HW230144   4.064   1.671   2.652  0.4242  0.0716 -0.0560
 6171SOL     OW30145   0.059   1.638   9.124  0.1362  0.0967  0.4287
 6171SOL    HW130146   0.000   1.673   9.057 -2.4621 -3.4674  0.8914
 6171SOL    HW230147   0.085   1.554   9.086 -1.2184 -0.0222 -0.2034
 6172SOL     OW30148   1.374   3.151   4.871 -0.1737 -0.3057 -0.5587
 6172SOL    HW130149   1.284   3.118   4.865 -0.3825  0.5491 -2.2260
 6172SOL    HW230150   1.355   3.244   4.858 -0.4008 -0.2180  0.3852
 6173SOL     OW30151   2.191   0.163   8.561 -0.1410 -0.5181  0.1623
 6173SOL    HW130152   2.273   0.114   8.551 -0.2813 -1.0473  1.5282
 6173SOL    HW230153   2.193   0.171   8.657 -3.1624  1.9464  0.0013
 6174SOL     OW30154   3.981   1.337   0.710  0.0951  0.2935  0.1096
 6174SOL    HW130155   4.004   1.281   0.784 -0.6175  0.1580  0.2317
 6174SOL    HW230156   4.046   1.407   0.719 -0.9589  0.9403  2.9007
 6175SOL     OW30157   0.001   3.851  10.045  0.6053 -0.1664 -0.2232
 6175SOL    HW130158   0.051   3.787   9.994 -2.1550 -1.7196 -1.0448
 6175SOL    HW230159   4.710   3.794  10.119 -1.0770  0.1242 -0.5143
 6176SOL     OW30160   3.565   4.619   8.795  0.0033 -0.2795  0.0391
 6176SOL    HW130161   3.532   4.559   8.728 -0.4171  0.8442 -0.7717
 6176SOL    HW230162   3.491   4.628   8.855  1.2685  1.4776  1.3348
 6177SOL     OW30163   2.412   4.384   9.965 -0.0054  0.0406  0.6845
 6177SOL    HW130164   2.319   4.398   9.981  0.3187  1.7920  1.0029
 6177SOL    HW230165   2.412   4.410   9.873  2.9321  0.0440  0.6870
 6178SOL     OW30166   4.589   4.325  17.277 -0.1246 -0.4324  0.2343
 6178SOL    HW130167   4.598   4.421  17.277 -2.1423 -0.2507  0.6384
 6178SOL    HW230168   4.660   4.295  17.220  0.5932  0.0541  0.8659
 6179SOL     OW30169   3.486   2.611   7.379  0.2551  0.0061  0.2720
 6179SOL    HW130170   3.491   2.541   7.314  1.0697 -0.5617  0.9673
 6179SOL    HW230171   3.406   2.657   7.350  0.1672 -0.4234 -0.1711
 6180SOL     OW30172   3.376   1.743   0.668 -0.3412 -0.2763  0.7280
 6180SOL    HW130173   3.400   1.828   0.703  0.4508 -0.0525 -0.3416
 6180SOL    HW230174   3.384   1.753   0.573 -0.8942  0.3813  0.7499
 6181SOL     OW30175   3.136   4.610   6.906 -0.0343 -0.3289 -0.1294
 6181SOL    HW130176   3.113   4.535   6.851 -0.4819  0.7567 -1.4389
 6181SOL    HW230177   3.139   4.675   6.835 -0.9748 -0.6035 -0.4232
 6182SOL     OW30178   3.132   2.327   3.669  0.4258 -0.3859  0.8579
 6182SOL    HW130179   3.227   2.338   3.661  0.4834 -2.8586 -1.6363
 6182SOL    HW230180   3.126   2.236   3.697  0.5857 -1.1931 -1.7504
 6183SOL     OW30181   3.869   2.531  17.349  0.0132 -0.1684  0.2759
 6183SOL    HW130182   3.850   2.622  17.371 -1.0080  0.2469 -2.3212
 6183SOL    HW230183   3.855   2.531  17.254  0.1954 -0.5233  0.2499
 6184SOL     OW30184   2.191   1.287   5.891  0.3433  0.3124 -0.5031
 6184SOL    HW130185   2.237   1.205   5.912  0.8381  0.7026 -0.0538
 6184SOL    HW230186   2.185   1.281   5.796  1.2136 -1.6507 -0.4517
 6185SOL     OW30187   2.716   2.946   4.830  0.2620 -0.2675  0.7825
 6185SOL    HW130188   2.631   2.943   4.876  0.4067  2.4032  1.1990
 6185SOL    HW230189   2.759   2.868   4.866  3.1335  1.0177  0.1198
 6186SOL     OW30190   2.155   2.821  11.219 -0.0685  0.7322 -0.2149
 6186SOL    HW130191   2.155   2.863  11.133 -1.4634  1.2873  0.0511
 6186SOL    HW230192   2.180   2.888  11.284 -1.3026  0.1435  0.8617
 6187SOL     OW30193   0.906   3.470   6.866  0.3460  0.5016  0.1923
 6187SOL    HW130194   0.847   3.494   6.795  0.7932 -0.6171 -0.5542
 6187SOL    HW230195   0.938   3.388   6.828  0.7554 -0.2388  2.1281
 6188SOL     OW30196   2.109   1.287   5.164 -0.0304  0.0824 -0.3266
 6188SOL    HW130197   2.091   1.228   5.091  0.5188 -0.9368  0.3727
 6188SOL    HW230198   2.095   1.227   5.237  0.1153  2.4581  1.6485
 6189SOL     OW30199   0.257   1.948  12.892 -0.4117  0.3471 -0.0351
 6189SOL    HW130200   0.223   1.900  12.967  1.9380  0.3108  1.0107
 6189SOL    HW230201   0.173   1.968  12.851  0.2085 -2.0831 -2.4939
 6190SOL     OW30202   1.136   4.513   3.443  0.3992  0.2139  0.1711
 6190SOL    HW130203   1.157   4.600   3.410  0.9459  0.2216  0.5477
 6190SOL    HW230204   1.184   4.505   3.525  0.5111 -0.4152  0.0432
 6191SOL     OW30205   4.595   4.519   3.880 -0.2715  0.5261 -0.1291
 6191SOL    HW130206   4.541   4.441   3.894  0.8156 -0.3599 -0.9542
 6191SOL    HW230207   4.683   4.485   3.896 -0.1258  1.1135  0.2980
 6192SOL     OW30208   3.510   0.834   3.742 -0.3369 -0.6947  0.0733
 6192SOL    HW130209   3.601   0.848   3.769  0.4689 -2.6977 -1.6155
 6192SOL    HW230210   3.502   0.893   3.667  2.5290 -0.9661 -0.4524
 6193SOL     OW30211   0.599   1.466  14.618  0.5978  0.2443 -0.5160
 6193SOL    HW130212   0.530   1.506  14.671  0.0351 -3.0964  1.2537
 6193SOL    HW230213   0.660   1.539  14.603  0.5449  0.2433 -0.7398
 6194SOL     OW30214   4.341   3.407   8.609  0.0186  0.1610  0.3978
 6194SOL    HW130215   4.308   3.329   8.566 -0.4252  0.8437 -0.5107
 6194SOL    HW230216   4.413   3.377   8.665 -0.3297 -0.5513  0.4562
 6195SOL     OW30217   1.378   1.716  17.525 -0.3167  0.1862  0.3516
 6195SOL    HW130218   1.438   1.646  17.552  1.2588  1.9308  1.3348
 6195SOL    HW230219   1.383   1.721  17.430  0.6714 -0.0961  0.3819
 6196SOL     OW30220   0.608   3.531   9.049  0.7518 -0.0793  0.4353
 6196SOL    HW130221   0.664   3.459   9.020  0.5341 -0.3162  0.6080
 6196SOL    HW230222   0.618   3.592   8.975  0.0537 -1.0351 -0.4403
 6197SOL     OW30223   2.307   3.680   6.854 -0.3792  0.0231 -0.9491
 6197SOL    HW130224   2.331   3.767   6.888  0.3563 -0.5496 -0.0058
 6197SOL    HW230225   2.220   3.691   6.817 -0.6836  2.0773  0.3995
 6198SOL     OW30226   2.057   0.758   5.173 -0.7020  0.3530  0.0629
 6198SOL    HW130227   2.057   0.706   5.254 -1.0583  0.7088  0.2907
 6198SOL    HW230228   2.146   0.739   5.143 -0.4949  0.1235  0.8196
 6199SOL     OW30229   3.183   3.880   6.847  0.0151 -0.4240  0.5143
 6199SOL    HW130230   3.098   3.851   6.882  0.0624  0.5867  1.4684
 6199SOL    HW230231   3.224   3.796   6.827  0.1142 -0.5093  1.0749
 6200SOL     OW30232   2.799   0.428   2.998  0.5941  0.1897  0.3169
 6200SOL    HW130233   2.743   0.416   2.921  0.2219  0.9420  0.4704
 6200SOL    HW230234   2.873   0.368   2.989  0.5109  0.1730 -0.3094
 6201SOL     OW30235   3.499   3.381   7.692  0.0562 -0.2175  0.1168
 6201SOL    HW130236   3.559   3.439   7.740  1.0208 -1.2945  0.2043
 6201SOL    HW230237   3.445   3.450   7.654 -0.2694 -0.0082  0.9545
 6202SOL     OW30238   3.059   1.421   5.230 -0.0965  0.1953 -0.1409
 6202SOL    HW130239   3.082   1.514   5.225  1.2453 -0.0360  1.5997
 6202SOL    HW230240   2.983   1.416   5.288  0.5853 -0.9777  0.6547
 6203SOL     OW30241   2.412   2.343   6.125  0.4361 -0.5475  0.7535
 6203SOL    HW130242   2.359   2.284   6.071  0.4746 -1.0496  1.2605
 6203SOL    HW230243   2.401   2.294   6.207  0.8186 -1.2778  0.3681
 6204SOL     OW30244   3.898   0.051   7.650  0.2680 -0.6283 -0.2724
 6204SOL    HW130245   3.891   4.706   7.593 -1.0419 -0.8537  0.2114
 6204SOL    HW230246   3.850   0.028   7.730 -0.4737 -0.8878 -0.8030
 6205SOL     OW30247   4.576   4.257   9.473 -0.4899 -0.1264  0.4846
 6205SOL    HW130248   4.606   4.174   9.511  0.1760 -0.0930  0.0419
 6205SOL    HW230249   4.516   4.301   9.533 -0.8296 -0.2882  0.2612
 6206SOL     OW30250   3.540   0.487   4.710 -0.1389 -0.4588 -0.0455
 6206SOL    HW130251   3.533   0.581   4.726 -0.9381 -0.1715 -2.0783
 6206SOL    HW230252   3.512   0.458   4.797 -0.5647  2.9361  0.9322
 6207SOL     OW30253   2.447   0.758   6.805 -0.4589  0.8276 -0.8427
 6207SOL    HW130254   2.413   0.732   6.891  0.3412 -0.2206 -0.8471
 6207SOL    HW230255   2.471   0.848   6.828 -2.3477  1.4647 -1.3364
 6208SOL     OW30256   4.656   1.889   3.058 -0.8641  0.4073  0.2131
 6208SOL    HW130257   4.635   1.983   3.056  1.5503  0.9135 -1.2369
 6208SOL    HW230258   4.569   1.856   3.082 -0.6332 -0.2616  0.1302
 6209SOL     OW30259   0.844   1.995  10.093  0.0494 -0.1789 -0.1870
 6209SOL    HW130260   0.819   1.944  10.170  2.7762 -1.9066 -0.4616
 6209SOL    HW230261   0.940   1.996  10.093  0.0361  0.4649 -1.8515
 6210SOL     OW30262   4.118   3.084   2.910 -0.0163  0.1632 -0.3304
 6210SOL    HW130263   4.194   3.027   2.896 -0.5591 -0.6722  0.1445
 6210SOL    HW230264   4.061   3.042   2.846 -1.2651  1.6454 -0.1880
 6211SOL     OW30265   1.549   0.260   3.042 -0.1935 -0.4087  0.3649
 6211SOL    HW130266   1.621   0.208   3.007 -1.1062 -0.0536 -2.0730
 6211SOL    HW230267   1.572   0.343   3.002 -1.0289  0.2948  1.3631
 6212SOL     OW30268   1.356   2.924  13.542 -0.0062  0.6012  0.0126
 6212SOL    HW130269   1.295   2.861  13.580 -0.0597 -0.2831 -1.5163
 6212SOL    HW230270   1.295   2.979  13.492  1.6331  1.7274 -0.7446
 6213SOL     OW30271   0.561   0.802   6.575  0.1825  0.1150  0.3083
 6213SOL    HW130272   0.471   0.799   6.607 -0.0869  1.6596 -0.2830
 6213SOL    HW230273   0.591   0.859   6.645 -1.4442 -0.2753  1.3090
 6214SOL     OW30274   3.063   1.801  16.287  0.1149 -0.7450 -0.0932
 6214SOL    HW130275   3.112   1.772  16.210  0.2315 -1.1245  0.1220
 6214SOL    HW230276   3.134   1.857  16.319  1.5946 -2.7751  0.1742
 6215SOL     OW30277   1.493   0.087  10.311 -0.5606 -0.1171 -0.0405
 6215SOL    HW130278   1.415   0.124  10.353  0.0710 -2.2141  3.0033
 6215SOL    HW230279   1.479   4.725  10.319 -1.2507 -0.1786 -2.0065
 6216SOL     OW30280   2.775   2.719   0.195 -0.3362 -0.1559 -0.5560
 6216SOL    HW130281   2.750   2.776   0.268  0.9319 -1.0546  0.5786
 6216SOL    HW230282   2.839   2.770   0.146 -2.0740  0.0598 -2.5843
 6217SOL     OW30283   2.157   2.314  13.593 -0.4554 -0.0301 -0.0150
 6217SOL    HW130284   2.063   2.328  13.597 -0.6050 -0.9783 -0.1631
 6217SOL    HW230285   2.171   2.300  13.499  3.1074  0.7726  0.4087
 6218SOL     OW30286   2.668   3.671  11.738 -0.2146 -0.1244  0.2478
 6218SOL    HW130287   2.702   3.659  11.827 -1.1579 -0.9901  0.4831
 6218SOL    HW230288   2.637   3.761  11.749 -2.9752 -1.0861  0.1793
 6219SOL     OW30289   1.714   4.109   2.837  0.0048  0.2146 -0.1138
 6219SOL    HW130290   1.644   4.047   2.817  0.5195 -0.4672  0.1890
 6219SOL    HW230291   1.776   4.090   2.767  0.4137 -1.3901  0.6823
 6220SOL     OW30292   2.220   3.713   3.516 -0.1690  0.4794 -0.7621
 6220SOL    HW130293   2.136   3.668   3.519  0.7160 -1.1222 -0.0964
 6220SOL    HW230294   2.283   3.641   3.529 -2.4319 -1.4160 -0.3902
 6221SOL     OW30295   1.067   0.891   7.534  0.1261  0.2191  0.4729
 6221SOL    HW130296   0.980   0.918   7.502  0.1952  1.5967  1.4087
 6221SOL    HW230297   1.122   0.882   7.457 -0.6082 -1.1464  0.1103
 6222SOL     OW30298   1.921   0.304  16.814  0.5880  0.3843  0.1866
 6222SOL    HW130299   1.918   0.249  16.736  0.2718 -2.1855  2.0322
 6222SOL    HW230300   1.835   0.293  16.855  0.3022  1.7648 -0.0351
 6223SOL     OW30301   0.473   3.389  16.450  0.0037  0.2044 -0.6243
 6223SOL    HW130302   0.451   3.480  16.429 -0.5799  0.3439  0.6199
 6223SOL    HW230303   0.388   3.359  16.480  0.4101  0.4128  0.7154
 6224SOL     OW30304   3.964   3.445  11.954  0.0784 -0.3901  0.4359
 6224SOL    HW130305   3.920   3.391  12.020 -0.5351  0.2226  0.5308
 6224SOL    HW230306   4.033   3.490  12.003  1.0892 -1.3532 -0.1034
 6225SOL     OW30307   0.475   1.642   4.194  0.2381  0.0563  0.0971
 6225SOL    HW130308   0.383   1.634   4.170  0.5004  1.3623 -1.3857
 6225SOL    HW230309   0.517   1.592   4.124  1.7910  0.0991  1.0027
 6226SOL     OW30310   3.183   4.119   4.287  0.9055  0.1998  0.4695
 6226SOL    HW130311   3.171   4.033   4.328 -1.6217  0.2202 -0.2158
 6226SOL    HW230312   3.102   4.131   4.238  0.3084  0.3793  1.4951
 6227SOL     OW30313   2.956   2.607  17.518  0.2480  0.2273 -0.0313
 6227SOL    HW130314   2.887   2.664  17.553 -0.5854 -0.6113 -0.3046
 6227SOL    HW230315   2.947   2.536  17.582  0.4890 -1.3540 -1.7642
 6228SOL     OW30316   2.781   2.113   0.309  0.5176  0.6512  0.7341
 6228SOL    HW130317   2.712   2.178   0.319 -1.0131 -0.9736  0.7487
 6228SOL    HW230318   2.855   2.167   0.336 -0.7252  2.2016  1.0272
 6229SOL     OW30319   2.935   1.817   3.572 -0.0265 -0.0247 -0.4910
 6229SOL    HW130320   2.965   1.805   3.482 -0.9135 -0.6550 -0.6994
 6229SOL    HW230321   2.930   1.723   3.592  1.6009  0.0277  0.1955
 6230SOL     OW30322   1.202   1.288   6.194 -0.0013 -0.3287  0.2878
 6230SOL    HW130323   1.135   1.244   6.142 -0.4380  0.1692  0.4266
 6230SOL    HW230324   1.245   1.340   6.126  0.5195 -0.4103  0.5567
 6231SOL     OW30325   0.213   1.629   7.441  0.3860 -0.2380  0.3649
 6231SOL    HW130326   0.267   1.698   7.478  0.4393  0.8945 -1.8297
 6231SOL    HW230327   0.181   1.587   7.521 -1.9825 -1.2315 -1.0762
 6232SOL     OW30328   2.687   3.767   0.839 -0.0654  0.3717  0.0697
 6232SOL    HW130329   2.711   3.708   0.768 -1.9996 -1.8836  1.2770
 6232SOL    HW230330   2.651   3.700   0.897 -0.1165 -1.2884 -1.8632
 6233SOL     OW30331   4.332   3.603   3.681 -0.0362 -0.5543  0.4887
 6233SOL    HW130332   4.303   3.586   3.771  0.6182 -0.3604  0.7376
 6233SOL    HW230333   4.355   3.516   3.648 -1.1012 -0.7256  0.1927
 6234SOL     OW30334   4.227   3.289   0.011 -0.0577 -0.2582  0.5642
 6234SOL    HW130335   4.154   3.279   0.072 -0.9178 -0.1040 -0.4345
 6234SOL    HW230336   4.304   3.282   0.067  1.5164 -1.4703 -1.7609
 6235SOL     OW30337   2.126   0.096   2.762 -0.1607  0.1080 -0.2421
 6235SOL    HW130338   2.079   0.139   2.832 -2.0612 -0.1689 -1.3547
 6235SOL    HW230339   2.198   0.158   2.749 -0.9976  0.8427 -1.3411
 6236SOL     OW30340   4.632   2.894   9.604 -0.5490  0.0204  0.1195
 6236SOL    HW130341   4.637   2.872   9.697 -0.8357  0.7160  0.2909
 6236SOL    HW230342   4.723   2.871   9.582 -0.0165  1.0172  1.2995
 6237SOL     OW30343   1.444   3.108   9.070  0.0813 -0.5773  0.2829
 6237SOL    HW130344   1.370   3.110   9.010 -0.7665  0.5059  1.3573
 6237SOL    HW230345   1.455   3.201   9.091  1.1452 -0.8100  0.7901
 6238SOL     OW30346   1.838   0.135  14.026 -0.0749  0.4385  0.3947
 6238SOL    HW130347   1.844   0.169  14.115  1.1439 -2.3337  1.3789
 6238SOL    HW230348   1.899   0.182  13.970 -1.8876  2.5274  0.1621
 6239SOL     OW30349   2.284   4.321   9.247 -0.3252  0.4791 -0.5323
 6239SOL    HW130350   2.358   4.268   9.275 -1.6569 -1.5544 -0.8703
 6239SOL    HW230351   2.324   4.379   9.182  0.4140  0.5222 -0.0320
 6240SOL     OW30352   4.678   2.827   9.870  0.3571 -0.2608  0.5518
 6240SOL    HW130353   4.647   2.843   9.959 -2.4908 -0.1694 -0.4665
 6240SOL    HW230354   4.728   2.748   9.892  0.1755 -1.0857 -2.0071
 6241SOL     OW30355   0.641   0.395  13.640 -0.2970  0.1678  0.1687
 6241SOL    HW130356   0.546   0.398  13.644 -0.3019  1.0672 -0.7395
 6241SOL    HW230357   0.644   0.491  13.640  1.0942  0.1352  0.3122
 6242SOL     OW30358   0.801   1.100   6.914  0.0731 -0.1461  0.0703
 6242SOL    HW130359   0.847   1.119   6.832 -0.0920 -1.3778 -0.3052
 6242SOL    HW230360   0.715   1.102   6.872  0.4047 -0.6956 -0.6400
 6243SOL     OW30361   1.890   3.257   1.799  0.5662 -0.5845 -0.0267
 6243SOL    HW130362   1.963   3.308   1.763 -0.9470  0.5285 -1.5111
 6243SOL    HW230363   1.901   3.282   1.890 -1.9603  0.7270 -0.0810
 6244SOL     OW30364   3.731   0.396   2.062  0.3860  0.0063  0.1830
 6244SOL    HW130365   3.761   0.373   2.150  0.1189 -1.7276 -0.1818
 6244SOL    HW230366   3.654   0.450   2.077  0.2838 -0.5045  1.4902
 6245SOL     OW30367   2.320   0.378   5.735 -0.1713 -0.1151 -0.6443
 6245SOL    HW130368   2.409   0.353   5.712 -0.1594 -0.5556 -0.1339
 6245SOL    HW230369   2.313   0.458   5.684  2.7359  0.1641 -0.5875
 6246SOL     OW30370   0.355   1.894   7.250 -0.4445  0.2275  0.5021
 6246SOL    HW130371   0.412   1.889   7.326  0.9314  0.2563 -0.5241
 6246SOL    HW230372   0.381   1.977   7.210 -1.0015 -0.9042 -2.2564
 6247SOL     OW30373   2.820   1.879   1.370  0.0631 -0.1995  0.1331
 6247SOL    HW130374   2.873   1.826   1.430 -0.2717 -0.2774  0.3647
 6247SOL    HW230375   2.813   1.965   1.410 -3.0378 -0.9234  1.1668
 6248SOL     OW30376   0.504   1.469  16.618  0.0559  0.3622  0.2002
 6248SOL    HW130377   0.564   1.540  16.640  1.3561 -0.8255  0.4755
 6248SOL    HW230378   0.548   1.387  16.595 -0.2590 -0.4221  2.3964
 6249SOL     OW30379   2.779   4.127  11.739  0.4767 -0.1675  0.0884
 6249SOL    HW130380   2.854   4.070  11.725 -0.2117 -0.0350 -4.0759
 6249SOL    HW230381   2.768   4.157  11.649  0.4566 -1.2736 -0.2731
 6250SOL     OW30382   1.799   3.772   4.706  0.2109  0.0006 -0.6741
 6250SOL    HW130383   1.776   3.807   4.792 -3.1242 -0.1408 -1.5178
 6250SOL    HW230384   1.764   3.683   4.702  0.3630 -0.0378 -1.1234
 6251SOL     OW30385   2.529   1.501   2.716 -0.3626 -0.2268 -0.1546
 6251SOL    HW130386   2.515   1.465   2.803 -0.3237  0.6193  0.1964
 6251SOL    HW230387   2.610   1.462   2.684  0.1183  0.1131  0.6833
 6252SOL     OW30388   4.636   4.305   3.507 -0.0534  0.2760  0.1202
 6252SOL    HW130389   4.702   4.365   3.543  0.4242 -0.4631  0.4778
 6252SOL    HW230390   4.662   4.232   3.563  1.4060  0.3840 -0.4004
 6253SOL     OW30391   3.755   0.665  11.280  0.1833  0.0511  0.1311
 6253SOL    HW130392   3.771   0.675  11.374  0.5130  0.7599 -0.0016
 6253SOL    HW230393   3.665   0.632  11.275 -0.5575  1.8875  1.2338
 6254SOL     OW30394   0.607   4.103   2.448 -0.0955  0.0632  0.2004
 6254SOL    HW130395   0.512   4.089   2.456 -0.1042  0.0129 -0.0038
 6254SOL    HW230396   0.607   4.189   2.406 -1.1809  0.0470  0.1476
 6255SOL     OW30397   3.139   0.680   1.799 -0.2769  0.4333  0.3343
 6255SOL    HW130398   3.222   0.644   1.828 -0.1941 -0.5595 -1.1232
 6255SOL    HW230399   3.074   0.640   1.857  0.8129 -0.1972  1.1007
 6256SOL     OW30400   1.581   2.536  12.943 -0.4100  0.4172 -0.5581
 6256SOL    HW130401   1.618   2.553  13.029 -0.4243  0.0114 -0.4751
 6256SOL    HW230402   1.588   2.441  12.935  1.3149  0.7069 -2.3966
 6257SOL     OW30403   3.320   3.026  13.444  0.1318 -0.0306 -0.1379
 6257SOL    HW130404   3.369   2.959  13.397 -1.0383 -1.5170  0.7424
 6257SOL    HW230405   3.382   3.089  13.481 -2.9813  2.8879  0.2000
 6258SOL     OW30406   1.593   4.362   3.570  0.0498  0.2932  0.0909
 6258SOL    HW130407   1.567   4.272   3.587 -0.9289  0.7799  1.1291
 6258SOL    HW230408   1.551   4.421   3.632  0.0198 -0.5192  0.8450
 6259SOL     OW30409   1.923   0.354   6.455  0.0095  0.1427  0.0736
 6259SOL    HW130410   1.837   0.377   6.492 -0.2953  0.7981 -1.0360
 6259SOL    HW230411   1.980   0.372   6.530 -0.4503  0.8550  0.2508
 6260SOL     OW30412   4.330   0.395   6.917 -0.4688 -0.5029  0.0315
 6260SOL    HW130413   4.281   0.313   6.920 -0.8516 -0.3060 -0.6658
 6260SOL    HW230414   4.266   0.449   6.871  0.1924 -0.6199 -1.0191
 6261SOL     OW30415   3.948   3.126  11.729  0.1558 -0.3366  0.0324
 6261SOL    HW130416   3.993   3.051  11.691  0.1349 -0.1131 -0.4294
 6261SOL    HW230417   3.943   3.184  11.654  2.5368  0.2892  0.3571
 6262SOL     OW30418   2.100   3.492   8.122  0.3749 -0.4139  0.0718
 6262SOL    HW130419   2.162   3.563   8.137  0.9800 -0.8586 -0.3259
 6262SOL    HW230420   2.014   3.524   8.150  0.0909 -0.6792 -0.4952
 6263SOL     OW30421   3.126   3.877  13.666 -0.3601  0.4198  0.0930
 6263SOL    HW130422   3.124   3.791  13.709 -1.1887  0.8639  0.9504
 6263SOL    HW230423   3.152   3.842  13.581 -0.6726 -0.2913  0.2919
 6264SOL     OW30424   2.853   3.382   5.233 -0.2370 -0.3421 -0.2603
 6264SOL    HW130425   2.778   3.327   5.207 -1.3536  1.1771 -0.2283
 6264SOL    HW230426   2.910   3.314   5.271  1.4080  1.8501  1.1773
 6265SOL     OW30427   3.490   0.119   8.030 -0.0200  0.5163  0.2994
 6265SOL    HW130428   3.521   0.056   8.094  1.1668 -0.4874 -1.2571
 6265SOL    HW230429   3.397   0.096   8.033  0.0202  0.2626 -0.4266
 6266SOL     OW30430   3.566   0.262   2.344  0.1591  0.4377  0.0025
 6266SOL    HW130431   3.503   0.318   2.297  0.8810  1.9079  0.7734
 6266SOL    HW230432   3.506   0.191   2.364  0.5121 -0.4158 -1.9870
 6267SOL     OW30433   1.172   2.842   4.705 -0.0462 -0.4228 -0.3864
 6267SOL    HW130434   1.110   2.809   4.770  0.5746 -2.2644 -0.7339
 6267SOL    HW230435   1.144   2.933   4.690  0.3742  0.0936  1.9035
 6268SOL     OW30436   4.659   3.005   8.286 -0.3683 -0.1185 -0.0825
 6268SOL    HW130437   4.634   3.072   8.350  0.2885  0.4261 -0.3912
 6268SOL    HW230438   0.005   2.982   8.336 -0.3072  0.4778  0.0986
 6269SOL     OW30439   4.090   0.336   9.243  0.1659 -0.5994  0.8284
 6269SOL    HW130440   4.085   0.390   9.164 -0.8042 -0.1555  1.1966
 6269SOL    HW230441   4.180   0.356   9.271  0.7316  0.5023 -1.7742
 6270SOL     OW30442   0.615   2.014   7.924 -0.3241  0.1777 -0.0436
 6270SOL    HW130443   0.579   2.100   7.946 -1.9550 -0.1931 -1.2093
 6270SOL    HW230444   0.710   2.028   7.926 -0.2763 -0.4230  1.4348
 6271SOL     OW30445   4.039   2.735  14.725 -0.2730 -0.1469 -0.1370
 6271SOL    HW130446   4.039   2.751  14.630 -0.2100  1.5581  0.1500
 6271SOL    HW230447   4.089   2.809  14.759  0.9440 -0.1059 -2.0046
 6272SOL     OW30448   2.473   3.190  10.430  0.3524  0.0440  0.1863
 6272SOL    HW130449   2.442   3.268  10.384 -3.2054 -1.4709  0.0275
 6272SOL    HW230450   2.558   3.174  10.388  2.8271  2.9685  4.0823
 6273SOL     OW30451   2.741   4.068   8.021 -0.1903 -0.0160  0.8474
 6273SOL    HW130452   2.733   4.051   7.927  0.1744 -0.0874  0.8295
 6273SOL    HW230453   2.667   4.018   8.055 -0.5074  0.9698  1.6039
 6274SOL     OW30454   3.005   1.245   3.812  0.4137  0.5292  0.1349
 6274SOL    HW130455   3.057   1.203   3.880  2.3828  2.9589  0.1251
 6274SOL    HW230456   3.000   1.337   3.838  1.0768  1.6695 -3.7804
 6275SOL     OW30457   1.185   0.578   4.607  0.1248  0.1773 -0.1246
 6275SOL    HW130458   1.157   0.638   4.676  0.5324 -0.4506  0.5878
 6275SOL    HW230459   1.255   0.537   4.657 -0.0395 -1.1722 -0.9992
 6276SOL     OW30460   0.724   4.387   7.146 -0.0537  0.2396  0.2110
 6276SOL    HW130461   0.722   4.426   7.059  0.4782  0.1572  0.1607
 6276SOL    HW230462   0.633   4.377   7.174  0.3898 -1.7856  0.9735
 6277SOL     OW30463   3.662   3.798  10.817 -0.1680 -0.3031 -0.1044
 6277SOL    HW130464   3.628   3.887  10.827 -0.0831 -0.3293  0.4191
 6277SOL    HW230465   3.752   3.821  10.795 -0.4906  0.7484 -0.3266
 6278SOL     OW30466   0.357   1.793   4.734 -0.5002 -0.4266 -0.2033
 6278SOL    HW130467   0.308   1.711   4.728  1.6553 -1.9001  2.1223
 6278SOL    HW230468   0.324   1.856   4.798  1.1441 -1.6444  1.8531
 6279SOL     OW30469   2.551   0.111  15.125  0.1149 -0.0787  0.5170
 6279SOL    HW130470   2.622   0.173  15.115 -0.6895  0.5079 -1.6280
 6279SOL    HW230471   2.594   0.028  15.145  1.1174  0.2280 -0.4166
 6280SOL     OW30472   0.891   3.100  14.964 -0.0142 -0.1780 -0.2930
 6280SOL    HW130473   0.840   3.021  14.983 -0.9794  0.1347 -1.5526
 6280SOL    HW230474   0.911   3.136  15.050 -2.1406  0.0697  0.0976
 6281SOL     OW30475   1.543   3.181  10.476  0.1134  0.2740 -0.1320
 6281SOL    HW130476   1.453   3.155  10.455  0.5012 -2.5270  1.6696
 6281SOL    HW230477   1.531   3.269  10.512  0.7366  0.1544  0.3585
 6282SOL     OW30478   0.856   1.238  13.969 -0.5837 -0.3309 -1.1388
 6282SOL    HW130479   0.783   1.291  14.001 -0.4117 -0.6765 -0.1656
 6282SOL    HW230480   0.827   1.216  13.881  0.1318  1.3060 -1.7816
 6283SOL     OW30481   3.745   2.911  11.032  0.1886  0.0786  0.7660
 6283SOL    HW130482   3.751   2.987  11.089  0.0531 -0.7889  1.9193
 6283SOL    HW230483   3.806   2.858  11.083 -1.4895 -0.4047  2.2602
 6284SOL     OW30484   4.549   3.331   7.750 -0.3295  0.4630  0.5064
 6284SOL    HW130485   4.566   3.424   7.738  0.2794  0.2740 -0.1084
 6284SOL    HW230486   4.509   3.334   7.837 -4.4539  1.1011 -1.4238
 6285SOL     OW30487   0.564   4.182   3.796  0.3806  0.4822  0.1553
 6285SOL    HW130488   0.584   4.275   3.798  1.9614  0.1347  0.6692
 6285SOL    HW230489   0.636   4.136   3.840  0.0153  0.6224  0.9014
 6286SOL     OW30490   2.322   0.032   6.004 -0.3779 -0.2718 -0.3778
 6286SOL    HW130491   2.265   4.719   6.067 -1.6883  0.5129 -0.9959
 6286SOL    HW230492   2.296   4.728   5.919 -1.1296  0.6602 -0.5435
 6287SOL     OW30493   0.172   2.355   4.213  0.5052  0.1778  0.2195
 6287SOL    HW130494   0.189   2.442   4.178 -4.5814  1.5389  1.1040
 6287SOL    HW230495   0.172   2.302   4.134 -2.1138 -0.5283  0.6568
 6288SOL     OW30496   1.019   3.473   1.375  0.0724 -0.4407 -0.5947
 6288SOL    HW130497   1.098   3.422   1.393  2.0004  2.6978 -0.1125
 6288SOL    HW230498   1.049   3.559   1.345 -2.1080  0.3709 -0.4259
 6289SOL     OW30499   2.349   0.920  10.816 -0.3813 -1.2092  0.6983
 6289SOL    HW130500   2.430   0.874  10.838 -0.6464 -1.6927  0.6674
 6289SOL    HW230501   2.284   0.867  10.863  0.7086 -1.2945  2.1140
 6290SOL     OW30502   0.835   3.686   8.093  0.0061 -0.0706 -0.4904
 6290SOL    HW130503   0.852   3.729   8.010 -2.3859  1.2167 -0.3117
 6290SOL    HW230504   0.917   3.703   8.139 -0.5045 -0.6238  0.6311
 6291SOL     OW30505   3.099   4.187   1.540  0.2425  0.2393 -0.2360
 6291SOL    HW130506   3.018   4.172   1.589 -0.1366 -0.4643 -1.0752
 6291SOL    HW230507   3.077   4.175   1.448  1.1553 -1.2871 -0.2621
 6292SOL     OW30508   4.458   2.577   8.453  0.5184 -0.0770  1.3819
 6292SOL    HW130509   4.447   2.482   8.451  1.1134 -0.1006 -0.6553
 6292SOL    HW230510   4.551   2.594   8.463  0.6599  0.7466 -1.1795
 6293SOL     OW30511   0.827   4.396   9.425 -0.1284 -0.1082  0.3242
 6293SOL    HW130512   0.811   4.488   9.405  0.9931 -0.1762 -0.8768
 6293SOL    HW230513   0.782   4.359   9.349 -1.0114 -0.7678  1.1641
 6294SOL     OW30514   2.556   1.884   3.829 -0.0466  0.4864  0.6123
 6294SOL    HW130515   2.576   1.915   3.741 -0.2409  2.5039  1.2943
 6294SOL    HW230516   2.607   1.803   3.835  1.3024  1.4625  2.3165
 6295SOL     OW30517   2.952   1.337   9.223 -0.3393  0.4999 -0.9226
 6295SOL    HW130518   2.877   1.283   9.197 -1.6771  2.1454 -0.4371
 6295SOL    HW230519   2.959   1.318   9.317 -0.0227  2.0594 -0.6347
 6296SOL     OW30520   1.597   2.852  13.082 -0.0333 -0.3368  0.1070
 6296SOL    HW130521   1.546   2.815  13.154 -0.3077 -1.2437 -0.5564
 6296SOL    HW230522   1.684   2.862  13.120  0.4993 -2.1754 -0.6339
 6297SOL     OW30523   2.480   2.655   3.955  0.1236 -0.1375  0.0180
 6297SOL    HW130524   2.560   2.672   4.004 -2.0285 -0.0542  3.5083
 6297SOL    HW230525   2.429   2.600   4.014  1.3089 -1.9571 -0.6296
 6298SOL     OW30526   1.382   4.649  14.503  0.2597  0.7562 -0.0286
 6298SOL    HW130527   1.379   4.558  14.474  2.2494  0.2529  1.3396
 6298SOL    HW230528   1.445   4.701  14.454 -0.8210  1.4692 -0.6629
 6299SOL     OW30529   2.150   1.963   7.279 -0.3199 -0.7571 -0.0958
 6299SOL    HW130530   2.098   1.944   7.356  0.0790 -2.6537 -0.2939
 6299SOL    HW230531   2.238   1.984   7.311 -0.1605  0.1702 -1.1496
 6300SOL     OW30532   0.933   4.728   5.293  0.4112  0.5442 -0.0566
 6300SOL    HW130533   0.888   0.058   5.235 -1.6847 -1.7881 -0.9169
 6300SOL    HW230534   0.855   4.711   5.346 -0.4390  1.4325 -1.0290
 6301SOL     OW30535   3.404   3.267   3.508 -0.6933  0.6904  0.4861
 6301SOL    HW130536   3.331   3.262   3.570 -0.5820  0.0901  0.5684
 6301SOL    HW230537   3.483   3.288   3.557  1.1326  0.1141 -2.1966
 6302SOL     OW30538   0.650   4.658   0.232  0.5999  0.4944 -0.1490
 6302SOL    HW130539   0.646   4.679   0.325 -1.0761 -0.9386  0.0988
 6302SOL    HW230540   0.745   4.654   0.217  0.6700  0.3219  0.3325
 6303SOL     OW30541   3.559   2.782  10.775 -0.5621 -0.6008  0.6776
 6303SOL    HW130542   3.512   2.767  10.857  0.3181  1.0497  1.4722
 6303SOL    HW230543   3.649   2.759  10.797 -0.9865  1.3473  4.3743
 6304SOL     OW30544   3.600   1.734   2.748 -0.1584  0.2889  0.1383
 6304SOL    HW130545   3.552   1.698   2.823  0.3027 -1.1052 -0.2385
 6304SOL    HW230546   3.672   1.786   2.785 -0.0193  0.0756  0.1693
 6305SOL     OW30547   2.552   0.191   1.895  0.1453 -0.3086  0.6921
 6305SOL    HW130548   2.575   0.222   1.807  1.5218 -0.4164  1.0045
 6305SOL    HW230549   2.472   0.143   1.872  0.3376 -0.3575  0.1072
 6306SOL     OW30550   2.452   1.555   5.636 -0.1452 -0.5278  0.3551
 6306SOL    HW130551   2.513   1.626   5.617  1.6950 -2.1410  0.2408
 6306SOL    HW230552   2.372   1.603   5.657  0.6478  1.1955 -0.5505
 6307SOL     OW30553   3.240   2.410  15.788 -0.0693  0.7194  0.0588
 6307SOL    HW130554   3.196   2.424  15.873 -2.8144  1.2575 -1.4537
 6307SOL    HW230555   3.268   2.500  15.772 -0.5583  0.6272 -1.2571
 6308SOL     OW30556   4.220   3.457   3.140 -0.5080  0.0526  0.4838
 6308SOL    HW130557   4.181   3.433   3.225  1.1715 -0.0658  1.2135
 6308SOL    HW230558   4.227   3.549   3.162 -3.2436  1.2778 -3.7978
 6309SOL     OW30559   0.657   3.351  14.302 -0.9781  0.1735  0.1361
 6309SOL    HW130560   0.573   3.306  14.309  1.3930 -4.1752  0.4991
 6309SOL    HW230561   0.675   3.392  14.387  1.9911 -0.4385 -0.1795
 6310SOL     OW30562   4.190   4.206   8.155  0.3838 -0.4998  0.1779
 6310SOL    HW130563   4.109   4.250   8.131  0.0489 -1.5726 -0.6825
 6310SOL    HW230564   4.248   4.273   8.191 -0.7284  0.2937  0.4709
 6311SOL     OW30565   4.578   2.563  12.428  0.4020 -0.5759 -0.5407
 6311SOL    HW130566   4.596   2.511  12.506 -0.6461 -1.1754 -0.6978
 6311SOL    HW230567   4.624   2.645  12.447  2.1961 -1.2733 -1.8575
 6312SOL     OW30568   0.584   0.224  13.329 -0.5182 -0.3137 -0.3074
 6312SOL    HW130569   0.529   0.169  13.385  1.2278  0.0128  1.7073
 6312SOL    HW230570   0.520   0.285  13.293 -1.0429  0.0695  1.3025
 6313SOL     OW30571   2.735   3.148   6.794 -0.5215 -0.0493 -0.2162
 6313SOL    HW130572   2.732   3.110   6.882 -0.6515  0.2939 -0.0700
 6313SOL    HW230573   2.746   3.064   6.749  2.6223  0.2507 -0.0098
 6314SOL     OW30574   1.009   3.156   2.629 -0.0917  0.6587  0.7475
 6314SOL    HW130575   1.047   3.236   2.665 -1.1479  0.8045  1.5388
 6314SOL    HW230576   1.042   3.096   2.697 -1.2730 -1.7104 -0.7620
 6315SOL     OW30577   3.966   3.776   9.917 -0.3315  0.0409 -0.0316
 6315SOL    HW130578   3.982   3.693   9.962  2.8928  0.1038 -1.0033
 6315SOL    HW230579   4.023   3.767   9.840 -0.5026  1.8602 -0.3755
 6316SOL     OW30580   2.689   3.493   8.767 -0.0529  0.1650 -0.0633
 6316SOL    HW130581   2.730   3.410   8.742  2.1870  1.0171  0.7245
 6316SOL    HW230582   2.673   3.487   8.861  0.2132 -0.7235 -0.0671
 6317SOL     OW30583   3.628   4.588   5.374  0.3325 -0.2299  0.2115
 6317SOL    HW130584   3.584   4.507   5.347 -0.6238  0.0877  0.8106
 6317SOL    HW230585   3.713   4.555   5.404  1.0014  1.1910 -0.1471
 6318SOL     OW30586   4.680   3.529   4.480 -0.0529 -0.3715 -0.0027
 6318SOL    HW130587   4.705   3.621   4.480 -0.0667 -0.3705 -0.6668
 6318SOL    HW230588   0.014   3.478   4.528  0.0421 -0.5809 -0.3521
 6319SOL     OW30589   1.237   2.389   7.442 -0.5496 -0.0951  0.0781
 6319SOL    HW130590   1.321   2.414   7.403 -0.2449  2.0321  2.0704
 6319SOL    HW230591   1.264   2.376   7.533  2.0809 -1.2703 -0.8682
 6320SOL     OW30592   2.192   1.612  12.583 -0.1351  0.1311 -0.9604
 6320SOL    HW130593   2.203   1.537  12.524 -1.2372 -0.9479  0.2051
 6320SOL    HW230594   2.249   1.673  12.536 -1.0867  1.2127 -0.7103
 6321SOL     OW30595   4.396   4.422   9.119  0.2169 -0.4957  0.6591
 6321SOL    HW130596   4.323   4.479   9.093 -0.6035 -1.0286  1.7683
 6321SOL    HW230597   4.469   4.482   9.108 -1.3504  1.3370  0.1905
 6322SOL     OW30598   4.674   4.725   2.646 -0.5972  0.4294  0.3127
 6322SOL    HW130599   4.667   0.076   2.692  1.0187 -0.2959  1.8361
 6322SOL    HW230600   4.639   4.664   2.711  0.6840 -0.4015  0.2186
 6323SOL     OW30601   2.158   4.466  14.860  0.1068  0.2685  0.4353
 6323SOL    HW130602   2.228   4.481  14.924 -1.2389  1.6821  1.5705
 6323SOL    HW230603   2.199   4.404  14.799  0.3181 -0.2765  1.1334
 6324SOL     OW30604   0.326   0.550   8.609 -0.9216 -0.5960 -0.3364
 6324SOL    HW130605   0.278   0.503   8.540 -0.5224 -1.6473  0.0945
 6324SOL    HW230606   0.261   0.540   8.679  0.2726 -0.5815  0.7834
 6325SOL     OW30607   1.982   1.378   4.852  0.5389  0.1614 -0.0192
 6325SOL    HW130608   2.007   1.291   4.884  1.4658  0.4062 -0.0713
 6325SOL    HW230609   1.919   1.410   4.916 -1.0533  2.4563 -2.7228
 6326SOL     OW30610   3.527   3.503  11.498 -0.0645  0.1619 -0.2021
 6326SOL    HW130611   3.589   3.451  11.448 -3.5461 -2.3102 -1.9226
 6326SOL    HW230612   3.552   3.468  11.584  2.0264  0.0501 -0.8695
 6327SOL     OW30613   1.074   1.819  15.440 -0.0487 -0.1304 -0.2947
 6327SOL    HW130614   1.098   1.905  15.407  1.2000  0.0697  1.1412
 6327SOL    HW230615   1.028   1.833  15.523  0.5704 -0.2155  0.0610
 6328SOL     OW30616   0.321   2.895   5.119 -0.2979 -0.1300 -0.4706
 6328SOL    HW130617   0.287   2.896   5.209 -2.0549  1.3105 -1.1732
 6328SOL    HW230618   0.315   2.804   5.089 -0.4866 -0.8192  1.6590
 6329SOL     OW30619   1.521   1.615   7.910 -0.8721 -0.0436  0.3985
 6329SOL    HW130620   1.607   1.578   7.888  0.3057  2.7162  0.4162
 6329SOL    HW230621   1.500   1.566   7.990 -2.9549 -0.9205 -0.6901
 6330SOL     OW30622   0.479   0.787   7.839  0.0159 -0.0423  0.0448
 6330SOL    HW130623   0.403   0.753   7.792  0.4965 -2.1399  0.7741
 6330SOL    HW230624   0.488   0.716   7.902  1.2910  0.3384  0.2971
 6331SOL     OW30625   3.713   3.736  11.251  0.5635 -0.0388 -0.5805
 6331SOL    HW130626   3.753   3.706  11.334  0.8615 -0.2941 -0.8140
 6331SOL    HW230627   3.624   3.712  11.275  1.1315  1.5064  3.1321
 6332SOL     OW30628   0.496   3.341   3.685  0.3532 -0.1083 -0.2653
 6332SOL    HW130629   0.495   3.333   3.590 -0.9798 -5.0451  0.1941
 6332SOL    HW230630   0.404   3.318   3.699  0.5483 -0.0737  1.1441
 6333SOL     OW30631   1.843   3.554   8.158  0.1632  0.3140  0.1200
 6333SOL    HW130632   1.821   3.637   8.115  0.4352 -1.2820 -3.0778
 6333SOL    HW230633   1.828   3.587   8.247  0.8157  0.7832  0.0519
 6334SOL     OW30634   0.427   0.752   3.083 -0.3117 -0.6226 -0.1301
 6334SOL    HW130635   0.424   0.828   3.141  3.7457  0.1706 -0.9681
 6334SOL    HW230636   0.346   0.770   3.034 -0.4076 -1.2838 -0.2181
 6335SOL     OW30637   2.837   0.694  13.742  0.2009  0.1582 -0.0595
 6335SOL    HW130638   2.884   0.747  13.679  3.7771 -0.4875  2.0368
 6335SOL    HW230639   2.786   0.758  13.791 -0.1934 -1.0348  1.1064
 6336SOL     OW30640   3.355   4.097   1.651 -0.2383 -0.1353 -0.5321
 6336SOL    HW130641   3.331   4.093   1.744  2.9916  1.3689  0.3766
 6336SOL    HW230642   3.274   4.091   1.600  0.4944 -0.8726 -1.6000
 6337SOL     OW30643   4.064   4.587  10.145  0.4263 -0.0076 -0.0149
 6337SOL    HW130644   4.147   4.541  10.163 -0.8020 -2.8898 -1.7543
 6337SOL    HW230645   4.012   4.562  10.221  0.7583 -1.9686 -0.4268
 6338SOL     OW30646   0.828   3.766   6.597 -0.1125  0.5698  0.0990
 6338SOL    HW130647   0.908   3.738   6.554 -1.1945 -0.1679 -1.3977
 6338SOL    HW230648   0.856   3.843   6.647  1.2141 -1.9613  3.2839
 6339SOL     OW30649   0.456   2.656  14.797 -0.0768  0.2264  0.0386
 6339SOL    HW130650   0.407   2.726  14.840 -2.7208 -1.3747 -0.3306
 6339SOL    HW230651   0.492   2.609  14.872  0.5500 -0.7257 -0.8571
 6340SOL     OW30652   4.028   1.414   6.461 -0.2444 -0.0106  0.1579
 6340SOL    HW130653   4.052   1.322   6.473 -0.2561 -0.4276 -2.9962
 6340SOL    HW230654   3.970   1.402   6.385  0.7285  1.0195 -0.7639
 6341SOL     OW30655   1.848   2.329   2.853  0.2984 -0.3948 -0.2722
 6341SOL    HW130656   1.927   2.276   2.866 -1.4216 -2.8374 -0.0297
 6341SOL    HW230657   1.856   2.356   2.761 -0.8350  0.9287  0.0208
 6342SOL     OW30658   2.650   3.166   6.194 -0.5281  1.1103  0.6903
 6342SOL    HW130659   2.681   3.085   6.236 -3.4996 -1.1027 -1.3936
 6342SOL    HW230660   2.599   3.129   6.122  1.2716  0.3823 -0.2134
 6343SOL     OW30661   2.545   4.296   7.558 -0.4078 -0.4497 -0.6654
 6343SOL    HW130662   2.592   4.317   7.477 -0.8041 -2.6410 -1.4654
 6343SOL    HW230663   2.622   4.251   7.594  0.4748  0.6115 -1.2080
 6344SOL     OW30664   1.637   4.301   8.249 -0.2452  0.1472  0.5313
 6344SOL    HW130665   1.662   4.389   8.278  2.0994 -0.5751  0.7279
 6344SOL    HW230666   1.682   4.299   8.164 -0.8964  2.7235  0.1177
 6345SOL     OW30667   0.174   2.215   6.268  0.1917 -0.2055  0.0876
 6345SOL    HW130668   0.200   2.246   6.182  0.2591  0.3052  0.2890
 6345SOL    HW230669   0.139   2.297   6.303 -1.9412 -1.2729  0.5077
 6346SOL     OW30670   1.481   0.002   5.220  0.1013 -0.2982 -0.2125
 6346SOL    HW130671   1.441   4.727   5.133  0.8494  4.3099 -0.9342
 6346SOL    HW230672   1.428   0.062   5.273 -0.4246  0.1787 -1.2877
 6347SOL     OW30673   0.234   4.217   3.335  0.5204 -0.0941 -0.3168
 6347SOL    HW130674   0.219   4.229   3.429  1.1685 -0.2964 -0.1884
 6347SOL    HW230675   0.161   4.259   3.289 -0.3339 -0.4087  0.7362
 6348SOL     OW30676   1.601   2.548   2.757  0.0473 -0.2216 -0.0642
 6348SOL    HW130677   1.509   2.573   2.746 -0.5334 -2.2869  0.1254
 6348SOL    HW230678   1.640   2.622   2.804 -0.5913 -0.2721  0.5555
 6349SOL     OW30679   1.106   0.962   4.205 -0.2618  0.5539  0.6093
 6349SOL    HW130680   1.131   0.884   4.254 -0.0499  1.5172  2.0128
 6349SOL    HW230681   1.146   1.034   4.253 -0.5603 -0.7837  2.8376
 6350SOL     OW30682   4.203   0.444   3.632  0.6516  0.4911 -0.2906
 6350SOL    HW130683   4.224   0.534   3.658 -0.9326  0.3107  1.6228
 6350SOL    HW230684   4.114   0.446   3.668  0.2560 -0.0067 -1.2483
 6351SOL     OW30685   3.246   0.706   4.994  0.3674 -0.3208 -1.0708
 6351SOL    HW130686   3.311   0.637   4.978 -0.9487 -1.8445  0.1708
 6351SOL    HW230687   3.296   0.787   4.996  2.1047 -1.4198 -0.1609
 6352SOL     OW30688   0.364   0.410   3.531  0.2432 -0.1715 -0.3160
 6352SOL    HW130689   0.373   0.482   3.468 -1.9162 -0.7773 -1.3350
 6352SOL    HW230690   0.274   0.428   3.557  1.0410  0.4141  1.9897
 6353SOL     OW30691   0.065   4.310   5.495  0.1579 -0.1050 -0.3750
 6353SOL    HW130692   0.069   4.222   5.458 -1.7372 -0.1063 -0.5535
 6353SOL    HW230693   0.088   4.355   5.413  0.1886 -0.6479 -0.6609
 6354SOL     OW30694   2.684   1.908   6.670 -0.4270  0.6285 -0.0341
 6354SOL    HW130695   2.774   1.931   6.691 -0.7670  3.4219 -1.5201
 6354SOL    HW230696   2.671   1.830   6.723 -2.0267  0.8381 -0.0888
 6355SOL     OW30697   3.599   4.265   7.414 -0.8901  0.3380 -0.1935
 6355SOL    HW130698   3.544   4.240   7.488 -0.1777  1.3071  0.6606
 6355SOL    HW230699   3.652   4.334   7.453 -0.3555  1.5947 -3.1389
 6356SOL     OW30700   4.580   4.183   2.824  0.0397 -0.0903 -0.5859
 6356SOL    HW130701   4.667   4.165   2.788 -0.0296 -0.5189 -0.5428
 6356SOL    HW230702   4.590   4.276   2.806 -1.8454  0.2517  0.1776
 6357SOL     OW30703   4.017   1.343   0.203  0.4756 -0.3783  0.1312
 6357SOL    HW130704   3.987   1.319   0.115  0.3788  0.3215 -0.0288
 6357SOL    HW230705   4.008   1.264   0.255 -1.1996 -1.8624 -2.3770
 6358SOL     OW30706   0.548   2.470   2.403  0.3359  0.3050 -0.3076
 6358SOL    HW130707   0.530   2.564   2.405  2.2058  0.6319  1.3618
 6358SOL    HW230708   0.459   2.435   2.399  0.8219 -0.7703 -1.9028
 6359SOL     OW30709   4.544   2.421   7.563 -0.1004 -0.4433 -0.3296
 6359SOL    HW130710   4.528   2.455   7.475  1.5739  0.7038 -0.1914
 6359SOL    HW230711   4.628   2.459   7.587 -0.7350  0.7996 -0.0889
 6360SOL     OW30712   3.633   2.595   1.577  0.0787  0.1942  0.1264
 6360SOL    HW130713   3.627   2.520   1.637  3.0727  0.3119  0.5997
 6360SOL    HW230714   3.616   2.659   1.646 -1.9534  0.7616 -0.9055
 6361SOL     OW30715   1.587   1.731  10.826  0.4935  0.2610  0.8384
 6361SOL    HW130716   1.638   1.803  10.865  2.5504 -1.7801  1.9131
 6361SOL    HW230717   1.563   1.689  10.908 -0.4560 -2.2607 -0.7459
 6362SOL     OW30718   1.069   1.734   1.316 -0.1942  0.0894 -0.3655
 6362SOL    HW130719   1.026   1.799   1.261  0.6747  0.4598 -0.6158
 6362SOL    HW230720   1.074   1.658   1.257  1.0815  0.1488 -0.3454
 6363SOL     OW30721   3.558   4.610  10.891  0.1636  0.0282 -0.0683
 6363SOL    HW130722   3.647   4.575  10.895 -0.0969 -0.8015 -1.4426
 6363SOL    HW230723   3.539   4.632  10.982 -2.1506  0.6015 -0.6876
 6364SOL     OW30724   2.396   2.859   2.092 -0.1691  0.1946 -0.4926
 6364SOL    HW130725   2.382   2.948   2.124 -1.3387 -0.5503  1.0622
 6364SOL    HW230726   2.311   2.824   2.121  0.3683 -0.6967  0.0309
 6365SOL     OW30727   0.791   2.153   5.072  0.1066 -0.7035 -0.0273
 6365SOL    HW130728   0.801   2.141   4.978  2.4768  0.2901  0.1055
 6365SOL    HW230729   0.882   2.169   5.096  0.2291 -1.4467  0.0234
 6366SOL     OW30730   1.086   3.957   2.704 -0.2480 -0.6245  0.3753
 6366SOL    HW130731   1.019   3.896   2.736 -0.6393 -0.1116  0.5268
 6366SOL    HW230732   1.025   4.023   2.670  1.6622 -0.1223 -2.0707
 6367SOL     OW30733   3.949   3.552   3.783  0.8291 -0.3480 -0.4123
 6367SOL    HW130734   3.971   3.634   3.828  0.0891  1.3221 -3.0225
 6367SOL    HW230735   3.889   3.521   3.850  0.6568 -0.9227 -0.8302
 6368SOL     OW30736   1.065   3.693   8.212  0.0471  0.0505  0.1756
 6368SOL    HW130737   1.109   3.723   8.133  2.1847 -0.3130  1.2185
 6368SOL    HW230738   1.143   3.670   8.263  0.1941  0.3423  0.0763
 6369SOL     OW30739   1.936   1.984   2.380 -0.0981  0.4681  0.7121
 6369SOL    HW130740   1.859   2.002   2.327 -0.6661  1.0660  1.7404
 6369SOL    HW230741   1.901   2.018   2.463 -2.1916  3.3855 -1.3557
 6370SOL     OW30742   1.764   2.026   2.626 -0.1112  0.3429  0.3822
 6370SOL    HW130743   1.702   2.098   2.611  1.2885  1.5511  0.4824
 6370SOL    HW230744   1.710   1.949   2.608  1.0414 -1.0911  2.9775
 6371SOL     OW30745   2.178   3.647   7.549 -0.1359 -0.3876 -0.1950
 6371SOL    HW130746   2.092   3.621   7.516  0.4163  0.0449 -1.9751
 6371SOL    HW230747   2.152   3.656   7.641 -1.3998 -0.5752 -0.5375
 6372SOL     OW30748   0.405   2.756   3.535 -0.4225 -0.3005 -0.1270
 6372SOL    HW130749   0.334   2.694   3.514  1.2666 -1.8533 -1.2254
 6372SOL    HW230750   0.461   2.706   3.594  0.2811  0.8903  0.1890
 6373SOL     OW30751   3.400   0.099   1.591 -0.4640  0.1054 -0.0338
 6373SOL    HW130752   3.344   0.132   1.520 -0.4108  1.1967  0.4302
 6373SOL    HW230753   3.491   0.109   1.562 -1.1477  0.4725 -2.1045
 6374SOL     OW30754   0.667   3.865   2.589 -0.1191 -0.1685 -0.2042
 6374SOL    HW130755   0.712   3.836   2.510 -0.4732  1.6686 -1.0954
 6374SOL    HW230756   0.617   3.939   2.555  1.9234  1.7915  0.9982
 6375SOL     OW30757   3.008   2.251   5.263  0.0752  0.0634  0.0990
 6375SOL    HW130758   2.964   2.169   5.285 -0.6506  0.4438  0.0816
 6375SOL    HW230759   2.941   2.280   5.201 -1.0137 -2.4644  0.0944
 6376SOL     OW30760   2.315   4.120   4.069  0.1872  0.9659 -0.1919
 6376SOL    HW130761   2.291   4.028   4.062  1.7600  0.5166  0.4613
 6376SOL    HW230762   2.355   4.122   4.156  2.0449 -2.2449 -1.0039
 6377SOL     OW30763   0.979   2.234  16.163 -0.3036  0.5838  0.0687
 6377SOL    HW130764   1.028   2.289  16.224 -0.5128  0.8386  0.0046
 6377SOL    HW230765   1.043   2.172  16.129 -0.3932  2.0397 -2.7367
 6378SOL     OW30766   3.434   0.292  11.237  0.2037 -0.3650 -0.2966
 6378SOL    HW130767   3.515   0.296  11.288  0.0684  1.1473 -0.1893
 6378SOL    HW230768   3.364   0.308  11.301  1.2454  0.2138  0.6979
 6379SOL     OW30769   4.071   2.190  17.200  0.7794 -0.6030 -0.4701
 6379SOL    HW130770   4.139   2.233  17.147  0.2349 -1.0794 -1.5654
 6379SOL    HW230771   4.076   2.228  17.288  0.3803 -0.2838 -0.5849
 6380SOL     OW30772   4.278   3.797   5.850  0.0601  0.0306 -0.2516
 6380SOL    HW130773   4.284   3.887   5.817 -1.1691 -0.3044 -1.3970
 6380SOL    HW230774   4.271   3.745   5.770 -0.8755 -0.2852  0.0457
 6381SOL     OW30775   0.029   2.143   2.714  0.3797 -0.1950 -0.6266
 6381SOL    HW130776   4.691   2.134   2.650 -1.1977 -3.0301  1.5040
 6381SOL    HW230777   0.077   2.217   2.678  0.8310  0.3980  1.1707
 6382SOL     OW30778   3.349   2.064   8.571 -0.2998 -0.2144 -0.6115
 6382SOL    HW130779   3.261   2.080   8.537 -0.1676  0.1018 -0.8077
 6382SOL    HW230780   3.361   2.111   8.653 -0.6404  0.8802 -1.1906
 6383SOL     OW30781   4.164   3.106   3.944  0.6914 -0.2195  0.2052
 6383SOL    HW130782   4.149   3.156   3.864 -1.1016 -1.9743 -0.5388
 6383SOL    HW230783   4.126   3.157   4.015 -1.1296  3.6589 -3.5298
 6384SOL     OW30784   2.219   1.684   5.704 -0.4801 -0.5424 -0.3353
 6384SOL    HW130785   2.194   1.629   5.778 -3.1268 -0.4455 -1.1271
 6384SOL    HW230786   2.142   1.742   5.699  0.2986  0.3816 -1.7487
 6385SOL     OW30787   0.278   0.748   2.202 -0.3099  0.1299  0.3246
 6385SOL    HW130788   0.263   0.675   2.142  0.0315 -1.0444  1.6708
 6385SOL    HW230789   0.372   0.731   2.199 -0.2105  0.7696 -0.2554
 6386SOL     OW30790   1.645   1.181   2.310  0.0704 -0.2438  0.2367
 6386SOL    HW130791   1.552   1.189   2.329 -0.2774 -0.5882 -1.3212
 6386SOL    HW230792   1.654   1.086   2.305 -0.8158 -0.3727  1.1601
 6387SOL     OW30793   4.300   4.374   9.842  0.3378 -0.2167  0.4821
 6387SOL    HW130794   4.270   4.460   9.870  0.4375  0.1077 -0.4004
 6387SOL    HW230795   4.282   4.365   9.748 -1.2739  0.5026  0.7348
 6388SOL     OW30796   1.472   2.230   8.385 -0.4101  0.3081 -0.8047
 6388SOL    HW130797   1.549   2.200   8.337 -0.5719 -0.5297 -0.5363
 6388SOL    HW230798   1.429   2.276   8.313  0.3834  1.7833 -0.3438
 6389SOL     OW30799   1.142   3.461   2.577 -0.2071  0.0776  0.3697
 6389SOL    HW130800   1.047   3.472   2.575  0.0042  1.6966 -0.3393
 6389SOL    HW230801   1.167   3.503   2.659  0.7315 -1.4110  0.8550
 6390SOL     OW30802   2.182   3.708  14.310 -0.2519  0.4804  0.2119
 6390SOL    HW130803   2.204   3.615  14.311 -1.4861  0.2012  1.1957
 6390SOL    HW230804   2.102   3.703  14.257 -0.4385 -0.4809  0.5737
 6391SOL     OW30805   3.922   2.913   9.234  0.0141 -0.4114  0.0522
 6391SOL    HW130806   4.006   2.877   9.204 -0.3040 -1.1906  0.1110
 6391SOL    HW230807   3.958   2.961   9.309  0.4879  1.1419 -1.1454
 6392SOL     OW30808   1.895   4.677   2.869 -0.0294  0.0256  0.3230
 6392SOL    HW130809   1.944   4.620   2.927  1.9444  1.1336 -0.2390
 6392SOL    HW230810   1.965   4.711   2.813  0.5132 -2.3844 -0.4618
 6393SOL     OW30811   3.526   1.869  12.017 -0.1253  0.0706 -0.3591
 6393SOL    HW130812   3.511   1.844  11.926  0.5183 -0.6009 -0.2792
 6393SOL    HW230813   3.558   1.959  12.010 -0.2205  0.0502 -1.0432
 6394SOL     OW30814   2.346   0.932   5.635 -0.2235  0.4823 -0.2605
 6394SOL    HW130815   2.256   0.902   5.623  0.2943 -1.4911  0.8003
 6394SOL    HW230816   2.394   0.849   5.637  0.0641  0.6520  0.1406
 6395SOL     OW30817   3.752   4.669   0.519  0.5574 -0.4691  0.1594
 6395SOL    HW130818   3.776   4.589   0.566 -1.9734 -0.5485  1.3225
 6395SOL    HW230819   3.786   0.006   0.576  0.3723  0.2496 -0.6046
 6396SOL     OW30820   4.511   1.415   6.697  0.0316  0.4013  0.0146
 6396SOL    HW130821   4.591   1.461   6.670 -0.5720  2.0877  1.0950
 6396SOL    HW230822   4.507   1.347   6.630 -0.2253  0.1314  0.3018
 6397SOL     OW30823   0.589   3.692   3.623 -0.3106  0.1335 -0.2224
 6397SOL    HW130824   0.570   3.714   3.532 -1.6948 -0.5271 -0.1027
 6397SOL    HW230825   0.506   3.652   3.651  0.9861 -1.6919  0.9509
 6398SOL     OW30826   4.155   2.998   3.172  0.0368 -0.2982 -0.2465
 6398SOL    HW130827   4.134   2.905   3.162  0.0239 -0.1153 -1.9284
 6398SOL    HW230828   4.112   3.024   3.091 -1.3168 -0.9015  0.2875
 6399SOL     OW30829   3.647   3.940  10.246 -0.0771 -0.2296  0.4963
 6399SOL    HW130830   3.601   3.923  10.328 -1.1998  2.1372  0.3590
 6399SOL    HW230831   3.735   3.929  10.284  1.1691  2.9391 -1.4607
 6400SOL     OW30832   2.790   4.222   7.672 -0.0736 -0.3787 -0.0307
 6400SOL    HW130833   2.756   4.142   7.712  2.2720 -2.2187 -1.7540
 6400SOL    HW230834   2.883   4.199   7.667  0.4578  1.3777  1.4855
 6401SOL     OW30835   4.107   3.163   5.684 -0.0753  0.3503  0.8392
 6401SOL    HW130836   4.134   3.071   5.685 -0.2229  0.3141  1.9320
 6401SOL    HW230837   4.027   3.166   5.632  0.6121  0.4865 -0.2046
 6402SOL     OW30838   4.560   1.587  10.349  0.2520 -0.2380 -0.0311
 6402SOL    HW130839   4.635   1.593  10.291 -0.1898  1.0229 -0.4814
 6402SOL    HW230840   4.584   1.496  10.365  1.3617 -0.1572 -1.2939
 6403SOL     OW30841   1.379   2.246   3.677 -0.6343  0.3698 -0.6517
 6403SOL    HW130842   1.447   2.314   3.682 -0.8577  0.4209  1.7401
 6403SOL    HW230843   1.356   2.238   3.584  2.2812 -2.7249 -1.1056
 6404SOL     OW30844   1.949   0.030  17.521  0.5545  0.0737 -0.4209
 6404SOL    HW130845   2.005   0.091  17.472 -2.0861 -0.1812 -3.7313
 6404SOL    HW230846   1.974   0.058  17.609  0.7620 -0.5932 -0.2695
 6405SOL     OW30847   0.006   0.625  16.564 -0.2593 -0.1697 -0.0873
 6405SOL    HW130848   0.056   0.657  16.489  1.8198 -2.4283  0.3420
 6405SOL    HW230849   0.033   0.688  16.631  1.0849 -1.8754  0.9655
 6406SOL     OW30850   1.399   2.217   1.584 -0.1186 -0.0317 -0.3090
 6406SOL    HW130851   1.353   2.292   1.548  2.3877  2.3090  1.3012
 6406SOL    HW230852   1.489   2.249   1.583 -0.0449 -0.1863  0.6911
 6407SOL     OW30853   3.115   2.105   9.745 -0.1663  0.2243 -0.6661
 6407SOL    HW130854   3.032   2.057   9.747  0.3198 -0.7657 -3.1839
 6407SOL    HW230855   3.097   2.181   9.800 -0.0090 -0.7552  0.7423
 6408SOL     OW30856   4.051   3.808  10.245  0.0425 -0.4794 -0.2118
 6408SOL    HW130857   4.060   3.896  10.210  1.8620 -1.1456 -1.4328
 6408SOL    HW230858   3.973   3.788  10.195 -1.6660  2.6045  1.1973
 6409SOL     OW30859   4.173   2.517   0.590 -0.4549 -0.4983 -0.3164
 6409SOL    HW130860   4.162   2.612   0.586  0.7984 -0.4331 -2.2454
 6409SOL    HW230861   4.102   2.489   0.533 -0.3058 -0.7358 -0.3840
 6410SOL     OW30862   3.083   2.939   2.544  0.5251  0.2709 -0.7892
 6410SOL    HW130863   3.131   3.017   2.572 -0.5825  1.8576 -3.2410
 6410SOL    HW230864   3.015   2.973   2.485  0.3097  2.2118  0.5904
 6411SOL     OW30865   2.730   0.197   9.177 -0.0538 -0.1022 -0.3123
 6411SOL    HW130866   2.807   0.149   9.147 -1.3933 -1.6558 -1.2712
 6411SOL    HW230867   2.722   0.258   9.103  0.3484 -1.5710 -1.5739
 6412SOL     OW30868   1.634   0.915   1.703 -0.2625 -0.4611  0.2144
 6412SOL    HW130869   1.612   0.999   1.662  0.1716  1.3053  3.6051
 6412SOL    HW230870   1.708   0.953   1.750 -0.2971 -0.0699 -0.0443
 6413SOL     OW30871   2.698   3.182   8.080 -0.6742  0.0925 -0.1503
 6413SOL    HW130872   2.743   3.111   8.125  0.0006 -0.7777 -2.2058
 6413SOL    HW230873   2.767   3.201   8.017  1.5738 -2.4920  1.5514
 6414SOL     OW30874   0.136   3.608   7.764  0.3177  0.2696  0.0107
 6414SOL    HW130875   0.138   3.561   7.681  1.0363  1.3094 -0.5579
 6414SOL    HW230876   0.149   3.530   7.819 -0.8216 -0.2946 -0.5116
 6415SOL     OW30877   3.555   0.613   3.208 -0.5357 -0.0997 -0.6374
 6415SOL    HW130878   3.584   0.596   3.119 -0.6978  1.6482 -1.0272
 6415SOL    HW230879   3.549   0.523   3.238  4.5994 -0.2869 -0.1831
 6416SOL     OW30880   0.950   0.872  15.668 -0.2721 -0.1305 -0.1761
 6416SOL    HW130881   0.869   0.830  15.696 -0.1959 -1.1691 -1.4883
 6416SOL    HW230882   0.996   0.871  15.752  0.3060  1.8707 -0.4615
 6417SOL     OW30883   4.443   0.379   5.802 -0.1518  0.3929 -0.1533
 6417SOL    HW130884   4.441   0.327   5.722 -0.0017 -0.4298  0.3698
 6417SOL    HW230885   4.521   0.352   5.852 -0.5016  0.8205  0.6268
 6418SOL     OW30886   0.808   3.559  13.436  0.1965 -0.1677  0.6302
 6418SOL    HW130887   0.771   3.537  13.521 -0.1329  0.7513  0.7241
 6418SOL    HW230888   0.863   3.636  13.454 -1.7236  0.5785  3.3174
 6419SOL     OW30889   4.447   4.130   4.276 -0.0398  0.5770 -0.2123
 6419SOL    HW130890   4.470   4.214   4.235  2.9537 -0.4929 -0.6586
 6419SOL    HW230891   4.504   4.073   4.224  0.7536  0.6974  0.5346
 6420SOL     OW30892   2.802   2.129   3.955  0.1155  0.3200  0.6416
 6420SOL    HW130893   2.808   2.033   3.954 -0.5956  0.2918 -1.2458
 6420SOL    HW230894   2.717   2.158   3.921 -0.0490 -0.3347  0.4869
 6421SOL     OW30895   2.098   0.511   3.658 -0.5058  0.0225 -0.0018
 6421SOL    HW130896   2.140   0.425   3.655 -0.5517 -0.0473  1.2429
 6421SOL    HW230897   2.013   0.478   3.689 -1.3541  2.5126  0.2808
 6422SOL     OW30898   0.728   0.814   5.090 -0.2587 -0.4094 -0.0426
 6422SOL    HW130899   0.656   0.876   5.107  0.7052  0.9620 -0.9462
 6422SOL    HW230900   0.731   0.807   4.995  0.3692  0.7217 -0.1105
 6423SOL     OW30901   4.069   2.372  17.441  0.3889 -0.2391  0.2066
 6423SOL    HW130902   4.032   2.311  17.505  3.3181 -0.1894  1.9432
 6423SOL    HW230903   3.988   2.415  17.413 -0.3534 -0.2648  2.3075
 6424SOL     OW30904   1.410   2.685  14.906 -0.4365  0.4055  0.1690
 6424SOL    HW130905   1.494   2.672  14.949  0.1698  1.6529 -0.6183
 6424SOL    HW230906   1.427   2.670  14.813  0.0753 -0.0765  0.3481
 6425SOL     OW30907   4.321   0.365   8.018 -0.4979 -0.1090 -0.4353
 6425SOL    HW130908   4.324   0.353   7.923  0.2059  0.2542 -0.4556
 6425SOL    HW230909   4.227   0.373   8.037 -1.0641  1.3278 -3.9259
 6426SOL     OW30910   0.961   4.642  10.761 -0.7007  0.3700 -0.0864
 6426SOL    HW130911   0.961   4.559  10.808  1.3676  0.7815  0.6287
 6426SOL    HW230912   0.869   4.669  10.755 -0.3525  1.5218 -0.2269
 6427SOL     OW30913   2.887   1.969   2.723  0.4317 -0.6134  0.3604
 6427SOL    HW130914   2.871   1.941   2.813 -0.3297  1.8602  0.9884
 6427SOL    HW230915   2.934   2.051   2.735  1.5333 -1.2150  0.1626
 6428SOL     OW30916   1.875   2.062   1.308 -0.5607 -0.2990  0.4276
 6428SOL    HW130917   1.931   2.070   1.386  0.3412 -0.1915 -0.2255
 6428SOL    HW230918   1.932   2.006   1.256 -0.6692  0.8292 -0.8991
 6429SOL     OW30919   4.134   1.837   3.045  0.0306  0.3079  1.1449
 6429SOL    HW130920   4.106   1.819   3.135  0.2578  1.1406  1.3773
 6429SOL    HW230921   4.100   1.767   2.989 -1.0127 -0.6944  3.0332
 6430SOL     OW30922   2.242   1.410   8.288  0.7725 -0.3194  0.1723
 6430SOL    HW130923   2.268   1.457   8.368  0.2656  2.1589 -1.1203
 6430SOL    HW230924   2.329   1.384   8.257  0.2942  0.1025 -1.5186
 6431SOL     OW30925   4.216   2.094  13.928 -0.2247  0.2508 -0.3416
 6431SOL    HW130926   4.241   2.184  13.950  1.0871  0.1979 -1.6018
 6431SOL    HW230927   4.140   2.088  13.986  0.9074 -0.8822  1.0460
 6432SOL     OW30928   3.841   4.341  14.310 -0.3533  0.4911 -0.2449
 6432SOL    HW130929   3.831   4.431  14.280 -2.0058 -0.2776 -2.0593
 6432SOL    HW230930   3.761   4.320  14.358 -0.9606  1.5661 -0.7821
 6433SOL     OW30931   4.599   1.201   5.003 -0.6505  0.8637  0.0742
 6433SOL    HW130932   4.505   1.196   4.986 -0.4009 -1.1980 -0.7737
 6433SOL    HW230933   4.619   1.179   5.093 -0.0140 -0.4909 -0.4024
 6434SOL     OW30934   0.343   4.199   8.102  0.0381  0.2537 -0.3366
 6434SOL    HW130935   0.376   4.220   8.190  0.7566 -0.2042 -0.5045
 6434SOL    HW230936   0.350   4.105   8.091  1.7251  0.0588  2.2936
 6435SOL     OW30937   0.485   0.499  12.799 -0.1357 -0.5813  0.2791
 6435SOL    HW130938   0.557   0.551  12.835 -1.7353  0.5432  1.8692
 6435SOL    HW230939   0.437   0.468  12.876  0.7971 -1.4576  0.5100
 6436SOL     OW30940   2.118   0.104   3.291 -0.6181  0.0374 -0.3269
 6436SOL    HW130941   2.037   0.155   3.282 -1.6920 -2.0886 -2.8282
 6436SOL    HW230942   2.192   0.158   3.264  1.2866 -1.5188  1.8552
 6437SOL     OW30943   0.949   0.961   3.175 -0.1967  0.2480  0.5062
 6437SOL    HW130944   0.950   0.867   3.194  1.1682  0.0669 -0.4448
 6437SOL    HW230945   1.013   0.986   3.243  0.1067  2.7890 -0.7201
 6438SOL     OW30946   1.101   3.737  17.004  0.0395 -0.2149 -0.2331
 6438SOL    HW130947   1.176   3.760  16.950  0.7825  1.0491  1.3237
 6438SOL    HW230948   1.086   3.825  17.040 -0.2839  0.0935 -1.1238
 6439SOL     OW30949   2.084   2.585   3.115  0.2090 -0.2323  0.4183
 6439SOL    HW130950   2.079   2.670   3.158 -0.7414 -0.8449  1.5018
 6439SOL    HW230951   2.033   2.600   3.036  1.1136 -0.2761 -0.1785
 6440SOL     OW30952   3.846   0.734   8.993  0.2953 -0.8379 -0.0327
 6440SOL    HW130953   3.755   0.748   8.969  0.2406 -1.3713 -0.1500
 6440SOL    HW230954   3.852   0.638   8.993  0.3059 -0.8542  2.5776
 6441SOL     OW30955   3.790   0.101  16.602 -0.1145  0.3240 -0.0491
 6441SOL    HW130956   3.824   0.017  16.570  2.8084  1.8831 -0.9752
 6441SOL    HW230957   3.839   0.160  16.545  0.1014 -0.5208 -0.7399
 6442SOL     OW30958   3.398   1.674   2.269 -0.0857 -0.5976 -0.1280
 6442SOL    HW130959   3.323   1.615   2.277 -1.1607  0.6961 -0.6478
 6442SOL    HW230960   3.345   1.743   2.308  1.5722  0.3891  0.3681
 6443SOL     OW30961   2.142   4.120   8.285 -0.6502  0.6386  0.3706
 6443SOL    HW130962   2.182   4.069   8.214 -0.8506  0.8112  0.1357
 6443SOL    HW230963   2.077   4.054   8.311 -0.8276 -0.1543 -2.0989
 6444SOL     OW30964   3.763   0.866   2.136 -0.2924 -0.2929 -0.1001
 6444SOL    HW130965   3.796   0.783   2.169  2.4310  1.3746  1.3453
 6444SOL    HW230966   3.816   0.880   2.058  1.1074 -2.6761  0.4405
 6445SOL     OW30967   0.313   1.189   4.970  0.3397  0.1691 -0.0674
 6445SOL    HW130968   0.307   1.185   5.066 -0.9124 -3.1099 -0.3080
 6445SOL    HW230969   0.243   1.255   4.964  0.5059  0.2856 -0.7281
 6446SOL     OW30970   0.344   2.375   0.054  0.0671 -0.1746 -0.0455
 6446SOL    HW130971   0.363   2.463   0.087  0.2980  0.2230 -1.2082
 6446SOL    HW230972   0.431   2.362   0.016  0.0017 -0.7254 -0.0091
 6447SOL     OW30973   3.147   0.327   4.114 -0.3040 -0.1577 -0.0845
 6447SOL    HW130974   3.193   0.298   4.035  1.6553 -1.7290  1.6535
 6447SOL    HW230975   3.163   0.254   4.173  0.5162 -1.0012 -1.3525
 6448SOL     OW30976   2.805   4.537   0.484 -0.0658 -0.3376  0.3955
 6448SOL    HW130977   2.877   4.583   0.528  0.5378  0.4718 -1.4105
 6448SOL    HW230978   2.851   4.476   0.426  4.9124  2.1224  1.7467
 6449SOL     OW30979   1.557   1.333   6.324  0.1279 -0.3994  0.0248
 6449SOL    HW130980   1.602   1.390   6.261  2.1895 -4.0129 -1.7505
 6449SOL    HW230981   1.580   1.358   6.414 -0.6615  1.1536 -0.1912
 6450SOL     OW30982   2.573   1.422   8.939 -0.2911  0.8976  0.1843
 6450SOL    HW130983   2.553   1.498   8.883 -1.0312 -0.1886 -1.0309
 6450SOL    HW230984   2.656   1.395   8.901 -0.7590 -0.4283  0.0953
 6451SOL     OW30985   1.400   0.369  16.039  0.5999  0.1776  0.1118
 6451SOL    HW130986   1.323   0.313  16.030  0.6426  0.3441 -1.2609
 6451SOL    HW230987   1.369   0.423  16.112  0.5252 -0.3397  0.4682
 6452SOL     OW30988   1.778   1.099   4.480  0.2413  0.1519  0.2790
 6452SOL    HW130989   1.769   1.004   4.490 -0.3794  0.2186  0.3411
 6452SOL    HW230990   1.690   1.115   4.446  0.3850 -1.6733 -0.9574
 6453SOL     OW30991   4.060   1.357   8.090 -0.5174  0.3414 -0.2040
 6453SOL    HW130992   4.132   1.421   8.091 -1.5114  1.3794  3.5411
 6453SOL    HW230993   3.986   1.412   8.067 -0.1133  0.6111 -0.8664
 6454SOL     OW30994   4.021   0.174   7.442 -0.2198  0.1719  0.1064
 6454SOL    HW130995   4.009   0.266   7.465  2.1586  0.3028  0.8016
 6454SOL    HW230996   3.982   0.127   7.515 -0.4425 -0.0048 -0.1241
 6455SOL     OW30997   4.088   2.710   7.085  0.3536 -0.2777 -0.5649
 6455SOL    HW130998   4.168   2.681   7.041 -0.6382 -3.0100 -0.5618
 6455SOL    HW230999   4.103   2.695   7.178 -0.9017  3.8097  0.2925
 6456SOL     OW31000   3.380   3.524  10.964 -0.5218 -0.1657 -0.3859
 6456SOL    HW131001   3.469   3.550  10.938  0.4302  1.9237  5.0310
 6456SOL    HW231002   3.397   3.452  11.025  0.8343  1.3386  1.0058
 6457SOL     OW31003   1.200   2.561   4.579  0.5983 -0.3198  0.0545
 6457SOL    HW131004   1.202   2.656   4.583 -0.9084 -0.2376 -1.5235
 6457SOL    HW231005   1.147   2.546   4.658 -0.3375  0.5190 -0.4172
 6458SOL     OW31006   3.946   1.759  15.502 -0.1269 -0.0029 -0.3361
 6458SOL    HW131007   3.978   1.716  15.423  0.6165  0.3178 -0.2150
 6458SOL    HW231008   3.903   1.686  15.546  1.8368 -0.2878  1.1524
 6459SOL     OW31009   4.300   2.798  11.595 -0.0632  0.1573  0.0772
 6459SOL    HW131010   4.379   2.757  11.628  0.8080  0.8818 -1.1296
 6459SOL    HW231011   4.327   2.820  11.506 -1.1520  2.2329  0.2514
 6460SOL     OW31012   3.530   3.830   5.747 -0.0979 -0.2093 -0.2302
 6460SOL    HW131013   3.612   3.798   5.709 -1.1147 -0.4133 -2.2791
 6460SOL    HW231014   3.475   3.752   5.757 -1.9548  1.1387  0.1041
 6461SOL     OW31015   2.502   4.227  15.065 -0.0449 -0.4508  0.0818
 6461SOL    HW131016   2.555   4.199  14.991  0.3740  1.1203 -0.2151
 6461SOL    HW231017   2.522   4.160  15.131  0.9521 -1.2087 -0.9931
 6462SOL     OW31018   4.648   2.812  12.559 -0.2328  0.5083 -0.2180
 6462SOL    HW131019   4.621   2.775  12.643 -0.5822 -1.0654 -1.0286
 6462SOL    HW231020   4.620   2.902  12.572  1.0130  0.6346  1.5742
 6463SOL     OW31021   4.450   0.732   1.186  0.2826  0.0247 -0.1570
 6463SOL    HW131022   4.455   0.638   1.204 -1.3717  0.1289  0.8769
 6463SOL    HW231023   4.484   0.776   1.264  0.1877  0.4655 -0.3660
 6464SOL     OW31024   2.145   2.742   2.473  0.2025  0.0730 -0.0229
 6464SOL    HW131025   2.230   2.760   2.512  1.1345 -2.1669 -1.0161
 6464SOL    HW231026   2.115   2.677   2.537  1.5736 -1.0752 -0.5381
 6465SOL     OW31027   3.668   0.678   6.140 -0.2678 -0.1329  0.2196
 6465SOL    HW131028   3.659   0.629   6.222  1.1890  0.3012  0.6474
 6465SOL    HW231029   3.625   0.759   6.165 -0.3458 -0.7838  2.2158
 6466SOL     OW31030   4.200   4.013   7.162  0.1730  0.1543 -0.2360
 6466SOL    HW131031   4.171   3.995   7.252 -0.0446 -1.0981 -0.5643
 6466SOL    HW231032   4.138   4.085   7.147 -0.0334  0.2201  0.9466
 6467SOL     OW31033   3.623   2.904  16.318  0.0344 -0.2971  0.0436
 6467SOL    HW131034   3.543   2.927  16.271  0.1563  1.7992  0.8846
 6467SOL    HW231035   3.590   2.914  16.407  0.2844  3.2806 -0.2883
 6468SOL     OW31036   2.885   0.674   4.774  0.3160 -0.1047 -0.6774
 6468SOL    HW131037   2.844   0.684   4.688 -0.3799  0.1532 -0.3184
 6468SOL    HW231038   2.970   0.717   4.761 -0.2829  1.8821  1.8971
 6469SOL     OW31039   1.425   2.483   4.876 -0.0558 -0.1994 -0.2747
 6469SOL    HW131040   1.519   2.465   4.873  0.9311  4.5211  1.6999
 6469SOL    HW231041   1.404   2.574   4.855  1.7287 -0.1742 -1.9644
 6470SOL     OW31042   0.437   2.994   6.918 -0.0278 -0.0361 -0.2958
 6470SOL    HW131043   0.422   2.986   7.012  1.8556 -0.3215 -0.0239
 6470SOL    HW231044   0.530   2.971   6.923  0.5211  2.2306 -0.1480
 6471SOL     OW31045   2.259   2.323   8.448  0.1630 -0.0130 -0.2844
 6471SOL    HW131046   2.171   2.315   8.484  0.4841  2.0251  0.9778
 6471SOL    HW231047   2.285   2.415   8.449 -0.0576  0.0459  0.0390
 6472SOL     OW31048   0.623   0.626   1.789  0.3421 -0.2475  0.0950
 6472SOL    HW131049   0.674   0.553   1.753 -1.7613 -1.7292  0.1448
 6472SOL    HW231050   0.535   0.614   1.755 -0.0332  0.5953  0.7751
 6473SOL     OW31051   1.202   2.929   6.939  0.2320 -0.4346 -0.3519
 6473SOL    HW131052   1.142   2.854   6.930 -1.4269  0.7709  0.6887
 6473SOL    HW231053   1.166   2.990   6.874  0.1828  1.0479  1.0611
 6474SOL     OW31054   3.650   2.254   8.711  0.2378  0.8654 -0.9419
 6474SOL    HW131055   3.651   2.318   8.782  0.2327  0.0859 -0.2322
 6474SOL    HW231056   3.729   2.199   8.710  0.9375  1.8155  1.1617
 6475SOL     OW31057   2.379   1.238   8.931  0.2173 -0.2811  0.2471
 6475SOL    HW131058   2.443   1.309   8.934 -2.0000  1.7526 -0.4070
 6475SOL    HW231059   2.429   1.156   8.934 -0.8867 -0.9556  0.1825
 6476SOL     OW31060   4.147   1.824   2.001  0.0104 -0.1207  0.9702
 6476SOL    HW131061   4.225   1.854   2.046  1.3630 -2.7349  0.3637
 6476SOL    HW231062   4.068   1.836   2.054  0.4027  1.5747  1.1653
 6477SOL     OW31063   1.949   0.210   7.803 -0.6886 -0.0361 -0.2868
 6477SOL    HW131064   2.026   0.202   7.859 -1.0194 -0.5429  0.0941
 6477SOL    HW231065   1.911   0.122   7.809  0.9198 -0.6285  1.0705
 6478SOL     OW31066   3.168   0.146  11.400 -0.1843  0.6917  0.4949
 6478SOL    HW131067   3.230   0.214  11.428 -0.8248  0.8193  1.6329
 6478SOL    HW231068   3.153   0.110  11.488  0.0134  2.2258  1.1553
 6479SOL     OW31069   2.550   2.385   2.223 -0.5774 -0.0524 -0.0477
 6479SOL    HW131070   2.610   2.335   2.167 -2.2299  0.1516 -1.9945
 6479SOL    HW231071   2.538   2.463   2.170  1.5321  0.7247  0.6129
 6480SOL     OW31072   0.212   4.696   1.830  0.0722  0.3642 -0.3448
 6480SOL    HW131073   0.119   4.682   1.848  0.2995 -1.7469 -0.8732
 6480SOL    HW231074   0.240   0.031   1.892  1.8472  0.9731 -1.8155
 6481SOL     OW31075   3.014   1.800  11.500  0.2061 -0.3774 -0.6220
 6481SOL    HW131076   3.066   1.840  11.570  0.8313 -2.4775  0.1093
 6481SOL    HW231077   3.014   1.707  11.519 -1.9296 -0.4426 -0.9130
 6482SOL     OW31078   4.523   4.310  13.514  0.6934 -0.0138 -0.0030
 6482SOL    HW131079   4.458   4.269  13.457  0.6066 -0.7771  0.6494
 6482SOL    HW231080   4.494   4.276  13.598 -0.5922  2.3719  0.5112
 6483SOL     OW31081   3.720   1.680   4.953  0.0226  0.4186  0.1101
 6483SOL    HW131082   3.702   1.771   4.978  0.2616  0.7894 -1.0250
 6483SOL    HW231083   3.720   1.635   5.037  0.8955  0.3039  0.0430
 6484SOL     OW31084   4.330   2.730   8.617 -0.4885 -0.1494 -0.7549
 6484SOL    HW131085   4.382   2.681   8.554 -3.0828 -2.6319 -1.0061
 6484SOL    HW231086   4.283   2.653   8.649  0.3273  0.2101  1.2855
 6485SOL     OW31087   4.280   2.851  15.863 -0.1555 -0.1263  0.0876
 6485SOL    HW131088   4.212   2.832  15.798  0.0570  0.5841 -0.3416
 6485SOL    HW231089   4.349   2.804  15.816 -0.0021  1.0138 -0.8245
 6486SOL     OW31090   3.433   3.345   5.576  0.0881  0.0422  0.0766
 6486SOL    HW131091   3.379   3.424   5.582 -0.9068 -0.5381 -1.1613
 6486SOL    HW231092   3.404   3.294   5.651  1.7301  0.9794  1.3360
 6487SOL     OW31093   3.498   3.968   6.208  0.1188  0.0386 -0.4597
 6487SOL    HW131094   3.468   3.881   6.234 -0.4990  0.6743  0.9163
 6487SOL    HW231095   3.529   3.950   6.119 -1.5916  3.2169 -1.6983
 6488SOL     OW31096   0.797   1.546   8.672  0.0567  0.4763  0.9560
 6488SOL    HW131097   0.728   1.586   8.725 -2.1424  0.6177 -1.9488
 6488SOL    HW231098   0.835   1.477   8.726  0.8359  1.3345  1.5039
 6489SOL     OW31099   0.743   1.094   3.270  0.3992  0.2471  0.1550
 6489SOL    HW131100   0.765   1.056   3.355 -0.8024  0.0767  0.3834
 6489SOL    HW231101   0.810   1.052   3.216  0.1532 -1.0288  0.8523
 6490SOL     OW31102   1.153   3.083   6.694  0.2990  0.7621  0.3089
 6490SOL    HW131103   1.148   2.998   6.650 -1.2960  1.4009 -0.7487
 6490SOL    HW231104   1.212   3.131   6.637 -0.1706  1.7808  0.6910
 6491SOL     OW31105   2.021   1.644  15.420 -0.5852  0.2086 -0.1080
 6491SOL    HW131106   2.019   1.738  15.439 -0.8172 -0.1927  1.8348
 6491SOL    HW231107   1.936   1.613  15.452  0.3177 -0.2209  1.8784
 6492SOL     OW31108   3.547   1.393  13.382 -0.4471  0.0911 -0.2126
 6492SOL    HW131109   3.566   1.367  13.292  2.1379 -0.3844  0.4478
 6492SOL    HW231110   3.627   1.392  13.435 -1.2321 -2.1669  0.9519
 6493SOL     OW31111   0.382   1.388   4.731 -0.4390 -0.0159 -0.0499
 6493SOL    HW131112   0.327   1.437   4.793  0.1253  0.3217  0.1857
 6493SOL    HW231113   0.334   1.311   4.701  0.3915  0.3449 -2.2955
 6494SOL     OW31114   2.911   0.195   9.652  0.2993 -0.3525 -0.2914
 6494SOL    HW131115   2.957   0.226   9.575 -0.5988 -1.5433 -1.3225
 6494SOL    HW231116   2.972   0.205   9.725 -0.3159 -0.3051  0.2226
 6495SOL     OW31117   1.265   1.688  15.590 -0.5204  0.7609  0.3922
 6495SOL    HW131118   1.206   1.740  15.534 -2.2698 -1.2085  0.3899
 6495SOL    HW231119   1.324   1.653  15.524 -0.8924 -0.0175  0.4783
 6496SOL     OW31120   4.298   0.003   8.181  0.0327  0.1778  0.2145
 6496SOL    HW131121   4.288   4.695   8.095  1.5878 -0.2619  0.2420
 6496SOL    HW231122   4.391   4.712   8.182  0.2676  1.0154 -1.4630
 6497SOL     OW31123   4.150   1.905  17.059 -0.0191  0.0632 -0.2666
 6497SOL    HW131124   4.197   1.988  17.052 -0.0717  0.1498  0.3693
 6497SOL    HW231125   4.194   1.847  16.997  2.0413  1.0701  0.2319
 6498SOL     OW31126   1.712   4.028   7.989  0.2386  0.5524 -0.0017
 6498SOL    HW131127   1.682   4.115   8.018  0.2930  0.3917  0.5366
 6498SOL    HW231128   1.644   4.005   7.925  0.8754  1.6166 -1.0488
 6499SOL     OW31129   1.284   2.271   2.050 -0.4817  0.5452 -0.0916
 6499SOL    HW131130   1.264   2.243   1.961  2.9061  2.0510 -1.3234
 6499SOL    HW231131   1.379   2.262   2.059 -0.3168 -0.0251 -2.3250
 6500SOL     OW31132   1.894   1.052  12.761  0.4162 -0.8685  0.1270
 6500SOL    HW131133   1.932   0.978  12.808  2.0790 -0.4278 -0.5185
 6500SOL    HW231134   1.851   1.092  12.837  0.9800  0.8518 -0.4647
 6501SOL     OW31135   4.300   0.408   7.463 -0.7694 -0.0957  0.3531
 6501SOL    HW131136   4.288   0.384   7.371  0.2266  2.5647 -0.4586
 6501SOL    HW231137   4.257   0.492   7.477  1.3183  0.8214  1.3396
 6502SOL     OW31138   2.739   2.951   1.965 -0.3176  0.0660 -0.2983
 6502SOL    HW131139   2.774   3.033   1.929  2.2026 -0.0703  1.8869
 6502SOL    HW231140   2.697   2.980   2.046 -0.1822  2.4174 -1.0562
 6503SOL     OW31141   4.263   1.524   1.534  0.6395  0.3165 -0.0612
 6503SOL    HW131142   4.236   1.615   1.521  0.8660  0.3553 -0.2484
 6503SOL    HW231143   4.329   1.523   1.603 -0.9386  0.3674  1.4655
 6504SOL     OW31144   3.115   4.094   7.965  0.0910 -0.3308 -0.2756
 6504SOL    HW131145   3.132   4.009   8.006 -0.7666 -0.7758 -0.8543
 6504SOL    HW231146   3.052   4.131   8.027  0.5044 -1.1428  0.6418
 6505SOL     OW31147   2.460   0.600   7.409 -0.1389 -0.0960  0.1439
 6505SOL    HW131148   2.394   0.564   7.350 -0.1557 -1.3114  0.9029
 6505SOL    HW231149   2.446   0.551   7.490  2.4196 -2.3870 -0.7868
 6506SOL     OW31150   2.676   3.806   3.156 -0.2278 -0.2787  0.5099
 6506SOL    HW131151   2.624   3.886   3.143 -0.1093 -0.1467  0.8411
 6506SOL    HW231152   2.623   3.740   3.112  1.7476 -2.5399  1.4912
 6507SOL     OW31153   2.149   0.268   4.976 -0.9358  0.5850  0.3589
 6507SOL    HW131154   2.094   0.215   5.032  0.6096 -1.2560  0.1302
 6507SOL    HW231155   2.237   0.263   5.014 -0.1081  0.9214 -1.4788
 6508SOL     OW31156   1.153   0.034  15.824 -0.0756  0.2700 -0.4185
 6508SOL    HW131157   1.204   0.082  15.889  0.8665  0.8960 -1.6312
 6508SOL    HW231158   1.135   4.685  15.872  1.1066  0.7786  0.8816
 6509SOL     OW31159   0.576   2.156  15.350 -0.2953  0.2577 -0.1865
 6509SOL    HW131160   0.659   2.180  15.391 -0.9617  1.3150  0.5497
 6509SOL    HW231161   0.514   2.209  15.400 -1.5928 -0.9576 -0.5259
 6510SOL     OW31162   3.594   4.095  14.600 -0.6527  0.5191  0.4760
 6510SOL    HW131163   3.569   4.137  14.518  0.4413 -0.7936 -0.5212
 6510SOL    HW231164   3.687   4.083  14.581 -0.2901  0.3709  2.3882
 6511SOL     OW31165   2.498   4.456   9.117  0.2261 -0.6624  0.1460
 6511SOL    HW131166   2.525   4.428   9.205  1.8487 -0.4499 -0.2866
 6511SOL    HW231167   2.567   4.519   9.096  0.6733 -0.4011  2.4441
 6512SOL     OW31168   0.596   3.845   6.744 -0.2821 -0.7478 -0.3795
 6512SOL    HW131169   0.689   3.833   6.763 -0.0791 -0.4386 -1.1647
 6512SOL    HW231170   0.563   3.855   6.833  1.3957  1.5175 -0.0170
 6513SOL     OW31171   1.682   1.463   6.634  0.2059  0.1489 -0.0329
 6513SOL    HW131172   1.591   1.435   6.628 -0.1734  1.4049 -0.0062
 6513SOL    HW231173   1.734   1.391   6.597  0.7250  0.3325  0.3259
 6514SOL     OW31174   1.108   1.818   4.083 -0.2798  0.7821  0.1026
 6514SOL    HW131175   1.187   1.773   4.053 -0.0978 -0.3938  2.3376
 6514SOL    HW231176   1.066   1.745   4.130  0.9115  0.9126  1.3706
 6515SOL     OW31177   3.976   3.066   6.397 -0.5583  0.2653  0.2788
 6515SOL    HW131178   4.011   3.146   6.357  1.5091 -0.9837 -0.3856
 6515SOL    HW231179   3.991   3.080   6.490 -1.5184 -0.2979  0.5112
 6516SOL     OW31180   2.564   2.560   0.482  0.0592 -0.1092  0.7529
 6516SOL    HW131181   2.595   2.568   0.572 -0.5511 -1.6413  1.1058
 6516SOL    HW231182   2.559   2.650   0.451 -2.0097  0.5119  2.9109
 6517SOL     OW31183   2.442   3.036  13.605  0.4558  0.2190 -0.2724
 6517SOL    HW131184   2.451   3.123  13.645 -1.8302  0.3143  0.0280
 6517SOL    HW231185   2.519   2.994  13.645 -0.0096 -1.6887 -1.4049
 6518SOL     OW31186   2.089   3.330   4.139 -0.0530  0.1335 -0.1323
 6518SOL    HW131187   2.093   3.305   4.047  0.5313 -0.9441  0.1759
 6518SOL    HW231188   2.089   3.243   4.179 -2.9192  1.2924  2.2938
 6519SOL     OW31189   2.742   2.050   0.691  0.0822 -0.0103  0.4810
 6519SOL    HW131190   2.814   1.988   0.700  1.3973  1.4295 -0.1261
 6519SOL    HW231191   2.710   2.025   0.605  2.6995 -0.1867 -0.4394
 6520SOL     OW31192   2.556   1.143   7.884  0.2012 -0.1109 -0.0692
 6520SOL    HW131193   2.523   1.082   7.951  0.2634 -0.5693 -0.4517
 6520SOL    HW231194   2.535   1.088   7.809  0.7270  0.0227 -0.3108
 6521SOL     OW31195   2.663   3.331   9.056 -1.0663  0.7088  0.2579
 6521SOL    HW131196   2.745   3.345   9.103 -1.3153 -0.8375  1.1558
 6521SOL    HW231197   2.614   3.267   9.109 -2.1522  0.3715 -1.1622
 6522SOL     OW31198   3.400   4.462   6.901 -0.6903  0.6722  0.1747
 6522SOL    HW131199   3.305   4.472   6.901 -0.3058  4.1747 -1.5766
 6522SOL    HW231200   3.419   4.418   6.984  0.8173  2.0058  0.5235
 6523SOL     OW31201   3.126   4.348   6.140  0.2132 -0.5373  0.2557
 6523SOL    HW131202   3.157   4.391   6.060  2.4870 -1.3658  0.6972
 6523SOL    HW231203   3.203   4.294   6.158  1.2764  1.5682  2.0278
 6524SOL     OW31204   2.462   3.762  16.145  0.0548 -0.5750  0.6018
 6524SOL    HW131205   2.522   3.759  16.219 -0.6149  0.2049  1.1722
 6524SOL    HW231206   2.440   3.669  16.136  4.6449 -1.8521  2.5843
 6525SOL     OW31207   3.756   1.438  10.872 -0.5412 -0.0868  0.0753
 6525SOL    HW131208   3.736   1.496  10.946  0.6099 -0.1846  0.4625
 6525SOL    HW231209   3.840   1.397  10.894 -0.9039 -0.8286  0.1006
 6526SOL     OW31210   0.257   1.202   8.869 -0.1561 -0.2474  0.2026
 6526SOL    HW131211   0.220   1.170   8.952  0.0614 -1.5405 -0.2066
 6526SOL    HW231212   0.346   1.230   8.891 -0.9176  2.5583 -0.2616
 6527SOL     OW31213   1.753   4.602   6.785  0.0987  0.2492 -0.5924
 6527SOL    HW131214   1.833   4.610   6.838  0.4770 -2.0741 -0.7862
 6527SOL    HW231215   1.767   4.513   6.754 -0.0908  0.8383 -2.3261
 6528SOL     OW31216   3.494   0.760   0.856  0.4457 -0.9340 -0.8035
 6528SOL    HW131217   3.558   0.831   0.867 -2.0586  1.1538  0.2991
 6528SOL    HW231218   3.476   0.737   0.947  1.0112  0.1800 -0.4174
 6529SOL     OW31219   2.377   1.288   1.373  0.5746 -0.2208 -0.0878
 6529SOL    HW131220   2.363   1.194   1.368 -0.3781 -0.0748 -0.2172
 6529SOL    HW231221   2.472   1.296   1.376  0.5945 -0.8340  0.8100
 6530SOL     OW31222   3.743   2.862  16.647  0.0881 -0.8460  0.8468
 6530SOL    HW131223   3.819   2.803  16.651 -0.2850 -1.4723 -1.2596
 6530SOL    HW231224   3.782   2.941  16.611 -2.0426 -0.8912 -1.5416
 6531SOL     OW31225   0.301   2.019   3.070  0.3685 -0.7010 -0.1658
 6531SOL    HW131226   0.320   2.109   3.096 -5.0955  0.6290 -0.7175
 6531SOL    HW231227   0.290   2.025   2.975 -2.1197  1.9577  0.2929
 6532SOL     OW31228   1.418   0.962   5.054  0.0911  0.0683 -0.1863
 6532SOL    HW131229   1.336   1.001   5.085  0.7270  0.1613  1.4162
 6532SOL    HW231230   1.445   1.023   4.986  1.1137 -0.8814 -0.6159
 6533SOL     OW31231   4.079   3.411   8.702 -0.1321  0.1634 -0.1636
 6533SOL    HW131232   4.168   3.415   8.665  0.5618 -0.2020  1.4482
 6533SOL    HW231233   4.037   3.337   8.660 -0.5679  0.9444 -1.1225
 6534SOL     OW31234   3.341   1.722  10.339  0.2581 -1.3108 -0.1835
 6534SOL    HW131235   3.420   1.728  10.285 -0.1621  0.6830 -0.5777
 6534SOL    HW231236   3.270   1.739  10.278 -0.7215 -2.1949  0.7245
 6535SOL     OW31237   2.078   1.144   6.527 -0.1818  0.5850 -0.6265
 6535SOL    HW131238   2.133   1.135   6.449 -3.6127  2.0846 -3.1873
 6535SOL    HW231239   2.119   1.087   6.592 -0.5880 -1.9034 -2.5743
 6536SOL     OW31240   0.131   4.042  10.214 -0.1071  0.2303 -0.4335
 6536SOL    HW131241   0.179   4.045  10.131 -0.9987 -0.9751 -1.0025
 6536SOL    HW231242   0.074   3.969  10.190  0.2893 -1.0353  2.4681
 6537SOL     OW31243   4.415   1.203   4.376  0.7403 -0.4437  0.6771
 6537SOL    HW131244   4.331   1.188   4.331 -0.4102  1.5206  2.1460
 6537SOL    HW231245   4.384   1.257   4.449 -1.9390 -1.2956  0.1975
 6538SOL     OW31246   4.071   0.604   7.420  0.3173  0.0365  0.3081
 6538SOL    HW131247   4.020   0.561   7.488  1.2784 -1.1783  0.2699
 6538SOL    HW231248   4.049   0.692   7.450  0.3363 -0.0648  0.6254
 6539SOL     OW31249   4.201   4.000  11.541  0.0276 -0.2273 -0.4526
 6539SOL    HW131250   4.200   4.039  11.629 -0.9410  1.8794 -1.3861
 6539SOL    HW231251   4.244   3.918  11.566 -0.2401 -0.0262  0.6600
 6540SOL     OW31252   4.486   1.396   8.218 -0.2170  0.0248 -0.6117
 6540SOL    HW131253   4.418   1.456   8.188 -0.1884  0.6865  0.6432
 6540SOL    HW231254   4.443   1.317   8.251 -0.2492 -0.4698 -1.8359
 6541SOL     OW31255   0.908   2.363  15.103  0.3078 -0.1901 -0.4548
 6541SOL    HW131256   0.887   2.440  15.049 -0.7683  0.5647  1.0376
 6541SOL    HW231257   0.823   2.337  15.137  0.3771  0.3223  0.1092
 6542SOL     OW31258   1.066   1.708  11.669  0.5626 -0.6924 -0.1633
 6542SOL    HW131259   1.113   1.723  11.587 -2.1608 -1.4847 -1.8738
 6542SOL    HW231260   1.118   1.632  11.694  1.7768  0.3440  0.4141
 6543SOL     OW31261   1.237   2.692   1.361  0.3461 -0.5246 -0.7849
 6543SOL    HW131262   1.143   2.704   1.350  0.4296  1.5595  0.8133
 6543SOL    HW231263   1.262   2.742   1.439 -1.6855 -1.0076  0.1731
 6544SOL     OW31264   3.448   2.436   8.286  0.2968 -0.0393  0.0847
 6544SOL    HW131265   3.513   2.394   8.343  0.0691  2.8471  2.4653
 6544SOL    HW231266   3.503   2.474   8.217  0.8597 -0.8009  0.1163
 6545SOL     OW31267   3.876   1.711   8.598  0.0158 -0.6574 -0.2592
 6545SOL    HW131268   3.937   1.645   8.565  0.8769 -0.4383  0.9333
 6545SOL    HW231269   3.826   1.737   8.520 -2.2767 -0.0469  1.3977
 6546SOL     OW31270   3.520   1.153   6.016  0.2011  0.2611  0.2255
 6546SOL    HW131271   3.592   1.207   6.047  0.5572  0.4054 -0.8495
 6546SOL    HW231272   3.503   1.194   5.931 -1.1423 -0.3232  0.2065
 6547SOL     OW31273   2.595   2.526   6.273  0.0197 -0.1106 -0.1696
 6547SOL    HW131274   2.538   2.562   6.341 -0.0535  0.6076 -0.6148
 6547SOL    HW231275   2.535   2.485   6.211  1.0533  0.2491 -1.4115
 6548SOL     OW31276   3.699   2.316  17.279  0.3320  0.5075  0.4625
 6548SOL    HW131277   3.693   2.376  17.204  0.2342  2.8333  2.3218
 6548SOL    HW231278   3.781   2.348  17.317 -0.9603  3.0306  1.1746
 6549SOL     OW31279   0.272   1.548  11.782  0.1120 -0.4439  0.0763
 6549SOL    HW131280   0.310   1.498  11.855 -1.9816  0.1131  1.5453
 6549SOL    HW231281   0.290   1.492  11.706  0.1158 -0.6257  0.2106
 6550SOL     OW31282   1.090   0.326   9.445 -0.0489 -0.4239 -0.1404
 6550SOL    HW131283   1.158   0.307   9.510 -0.3198 -3.0570 -0.6210
 6550SOL    HW231284   1.086   0.421   9.438 -0.7139 -0.3719  0.9763
 6551SOL     OW31285   4.582   4.020   9.014  0.5391 -0.3657 -0.0991
 6551SOL    HW131286   4.532   4.049   8.937 -1.9448 -0.2194  1.5831
 6551SOL    HW231287   4.577   4.098   9.068 -0.1928  0.0115 -0.7098
 6552SOL     OW31288   3.412   1.977  12.940 -0.0912 -0.4021  0.3048
 6552SOL    HW131289   3.392   2.067  12.967  3.8825  0.3150  0.8609
 6552SOL    HW231290   3.447   1.997  12.853 -0.2091  0.7933  0.5327
 6553SOL     OW31291   0.642   0.637  17.267 -0.6340 -0.2689 -0.1723
 6553SOL    HW131292   0.552   0.655  17.238 -0.4010 -0.3339 -0.9434
 6553SOL    HW231293   0.641   0.597  17.353 -2.4395 -1.4731 -0.7534
 6554SOL     OW31294   3.088   4.410   0.900  0.4661 -0.1901  0.1431
 6554SOL    HW131295   3.112   4.432   0.990 -3.2497  0.9098  0.8405
 6554SOL    HW231296   3.124   4.322   0.888 -0.9826 -0.2155 -3.9626
 6555SOL     OW31297   2.589   3.922  11.727  0.5827  0.0198  0.2265
 6555SOL    HW131298   2.534   3.996  11.754  0.7573  0.6859 -1.2314
 6555SOL    HW231299   2.655   3.981  11.690 -0.3686  1.8894  1.4913
 6556SOL     OW31300   0.058   2.737   3.194 -0.0251 -0.0253 -0.3665
 6556SOL    HW131301   0.141   2.749   3.147  0.8584  0.7360  1.4160
 6556SOL    HW231302   0.038   2.653   3.151  0.3926  0.1909 -0.9899
 6557SOL     OW31303   0.893   3.334   3.023  0.8896 -0.0930  0.2935
 6557SOL    HW131304   0.916   3.424   3.000 -2.0626  0.8235  0.9353
 6557SOL    HW231305   0.800   3.357   3.023  0.3817 -2.1030 -0.3320
 6558SOL     OW31306   0.056   3.473   2.918  0.2624 -0.4462  0.2300
 6558SOL    HW131307   4.727   3.448   2.848 -0.6189  1.7189  0.2304
 6558SOL    HW231308   0.130   3.482   2.858 -1.4434  0.2464 -1.7728
 6559SOL     OW31309   1.977   2.287  16.539 -0.5098  0.8578 -0.3515
 6559SOL    HW131310   2.023   2.230  16.601 -1.1087  0.4855 -0.2506
 6559SOL    HW231311   1.986   2.227  16.465  0.3407 -1.4131  1.5751
 6560SOL     OW31312   3.943   0.794   1.514 -0.3391  0.0010 -0.1775
 6560SOL    HW131313   4.024   0.844   1.502 -1.5233  1.1126 -3.4875
 6560SOL    HW231314   3.911   0.836   1.594 -2.1483 -0.3854 -0.7033
 6561SOL     OW31315   3.553   3.548   2.923  0.0822 -0.2814  0.0620
 6561SOL    HW131316   3.551   3.455   2.946  0.7502 -0.3509 -0.1643
 6561SOL    HW231317   3.620   3.581   2.982  1.5287 -1.8210 -0.7014
 6562SOL     OW31318   2.334   2.337   2.398  0.3595  0.3414 -0.4789
 6562SOL    HW131319   2.356   2.423   2.435 -0.5264  0.4147 -0.1216
 6562SOL    HW231320   2.394   2.334   2.324  1.3481  0.1291  0.3249
 6563SOL     OW31321   2.056   0.246  14.261  0.8491 -0.4696 -0.3662
 6563SOL    HW131322   2.067   0.309  14.190 -0.8618  1.2600  0.9028
 6563SOL    HW231323   2.135   0.254  14.314 -0.2857 -0.2315  1.3198
 6564SOL     OW31324   0.438   0.752  12.364  0.7093 -0.0648  0.4114
 6564SOL    HW131325   0.430   0.777  12.272 -1.5207  0.0816  0.6380
 6564SOL    HW231326   0.479   0.832  12.397 -0.6511  0.6489  0.3681
 6565SOL     OW31327   4.393   1.587   8.535 -0.5407  0.5635 -0.3490
 6565SOL    HW131328   4.363   1.659   8.480  1.1763  0.1471 -1.8179
 6565SOL    HW231329   4.482   1.565   8.508 -0.0118  1.5322  0.6005
 6566SOL     OW31330   3.674   4.366   3.809 -0.5176 -1.0347 -0.6662
 6566SOL    HW131331   3.629   4.327   3.734 -0.7602 -0.4133 -0.8486
 6566SOL    HW231332   3.634   4.332   3.889  0.0494  1.0398  0.5260
 6567SOL     OW31333   1.488   3.632   9.331  0.1756  0.3272 -0.1475
 6567SOL    HW131334   1.538   3.578   9.270 -1.1909 -1.2019  0.0753
 6567SOL    HW231335   1.493   3.577   9.409  0.3976 -0.5262 -0.7691
 6568SOL     OW31336   0.030   4.366   9.997 -0.4648 -0.3503 -0.1215
 6568SOL    HW131337   0.031   4.273  10.020  2.5450 -0.2248  0.2779
 6568SOL    HW231338   0.123   4.385   9.983  0.1617 -1.0438  3.1756
 6569SOL     OW31339   1.325   1.615   1.464  0.4288  0.4152  0.3582
 6569SOL    HW131340   1.346   1.653   1.378 -0.4302 -1.0662 -0.5135
 6569SOL    HW231341   1.232   1.636   1.472  0.9188  2.8383 -0.2065
 6570SOL     OW31342   4.699   2.048  15.647  0.0697 -0.5494  0.0559
 6570SOL    HW131343   4.638   2.095  15.704  0.3399  2.0146 -1.7492
 6570SOL    HW231344   4.710   1.964  15.691 -4.4627 -0.8224  0.6813
 6571SOL     OW31345   3.020   3.224   5.342 -0.6778  0.0895 -0.5329
 6571SOL    HW131346   3.105   3.263   5.320 -0.9967  0.4046 -1.2089
 6571SOL    HW231347   3.047   3.159   5.406  2.3162  0.8058 -1.0485
 6572SOL     OW31348   2.503   4.640   0.930  0.5071 -0.1279  0.6444
 6572SOL    HW131349   2.442   4.582   0.975 -0.6048 -0.6014 -1.4389
 6572SOL    HW231350   2.507   4.613   0.838  2.8367 -0.7338  0.9302
 6573SOL     OW31351   3.518   4.205  14.002 -0.1372  0.0072 -0.1072
 6573SOL    HW131352   3.550   4.256  14.077  2.0100 -1.8705  0.2277
 6573SOL    HW231353   3.425   4.193  14.022 -0.1814 -0.0117 -0.3288
 6574SOL     OW31354   3.850   1.183  10.184 -0.1322  0.1648 -0.2692
 6574SOL    HW131355   3.831   1.096  10.219 -0.7058  1.1508  1.8927
 6574SOL    HW231356   3.792   1.236  10.238  0.9092  2.0991 -1.0570
 6575SOL     OW31357   2.967   3.889   4.043 -0.5990 -0.0681 -0.2913
 6575SOL    HW131358   2.944   3.941   4.121  0.7093 -0.7154  0.5330
 6575SOL    HW231359   2.938   3.951   3.976 -1.6192  0.2834  0.4674
 6576SOL     OW31360   0.480   0.010   1.320  0.0101 -0.1324  0.9002
 6576SOL    HW131361   0.540   4.709   1.387  1.6365 -2.6564 -1.7683
 6576SOL    HW231362   0.400   0.011   1.372 -0.7458 -0.2405 -0.2752
 6577SOL     OW31363   2.312   0.206   7.640 -0.3058 -0.2138 -0.1944
 6577SOL    HW131364   2.390   0.162   7.671  0.4223  1.3890  0.2662
 6577SOL    HW231365   2.253   0.187   7.713 -1.0289  0.6950 -0.5433
 6578SOL     OW31366   3.726   3.400   4.439  0.1137 -0.2246 -0.7244
 6578SOL    HW131367   3.797   3.358   4.487  0.8632  0.0702 -1.5645
 6578SOL    HW231368   3.767   3.450   4.368  2.2476  0.3237  0.8870
 6579SOL     OW31369   1.752   4.014  16.904 -0.0445 -0.1881  0.0321
 6579SOL    HW131370   1.684   4.056  16.852  2.5245  1.6291 -1.8271
 6579SOL    HW231371   1.739   3.921  16.884 -3.8828  0.4320 -0.3523
 6580SOL     OW31372   2.889   4.488   3.775 -0.1099  0.0908 -0.4541
 6580SOL    HW131373   2.973   4.527   3.801  0.4980 -1.0782 -0.6526
 6580SOL    HW231374   2.907   4.401   3.739 -1.0344 -0.8266  1.3478
 6581SOL     OW31375   4.694   0.689  14.059 -0.0963 -0.0898 -0.4531
 6581SOL    HW131376   4.660   0.674  13.971 -1.8544  3.4571 -0.3610
 6581SOL    HW231377   0.022   0.759  14.035 -1.2370  1.2740  0.6875
 6582SOL     OW31378   1.007   3.872  10.637 -0.3504 -0.0319  0.0078
 6582SOL    HW131379   0.938   3.938  10.636  0.2890  0.6399 -0.8863
 6582SOL    HW231380   0.990   3.813  10.710  0.3906  0.4581  0.5825
 6583SOL     OW31381   4.105   4.066  13.497 -0.6988  0.6727 -0.1800
 6583SOL    HW131382   4.096   4.033  13.407 -0.8876  0.4600 -0.0829
 6583SOL    HW231383   4.158   3.994  13.531  0.6197  2.4948  1.6247
 6584SOL     OW31384   0.854   2.759   3.583 -0.0990  0.3152 -0.1864
 6584SOL    HW131385   0.772   2.736   3.628 -1.1651  0.9630 -1.8336
 6584SOL    HW231386   0.913   2.698   3.629  0.2296  2.1986  1.8947
 6585SOL     OW31387   2.705   3.561   0.670 -0.2804  0.0946  0.1086
 6585SOL    HW131388   2.711   3.469   0.697 -1.2664 -0.2362 -0.7662
 6585SOL    HW231389   2.631   3.550   0.610  0.4246  1.7833 -1.0504
 6586SOL     OW31390   0.256   3.243   5.663 -0.2533 -0.2658  0.3085
 6586SOL    HW131391   0.234   3.295   5.741  0.9041  0.0006  0.4504
 6586SOL    HW231392   0.351   3.249   5.676 -0.2821  2.1385 -0.6453
 6587SOL     OW31393   3.838   2.888   3.574  0.1776  0.2924 -0.4736
 6587SOL    HW131394   3.909   2.942   3.538 -0.1698 -0.2243 -1.9227
 6587SOL    HW231395   3.762   2.943   3.555 -0.4516  0.1447  1.5678
 6588SOL     OW31396   3.968   0.922   4.102  0.3949  0.2742 -0.3064
 6588SOL    HW131397   3.917   0.897   4.180  1.1121  0.7557  0.3185
 6588SOL    HW231398   4.035   0.980   4.137 -1.1605  1.7464  0.2700
 6589SOL     OW31399   3.439   2.731  10.068 -0.1793 -0.0540 -0.3351
 6589SOL    HW131400   3.480   2.770   9.991 -2.3330  2.2123 -0.3649
 6589SOL    HW231401   3.487   2.778  10.136  2.4685  0.5067 -2.5875
 6590SOL     OW31402   0.539   2.031   0.249  0.4819 -0.2754  0.3307
 6590SOL    HW131403   0.621   2.079   0.263  0.9290 -0.6201 -1.0900
 6590SOL    HW231404   0.512   2.063   0.163  2.4651 -0.0558 -0.2201
 6591SOL     OW31405   2.907   1.919   5.324 -0.7232  0.4203 -0.2708
 6591SOL    HW131406   2.906   1.841   5.380  1.5331 -0.5283 -1.5675
 6591SOL    HW231407   2.883   1.984   5.390  1.7110 -0.3528  1.3518
 6592SOL     OW31408   1.664   1.884   4.461 -0.4245 -0.1193  0.1191
 6592SOL    HW131409   1.672   1.958   4.400  0.5995  1.4629  2.1648
 6592SOL    HW231410   1.588   1.846   4.419 -1.2880  0.7686  0.8615
 6593SOL     OW31411   1.541   1.002   6.993  0.0923  0.4278 -0.1425
 6593SOL    HW131412   1.588   1.003   7.076 -2.3412 -0.5645  1.2609
 6593SOL    HW231413   1.497   1.087   6.991  0.0061  0.3751 -0.5543
 6594SOL     OW31414   3.665   0.694   4.943  0.2131  0.0135  0.2353
 6594SOL    HW131415   3.626   0.615   4.980 -0.0559  1.0354  2.1954
 6594SOL    HW231416   3.682   0.664   4.854  1.6565 -1.7740  1.1339
 6595SOL     OW31417   4.240   4.304   2.966 -0.0679  0.2695  0.4347
 6595SOL    HW131418   4.275   4.218   2.941  1.0835  0.3174  1.8823
 6595SOL    HW231419   4.321   4.355   2.964  1.0664 -1.4731  1.1315
 6596SOL     OW31420   3.445   0.101   5.323  0.4651 -0.0548  0.0090
 6596SOL    HW131421   3.479   0.014   5.303  1.2461  0.0256  0.9705
 6596SOL    HW231422   3.354   0.076   5.305 -0.2381  0.6976  2.4987
 6597SOL     OW31423   4.333   4.099   4.504 -0.3369 -0.3838  0.0395
 6597SOL    HW131424   4.375   4.109   4.419 -0.1387  2.3565  0.4598
 6597SOL    HW231425   4.329   4.004   4.513 -0.0362 -0.5830 -2.1131
 6598SOL     OW31426   3.648   3.865   7.674  0.5757  0.5514 -0.3180
 6598SOL    HW131427   3.633   3.786   7.725 -1.9973 -0.3805 -2.5190
 6598SOL    HW231428   3.618   3.837   7.587  2.7546  1.5026 -1.3733
 6599SOL     OW31429   2.959   3.741   2.066 -0.7996  0.2241  0.5746
 6599SOL    HW131430   3.033   3.684   2.088 -0.5241  1.5078  3.0412
 6599SOL    HW231431   2.887   3.678   2.063 -1.6188  1.1719  0.5630
 6600SOL     OW31432   0.329   3.606   3.536  0.1814  0.7125 -0.1791
 6600SOL    HW131433   0.247   3.572   3.571  1.1058  0.6552  1.9272
 6600SOL    HW231434   0.289   3.663   3.471  0.6283  1.7243  0.4183
 6601SOL     OW31435   1.611   1.651   2.394  0.2726 -0.1925 -0.3256
 6601SOL    HW131436   1.563   1.669   2.313  1.8360 -1.8539 -1.6086
 6601SOL    HW231437   1.671   1.580   2.371 -1.8826 -2.3241  0.5680
 6602SOL     OW31438   3.384   0.554   5.264 -0.3690 -0.1209  0.0929
 6602SOL    HW131439   3.331   0.476   5.281  0.0713 -1.2220 -3.4688
 6602SOL    HW231440   3.358   0.605   5.340  2.2539  0.0516  0.8808
 6603SOL     OW31441   1.403   4.728   8.031  0.2600  0.8427  0.3223
 6603SOL    HW131442   1.378   0.055   8.103 -2.7317 -0.4770  0.3643
 6603SOL    HW231443   1.322   0.003   7.980  1.6282  0.2623 -1.9070
 6604SOL     OW31444   0.101   3.383   6.551  0.7673 -0.9406 -0.2403
 6604SOL    HW131445   0.040   3.426   6.491  0.0697 -1.0967  0.3528
 6604SOL    HW231446   0.117   3.295   6.517  0.3124 -0.3205 -2.0788
 6605SOL     OW31447   1.863   2.913  13.117  0.1200  0.3081  0.0533
 6605SOL    HW131448   1.856   2.980  13.185 -2.1017 -0.1759  0.3029
 6605SOL    HW231449   1.891   2.965  13.042 -1.1313  0.2005 -0.4874
 6606SOL     OW31450   0.138   3.187   0.614 -0.2987  0.2571  0.6583
 6606SOL    HW131451   0.128   3.092   0.615 -1.6096  0.3695 -0.4807
 6606SOL    HW231452   0.226   3.195   0.651  0.3621 -1.8496 -0.4425
 6607SOL     OW31453   2.198   4.445   9.480  0.1755 -0.3515 -0.0130
 6607SOL    HW131454   2.138   4.505   9.434  0.2782 -1.1033 -1.1357
 6607SOL    HW231455   2.237   4.401   9.404  0.7392  0.5686 -0.2656
 6608SOL     OW31456   0.317   0.634  11.894  0.0730 -0.4151 -0.4567
 6608SOL    HW131457   0.302   0.713  11.944  0.4447 -0.7999  0.2625
 6608SOL    HW231458   0.412   0.642  11.885 -0.0823  0.4642 -1.2969
 6609SOL     OW31459   3.185   0.845   3.060 -0.5879  0.2310  0.2669
 6609SOL    HW131460   3.260   0.825   3.116 -2.7636  0.7186  3.3641
 6609SOL    HW231461   3.166   0.754   3.035  1.3252  0.0653 -0.5721
 6610SOL     OW31462   3.066   0.514   4.295  0.2553  0.2507 -0.8050
 6610SOL    HW131463   3.111   0.448   4.242  0.4910 -0.4115  0.2067
 6610SOL    HW231464   3.127   0.587   4.280  0.2623 -0.0016 -1.9698
 6611SOL     OW31465   2.771   2.731   1.832  0.4658 -0.2297 -0.1120
 6611SOL    HW131466   2.851   2.750   1.784  0.0391  0.5464 -0.5000
 6611SOL    HW231467   2.753   2.823   1.850  0.5772 -0.1980 -0.1638
 6612SOL     OW31468   4.405   1.693   0.715 -0.3742 -0.3814 -0.9566
 6612SOL    HW131469   4.389   1.717   0.624  0.8211 -1.9160 -1.5826
 6612SOL    HW231470   4.413   1.780   0.753 -1.9008  0.0832 -1.7227
 6613SOL     OW31471   3.586   3.953  14.837  0.6848  0.0384 -0.3524
 6613SOL    HW131472   3.661   3.895  14.849 -0.9024 -2.3435 -1.9381
 6613SOL    HW231473   3.603   4.000  14.756 -0.1796  1.9633  0.5967
 6614SOL     OW31474   2.370   0.220   5.081 -0.0877  0.1378  0.0328
 6614SOL    HW131475   2.429   0.287   5.048  1.7471 -2.3775 -1.7735
 6614SOL    HW231476   2.407   0.227   5.169  0.5045 -0.3407 -0.1834
 6615SOL     OW31477   0.274   1.028   5.236  0.0053 -0.0811  0.1858
 6615SOL    HW131478   0.252   1.021   5.328 -1.1948 -2.0214 -0.2527
 6615SOL    HW231479   0.203   0.977   5.198 -0.3656 -0.5159  1.4916
 6616SOL     OW31480   0.117   3.184   6.897 -0.2939 -0.6900 -0.1576
 6616SOL    HW131481   0.199   3.140   6.917 -0.1303  1.0681  3.0186
 6616SOL    HW231482   0.056   3.160   6.967  2.7770 -1.3310  2.3029
 6617SOL     OW31483   3.456   3.535  12.219 -0.2056 -0.5582 -0.4117
 6617SOL    HW131484   3.399   3.556  12.292 -0.4847 -0.2159 -0.7289
 6617SOL    HW231485   3.518   3.479  12.266  0.9443  1.2453  0.2043
 6618SOL     OW31486   2.661   1.881   3.543 -0.1488  0.4114 -0.0308
 6618SOL    HW131487   2.660   1.943   3.470 -0.3946 -1.2099 -1.4058
 6618SOL    HW231488   2.753   1.854   3.540 -0.6489 -1.0786 -2.6518
 6619SOL     OW31489   2.407   0.896   3.485  0.3031 -0.0002  0.0089
 6619SOL    HW131490   2.486   0.891   3.431  0.1918  2.9657 -0.4091
 6619SOL    HW231491   2.395   0.802   3.497 -1.5966  0.0549 -1.3343
 6620SOL     OW31492   1.295   0.912   2.125 -0.2823  0.4299  0.4571
 6620SOL    HW131493   1.265   0.847   2.189 -0.9888  0.6198  0.3198
 6620SOL    HW231494   1.286   0.847   2.055  0.2618  2.3946 -1.4344
 6621SOL     OW31495   4.644   4.646   3.647 -0.1709 -0.0771 -0.6266
 6621SOL    HW131496   4.559   4.670   3.611 -0.1418 -0.1589 -0.7490
 6621SOL    HW231497   4.627   4.613   3.736 -1.8202  0.2701 -0.8193
 6622SOL     OW31498   1.488   0.754  16.795  0.1083 -1.0674 -0.1100
 6622SOL    HW131499   1.415   0.809  16.766  0.5424 -1.2147 -1.4496
 6622SOL    HW231500   1.543   0.779  16.721  0.9980 -0.7849  0.6467
 6623SOL     OW31501   2.320   1.895  17.423 -0.1346  0.5181 -0.4246
 6623SOL    HW131502   2.238   1.929  17.457  1.0886  0.9008  2.1677
 6623SOL    HW231503   2.379   1.884  17.497 -0.1803  0.3025 -0.4207
 6624SOL     OW31504   1.839   3.487  13.365  0.5863  0.1801 -1.0834
 6624SOL    HW131505   1.782   3.510  13.439 -0.2476  1.5568 -2.1745
 6624SOL    HW231506   1.793   3.513  13.285 -0.1250  1.0115 -0.4029
 6625SOL     OW31507   2.941   1.462   9.707 -0.2476 -0.0827  1.0031
 6625SOL    HW131508   3.032   1.490   9.719 -0.1525  0.0893 -0.1242
 6625SOL    HW231509   2.946   1.398   9.779 -0.3384 -0.4856  0.6526
 6626SOL     OW31510   2.220   4.576   6.792  0.2992  0.3706  0.4513
 6626SOL    HW131511   2.175   4.578   6.707 -0.1466 -0.8154  0.6649
 6626SOL    HW231512   2.303   4.539   6.762  0.7057  1.6332 -0.0276
 6627SOL     OW31513   0.945   3.969   5.611  0.5286  0.4643  1.0860
 6627SOL    HW131514   0.965   3.904   5.679  1.3435 -0.7842 -0.3510
 6627SOL    HW231515   0.934   4.043   5.670  0.5017  1.3032  0.0155
 6628SOL     OW31516   3.751   3.807   0.951  0.0711 -0.2446 -0.6917
 6628SOL    HW131517   3.813   3.804   0.879  0.4318  0.0438 -0.3922
 6628SOL    HW231518   3.685   3.874   0.930 -0.3192 -0.6889 -0.8707
 6629SOL     OW31519   1.433   3.413   3.932  0.8354 -0.5569 -0.0973
 6629SOL    HW131520   1.393   3.467   4.000 -1.3011 -1.9198 -0.2860
 6629SOL    HW231521   1.468   3.480   3.873 -0.7405 -0.4568 -0.9343
 6630SOL     OW31522   3.539   1.584   4.009  0.1515  0.3836 -0.1685
 6630SOL    HW131523   3.628   1.567   3.976  0.1772  2.4840 -1.2224
 6630SOL    HW231524   3.519   1.491   4.019 -0.6817  0.7152  1.2062
 6631SOL     OW31525   0.446   0.950   1.612 -0.1157  1.2387  0.1285
 6631SOL    HW131526   0.518   0.928   1.672 -1.5648 -1.6252  0.8013
 6631SOL    HW231527   0.486   1.011   1.550  0.8448  0.0175 -0.4528
 6632SOL     OW31528   0.364   4.219   8.448 -0.1720 -0.5927 -0.2859
 6632SOL    HW131529   0.323   4.262   8.523  1.3178  0.1867  0.0867
 6632SOL    HW231530   0.365   4.129   8.481 -0.5870  0.2853  2.1405
 6633SOL     OW31531   3.605   3.363  12.339  0.0776  0.7660 -0.0989
 6633SOL    HW131532   3.653   3.421  12.398  0.4786  0.9237 -0.5879
 6633SOL    HW231533   3.665   3.289  12.329 -0.1924  0.9778 -3.3302
 6634SOL     OW31534   0.771   0.266   6.835  0.6173  0.3303 -0.1215
 6634SOL    HW131535   0.865   0.250   6.847  0.4561 -0.1505  0.4835
 6634SOL    HW231536   0.763   0.258   6.740  0.4819 -1.7125  0.0636
 6635SOL     OW31537   1.083   0.069  12.167 -0.3646  0.5460  0.3881
 6635SOL    HW131538   1.151   0.075  12.234  0.8128  1.0680 -0.8441
 6635SOL    HW231539   1.031   4.726  12.193  0.7761 -0.0275  1.0194
 6636SOL     OW31540   2.327   0.856   2.639 -0.0126  0.1547  0.6959
 6636SOL    HW131541   2.368   0.852   2.725  1.4178 -0.2837 -0.0075
 6636SOL    HW231542   2.322   0.951   2.626  1.3027 -0.1051 -1.6147
 6637SOL     OW31543   2.363   2.628   7.937  0.5611 -0.3506 -0.5199
 6637SOL    HW131544   2.278   2.596   7.965  0.9877 -0.1233  0.9976
 6637SOL    HW231545   2.335   2.713   7.900  0.1613  0.3031  1.2901
 6638SOL     OW31546   3.768   3.837   3.897 -0.6279 -0.1436  0.1039
 6638SOL    HW131547   3.863   3.835   3.901 -0.6002  0.3277 -0.3441
 6638SOL    HW231548   3.740   3.901   3.831 -0.0488 -1.4306 -1.4004
 6639SOL     OW31549   2.362   4.191   8.585  0.2352  0.0050  0.4004
 6639SOL    HW131550   2.384   4.235   8.503 -0.2974 -4.0627 -1.9304
 6639SOL    HW231551   2.371   4.263   8.647  0.0258  0.7326 -0.4191
 6640SOL     OW31552   2.002   1.835   0.545 -0.3370  0.0584  0.1779
 6640SOL    HW131553   2.064   1.761   0.545 -0.5239 -0.0964  1.3454
 6640SOL    HW231554   1.923   1.789   0.516  1.5931 -0.3790 -4.4709
 6641SOL     OW31555   2.052   3.718   2.425 -0.2437  0.3763 -0.2950
 6641SOL    HW131556   2.089   3.805   2.439  3.0391 -0.9846 -0.4967
 6641SOL    HW231557   2.054   3.680   2.513 -1.7861  1.2016  0.1066
 6642SOL     OW31558   1.145   1.845   5.454 -0.5451  0.5947 -0.4569
 6642SOL    HW131559   1.058   1.856   5.493  1.1553 -1.2626  3.9087
 6642SOL    HW231560   1.126   1.882   5.368 -1.0953 -0.7915 -0.9465
 6643SOL     OW31561   0.136   1.351   9.160  0.1342  0.0166  0.4293
 6643SOL    HW131562   0.065   1.354   9.095 -1.0456  1.2041  1.7841
 6643SOL    HW231563   0.144   1.257   9.176  0.7117  0.1351  0.8512
 6644SOL     OW31564   0.524   3.612   6.189  0.3680  0.2567 -0.2232
 6644SOL    HW131565   0.466   3.545   6.224 -0.8071  0.0836 -2.5004
 6644SOL    HW231566   0.595   3.585   6.248  0.8450 -0.4048 -1.1014
 6645SOL     OW31567   1.122   2.784   8.630 -0.3035  0.2171 -0.1890
 6645SOL    HW131568   1.096   2.809   8.542  1.0856  0.6298 -0.4823
 6645SOL    HW231569   1.211   2.751   8.615 -0.5889 -0.3417 -0.6472
 6646SOL     OW31570   0.361   0.513   2.857  0.1873 -0.1294  0.1998
 6646SOL    HW131571   0.366   0.438   2.917  0.6706  1.9710  2.7828
 6646SOL    HW231572   0.400   0.577   2.917 -1.6267  1.2166 -0.0383
 6647SOL     OW31573   3.663   3.834   2.532  0.4165 -0.0751 -0.2843
 6647SOL    HW131574   3.724   3.791   2.590  1.4667  1.1221 -0.4977
 6647SOL    HW231575   3.686   3.796   2.447  3.4853 -0.6421  0.8435
 6648SOL     OW31576   3.993   2.157   6.887  0.3816 -0.7583  0.1012
 6648SOL    HW131577   4.073   2.109   6.908  1.6048  1.2246 -0.0504
 6648SOL    HW231578   3.990   2.213   6.965  0.9976 -0.2779 -0.2280
 6649SOL     OW31579   0.116   1.557   5.845  0.1029 -0.7590  0.0912
 6649SOL    HW131580   0.134   1.604   5.927  0.0328 -1.7102  0.6424
 6649SOL    HW231581   0.022   1.574   5.834  0.7437  1.7254 -1.7671
 6650SOL     OW31582   3.949   3.262  12.603 -0.0172 -0.3408 -0.2416
 6650SOL    HW131583   3.904   3.226  12.526 -2.3862  1.9055  0.0869
 6650SOL    HW231584   3.988   3.332  12.550  0.2427 -0.1293  0.2276
 6651SOL     OW31585   3.010   1.680  12.480 -0.2166  0.1964  0.7615
 6651SOL    HW131586   3.002   1.717  12.392 -1.1929 -0.8792  0.3898
 6651SOL    HW231587   3.065   1.751  12.513  1.3155 -0.3985 -0.5328
 6652SOL     OW31588   2.361   3.942   3.465  0.7318  0.0726 -0.0565
 6652SOL    HW131589   2.322   3.859   3.491  0.4525 -0.0074 -0.7215
 6652SOL    HW231590   2.289   4.005   3.463 -0.0580 -0.8965 -2.0871
 6653SOL     OW31591   3.947   1.983   7.299 -0.4669 -0.1248  0.4106
 6653SOL    HW131592   4.041   1.974   7.319 -1.3676 -1.5803  4.0359
 6653SOL    HW231593   3.936   2.078   7.294  0.3140 -0.1242 -1.3118
 6654SOL     OW31594   0.977   4.551   2.652 -0.4360 -0.6792  0.1952
 6654SOL    HW131595   0.884   4.547   2.629  0.6095 -0.1105 -4.2230
 6654SOL    HW231596   0.991   4.643   2.630  2.4357 -0.8593  1.2483
 6655SOL     OW31597   1.069   3.357  14.931  0.0088 -0.2229  0.0250
 6655SOL    HW131598   1.050   3.369  15.024  1.0007  0.7020  0.1108
 6655SOL    HW231599   1.045   3.267  14.912 -1.5471  0.2210 -0.0968
 6656SOL     OW31600   3.244   0.220   5.965  0.1434  0.4934 -0.6163
 6656SOL    HW131601   3.319   0.170   5.931 -0.0079  1.5123 -2.4483
 6656SOL    HW231602   3.276   0.241   6.053  0.9470  0.1054 -0.8120
 6657SOL     OW31603   2.559   3.759   4.020 -0.5570 -0.3878  0.0781
 6657SOL    HW131604   2.636   3.712   3.988 -0.9844 -0.9401 -0.1292
 6657SOL    HW231605   2.592   3.799   4.101  1.5661 -1.0452 -0.4598
 6658SOL     OW31606   4.269   3.888   6.738 -0.7756 -0.1911  0.1179
 6658SOL    HW131607   4.222   3.955   6.689  1.4334  2.8141  2.0969
 6658SOL    HW231608   4.202   3.820   6.744  1.1585 -2.2670 -1.5782
 6659SOL     OW31609   3.277   3.253   5.352  0.5425 -0.0125  0.4990
 6659SOL    HW131610   3.308   3.163   5.357 -2.8240 -1.1098  1.6238
 6659SOL    HW231611   3.327   3.293   5.424 -0.6001  0.7280  0.8798
 6660SOL     OW31612   0.827   0.309   2.777 -0.6606  0.4579 -0.0183
 6660SOL    HW131613   0.799   0.292   2.867  1.6723  1.6421  0.9367
 6660SOL    HW231614   0.922   0.299   2.780 -0.9634 -2.0065  2.4016
 6661SOL     OW31615   1.763   4.727  10.191  0.0003  0.3144 -0.0626
 6661SOL    HW131616   1.676   4.691  10.174  1.1143 -0.8458 -3.2228
 6661SOL    HW231617   1.759   0.075  10.138 -0.2543  1.1241  1.1594
 6662SOL     OW31618   3.122   2.977   8.211  0.7677  0.0508 -0.4651
 6662SOL    HW131619   3.150   2.937   8.294  1.3630 -1.5027 -1.4056
 6662SOL    HW231620   3.191   3.043   8.204 -0.4336  1.7281  3.3748
 6663SOL     OW31621   3.721   1.071   7.077  0.2005  0.1831  0.4715
 6663SOL    HW131622   3.642   1.116   7.046 -0.0535 -1.2706 -0.9880
 6663SOL    HW231623   3.720   1.096   7.169  1.3706  1.1571  0.2244
 6664SOL     OW31624   4.625   0.668   7.962  0.4166 -0.1705 -0.3149
 6664SOL    HW131625   4.591   0.618   7.888 -2.0679 -0.0953  0.7773
 6664SOL    HW231626   4.563   0.740   7.953  0.6978 -0.0525 -1.2947
 6665SOL     OW31627   3.788   1.514  15.510 -0.1935  0.1401 -0.7199
 6665SOL    HW131628   3.781   1.518  15.415 -0.4081  1.0230 -0.6714
 6665SOL    HW231629   3.805   1.421  15.500 -1.4416 -0.0845 -0.7796
 6666SOL     OW31630   2.460   1.937  15.977 -0.1179 -0.7972  0.0825
 6666SOL    HW131631   2.497   1.927  15.889  1.0393 -2.0735  0.7148
 6666SOL    HW231632   2.367   1.919  15.962  0.1145 -0.0706 -2.2760
 6667SOL     OW31633   0.150   4.086   5.826  0.7641  0.3058  0.3838
 6667SOL    HW131634   0.220   4.096   5.762  1.4525  0.0034  1.0870
 6667SOL    HW231635   0.141   4.176   5.858  2.8866  0.2164  1.2548
 6668SOL     OW31636   0.782   2.154   5.355  0.0945  0.0647 -0.1733
 6668SOL    HW131637   0.836   2.076   5.347  1.3383  1.1187 -2.0315
 6668SOL    HW231638   0.749   2.166   5.266  3.0853 -1.3261 -1.4424
 6669SOL     OW31639   1.848   4.177   2.577  0.2468 -0.6820 -0.0985
 6669SOL    HW131640   1.812   4.153   2.492 -1.1476 -0.7291  0.5094
 6669SOL    HW231641   1.903   4.103   2.603 -1.4049 -2.3843 -1.4771
 6670SOL     OW31642   1.975   2.804  13.757 -0.5577  0.2187  0.1158
 6670SOL    HW131643   1.954   2.861  13.831 -2.8564 -0.2995 -0.1140
 6670SOL    HW231644   1.996   2.868  13.690 -0.5697 -0.1477 -0.2422
 6671SOL     OW31645   2.288   4.559   8.633  0.2263  0.0529  0.2917
 6671SOL    HW131646   2.241   4.512   8.563 -0.0601  2.1399 -0.9266
 6671SOL    HW231647   2.214   4.612   8.662 -0.2015 -0.1318 -0.4494
 6672SOL     OW31648   3.630   0.367   1.426 -0.2315 -0.3669 -0.2291
 6672SOL    HW131649   3.616   0.286   1.377  0.3457 -0.9042  0.4882
 6672SOL    HW231650   3.542   0.397   1.448  0.7213  0.6489  2.1751
 6673SOL     OW31651   4.095   3.073   5.361 -0.2406 -0.2957 -0.3099
 6673SOL    HW131652   4.188   3.075   5.339 -0.8508  2.6729 -2.5318
 6673SOL    HW231653   4.090   3.006   5.430  1.3540 -0.6128 -0.4963
 6674SOL     OW31654   2.173   4.524   2.176 -0.8514 -0.1418 -0.1232
 6674SOL    HW131655   2.220   4.476   2.245  0.5302  1.0860 -0.2080
 6674SOL    HW231656   2.080   4.500   2.170 -0.6903 -1.0485  1.0152
 6675SOL     OW31657   3.819   3.261  16.369 -0.0920 -0.2912  0.0654
 6675SOL    HW131658   3.895   3.304  16.329  0.8731 -0.6208  1.5353
 6675SOL    HW231659   3.770   3.238  16.290  0.1677 -0.4668 -0.0451
 6676SOL     OW31660   4.628   2.912  10.113  1.1900  0.4965  0.4519
 6676SOL    HW131661   4.633   2.888  10.205  1.3650  1.6145  0.7393
 6676SOL    HW231662   4.694   2.981  10.110 -0.6253  2.1745 -1.3789
 6677SOL     OW31663   4.719   2.618   5.570  0.1392  0.1231 -0.2882
 6677SOL    HW131664   0.001   2.587   5.480 -0.4305 -0.1554 -0.2877
 6677SOL    HW231665   0.062   2.677   5.578  0.3677 -0.1744 -0.2410
 6678SOL     OW31666   1.168   1.596   2.476 -0.4882  0.2800 -0.1509
 6678SOL    HW131667   1.187   1.504   2.495  1.8774  0.7549 -0.1558
 6678SOL    HW231668   1.131   1.595   2.388  1.0427 -1.6038 -0.7906
 6679SOL     OW31669   1.339   2.094   3.912  0.0922 -0.3403 -0.1174
 6679SOL    HW131670   1.320   2.166   3.851  3.7966 -0.7065 -1.7013
 6679SOL    HW231671   1.430   2.077   3.888  0.1007 -0.4957  0.0298
 6680SOL     OW31672   0.031   3.929   7.139  0.2701 -0.2523 -0.2684
 6680SOL    HW131673   0.047   3.896   7.051  0.7852 -1.0310  0.1150
 6680SOL    HW231674   4.726   3.853   7.183 -1.8860 -0.7266 -2.9357
 6681SOL     OW31675   4.285   3.194   3.333  0.1033 -0.2714 -0.3855
 6681SOL    HW131676   4.219   3.264   3.336 -1.8266 -2.1171  0.7700
 6681SOL    HW231677   4.253   3.134   3.265 -0.4140 -2.1756  1.5352
 6682SOL     OW31678   0.504   2.978   7.737 -0.5251 -0.1058  0.2286
 6682SOL    HW131679   0.474   2.891   7.765 -1.2061  0.0095 -0.1322
 6682SOL    HW231680   0.424   3.025   7.715  0.3464 -0.0333 -2.8391
 6683SOL     OW31681   0.799   4.033   3.270  0.3648 -0.3925  0.2216
 6683SOL    HW131682   0.749   4.110   3.297  2.6748  1.6453 -1.3345
 6683SOL    HW231683   0.787   4.057   3.178 -0.8168 -0.1857  0.4230
 6684SOL     OW31684   0.930   2.379   8.079 -0.4178 -0.2294  0.0295
 6684SOL    HW131685   0.843   2.339   8.079 -0.3484 -0.3819 -0.0010
 6684SOL    HW231686   0.990   2.304   8.085 -2.9296 -2.2857 -0.4288
 6685SOL     OW31687   3.858   4.515  10.970  0.0384 -0.2559  0.0082
 6685SOL    HW131688   3.896   4.440  10.923  1.7504 -0.0971  1.1470
 6685SOL    HW231689   3.882   4.597  10.928 -0.3577  0.0049  0.2861
 6686SOL     OW31690   3.889   2.653   8.849 -0.2913  0.1690  0.0920
 6686SOL    HW131691   3.824   2.654   8.920  0.6456 -2.7228  0.9948
 6686SOL    HW231692   3.835   2.658   8.770  0.0503 -2.7575 -0.3276
 6687SOL     OW31693   0.331   1.080   4.358 -0.2094  0.0087 -0.0974
 6687SOL    HW131694   0.237   1.099   4.363 -0.3409 -0.4731 -0.6975
 6687SOL    HW231695   0.362   1.166   4.388 -0.4464 -0.6798  2.0792
 6688SOL     OW31696   3.688   2.516  10.035 -0.1918 -0.2749  0.0349
 6688SOL    HW131697   3.709   2.462  10.111 -1.1144 -0.1347  0.4013
 6688SOL    HW231698   3.594   2.529  10.053 -0.3874  0.0147 -1.2221
 6689SOL     OW31699   2.371   1.943   5.670  0.8350 -0.2456 -0.3739
 6689SOL    HW131700   2.349   1.859   5.710  1.0552  1.1494  2.6792
 6689SOL    HW231701   2.445   1.927   5.611  0.5929 -0.6151 -0.5732
 6690SOL     OW31702   3.179   2.895   6.562  0.6440  0.3111 -0.0171
 6690SOL    HW131703   3.196   2.981   6.523  3.6499 -0.4581 -0.3756
 6690SOL    HW231704   3.261   2.847   6.552  0.8005  0.4834  0.4657
 6691SOL     OW31705   0.498   1.320   2.350  0.0308 -0.2962 -0.0810
 6691SOL    HW131706   0.535   1.397   2.307  1.0625 -0.9845 -0.4095
 6691SOL    HW231707   0.575   1.264   2.343  0.9313  0.8355  0.8188
 6692SOL     OW31708   0.930   2.087   9.713 -0.2963 -0.2355  0.2492
 6692SOL    HW131709   0.945   2.016   9.650 -2.2213 -0.5509  0.1703
 6692SOL    HW231710   0.835   2.091   9.704 -0.6173 -0.3025  3.6277
 6693SOL     OW31711   2.684   0.964   9.937  0.4051 -0.2364 -0.4888
 6693SOL    HW131712   2.623   0.940   9.867 -0.8219 -1.9697  1.1854
 6693SOL    HW231713   2.755   0.901   9.929  1.5966  1.3134 -2.3949
 6694SOL     OW31714   4.701   1.888   8.466  0.2006  0.4976 -0.0132
 6694SOL    HW131715   0.037   1.831   8.502 -2.2538 -1.2124  1.9189
 6694SOL    HW231716   4.691   1.864   8.374 -1.1864  1.5361 -0.1302
 6695SOL     OW31717   0.965   2.542   7.628  0.1274  0.2745 -0.0410
 6695SOL    HW131718   0.940   2.469   7.571  0.7339 -0.6137  0.8142
 6695SOL    HW231719   0.885   2.593   7.637  0.5902  1.2068 -1.1131
 6696SOL     OW31720   3.794   0.273   6.902  0.1257  0.0036  0.3924
 6696SOL    HW131721   3.749   0.233   6.977  1.8291 -0.5961  1.0956
 6696SOL    HW231722   3.752   0.358   6.895  0.6839  0.3491  1.2727
 6697SOL     OW31723   4.329   1.447   2.947 -0.1607 -0.1236 -0.0064
 6697SOL    HW131724   4.311   1.491   2.864 -0.8965 -0.6372 -0.1210
 6697SOL    HW231725   4.312   1.354   2.929 -1.1430 -0.0729  0.6740
 6698SOL     OW31726   1.955   3.873  11.686  0.0207 -0.2634  0.4803
 6698SOL    HW131727   1.892   3.920  11.741 -0.5804 -0.6817  0.1366
 6698SOL    HW231728   2.035   3.923  11.705 -0.4660 -0.8157  4.0612
 6699SOL     OW31729   1.315   1.158   4.814  0.2493 -0.0104  0.2959
 6699SOL    HW131730   1.352   1.230   4.865 -2.0671  0.7027  0.9921
 6699SOL    HW231731   1.397   1.132   4.772  0.0516  0.3927 -0.3401
 6700SOL     OW31732   0.100   4.437  11.417 -0.3043  0.0967 -0.7238
 6700SOL    HW131733   0.062   4.411  11.501 -0.4106 -0.3290 -0.9021
 6700SOL    HW231734   0.099   4.353  11.370  0.5480 -0.2212 -0.2004
 6701SOL     OW31735   1.871   1.484   9.261  0.5079 -0.6017  0.3829
 6701SOL    HW131736   1.839   1.520   9.344 -0.6281 -2.2334  0.6406
 6701SOL    HW231737   1.876   1.392   9.287 -0.1288 -0.8348 -0.3055
 6702SOL     OW31738   4.243   1.479   9.853  0.0567  0.2344  0.0262
 6702SOL    HW131739   4.291   1.416   9.906  0.4149 -1.1419 -1.9371
 6702SOL    HW231740   4.205   1.522   9.930  0.1651 -0.5796  0.5392
 6703SOL     OW31741   4.454   2.830  10.721  0.9718  0.4201  0.0520
 6703SOL    HW131742   4.496   2.913  10.742 -0.1624  1.1007 -0.3234
 6703SOL    HW231743   4.381   2.862  10.667  2.0731  2.4603 -0.2311
 6704SOL     OW31744   2.103   2.433  12.935 -0.8123  0.1303  0.4535
 6704SOL    HW131745   2.056   2.516  12.942 -0.1281  0.6432 -1.0802
 6704SOL    HW231746   2.058   2.383  13.003 -0.0637 -1.9799 -0.6030
 6705SOL     OW31747   2.319   4.517   6.405  0.2871  0.6136  0.5142
 6705SOL    HW131748   2.280   4.603   6.392 -1.8666 -0.5659 -0.9553
 6705SOL    HW231749   2.409   4.539   6.430  0.9899 -2.1588  0.4272
 6706SOL     OW31750   1.863   0.518   3.844  0.3447 -0.3050  0.1681
 6706SOL    HW131751   1.793   0.487   3.787  0.5387 -3.0273  1.3584
 6706SOL    HW231752   1.895   0.447   3.900 -0.5647 -0.5312  0.3946
 6707SOL     OW31753   1.197   0.589  12.519 -0.5011 -0.1227  0.8715
 6707SOL    HW131754   1.260   0.543  12.463 -1.9642 -1.1505  0.0647
 6707SOL    HW231755   1.136   0.619  12.452 -1.3918 -0.1909  1.6396
 6708SOL     OW31756   1.932   3.090   7.910  0.3338 -0.6035  0.4194
 6708SOL    HW131757   2.004   3.125   7.963  0.5034 -1.2220  0.5894
 6708SOL    HW231758   1.875   3.167   7.902 -1.1444 -1.6415  0.9529
 6709SOL     OW31759   4.125   3.812   2.015  0.4298  0.7836  0.1309
 6709SOL    HW131760   4.197   3.874   2.010  0.0357  1.0833 -1.6256
 6709SOL    HW231761   4.058   3.859   2.066  0.7097  1.9923 -0.6208
 6710SOL     OW31762   0.466   4.292   7.701 -0.0605 -0.4204 -0.0142
 6710SOL    HW131763   0.549   4.336   7.721 -0.2238 -0.3648  0.5546
 6710SOL    HW231764   0.461   4.306   7.606  0.8340  1.7386  0.2482
 6711SOL     OW31765   4.435   4.539   8.483 -0.8342  0.1441  0.1849
 6711SOL    HW131766   4.409   4.629   8.462  1.8677  1.0956  0.9589
 6711SOL    HW231767   4.512   4.547   8.538 -2.1644  4.0968  1.4747
 6712SOL     OW31768   4.548   0.732   6.084  0.2966 -0.7542 -0.1432
 6712SOL    HW131769   4.565   0.647   6.042  3.0606 -0.3003  0.0423
 6712SOL    HW231770   4.523   0.785   6.009 -1.5932 -2.5525 -0.8043
 6713SOL     OW31771   2.327   4.617   7.565  0.2568 -0.2170  0.6243
 6713SOL    HW131772   2.361   4.529   7.581  1.0431 -0.3668 -1.8317
 6713SOL    HW231773   2.231   4.612   7.570  0.0762  1.6537 -0.9927
 6714SOL     OW31774   0.639   4.391   2.860  0.8554  0.4316  0.8020
 6714SOL    HW131775   0.569   4.390   2.794  0.8887  0.3031  0.7692
 6714SOL    HW231776   0.593   4.373   2.942  0.7217 -1.2883  0.3509
 6715SOL     OW31777   1.786   0.491   6.739 -0.6344 -0.3517  0.7026
 6715SOL    HW131778   1.862   0.548   6.743  0.6419 -2.0539  0.6795
 6715SOL    HW231779   1.742   0.527   6.661  0.0153 -0.1302  0.4393
 6716SOL     OW31780   1.483   2.972   6.673  0.7516  0.3622  0.3849
 6716SOL    HW131781   1.552   2.949   6.610  1.0151  1.5195  0.2513
 6716SOL    HW231782   1.478   3.067   6.664 -1.9813  0.4059  2.4961
 6717SOL     OW31783   1.370   2.645   5.473 -0.1147 -0.6781 -0.2048
 6717SOL    HW131784   1.401   2.722   5.520  1.2915 -2.2426  1.4090
 6717SOL    HW231785   1.299   2.618   5.531 -0.3418  3.4521  1.4092
 6718SOL     OW31786   4.111   3.918  17.033  0.1014  0.0169  0.3211
 6718SOL    HW131787   4.162   3.972  16.972  2.2214  0.2310  2.2940
 6718SOL    HW231788   4.088   3.840  16.982  1.0999  0.7059 -1.1933
 6719SOL     OW31789   0.947   2.439   7.093 -0.8336 -0.4495 -0.3012
 6719SOL    HW131790   0.892   2.364   7.068 -0.6322 -1.3234  1.9128
 6719SOL    HW231791   1.038   2.408   7.086 -0.2662  1.1216  0.1800
 6720SOL     OW31792   4.107   0.505   1.691  0.2380 -0.8304  0.1618
 6720SOL    HW131793   4.036   0.511   1.627 -0.8519 -2.3507  1.2317
 6720SOL    HW231794   4.085   0.558   1.767 -0.7458  0.4776 -1.0326
 6721SOL     OW31795   1.986   1.209   1.956 -0.1142  0.1296 -0.5003
 6721SOL    HW131796   2.007   1.123   1.993 -3.4914 -0.3451  0.2746
 6721SOL    HW231797   1.987   1.264   2.034 -2.7626 -1.3397  0.5541
 6722SOL     OW31798   2.810   2.637  12.946  0.1640 -0.8022  0.1251
 6722SOL    HW131799   2.869   2.663  13.016  2.9540  0.8248 -2.8387
 6722SOL    HW231800   2.820   2.541  12.948 -2.1514 -0.9966  2.3869
 6723SOL     OW31801   4.527   1.884   1.932  0.7458 -0.0068  0.3719
 6723SOL    HW131802   4.615   1.883   1.895  0.7269  1.9719  0.2829
 6723SOL    HW231803   4.482   1.808   1.895  2.8806 -1.2703  0.3968
 6724SOL     OW31804   1.219   1.755   7.219 -0.1089  0.3720 -0.1228
 6724SOL    HW131805   1.133   1.794   7.236 -0.6975 -0.8750 -0.2738
 6724SOL    HW231806   1.273   1.781   7.294  1.9213  1.6579 -2.0305
 6725SOL     OW31807   1.163   2.958  15.953  0.6467  0.6028  0.0214
 6725SOL    HW131808   1.234   2.922  15.900 -0.3958 -1.2032 -0.1528
 6725SOL    HW231809   1.140   3.035  15.901  1.8763  0.2506 -1.0337
 6726SOL     OW31810   3.725   0.633   3.518 -0.0588 -0.5307 -0.0762
 6726SOL    HW131811   3.765   0.641   3.432  0.2218  0.7644  0.1735
 6726SOL    HW231812   3.711   0.725   3.539 -0.0946 -0.0462 -2.3119
 6727SOL     OW31813   1.829   4.136  13.382 -0.2742 -0.0795 -1.0542
 6727SOL    HW131814   1.882   4.216  13.378  0.1285 -0.3689 -1.3983
 6727SOL    HW231815   1.896   4.081  13.342  0.2127  0.0015 -0.3515
 6728SOL     OW31816   0.451   4.305   7.154 -0.1084  0.0585  0.7516
 6728SOL    HW131817   0.413   4.221   7.126  1.8145 -1.2211  2.0288
 6728SOL    HW231818   0.412   4.368   7.094 -2.8580 -1.3262  1.0861
 6729SOL     OW31819   0.819   4.500  14.220 -0.1259  0.1589  0.2306
 6729SOL    HW131820   0.910   4.527  14.235  0.4598 -0.7532 -1.6860
 6729SOL    HW231821   0.770   4.579  14.242 -0.0343  0.2383  0.1513
 6730SOL     OW31822   1.079   1.562   5.356 -0.0356 -0.1204  0.0621
 6730SOL    HW131823   1.121   1.578   5.440 -0.4989 -1.0397  0.4726
 6730SOL    HW231824   1.064   1.650   5.322  1.7550  0.0714 -0.2531
 6731SOL     OW31825   4.486   4.409   3.044  0.2694 -0.3876 -0.2288
 6731SOL    HW131826   4.575   4.388   3.073 -0.7039 -1.2802  2.1541
 6731SOL    HW231827   4.445   4.400   3.130  0.4265 -1.3066 -0.2400
 6732SOL     OW31828   1.808   3.620   4.029 -0.4859  0.0341  0.4509
 6732SOL    HW131829   1.784   3.693   3.973 -1.5625  0.0866  0.9730
 6732SOL    HW231830   1.869   3.576   3.970  0.9250  1.0027  1.1892
 6733SOL     OW31831   2.518   1.310   8.172 -0.2517 -0.2455  0.2392
 6733SOL    HW131832   2.613   1.305   8.176 -0.2305 -0.8900 -0.9375
 6733SOL    HW231833   2.514   1.344   8.082 -1.6119 -2.3710 -0.5102
 6734SOL     OW31834   3.513   2.665   7.018 -0.0782 -0.0941  0.0905
 6734SOL    HW131835   3.434   2.714   6.994 -0.0465 -0.0747  0.0241
 6734SOL    HW231836   3.563   2.671   6.936 -0.1358 -1.1160 -0.0124
 6735SOL     OW31837   4.541   0.316   4.951 -0.1282  0.6964 -0.2909
 6735SOL    HW131838   4.602   0.264   5.003  0.2987  1.2956 -0.1813
 6735SOL    HW231839   4.533   0.402   4.993  0.2644 -0.1828  1.5341
 6736SOL     OW31840   4.143   3.656  10.805  0.6519 -0.2552  0.3735
 6736SOL    HW131841   4.085   3.722  10.767  1.1468 -0.0315  0.0075
 6736SOL    HW231842   4.220   3.656  10.747  0.4482 -3.4577  0.0796
 6737SOL     OW31843   2.341   3.907   2.063 -0.0428  0.2106  0.4291
 6737SOL    HW131844   2.377   3.928   2.149  1.7809 -2.5260  0.3319
 6737SOL    HW231845   2.403   3.947   2.001 -0.7620  1.1006  0.2863
 6738SOL     OW31846   0.852   1.405   2.238  0.3190 -0.7971  0.5772
 6738SOL    HW131847   0.857   1.322   2.191 -0.9219 -0.1999 -0.6050
 6738SOL    HW231848   0.776   1.450   2.201  0.9091  0.2534  0.6450
 6739SOL     OW31849   2.543   2.752   8.967  0.3883  0.2039 -0.4597
 6739SOL    HW131850   2.625   2.708   8.946 -0.7218 -2.3279  0.3834
 6739SOL    HW231851   2.542   2.758   9.063 -1.2100  0.3788 -0.4819
 6740SOL     OW31852   4.503   4.058   1.553  0.3764  0.0736 -0.2643
 6740SOL    HW131853   4.459   3.987   1.506 -1.7763 -0.8229  3.0872
 6740SOL    HW231854   4.579   4.082   1.499  2.4807  0.5642  2.9100
 6741SOL     OW31855   2.634   0.330   2.335 -0.2043 -0.1355 -0.2737
 6741SOL    HW131856   2.721   0.319   2.297  0.3870 -5.2130  2.4998
 6741SOL    HW231857   2.585   0.255   2.300  1.8720 -0.0151 -3.3679
 6742SOL     OW31858   2.073   2.575   2.676 -0.1438 -0.5785 -0.2713
 6742SOL    HW131859   2.058   2.643   2.743  2.3343 -0.5781  0.2687
 6742SOL    HW231860   1.985   2.537   2.671 -0.1448 -0.5069 -0.7899
 6743SOL     OW31861   3.517   1.392   5.292 -0.7935 -0.0356  0.1956
 6743SOL    HW131862   3.447   1.329   5.275  0.0679 -0.9051 -0.1373
 6743SOL    HW231863   3.538   1.370   5.382  1.7421  3.1916  0.3835
 6744SOL     OW31864   3.301   0.439  15.599  0.6405 -0.4369  0.1614
 6744SOL    HW131865   3.214   0.437  15.559  1.4450  0.2696 -1.6351
 6744SOL    HW231866   3.355   0.408  15.526  1.2698 -3.9375  2.1205
 6745SOL     OW31867   4.497   2.254   2.639  0.1940 -0.4597 -0.1900
 6745SOL    HW131868   4.437   2.253   2.713  1.4072  0.9474  0.7988
 6745SOL    HW231869   4.484   2.342   2.604 -1.2609 -0.8059 -0.5173
 6746SOL     OW31870   0.489   1.439   5.018 -0.1809  0.4810  0.1561
 6746SOL    HW131871   0.560   1.381   5.044  0.7584  1.7833  0.5478
 6746SOL    HW231872   0.468   1.402   4.933 -0.1565  0.8729 -0.0224
 6747SOL     OW31873   4.650   4.261   8.562 -0.0163  0.2216 -0.0182
 6747SOL    HW131874   4.704   4.317   8.508  0.7656 -0.2525  0.2625
 6747SOL    HW231875   4.707   4.184   8.573  0.8036  0.7861 -0.3713
 6748SOL     OW31876   0.232   1.288   2.447 -0.1619  0.3591  0.9509
 6748SOL    HW131877   0.313   1.308   2.400  0.4742  0.7108  2.2120
 6748SOL    HW231878   0.236   1.351   2.519 -2.1581  1.1132  0.4159
 6749SOL     OW31879   3.137   1.510   8.336  0.4167 -0.0409 -0.6615
 6749SOL    HW131880   3.210   1.505   8.397  1.2220 -1.8647 -1.7715
 6749SOL    HW231881   3.129   1.605   8.325  1.1774 -0.2521 -3.1193
 6750SOL     OW31882   4.700   1.476   2.633  0.1690 -0.1588  0.0306
 6750SOL    HW131883   0.060   1.453   2.646  0.3612  0.1133 -0.9020
 6750SOL    HW231884   4.659   1.403   2.586  0.2375 -0.5110  0.5074
 6751SOL     OW31885   3.447   4.534   4.585 -0.1889  0.1632 -0.0722
 6751SOL    HW131886   3.487   4.578   4.510 -1.7132  0.6287 -0.6068
 6751SOL    HW231887   3.469   4.441   4.572  0.7322  0.8045 -3.1407
 6752SOL     OW31888   3.013   4.568  13.101 -0.6398  0.0871  0.1336
 6752SOL    HW131889   3.065   4.645  13.122 -0.4493  0.4387 -1.5775
 6752SOL    HW231890   3.084   4.509  13.073 -1.9896 -2.0625  1.2597
 6753SOL     OW31891   4.068   3.502   5.377  0.1513 -0.2264 -0.0168
 6753SOL    HW131892   4.021   3.431   5.419 -0.4803 -0.0431 -0.4223
 6753SOL    HW231893   3.992   3.559   5.359  0.3501 -0.1231 -0.5390
 6754SOL     OW31894   1.488   1.614   5.309  0.2728 -0.6834  0.0451
 6754SOL    HW131895   1.444   1.598   5.225 -1.9874 -0.3011  1.1625
 6754SOL    HW231896   1.492   1.526   5.346 -3.5244 -1.5074 -1.4178
 6755SOL     OW31897   2.589   2.117   5.941 -0.3690  0.2179 -0.3893
 6755SOL    HW131898   2.597   2.157   6.028  2.9765  1.9468 -1.4885
 6755SOL    HW231899   2.596   2.031   5.983 -0.2651 -0.2997 -1.4655
 6756SOL     OW31900   4.593   3.412   5.172  0.4190 -0.5301 -0.2596
 6756SOL    HW131901   4.610   3.346   5.239 -1.5436 -0.7098  0.0692
 6756SOL    HW231902   4.521   3.464   5.207 -1.2146 -2.2292 -1.0799
 6757SOL     OW31903   2.213   3.831   6.203 -0.4956  0.3149 -0.2689
 6757SOL    HW131904   2.214   3.924   6.227 -0.7111  0.2535 -0.0313
 6757SOL    HW231905   2.122   3.831   6.175 -0.1120 -1.2935 -1.4846
 6758SOL     OW31906   1.318   1.174  17.237 -0.3435  0.3842  0.7440
 6758SOL    HW131907   1.279   1.147  17.154  3.1375  0.0034 -0.7603
 6758SOL    HW231908   1.347   1.088  17.265  0.0090 -0.1175 -1.2112
 6759SOL     OW31909   4.285   3.106   3.630 -0.0554 -0.6288 -0.2256
 6759SOL    HW131910   4.306   3.015   3.652 -0.9730 -1.1210 -1.3920
 6759SOL    HW231911   4.195   3.099   3.599  0.0296  0.6860 -0.7717
 6760SOL     OW31912   0.325   1.506  16.837  0.6783  0.0370  0.0884
 6760SOL    HW131913   0.402   1.512  16.781  0.5115 -0.8048 -0.2224
 6760SOL    HW231914   0.331   1.416  16.868 -0.1401  0.2326  0.8258
 6761SOL     OW31915   4.512   0.615   4.854  0.0493 -0.2259 -0.2316
 6761SOL    HW131916   4.508   0.687   4.791  0.8413 -0.8954 -1.0461
 6761SOL    HW231917   4.584   0.564   4.819 -1.2329 -1.5810 -0.8718
 6762SOL     OW31918   3.077   0.370  15.346  0.2135  0.1127  0.3772
 6762SOL    HW131919   3.041   0.287  15.377 -0.9584 -0.0993 -1.5068
 6762SOL    HW231920   3.154   0.346  15.295  0.2704 -0.2046  0.6082
 6763SOL     OW31921   1.197   3.947  14.443 -0.0615  0.3536 -0.2825
 6763SOL    HW131922   1.142   3.869  14.444 -0.4730  0.6311 -0.9859
 6763SOL    HW231923   1.130   4.016  14.451 -1.5096 -1.1014  0.1982
 6764SOL     OW31924   2.175   2.613   4.783  0.2734  0.1352 -0.0336
 6764SOL    HW131925   2.132   2.642   4.863 -0.0753  1.3769 -0.6725
 6764SOL    HW231926   2.266   2.638   4.797 -0.0045  0.1197  1.8141
 6765SOL     OW31927   4.086   2.611   4.700 -0.0151  0.1625  0.3719
 6765SOL    HW131928   4.109   2.531   4.748 -0.0550 -0.4776 -0.6723
 6765SOL    HW231929   4.127   2.676   4.756  1.1541  0.2760 -0.6151
 6766SOL     OW31930   1.104   3.015   2.148  0.1769 -0.2199 -0.8737
 6766SOL    HW131931   1.044   3.008   2.073 -0.1105  0.1628 -0.6764
 6766SOL    HW231932   1.160   2.938   2.136 -1.6173 -1.4868 -1.1327
 6767SOL     OW31933   3.769   3.975   3.346  0.2302  0.3776 -0.5879
 6767SOL    HW131934   3.792   3.983   3.253  2.3174  0.5628 -0.0434
 6767SOL    HW231935   3.779   4.066   3.372  0.5234  0.5548 -1.3215
 6768SOL     OW31936   0.321   4.037   4.197 -0.2964  0.2392 -0.8520
 6768SOL    HW131937   0.362   3.974   4.137  1.1478 -1.5214  1.9567
 6768SOL    HW231938   0.335   4.108   4.135  1.5870  1.7135  1.2692
 6769SOL     OW31939   2.401   4.507   2.370 -0.1692  0.3580 -0.0424
 6769SOL    HW131940   2.431   4.530   2.458 -1.1452  0.0105  0.3751
 6769SOL    HW231941   2.331   4.572   2.372 -0.4988 -0.0284  0.8328
 6770SOL     OW31942   4.052   0.916   2.271 -0.2740 -0.7963 -0.5598
 6770SOL    HW131943   3.986   0.852   2.245 -1.9867  1.0455 -0.6775
 6770SOL    HW231944   4.108   0.924   2.194  0.7896  0.0126  0.2873
 6771SOL     OW31945   0.767   0.136   3.334 -0.7452  0.1565  0.0404
 6771SOL    HW131946   0.812   0.055   3.362 -0.4408  0.2885 -0.0616
 6771SOL    HW231947   0.708   0.146   3.408 -0.3376 -0.6946  0.4912
 6772SOL     OW31948   2.130   2.586   6.713  0.4972 -0.2283  0.0344
 6772SOL    HW131949   2.219   2.613   6.736  0.0504  0.7108  0.6619
 6772SOL    HW231950   2.100   2.542   6.792 -2.2520  2.0272  0.2197
 6773SOL     OW31951   3.165   0.685   4.729 -0.0948  0.2480  0.1590
 6773SOL    HW131952   3.184   0.747   4.800 -2.0717  1.0226 -0.0096
 6773SOL    HW231953   3.173   0.605   4.781  0.2546 -1.4697 -2.5598
 6774SOL     OW31954   0.126   0.277  13.611 -0.0973  0.4000 -0.2951
 6774SOL    HW131955   0.112   0.289  13.518 -2.3300  1.9320  0.2412
 6774SOL    HW231956   0.058   0.336  13.646  0.4630  1.4333 -0.9631
 6775SOL     OW31957   4.327   3.669  10.575  0.2810 -0.4277  0.0195
 6775SOL    HW131958   4.359   3.728  10.506  0.1262  1.5981  1.6776
 6775SOL    HW231959   4.234   3.691  10.564  0.3262 -1.0823 -1.7863
 6776SOL     OW31960   4.626   2.530   6.332  0.0987 -1.2275  0.6165
 6776SOL    HW131961   4.715   2.535   6.295 -0.6966  3.7277 -0.6790
 6776SOL    HW231962   4.599   2.621   6.317  1.1438 -0.6102  2.4219
 6777SOL     OW31963   0.161   1.097   3.280  0.2535  0.2395 -0.1194
 6777SOL    HW131964   0.208   1.092   3.362 -1.5141  1.9741  0.9927
 6777SOL    HW231965   0.230   1.121   3.219 -1.8904  1.7323 -1.9847
 6778SOL     OW31966   3.626   2.351  10.495 -0.8007 -0.5514 -0.6704
 6778SOL    HW131967   3.653   2.330  10.585  1.1123 -0.7467 -1.2972
 6778SOL    HW231968   3.550   2.297  10.473 -0.2527 -2.3798  1.8203
 6779SOL     OW31969   3.361   1.152   2.424  0.4739 -0.1901 -0.4997
 6779SOL    HW131970   3.378   1.110   2.340 -1.5105 -1.8270 -0.0834
 6779SOL    HW231971   3.439   1.127   2.474 -0.2970 -1.3829  0.1098
 6780SOL     OW31972   2.666   2.134  16.251 -0.1578 -0.0961  0.1958
 6780SOL    HW131973   2.723   2.120  16.327  1.6600  0.7007 -1.0262
 6780SOL    HW231974   2.714   2.114  16.171 -0.0546 -0.4835  0.3572
 6781SOL     OW31975   4.585   3.065  16.809 -0.1072 -0.0817 -0.4631
 6781SOL    HW131976   4.549   3.142  16.853  2.7386 -0.1907  2.0620
 6781SOL    HW231977   4.635   3.120  16.748  0.0247 -0.5316 -0.7635
 6782SOL     OW31978   3.509   2.368   5.248  0.1474  0.5993 -0.4351
 6782SOL    HW131979   3.545   2.394   5.333 -0.8473  1.1685 -0.1915
 6782SOL    HW231980   3.443   2.435   5.231 -1.4611 -1.4551 -2.2344
 6783SOL     OW31981   3.298   4.524   7.279 -0.8362 -0.5132  0.2518
 6783SOL    HW131982   3.205   4.512   7.296 -1.3272  0.1157 -2.0216
 6783SOL    HW231983   3.321   4.438   7.244  1.2221  0.3402 -0.5254
 6784SOL     OW31984   2.560   1.540   8.484  0.0306 -0.1332 -0.5085
 6784SOL    HW131985   2.475   1.497   8.488  0.0481 -0.2920 -1.6549
 6784SOL    HW231986   2.607   1.463   8.451 -2.0717  0.1682 -4.2378
 6785SOL     OW31987   0.630   3.416   0.266  0.0307  0.1137 -1.1329
 6785SOL    HW131988   0.701   3.422   0.330 -1.0019  0.7329 -0.0487
 6785SOL    HW231989   0.628   3.504   0.229  0.7367  0.7019  0.2428
 6786SOL     OW31990   2.166   0.879   4.336 -0.1332 -0.2957  0.0092
 6786SOL    HW131991   2.257   0.903   4.354 -0.4772  0.4922  0.7090
 6786SOL    HW231992   2.123   0.961   4.361 -0.0769 -0.0495 -0.7140
 6787SOL     OW31993   1.903   4.072   5.400  0.6415  0.2354  0.0804
 6787SOL    HW131994   1.978   4.112   5.357  1.6424 -1.4620  0.2466
 6787SOL    HW231995   1.870   4.139   5.460 -1.3535 -0.8243  0.1735
 6788SOL     OW31996   0.343   0.999   7.506  0.3702  0.0094 -0.0838
 6788SOL    HW131997   0.371   0.942   7.434 -1.2107 -0.9207  0.0573
 6788SOL    HW231998   0.250   0.989   7.489 -0.1134  0.1272  2.5435
 6789SOL     OW31999   0.087   4.520  11.940  0.5447  0.2715 -0.1937
 6789SOL    HW132000   0.088   4.539  12.034 -0.4448 -0.4192 -0.0490
 6789SOL    HW232001   0.182   4.525  11.923  0.6089  0.4010  0.1996
 6790SOL     OW32002   0.877   1.842  15.905  0.0337  0.1007 -0.5751
 6790SOL    HW132003   0.897   1.880  15.990  1.0434 -3.6212  0.8535
 6790SOL    HW232004   0.821   1.913  15.874  1.1111  0.7538 -1.0397
 6791SOL     OW32005   2.113   4.158   1.605  0.1241  0.4775 -0.2713
 6791SOL    HW132006   2.104   4.063   1.594  0.1937 -0.0052  3.8451
 6791SOL    HW232007   2.024   4.191   1.595  0.4365  1.7829  1.2065
 6792SOL     OW32008   4.153   2.298   2.480 -0.2429 -0.3057 -0.1546
 6792SOL    HW132009   4.084   2.234   2.461 -1.2088  1.2960 -2.0271
 6792SOL    HW232010   4.205   2.282   2.401  0.3242 -1.2309  0.4056
 6793SOL     OW32011   0.372   0.478   7.585 -0.1628 -0.0584 -0.1966
 6793SOL    HW132012   0.381   0.383   7.575 -0.6454 -0.1098 -0.1452
 6793SOL    HW232013   0.280   0.477   7.612 -0.4258  0.4542 -1.0954
 6794SOL     OW32014   1.972   3.393   6.621  0.0935  0.1088  0.0275
 6794SOL    HW132015   1.961   3.307   6.580 -1.4946  0.2429  0.1645
 6794SOL    HW232016   1.890   3.399   6.670 -1.2715  0.3889 -2.2543
 6795SOL     OW32017   3.829   2.815   7.063  0.6140  0.4004  0.3998
 6795SOL    HW132018   3.924   2.814   7.079  0.3495 -2.7399  1.7766
 6795SOL    HW232019   3.813   2.734   7.110 -1.6658  0.2307 -0.7085
 6796SOL     OW32020   3.906   4.026   6.853  0.1621 -0.5092 -0.4056
 6796SOL    HW132021   3.962   4.024   6.776  0.1745 -1.6752 -0.3644
 6796SOL    HW232022   3.846   4.096   6.829  1.5640  0.3818 -1.3186
 6797SOL     OW32023   1.417   0.043   4.957 -0.1653  0.1357  0.3422
 6797SOL    HW132024   1.430   0.024   4.864  2.2659 -0.9190  0.8926
 6797SOL    HW232025   1.375   0.127   4.940 -0.6983  0.0001  0.9783
 6798SOL     OW32026   0.130   3.902   8.185  0.0536 -0.5806  0.1215
 6798SOL    HW132027   0.192   3.928   8.115  0.3214 -0.0543  0.5498
 6798SOL    HW232028   0.074   3.980   8.186  0.8841  0.0277  0.2527
 6799SOL     OW32029   2.696   1.648   0.937 -0.4848  0.4112 -0.5042
 6799SOL    HW132030   2.700   1.735   0.977 -0.3750  0.7530 -1.2715
 6799SOL    HW232031   2.687   1.680   0.848 -3.4060 -0.2461 -0.4218
 6800SOL     OW32032   1.297   0.379   6.166 -0.7185 -0.3562 -0.4143
 6800SOL    HW132033   1.266   0.417   6.084 -2.0639 -1.1464 -0.2726
 6800SOL    HW232034   1.284   0.285   6.149  0.3024 -0.1801 -2.1872
 6801SOL     OW32035   0.696   3.737   4.393  0.0701 -0.1578  0.6098
 6801SOL    HW132036   0.735   3.824   4.382  0.4837 -0.2898  1.0378
 6801SOL    HW232037   0.690   3.710   4.301  0.5225  4.4445 -0.7835
 6802SOL     OW32038   1.673   2.770  12.823 -0.2443 -0.0204 -0.3953
 6802SOL    HW132039   1.638   2.683  12.841 -1.7286  0.3912 -1.2745
 6802SOL    HW232040   1.679   2.800  12.913  2.1431  0.6372 -0.7889
 6803SOL     OW32041   1.353   2.045   3.203  0.3153  0.1331  0.1901
 6803SOL    HW132042   1.296   1.995   3.145  1.5763 -1.7184  0.5254
 6803SOL    HW232043   1.431   2.064   3.152  1.4125 -1.6091  1.2037
 6804SOL     OW32044   2.255   1.432  12.370 -0.4222  0.1611 -0.1828
 6804SOL    HW132045   2.257   1.398  12.281  0.4822 -0.7865  0.1934
 6804SOL    HW232046   2.190   1.376  12.413 -0.0416 -0.0359  0.1330
 6805SOL     OW32047   3.720   2.987   6.376  0.0263 -0.1555  0.0550
 6805SOL    HW132048   3.720   3.035   6.459  0.9822 -0.8971  0.4799
 6805SOL    HW232049   3.806   3.012   6.343 -0.9233  0.1008 -2.2104
 6806SOL     OW32050   2.336   0.152   0.936 -0.2477 -0.0913  0.0447
 6806SOL    HW132051   2.408   0.103   0.975 -0.8404 -0.7298  0.3389
 6806SOL    HW232052   2.288   0.084   0.890 -2.3730 -0.5017  2.8262
 6807SOL     OW32053   1.318   1.838   4.593 -0.3385 -0.2005 -0.1250
 6807SOL    HW132054   1.293   1.891   4.668 -1.3256 -1.2379  0.2747
 6807SOL    HW232055   1.254   1.857   4.525 -0.9426  0.2774  0.5725
 6808SOL     OW32056   2.690   2.788   5.238 -0.2740  0.2721  0.1911
 6808SOL    HW132057   2.673   2.715   5.297 -2.3565  0.9642  0.4303
 6808SOL    HW232058   2.731   2.848   5.300  0.5811 -0.4870  0.3714
 6809SOL     OW32059   4.725   4.711   7.184 -0.2524 -0.1824 -0.3185
 6809SOL    HW132060   4.680   4.647   7.129 -0.3855  0.5659 -1.0884
 6809SOL    HW232061   4.717   0.061   7.135 -0.1217 -0.7227 -1.2488
 6810SOL     OW32062   4.088   1.415   9.029  0.6035 -0.0876 -0.5016
 6810SOL    HW132063   4.063   1.370   9.110 -0.6950  0.8881 -0.3467
 6810SOL    HW232064   4.074   1.341   8.970  1.1444 -1.7977  1.5204
 6811SOL     OW32065   0.618   1.276   4.742  0.4106 -0.0984  0.2552
 6811SOL    HW132066   0.539   1.328   4.728  1.7440  2.2362  1.3761
 6811SOL    HW232067   0.579   1.194   4.771  1.4624 -0.8608 -0.4880
 6812SOL     OW32068   2.741   1.512  16.251 -0.1853  0.0031 -0.1821
 6812SOL    HW132069   2.826   1.508  16.294 -0.2833  0.1122  0.0217
 6812SOL    HW232070   2.750   1.584  16.189  3.0258  2.1123  2.7485
 6813SOL     OW32071   1.109   3.637   7.393  0.1901  0.3247 -0.2304
 6813SOL    HW132072   1.146   3.556   7.357  0.9827 -0.4888  2.4268
 6813SOL    HW232073   1.137   3.697   7.324 -0.3082 -0.1473 -0.8417
 6814SOL     OW32074   0.503   0.148   8.158 -0.2772 -0.1372 -0.3168
 6814SOL    HW132075   0.413   0.149   8.189 -0.2114  0.3031 -0.1466
 6814SOL    HW232076   0.539   0.198   8.231 -0.0180 -1.6417  0.5838
 6815SOL     OW32077   0.339   4.271  11.095  0.0216  0.6363 -0.3870
 6815SOL    HW132078   0.284   4.267  11.016 -0.8903  2.4015  0.1573
 6815SOL    HW232079   0.296   4.262  11.179  0.1661  1.4073 -0.2301
 6816SOL     OW32080   0.416   2.966   8.568  0.5817  0.4419  0.2219
 6816SOL    HW132081   0.500   3.006   8.542  2.0758 -2.6286  0.2999
 6816SOL    HW232082   0.448   2.885   8.609  1.2598  1.7435  2.2290
 6817SOL     OW32083   3.612   1.690   9.075 -0.2619  0.4941 -0.0186
 6817SOL    HW132084   3.584   1.656   9.160  0.5667 -0.6475 -0.1923
 6817SOL    HW232085   3.541   1.749   9.051  0.1796 -0.1935 -2.9179
 6818SOL     OW32086   3.834   3.342   3.248  0.3772  0.2971 -0.1171
 6818SOL    HW132087   3.798   3.253   3.247 -0.1159  0.5037 -0.6173
 6818SOL    HW232088   3.875   3.347   3.162  1.3982 -0.1360  0.3442
 6819SOL     OW32089   2.317   3.571   2.880 -0.1150  0.1725  0.0732
 6819SOL    HW132090   2.297   3.483   2.911  2.7176  0.1704  1.9320
 6819SOL    HW232091   2.395   3.548   2.829 -0.3608 -0.1056 -0.1694
 6820SOL     OW32092   3.997   0.600   5.117  0.3888 -0.2721  0.5906
 6820SOL    HW132093   3.939   0.526   5.098  0.1918  0.0839 -0.2160
 6820SOL    HW232094   3.932   0.650   5.168 -2.3009  0.0426 -3.0874
 6821SOL     OW32095   1.932   1.994   2.849  0.1063  0.4497  0.2422
 6821SOL    HW132096   1.884   1.969   2.770  1.5808  2.0522 -1.1411
 6821SOL    HW232097   1.864   1.983   2.916  0.5973  2.7914  1.1183
 6822SOL     OW32098   0.599   0.855   8.210 -0.4938 -0.0498  0.1670
 6822SOL    HW132099   0.634   0.892   8.291 -3.1299 -0.1776  1.3839
 6822SOL    HW232100   0.514   0.832   8.248 -1.5859  1.7221 -1.2073
 6823SOL     OW32101   4.406   0.505   4.106  0.0711 -0.6814  0.4282
 6823SOL    HW132102   4.381   0.531   4.017  1.5660 -1.5215 -0.2367
 6823SOL    HW232103   4.399   0.409   4.099 -0.5437 -0.6200  0.1462
 6824SOL     OW32104   2.104   0.896  14.700  0.0273  0.9487 -0.1749
 6824SOL    HW132105   2.124   0.846  14.621 -0.4732  3.4843 -1.9227
 6824SOL    HW232106   2.009   0.903  14.690 -0.1171  0.5632  0.9061
 6825SOL     OW32107   0.746   0.430   6.291 -0.4520 -0.5774  0.3046
 6825SOL    HW132108   0.796   0.459   6.368 -0.3510  3.1369 -1.1600
 6825SOL    HW232109   0.672   0.490   6.296  0.3873  0.5205 -0.3295
 6826SOL     OW32110   4.005   0.047   5.121 -0.1998  0.3493 -0.2324
 6826SOL    HW132111   4.019   0.058   5.027 -3.7140  2.0737 -0.5688
 6826SOL    HW232112   4.078   4.719   5.131 -0.1183  0.6203  0.7512
 6827SOL     OW32113   2.434   3.833   9.217  0.5226 -0.1246  0.3764
 6827SOL    HW132114   2.412   3.926   9.204  1.4259  0.2780  1.8731
 6827SOL    HW232115   2.514   3.842   9.267  0.8006 -0.4262 -0.0108
 6828SOL     OW32116   0.200   2.426   5.183 -0.4109 -0.2330  0.3998
 6828SOL    HW132117   0.117   2.408   5.139 -0.1224 -0.8150  0.0959
 6828SOL    HW232118   0.178   2.401   5.273  0.1027 -0.9473  0.3208
 6829SOL     OW32119   0.751   4.678  17.223  0.5455  0.6328  0.1753
 6829SOL    HW132120   0.765   0.017  17.160  0.5327 -0.2088 -0.7772
 6829SOL    HW232121   0.752   4.601  17.165 -1.0824  1.3459 -0.7975
 6830SOL     OW32122   0.728   3.184   8.590  0.3783 -0.2880 -0.8630
 6830SOL    HW132123   0.686   3.223   8.513 -1.3086 -1.2718 -0.4271
 6830SOL    HW232124   0.808   3.145   8.555  0.8987  1.5029 -1.6656
 6831SOL     OW32125   3.175   1.875  14.653 -0.3418  0.5144 -0.0599
 6831SOL    HW132126   3.159   1.801  14.595 -0.5130  0.4095  0.1198
 6831SOL    HW232127   3.233   1.924  14.595  0.7426 -2.1030 -1.1573
 6832SOL     OW32128   3.033   0.292   7.273 -0.1819  0.1110 -0.3246
 6832SOL    HW132129   3.006   0.259   7.187 -2.0068  0.5949  0.0819
 6832SOL    HW232130   3.045   0.203   7.308  0.7344  1.5204  2.8833
 6833SOL     OW32131   1.772   3.888   9.125  0.3140 -0.9943  0.1989
 6833SOL    HW132132   1.801   3.839   9.202  2.1264 -0.6642 -0.2831
 6833SOL    HW232133   1.685   3.849   9.116 -1.4878  2.9955  0.0807
 6834SOL     OW32134   1.776   1.409   5.048  0.2114 -0.2841 -0.6297
 6834SOL    HW132135   1.722   1.478   5.011 -1.2722 -0.7790  0.6377
 6834SOL    HW232136   1.767   1.437   5.139 -2.9265  2.3318 -1.7611
 6835SOL     OW32137   1.370   4.011   5.143 -0.2606  0.1517  0.1440
 6835SOL    HW132138   1.293   4.052   5.102  0.4847  1.5455  0.1345
 6835SOL    HW232139   1.342   3.934   5.192  0.2003 -0.0845  0.0352
 6836SOL     OW32140   1.153   0.986   5.175 -0.2334 -0.0248 -0.1499
 6836SOL    HW132141   1.159   1.081   5.164  0.8928 -0.1739 -0.7907
 6836SOL    HW232142   1.071   0.970   5.222  0.2921 -2.3801 -0.0100
 6837SOL     OW32143   1.582   1.489   4.482 -0.4461  0.0488 -0.0923
 6837SOL    HW132144   1.539   1.550   4.542  1.6237 -0.7462  2.1958
 6837SOL    HW232145   1.642   1.446   4.543  0.5597  0.1738 -0.9861
 6838SOL     OW32146   3.279   2.309   7.491 -0.0915 -0.0075  0.6286
 6838SOL    HW132147   3.265   2.364   7.568  0.0536  0.4319  0.3385
 6838SOL    HW232148   3.319   2.372   7.431 -0.9528  0.1531  0.2121
 6839SOL     OW32149   0.866   2.586   2.811  0.1230  0.5021  0.0185
 6839SOL    HW132150   0.945   2.542   2.779  0.2320  0.2497  0.6314
 6839SOL    HW232151   0.805   2.540   2.753  2.2902 -1.5477 -0.6415
 6840SOL     OW32152   0.058   3.238   1.959 -0.2262 -0.3703  0.9087
 6840SOL    HW132153   0.146   3.202   1.973  0.2320 -0.1871 -1.4747
 6840SOL    HW232154   0.071   3.320   1.911  1.2402  0.3796  2.5708
 6841SOL     OW32155   3.947   0.265  16.465  0.2587  0.4664  0.0595
 6841SOL    HW132156   3.874   0.308  16.421 -1.0812 -1.4003  0.4452
 6841SOL    HW232157   3.973   0.322  16.537  1.6350 -1.3192  0.9977
 6842SOL     OW32158   3.670   0.245   6.604  0.6313 -0.0376 -0.5415
 6842SOL    HW132159   3.593   0.189   6.617  1.2249 -0.4797  1.0758
 6842SOL    HW232160   3.718   0.232   6.686 -0.0496 -2.0219 -0.4604
 6843SOL     OW32161   4.645   0.730  11.658  0.6150 -0.6409  0.0381
 6843SOL    HW132162   4.674   0.740  11.568  2.0790 -1.5325  0.4020
 6843SOL    HW232163   4.694   0.658  11.698 -2.3569 -3.0133 -0.5777
 6844SOL     OW32164   3.380   2.294   9.114 -0.7499 -0.1784  0.3461
 6844SOL    HW132165   3.341   2.302   9.027 -0.4129 -0.4228  0.1767
 6844SOL    HW232166   3.300   2.293   9.167 -1.1873  0.3085 -0.2908
 6845SOL     OW32167   3.589   1.655  10.196  0.5004  0.6037  0.1396
 6845SOL    HW132168   3.637   1.702  10.127  0.2492  1.6684  0.6802
 6845SOL    HW232169   3.665   1.606  10.228  1.2133  2.6173  1.6106
 6846SOL     OW32170   2.759   3.735   7.099 -0.5077  1.0142  0.1432
 6846SOL    HW132171   2.684   3.682   7.070 -0.4050  1.5125 -1.0371
 6846SOL    HW232172   2.796   3.690   7.174 -2.0477  0.0817  0.3573
 6847SOL     OW32173   4.314   0.656   6.226  0.3623 -0.1301  0.3234
 6847SOL    HW132174   4.384   0.676   6.164  0.4577  0.4905  0.6247
 6847SOL    HW232175   4.357   0.679   6.308  4.0814  1.0111 -1.9299
 6848SOL     OW32176   4.213   0.383   6.195  0.0386  0.1208 -0.4598
 6848SOL    HW132177   4.215   0.356   6.103  0.8600  0.7569 -0.6252
 6848SOL    HW232178   4.289   0.441   6.195 -0.1871  0.4316  0.5085
 6849SOL     OW32179   1.240   3.541   8.990  0.5992 -0.7329  0.2519
 6849SOL    HW132180   1.263   3.626   8.953  0.8550  0.7572  3.8169
 6849SOL    HW232181   1.156   3.567   9.026  1.8385  3.4035  0.2398
 6850SOL     OW32182   1.011   0.673   3.793  0.2427 -0.2930  0.3129
 6850SOL    HW132183   1.064   0.601   3.758 -0.5305 -0.8515  0.2749
 6850SOL    HW232184   1.019   0.736   3.722  0.8523 -0.3160  0.3625
 6851SOL     OW32185   3.493   2.804  15.209 -0.0326  0.8268 -0.2878
 6851SOL    HW132186   3.532   2.751  15.139 -1.2689 -0.1059 -0.2716
 6851SOL    HW232187   3.416   2.752  15.233  0.5303  0.4834  0.7575
 6852SOL     OW32188   4.395   3.937  17.047  0.1697 -0.0759  0.1432
 6852SOL    HW132189   4.308   3.967  17.073 -0.8347 -0.2780 -3.0030
 6852SOL    HW232190   4.374   3.855  17.003 -1.6531 -0.3245  1.5014
 6853SOL     OW32191   3.802   4.644  12.236  0.4321 -0.1266 -0.6048
 6853SOL    HW132192   3.837   4.592  12.308  1.6250  0.6257 -0.6480
 6853SOL    HW232193   3.880   4.665  12.184  0.2213  0.1157 -0.8248
 6854SOL     OW32194   1.024   2.212   7.436 -0.2498 -0.2949  0.1890
 6854SOL    HW132195   1.054   2.187   7.523  0.8041 -1.5568 -0.5513
 6854SOL    HW232196   1.084   2.283   7.415 -0.9787  0.9882  2.4190
 6855SOL     OW32197   0.379   1.078   2.245 -0.4434 -0.1612  0.0119
 6855SOL    HW132198   0.459   1.046   2.286 -0.7293 -1.0856 -0.1382
 6855SOL    HW232199   0.398   1.171   2.239 -0.4264 -0.0949  1.0781
 6856SOL     OW32200   2.595   2.795   1.276  0.2991 -0.0765 -0.2565
 6856SOL    HW132201   2.679   2.751   1.265  0.8782  0.7598  0.8883
 6856SOL    HW232202   2.606   2.862   1.343 -0.9656 -2.1550  2.0167
 6857SOL     OW32203   0.776   0.422  12.791 -0.1513  0.2832 -0.0786
 6857SOL    HW132204   0.815   0.506  12.766 -2.7787  0.3886 -3.7367
 6857SOL    HW232205   0.721   0.416  12.713 -1.5648  0.6034  0.9109
 6858SOL     OW32206   4.606   3.422   2.347  0.1799  0.3650 -0.1799
 6858SOL    HW132207   4.538   3.354   2.343  0.1712  0.4037 -0.7089
 6858SOL    HW232208   4.689   3.382   2.373  0.1395  1.0044  0.8971
 6859SOL     OW32209   3.388   4.048   2.165  0.5445 -0.0302  0.6743
 6859SOL    HW132210   3.335   4.059   2.243 -2.1819  0.0888 -1.2110
 6859SOL    HW232211   3.479   4.062   2.191  0.2467  2.4548  0.3672
 6860SOL     OW32212   3.422   1.044   4.060  0.1774 -0.1033 -0.1530
 6860SOL    HW132213   3.474   1.018   4.136 -0.6286 -1.6542 -0.1308
 6860SOL    HW232214   3.483   1.100   4.012 -2.1020  0.5126 -2.2641
 6861SOL     OW32215   1.712   4.217   6.454  0.0738 -0.0499  0.3354
 6861SOL    HW132216   1.657   4.161   6.509  0.2644  0.1262  0.7075
 6861SOL    HW232217   1.720   4.165   6.374  0.4625  1.5049 -0.6497
 6862SOL     OW32218   4.386   4.374   0.737 -0.3779 -0.2340 -0.4735
 6862SOL    HW132219   4.410   4.382   0.645  1.2504  1.0966  0.0839
 6862SOL    HW232220   4.445   4.439   0.773 -0.4459 -0.3343 -0.1737
 6863SOL     OW32221   1.906   3.767  10.519  0.3767 -0.1929 -0.0290
 6863SOL    HW132222   1.902   3.732  10.608  0.1888  0.0133  0.0454
 6863SOL    HW232223   1.861   3.693  10.479  1.5187 -1.4411  0.9992
 6864SOL     OW32224   4.502   2.839  16.957 -0.2960 -0.6697 -0.3004
 6864SOL    HW132225   4.500   2.750  16.924  0.0739 -0.8188  0.0847
 6864SOL    HW232226   4.517   2.898  16.882 -2.2479 -0.5401 -0.5716
 6865SOL     OW32227   0.411   1.280   5.762 -0.0514 -0.1090 -0.1950
 6865SOL    HW132228   0.318   1.270   5.779  0.0450  1.8125  1.4946
 6865SOL    HW232229   0.414   1.291   5.667 -3.8145  1.1655 -0.1353
 6866SOL     OW32230   2.026   0.497   7.708  0.0629 -0.0810  0.5827
 6866SOL    HW132231   2.005   0.405   7.723 -0.4919  0.4011  2.7421
 6866SOL    HW232232   2.104   0.502   7.762  0.1515  1.8592  0.2779
 6867SOL     OW32233   2.553   1.101  11.654  0.3208  0.2015  1.1551
 6867SOL    HW132234   2.543   1.035  11.586  1.9172  0.7687  0.3646
 6867SOL    HW232235   2.591   1.041  11.718  2.0162  1.1751  1.0731
 6868SOL     OW32236   0.429   1.152   6.553  0.1490 -0.1261  0.0221
 6868SOL    HW132237   0.453   1.231   6.504 -0.3662  0.3539  0.5465
 6868SOL    HW232238   0.340   1.177   6.580  1.0195  3.7095 -0.5410
 6869SOL     OW32239   2.898   0.623  14.504 -0.1161  0.4549  0.3720
 6869SOL    HW132240   2.814   0.583  14.483 -1.0883  1.1594  2.8805
 6869SOL    HW232241   2.904   0.685  14.432 -0.4140  0.9670  0.7951
 6870SOL     OW32242   0.208   3.627   2.668 -0.2408 -0.1197 -0.2806
 6870SOL    HW132243   0.153   3.690   2.622 -0.7674 -0.2787  0.1387
 6870SOL    HW232244   0.213   3.688   2.742  2.2071  0.0545 -0.5852
 6871SOL     OW32245   2.336   4.618   0.424 -0.0544 -0.0251 -0.2133
 6871SOL    HW132246   2.279   4.613   0.347  0.1516  0.6075 -0.4089
 6871SOL    HW232247   2.289   4.548   0.470  0.0339 -0.2506 -0.4658
 6872SOL     OW32248   3.273   4.350   4.399  0.3070  0.1147  0.2826
 6872SOL    HW132249   3.238   4.264   4.375  2.9115 -1.1480  1.0580
 6872SOL    HW232250   3.350   4.329   4.451  1.4138  1.4300 -0.8141
 6873SOL     OW32251   2.535   2.614   9.955 -0.6039  0.4542 -0.0378
 6873SOL    HW132252   2.450   2.633   9.994 -0.0451  1.4509  0.6907
 6873SOL    HW232253   2.574   2.577  10.035  0.5161  0.5676 -0.5290
 6874SOL     OW32254   3.553   3.157   9.923 -0.2848  0.1282 -0.3016
 6874SOL    HW132255   3.521   3.184  10.009 -1.1714  0.4097 -0.7281
 6874SOL    HW232256   3.595   3.241   9.902  0.2725  0.8420  3.6282
 6875SOL     OW32257   2.769   3.809   5.835 -0.4674 -0.1043  0.4434
 6875SOL    HW132258   2.706   3.868   5.876  1.1170  1.3952  0.7204
 6875SOL    HW232259   2.724   3.725   5.837  0.3288 -0.5357  0.1660
 6876SOL     OW32260   2.929   0.907   4.065 -0.2204  0.2279  0.0183
 6876SOL    HW132261   2.892   0.995   4.066 -0.4580  0.1115  0.9219
 6876SOL    HW232262   2.847   0.858   4.056 -1.6484  2.1299  2.7302
 6877SOL     OW32263   4.598   4.661   7.432  0.4373  0.0876 -0.1058
 6877SOL    HW132264   4.646   4.679   7.351  2.9327 -0.7538  1.1844
 6877SOL    HW232265   4.638   4.727   7.489 -0.6658 -0.1621  0.9414
 6878SOL     OW32266   1.819   4.393   0.671 -0.5392  0.4745 -0.0116
 6878SOL    HW132267   1.724   4.401   0.672 -0.3523  2.4534  1.4604
 6878SOL    HW232268   1.842   4.454   0.601  1.9252  0.0881  0.4682
 6879SOL     OW32269   4.316   1.896   2.585  0.0999  0.0457  0.0138
 6879SOL    HW132270   4.276   1.945   2.513  2.4849  1.1087 -0.6045
 6879SOL    HW232271   4.239   1.852   2.621  1.8977 -2.7608  0.4399
 6880SOL     OW32272   3.162   1.445   3.157 -0.2700 -0.0005  0.7868
 6880SOL    HW132273   3.216   1.375   3.121 -0.1302  1.0571 -1.0102
 6880SOL    HW232274   3.101   1.395   3.211 -1.9967  3.4042  2.0368
 6881SOL     OW32275   2.537   0.939   9.639 -0.0881 -0.7346 -0.6862
 6881SOL    HW132276   2.499   0.961   9.554  3.9297 -0.0621 -2.3300
 6881SOL    HW232277   2.602   0.874   9.613  0.7443  0.7063 -2.2175
 6882SOL     OW32278   2.545   2.853   9.820  0.0231 -0.5199  0.0246
 6882SOL    HW132279   2.619   2.837   9.761  1.5392  1.3052  1.4015
 6882SOL    HW232280   2.551   2.775   9.874  0.4877  0.1719  0.9789
 6883SOL     OW32281   1.083   2.336  14.777 -0.8499  0.4470 -0.7851
 6883SOL    HW132282   1.062   2.389  14.701  0.4014  2.4366  0.2519
 6883SOL    HW232283   1.056   2.398  14.845  0.9050 -1.1819  1.3910
 6884SOL     OW32284   2.054   0.463   3.364  0.7448 -0.1597  0.0532
 6884SOL    HW132285   2.131   0.410   3.349  0.0373 -0.4488 -2.4964
 6884SOL    HW232286   2.091   0.545   3.397 -0.2739  0.8368 -1.2874
 6885SOL     OW32287   3.605   3.497   4.674 -0.3105 -0.0784 -0.2962
 6885SOL    HW132288   3.568   3.573   4.629  0.3747 -0.5786 -1.6984
 6885SOL    HW232289   3.657   3.469   4.598 -0.2072 -1.7138  0.3706
 6886SOL     OW32290   2.078   2.696   8.147 -0.2111  0.1536  0.1316
 6886SOL    HW132291   2.053   2.621   8.202 -0.7450 -0.9864 -1.6780
 6886SOL    HW232292   2.043   2.659   8.066  1.3821 -2.3419  0.5821
 6887SOL     OW32293   2.604   3.867   5.537  0.2551 -0.2324 -0.0252
 6887SOL    HW132294   2.627   3.807   5.467  0.6011 -0.3368  0.1760
 6887SOL    HW232295   2.527   3.828   5.577  1.7258 -2.9328  0.1321
 6888SOL     OW32296   3.894   4.555   3.971  0.5722 -0.2703  0.0238
 6888SOL    HW132297   3.926   4.465   3.964  1.5870  0.0676  0.3038
 6888SOL    HW232298   3.916   4.578   4.062 -1.5343 -0.5369  0.6031
 6889SOL     OW32299   1.928   0.581   1.639 -0.2878 -0.3481 -0.1476
 6889SOL    HW132300   1.845   0.628   1.647  1.0782  2.0103  0.1349
 6889SOL    HW232301   1.896   0.494   1.661 -0.3281 -0.0120  1.1044
 6890SOL     OW32302   4.562   0.489   7.734 -0.1349  0.1448 -0.2644
 6890SOL    HW132303   4.507   0.427   7.685  1.0153 -1.9543  1.0905
 6890SOL    HW232304   4.601   0.527   7.656 -1.5006  0.2979 -0.8843
 6891SOL     OW32305   4.055   2.800  16.140  0.2284 -0.3776 -0.4183
 6891SOL    HW132306   3.987   2.756  16.191 -0.7807  0.1181 -1.3333
 6891SOL    HW232307   4.082   2.871  16.199 -1.7231 -1.3934  1.6879
 6892SOL     OW32308   2.822   1.418   5.373  0.3217  0.2037  0.6512
 6892SOL    HW132309   2.827   1.324   5.391 -0.4261  0.4245  2.0404
 6892SOL    HW232310   2.737   1.433   5.414 -0.0755  4.4984 -1.7080
 6893SOL     OW32311   1.338   0.900   8.613  0.0230 -0.6776  0.1778
 6893SOL    HW132312   1.275   0.867   8.676  0.2579  0.7029  1.1267
 6893SOL    HW232313   1.376   0.975   8.660 -0.4075 -0.5076  0.2527
 6894SOL     OW32314   0.953   1.450  13.654  0.2619  0.2426 -0.2000
 6894SOL    HW132315   1.001   1.460  13.572 -0.3448 -0.8606 -0.6822
 6894SOL    HW232316   0.992   1.515  13.713  0.9502  0.2653 -0.6866
 6895SOL     OW32317   1.368   1.371  11.969  0.2529  0.1138 -0.1746
 6895SOL    HW132318   1.443   1.363  11.910 -0.2319 -2.4733 -0.4369
 6895SOL    HW232319   1.380   1.449  12.023  1.3879 -0.6680  0.7103
 6896SOL     OW32320   0.822   2.748   2.399  0.4014 -0.2998  0.0345
 6896SOL    HW132321   0.751   2.796   2.442 -0.3012  0.9686 -2.5106
 6896SOL    HW232322   0.882   2.822   2.389 -0.1455  0.1829  0.2555
 6897SOL     OW32323   1.354   1.196   3.351 -0.5229 -0.0229 -0.9566
 6897SOL    HW132324   1.359   1.189   3.255 -0.3877 -2.5548 -0.7646
 6897SOL    HW232325   1.394   1.282   3.359 -1.5393  0.1652  2.0936
 6898SOL     OW32326   1.780   1.920   1.727  0.1025  0.4930  0.8314
 6898SOL    HW132327   1.749   1.835   1.696  3.2119 -0.0372 -0.8944
 6898SOL    HW232328   1.861   1.920   1.675 -0.2392  0.8336  0.2977
 6899SOL     OW32329   0.139   3.909  11.275 -0.1897 -0.2879  0.0758
 6899SOL    HW132330   0.225   3.872  11.256  0.2271  0.4473  0.5751
 6899SOL    HW232331   0.088   3.897  11.195  3.3757  3.8338 -2.8012
 6900SOL     OW32332   4.369   1.373  16.456  0.2623 -0.3341 -0.2717
 6900SOL    HW132333   4.278   1.369  16.428  0.2058  0.8503 -0.2227
 6900SOL    HW232334   4.419   1.341  16.381 -0.7658 -2.3101 -0.1182
 6901SOL     OW32335   0.190   1.819   0.347  0.7007 -0.2820  0.4109
 6901SOL    HW132336   0.143   1.903   0.345  1.0372 -0.0512  2.1090
 6901SOL    HW232337   0.130   1.751   0.315  0.8700  0.6662 -1.9491
 6902SOL     OW32338   1.776   0.978   3.713 -0.0770 -0.1504 -0.1313
 6902SOL    HW132339   1.731   0.899   3.683  2.7775 -2.0318  0.5828
 6902SOL    HW232340   1.721   1.046   3.675 -0.3860 -0.4622 -0.2372
 6903SOL     OW32341   2.056   4.463  11.335 -0.0727 -0.0815  0.2532
 6903SOL    HW132342   2.028   4.439  11.246  3.9094 -1.1342 -0.6880
 6903SOL    HW232343   2.149   4.453  11.318 -0.2043 -0.8809 -0.0227
 6904SOL     OW32344   3.525   2.914  10.264 -0.0504 -0.0227  0.2272
 6904SOL    HW132345   3.513   2.998  10.220  0.6201  0.0987  0.2760
 6904SOL    HW232346   3.587   2.938  10.333  0.1959 -0.3298  0.1133
 6905SOL     OW32347   3.154   4.671   0.817  0.2542 -0.0529  0.3800
 6905SOL    HW132348   3.140   4.581   0.849  1.3132 -0.4214 -0.1829
 6905SOL    HW232349   3.103   4.671   0.736  1.7155 -0.2271 -0.5464
 6906SOL     OW32350   1.348   1.001  16.779 -0.2301 -0.2378  0.5267
 6906SOL    HW132351   1.422   1.059  16.797 -0.1570 -0.2540  0.2737
 6906SOL    HW232352   1.329   0.978  16.870  1.0520 -2.1778  0.3011
 6907SOL     OW32353   4.179   1.833   4.298  0.0534 -0.1885 -0.3853
 6907SOL    HW132354   4.256   1.780   4.319  1.2610  1.4481 -0.6776
 6907SOL    HW232355   4.169   1.862   4.388 -1.8518 -1.8220 -0.0710
 6908SOL     OW32356   1.126   2.028   3.537 -0.8862 -0.2826  0.1426
 6908SOL    HW132357   1.115   2.025   3.632  3.6623  2.0047  0.7542
 6908SOL    HW232358   1.211   1.983   3.529  0.3286  1.9971  0.1173
 6909SOL     OW32359   4.050   2.070  10.027 -0.2204  0.3998 -0.2879
 6909SOL    HW132360   4.074   2.023  10.107  0.6637  2.1717  0.5020
 6909SOL    HW232361   3.955   2.060  10.020 -0.2554  0.7956 -0.3870
 6910SOL     OW32362   0.808   3.515   5.256  0.0049 -0.0574  0.4030
 6910SOL    HW132363   0.759   3.587   5.216 -2.1613 -1.1628  1.0751
 6910SOL    HW232364   0.793   3.436   5.204 -2.6986  1.1694 -0.6569
 6911SOL     OW32365   3.369   3.316  11.312 -0.1541 -0.1738 -0.3923
 6911SOL    HW132366   3.405   3.283  11.230  0.2529 -2.0935  0.5674
 6911SOL    HW232367   3.422   3.270  11.377  1.0202  0.8328 -0.6155
 6912SOL     OW32368   1.187   3.065   6.395  0.2506  0.2201 -0.7498
 6912SOL    HW132369   1.182   3.134   6.329  1.0479  1.5374  0.5737
 6912SOL    HW232370   1.268   3.020   6.371 -1.8337 -4.4234  0.9444
 6913SOL     OW32371   2.885   1.219   5.036 -0.1784  0.1996 -0.2624
 6913SOL    HW132372   2.971   1.261   5.034 -0.4504  0.8282  1.5008
 6913SOL    HW232373   2.829   1.280   4.989 -0.8071 -1.1262 -1.2405
 6914SOL     OW32374   0.273   3.500  12.851 -0.9783  0.3522 -0.1280
 6914SOL    HW132375   0.281   3.419  12.801  0.9201 -2.0010  3.9053
 6914SOL    HW232376   0.306   3.471  12.936  1.0135  0.9739 -0.6840
 6915SOL     OW32377   1.396   1.735   3.034 -0.3598 -0.8763  0.3665
 6915SOL    HW132378   1.394   1.650   2.992 -0.5974 -0.6416 -0.0962
 6915SOL    HW232379   1.340   1.721   3.111  0.4105  0.7153  1.2246
 6916SOL     OW32380   3.218   2.029   2.583  0.1416 -0.1714  0.7162
 6916SOL    HW132381   3.149   2.068   2.637 -0.6324 -0.7238  0.1349
 6916SOL    HW232382   3.297   2.070   2.619 -0.2539  1.6932 -0.5620
 6917SOL     OW32383   3.802   1.279   1.900  0.9838  0.1240 -0.3091
 6917SOL    HW132384   3.744   1.217   1.945  0.3952  0.2984 -0.8291
 6917SOL    HW232385   3.890   1.243   1.908 -0.1054 -2.2233  1.1328
 6918SOL     OW32386   1.430   1.559  11.328  0.5726  0.0386 -0.0961
 6918SOL    HW132387   1.503   1.562  11.390  0.6924  0.1706 -0.2409
 6918SOL    HW232388   1.406   1.468  11.344 -0.1504  0.1101 -0.7908
 6919SOL     OW32389   4.153   4.362   3.233 -0.1871  0.5236  0.0375
 6919SOL    HW132390   4.228   4.346   3.176  1.0685  1.4914  1.3913
 6919SOL    HW232391   4.184   4.441   3.279 -1.3799  0.1005  1.5649
 6920SOL     OW32392   0.964   1.145   2.461 -0.1824 -0.1118  0.1778
 6920SOL    HW132393   0.943   1.054   2.440  0.0340  0.2733 -1.7290
 6920SOL    HW232394   0.976   1.136   2.556 -1.2521 -0.5140  0.2728
 6921SOL     OW32395   0.448   3.806   4.084  0.3698 -0.3621 -0.1529
 6921SOL    HW132396   0.542   3.800   4.100  0.6140  0.2624 -1.3509
 6921SOL    HW232397   0.414   3.718   4.070 -0.0828 -0.4241  1.2705
 6922SOL     OW32398   1.199   1.304   8.457  0.2423  0.7021  0.4968
 6922SOL    HW132399   1.131   1.352   8.410  2.7802  2.5757 -1.1999
 6922SOL    HW232400   1.172   1.321   8.547 -0.1032  0.8987  0.3556
 6923SOL     OW32401   1.317   2.823   1.586  0.1637  0.2253  0.6911
 6923SOL    HW132402   1.302   2.902   1.637 -1.5099 -0.7253  1.6581
 6923SOL    HW232403   1.277   2.755   1.641  0.0261 -1.3831 -1.3991
 6924SOL     OW32404   2.047   3.621   4.977 -0.2630 -0.0929  0.0881
 6924SOL    HW132405   1.993   3.612   5.055  0.6997 -3.6493  0.3347
 6924SOL    HW232406   2.014   3.546   4.926 -2.0604  1.8925 -1.6903
 6925SOL     OW32407   1.746   3.986   9.544 -0.0362  0.6493  0.1200
 6925SOL    HW132408   1.769   4.004   9.635 -2.2605 -1.2682  1.0778
 6925SOL    HW232409   1.776   3.895   9.545 -0.3077  0.5583  0.1362
 6926SOL     OW32410   3.804   4.521   8.890 -0.1739 -0.0563  0.3928
 6926SOL    HW132411   3.802   4.572   8.971 -0.2168 -0.8309  0.8728
 6926SOL    HW232412   3.737   4.570   8.841  2.9628  1.6855 -2.1616
 6927SOL     OW32413   0.118   3.108  10.067 -0.5026  0.4713 -0.0623
 6927SOL    HW132414   0.162   3.161  10.000 -2.4537  1.1635 -0.8016
 6927SOL    HW232415   0.174   3.117  10.143  0.3206  2.7244 -0.9336
 6928SOL     OW32416   0.891   1.913   6.309  0.5720  0.4924  0.5502
 6928SOL    HW132417   0.934   1.948   6.388  0.0343  1.1959  0.5363
 6928SOL    HW232418   0.966   1.876   6.263  0.5754  2.7542 -1.2885
 6929SOL     OW32419   3.244   4.342   1.994  0.2878 -0.6499  0.5926
 6929SOL    HW132420   3.191   4.293   2.057  0.7468  2.0976  3.1304
 6929SOL    HW232421   3.177   4.386   1.941  1.4865  0.1447 -0.2741
 6930SOL     OW32422   2.632   0.240   4.005  0.2448 -0.0403 -0.5733
 6930SOL    HW132423   2.685   0.222   3.927  1.5600 -0.1497  0.3498
 6930SOL    HW232424   2.631   0.153   4.046 -1.9366 -0.6459 -1.8717
 6931SOL     OW32425   3.271   0.059   3.249  0.6105 -0.0612 -0.3494
 6931SOL    HW132426   3.319   0.027   3.325 -0.5888 -0.7943  0.1138
 6931SOL    HW232427   3.272   0.152   3.270 -1.3175  0.0451 -0.6983
 6932SOL     OW32428   1.309   1.396   5.977 -0.0285  0.0892  0.5821
 6932SOL    HW132429   1.230   1.444   5.951 -0.1476 -1.3656 -1.7308
 6932SOL    HW232430   1.359   1.391   5.895  2.5437  1.3061  2.0696
 6933SOL     OW32431   4.382   4.374   8.252  0.6206  0.2076  0.0477
 6933SOL    HW132432   4.450   4.414   8.197 -1.6270  0.2511 -2.7095
 6933SOL    HW232433   4.412   4.404   8.338  0.9592  1.8533 -0.6463
 6934SOL     OW32434   1.198   3.471   5.523  0.3919 -0.0509  0.1081
 6934SOL    HW132435   1.208   3.391   5.575  1.6454  0.9257  1.3710
 6934SOL    HW232436   1.103   3.481   5.519  0.1090 -1.9398  2.0115
 6935SOL     OW32437   4.544   2.414   6.578  0.3720 -0.0441 -0.1608
 6935SOL    HW132438   4.542   2.321   6.553  3.9336  0.5341 -2.6226
 6935SOL    HW232439   4.563   2.455   6.493  0.2747  1.4860  0.5622
 6936SOL     OW32440   2.351   2.070   0.376  0.5218  0.8659 -0.1884
 6936SOL    HW132441   2.336   2.153   0.422 -0.3339  0.3634  0.4428
 6936SOL    HW232442   2.320   2.099   0.290  1.5624  4.0269  0.5043
 6937SOL     OW32443   3.496   3.940   3.321  0.4814 -0.3330  0.4577
 6937SOL    HW132444   3.474   3.917   3.231  0.9588  2.6784 -0.4385
 6937SOL    HW232445   3.591   3.950   3.316  0.5384  0.4066  3.0617
 6938SOL     OW32446   0.778   4.171   4.790 -0.0170  0.2545 -0.3635
 6938SOL    HW132447   0.790   4.243   4.851  1.0277 -2.3491  2.5193
 6938SOL    HW232448   0.688   4.150   4.814  1.2524 -2.3176  2.1701
 6939SOL     OW32449   2.954   1.071   4.582  0.3551  0.2300 -0.1809
 6939SOL    HW132450   2.885   1.136   4.598  0.8637  0.6628  0.2843
 6939SOL    HW232451   2.941   1.039   4.493  0.9868 -1.0460  0.1845
 6940SOL     OW32452   1.028   1.462   7.898  0.6765 -0.1382  0.6751
 6940SOL    HW132453   1.107   1.431   7.854  1.5436  1.1438  1.3038
 6940SOL    HW232454   1.023   1.394   7.965 -0.9914 -0.2501  0.4332
 6941SOL     OW32455   0.029   1.816   8.188  0.1496 -0.0129 -0.1609
 6941SOL    HW132456   0.046   1.725   8.164 -0.7311  0.1503 -1.3954
 6941SOL    HW232457   0.113   1.849   8.155 -0.7548  0.5255 -1.8948
 6942SOL     OW32458   3.530   3.688   5.494 -0.0648  0.6918  0.3335
 6942SOL    HW132459   3.548   3.682   5.400 -1.0861 -2.9279  0.3768
 6942SOL    HW232460   3.440   3.721   5.490  0.2006  1.0745 -2.1811
 6943SOL     OW32461   4.511   2.885   1.589  0.2539  0.2072 -0.6389
 6943SOL    HW132462   4.460   2.860   1.665  2.6968  0.1834  0.9825
 6943SOL    HW232463   4.523   2.970   1.631  0.9508  0.4281 -1.2707
 6944SOL     OW32464   3.670   0.436   9.211  0.1191  0.5849  0.2717
 6944SOL    HW132465   3.621   0.457   9.132 -0.2721  1.5261  0.7650
 6944SOL    HW232466   3.645   0.516   9.258  2.0574  1.0596  0.4872
 6945SOL     OW32467   0.261   2.612  16.588  0.9280 -0.2717  0.6197
 6945SOL    HW132468   0.170   2.625  16.612  1.5839  1.9743  1.8532
 6945SOL    HW232469   0.248   2.551  16.515  1.2410  2.3652 -1.6157
 6946SOL     OW32470   3.716   3.266   9.395 -0.2537  0.0723  0.5335
 6946SOL    HW132471   3.691   3.353   9.363  0.2711 -0.9276 -2.5142
 6946SOL    HW232472   3.639   3.223   9.432 -0.7824  0.2936 -0.3136
 6947SOL     OW32473   4.374   1.213   6.985  0.0741  0.2418  0.3696
 6947SOL    HW132474   4.384   1.280   7.052  2.2757 -0.1511  0.4355
 6947SOL    HW232475   4.390   1.262   6.903  0.1221 -0.9660 -0.3410
 6948SOL     OW32476   2.708   4.638   2.268 -0.1339  0.2866 -0.0374
 6948SOL    HW132477   2.709   4.672   2.179  2.4939  2.1115  0.7184
 6948SOL    HW232478   2.665   4.554   2.250  0.2038 -0.2801  1.7068
 6949SOL     OW32479   2.272   1.207   7.537  0.5224  0.2825 -0.3340
 6949SOL    HW132480   2.229   1.172   7.616  0.5819  0.4309 -0.2359
 6949SOL    HW232481   2.283   1.124   7.490  0.7980  0.4752 -0.6085
 6950SOL     OW32482   1.211   0.657   7.026 -0.6961  0.0177 -0.2682
 6950SOL    HW132483   1.218   0.562   7.033 -0.0748  0.0566 -0.3810
 6950SOL    HW232484   1.287   0.686   6.976 -0.8717  2.0664  0.6309
 6951SOL     OW32485   0.188   2.397  15.634 -0.7207 -0.1194  0.3011
 6951SOL    HW132486   0.165   2.345  15.558 -0.8237 -0.0508  0.2854
 6951SOL    HW232487   0.235   2.328  15.680 -0.9117  1.0780  2.3372
 6952SOL     OW32488   0.472   0.442  14.801 -0.1156 -0.2720 -0.0218
 6952SOL    HW132489   0.410   0.505  14.765 -0.8204 -0.0057  1.6784
 6952SOL    HW232490   0.408   0.379  14.834 -0.7826  0.1787 -0.4557
 6953SOL     OW32491   1.540   3.516   7.122 -0.2223 -0.3497  0.6163
 6953SOL    HW132492   1.497   3.556   7.198 -0.8151 -0.7747  0.5043
 6953SOL    HW232493   1.632   3.508   7.146 -0.0879 -1.2066 -0.1972
 6954SOL     OW32494   3.566   1.378   7.292 -0.1265 -0.5108  0.0124
 6954SOL    HW132495   3.499   1.382   7.359 -0.4349 -0.3996 -0.3049
 6954SOL    HW232496   3.596   1.287   7.296  0.7660 -0.2356 -0.2718
 6955SOL     OW32497   3.741   2.075   2.614  0.9802 -0.1010 -0.0255
 6955SOL    HW132498   3.654   2.038   2.625  1.3146 -0.8198  0.1699
 6955SOL    HW232499   3.761   2.080   2.708 -0.9202 -0.9547  0.4143
 6956SOL     OW32500   4.569   1.526   7.854  0.3007  0.0069 -0.4197
 6956SOL    HW132501   4.486   1.565   7.828  0.6260 -0.1564 -1.7055
 6956SOL    HW232502   4.550   1.436   7.826 -1.0511  0.5967 -1.3677
 6957SOL     OW32503   3.884   0.402   3.261 -0.2695 -0.2522  0.1070
 6957SOL    HW132504   3.850   0.488   3.285  0.4160 -0.0616  0.4045
 6957SOL    HW232505   3.973   0.429   3.283 -0.1266  0.3900 -1.2536
 6958SOL     OW32506   1.874   2.553   6.579  0.0145  0.0598 -0.2262
 6958SOL    HW132507   1.895   2.461   6.593  1.8676  0.9476  2.6740
 6958SOL    HW232508   1.960   2.587   6.556 -0.4311 -0.0915 -2.1590
 6959SOL     OW32509   4.656   3.320   4.284 -0.7282  0.2297 -0.4183
 6959SOL    HW132510   4.642   3.243   4.340  0.9401 -0.5790 -1.1181
 6959SOL    HW232511   4.669   3.386   4.352 -0.2128 -1.6805  1.3429
 6960SOL     OW32512   3.901   0.204   6.450  0.6022  0.1098 -0.3581
 6960SOL    HW132513   3.932   0.120   6.486 -0.1568 -0.3477 -0.7895
 6960SOL    HW232514   3.811   0.199   6.481  1.4730 -0.4976  2.1601
 6961SOL     OW32515   2.616   2.752   3.734  0.1592 -0.0289  0.4876
 6961SOL    HW132516   2.653   2.663   3.733  2.5585  0.9800 -1.5002
 6961SOL    HW232517   2.554   2.740   3.806  1.9069  1.1191  2.1639
 6962SOL     OW32518   1.355   1.681   3.575 -0.3233 -0.9151 -0.0511
 6962SOL    HW132519   1.368   1.770   3.542 -1.6709 -0.3074  1.0359
 6962SOL    HW232520   1.278   1.682   3.632 -1.5444 -2.6256 -1.6961
 6963SOL     OW32521   0.873   0.646   4.016  0.1910  0.1041  0.1217
 6963SOL    HW132522   0.958   0.630   4.057  0.8941  1.4584 -0.7872
 6963SOL    HW232523   0.908   0.644   3.927  0.5857  0.3849  0.2725
 6964SOL     OW32524   3.744   2.008   6.881  0.1650 -0.8732  0.6227
 6964SOL    HW132525   3.827   2.050   6.859 -1.1024  0.1494 -2.2375
 6964SOL    HW232526   3.756   1.936   6.943 -0.4271 -0.3894  1.3005
 6965SOL     OW32527   0.602   1.191   5.393  0.1290 -0.6438  0.3988
 6965SOL    HW132528   0.633   1.105   5.366 -0.5922 -0.9671  0.6015
 6965SOL    HW232529   0.662   1.247   5.344 -1.4612 -0.7020 -1.5996
 6966SOL     OW32530   2.725   1.624   3.005  0.5314  0.1119  0.3409
 6966SOL    HW132531   2.752   1.542   2.964 -3.2305 -0.2027 -1.4960
 6966SOL    HW232532   2.676   1.611   3.086 -0.8080 -2.4769 -0.8787
 6967SOL     OW32533   0.526   1.245  15.197  0.2799 -0.0211  0.0475
 6967SOL    HW132534   0.441   1.251  15.241 -0.8820 -2.0056 -1.9664
 6967SOL    HW232535   0.591   1.233  15.266  1.7086 -0.0400 -1.2825
 6968SOL     OW32536   0.750   1.636   2.537  0.2251 -0.0561  0.2567
 6968SOL    HW132537   0.792   1.550   2.535  1.2849  0.4663  0.0672
 6968SOL    HW232538   0.730   1.638   2.631 -0.7821  0.1058  0.0451
 6969SOL     OW32539   4.478   2.098   4.383  0.5881 -0.2840 -0.1132
 6969SOL    HW132540   4.507   2.081   4.472 -2.7287  0.6061  1.1214
 6969SOL    HW232541   4.551   2.153   4.354 -1.0647  0.4153 -3.0549
 6970SOL     OW32542   2.875   1.600   1.227 -0.5707  0.5581 -0.0758
 6970SOL    HW132543   2.801   1.657   1.206 -2.1692 -1.6609 -0.3799
 6970SOL    HW232544   2.890   1.651   1.307  0.9220  0.6073 -0.3812
 6971SOL     OW32545   3.834   2.308  14.113  0.6077 -0.4380  0.1818
 6971SOL    HW132546   3.815   2.245  14.182 -0.3059 -0.6751 -0.2891
 6971SOL    HW232547   3.749   2.352  14.102  0.9406  0.1846  0.0840
 6972SOL     OW32548   2.990   0.637   6.409 -0.0873 -0.3270  0.0600
 6972SOL    HW132549   3.000   0.732   6.401  2.2714 -0.5032  0.8068
 6972SOL    HW232550   2.971   0.615   6.318 -0.0493  0.6237 -0.1798
 6973SOL     OW32551   0.764   2.848   0.531  0.0604 -0.3063 -0.5177
 6973SOL    HW132552   0.705   2.923   0.521  1.1429  0.8957  2.0400
 6973SOL    HW232553   0.697   2.782   0.546 -2.0318  1.6095 -1.3335
 6974SOL     OW32554   4.672   2.164   3.553 -0.4376  0.4538  0.0415
 6974SOL    HW132555   4.647   2.138   3.464 -0.2507  0.4248 -0.0017
 6974SOL    HW232556   4.587   2.194   3.585 -0.9604 -1.2293  0.2204
 6975SOL     OW32557   0.680   3.762   7.642 -0.0040 -0.4282  0.3859
 6975SOL    HW132558   0.731   3.843   7.651 -0.7998  0.1187  0.0162
 6975SOL    HW232559   0.633   3.783   7.561  2.0495 -0.8179 -0.9007
 6976SOL     OW32560   1.740   3.928   3.400 -0.1022  0.1061  0.3099
 6976SOL    HW132561   1.709   3.841   3.373 -0.2524  0.9846 -2.3820
 6976SOL    HW232562   1.731   3.962   3.311  3.0461  0.3175  0.0782
 6977SOL     OW32563   2.324   4.728   3.753 -0.0429  0.2993 -0.5790
 6977SOL    HW132564   2.419   4.727   3.740  0.0071  0.1619 -0.1856
 6977SOL    HW232565   2.308   4.689   3.839  0.6197 -0.5107 -0.8207
 6978SOL     OW32566   2.087   0.628   4.293  0.4032 -0.0726 -0.4488
 6978SOL    HW132567   2.158   0.628   4.228  0.8257 -0.6865  0.0194
 6978SOL    HW232568   2.084   0.723   4.309 -1.2188 -0.1985 -0.0583
 6979SOL     OW32569   3.898   3.066  10.413 -0.3215  0.1300 -0.0989
 6979SOL    HW132570   3.827   3.131  10.410 -0.5114  0.0019  1.8038
 6979SOL    HW232571   3.898   3.034  10.322 -2.5146 -0.7285  0.2062
 6980SOL     OW32572   3.626   3.636  15.804 -0.7033 -0.2074  0.1608
 6980SOL    HW132573   3.569   3.559  15.794  1.1602 -1.8448  1.9836
 6980SOL    HW232574   3.661   3.617  15.891  3.2287  1.2031 -1.1194
 6981SOL     OW32575   2.786   0.777   3.385  0.1539 -0.3444  0.2971
 6981SOL    HW132576   2.805   0.796   3.477  0.0654  1.0781  0.0215
 6981SOL    HW232577   2.734   0.698   3.400  0.0266 -0.6259 -1.7044
 6982SOL     OW32578   4.357   2.200  17.063 -0.0713 -0.0656  0.3787
 6982SOL    HW132579   4.344   2.219  16.970  1.7969 -1.3154 -0.1504
 6982SOL    HW232580   4.397   2.113  17.054 -1.0125 -0.4455 -0.0481
 6983SOL     OW32581   0.511   1.811  15.891  0.8003  0.8164  0.2712
 6983SOL    HW132582   0.429   1.774  15.923  0.8204  0.9281  0.4528
 6983SOL    HW232583   0.509   1.895  15.937 -1.8671  0.5337  0.6645
 6984SOL     OW32584   0.769   4.116   3.016  0.2474  0.1886  0.3009
 6984SOL    HW132585   0.690   4.155   2.978 -0.5143 -0.6888  0.9840
 6984SOL    HW232586   0.838   4.173   2.981 -1.6687  1.5368 -1.2977
 6985SOL     OW32587   1.882   1.732   2.580  0.1646  0.3275 -0.0735
 6985SOL    HW132588   1.956   1.675   2.561 -2.1284 -3.2373  1.6798
 6985SOL    HW232589   1.910   1.817   2.547 -0.7405  1.2021  1.3808
 6986SOL     OW32590   3.467   4.106   4.246  0.1902 -0.0703 -0.2584
 6986SOL    HW132591   3.375   4.081   4.240 -0.1727  0.5664  2.4490
 6986SOL    HW232592   3.474   4.108   4.342  0.0467  0.5887 -0.2599
 6987SOL     OW32593   3.998   0.543  11.130  0.0992  0.4170  0.2136
 6987SOL    HW132594   4.005   0.504  11.217 -0.3640 -1.6448 -0.6720
 6987SOL    HW232595   3.935   0.612  11.149 -1.4472 -1.0069  0.2843
 6988SOL     OW32596   4.644   3.935  11.457  1.1283  0.0740  0.0521
 6988SOL    HW132597   4.635   3.841  11.473 -1.1019  0.0392 -1.5124
 6988SOL    HW232598   4.726   3.931  11.408  0.7462 -0.8038 -0.5173
 6989SOL     OW32599   0.622   1.513  17.314  0.2873  0.4231  0.2436
 6989SOL    HW132600   0.600   1.560  17.395  0.1020  0.0077  0.4357
 6989SOL    HW232601   0.714   1.495  17.334  0.7656  0.4107 -1.9788
 6990SOL     OW32602   3.093   2.477  11.103 -1.0465  0.6189 -0.1435
 6990SOL    HW132603   3.100   2.555  11.157 -1.6830 -0.8419  2.0334
 6990SOL    HW232604   3.181   2.475  11.064 -1.0863 -0.0668 -0.2103
 6991SOL     OW32605   0.336   4.105   2.560 -0.2958  0.7479  0.1374
 6991SOL    HW132606   0.315   4.146   2.476  0.4956 -0.0242 -0.4407
 6991SOL    HW232607   0.331   4.010   2.549  1.0957  0.7281 -0.3907
 6992SOL     OW32608   2.332   4.718  15.065 -0.2589 -0.3980 -0.2499
 6992SOL    HW132609   2.389   0.062  15.077  1.0973 -1.4331 -0.1566
 6992SOL    HW232610   2.348   4.679  15.151  1.0588 -0.7236 -0.6396
 6993SOL     OW32611   1.153   4.724  15.385  0.2690  0.6451 -0.2787
 6993SOL    HW132612   1.109   0.076  15.400 -2.1284 -0.8579  1.0214
 6993SOL    HW232613   1.169   4.721  15.291  0.7430  0.3198 -0.1900
 6994SOL     OW32614   0.613   3.854   7.376  0.3679  0.2715 -0.0597
 6994SOL    HW132615   0.555   3.828   7.304 -0.5341 -1.0419  1.1445
 6994SOL    HW232616   0.695   3.879   7.335 -0.4246  2.8423 -0.0825
 6995SOL     OW32617   3.506   0.800  14.582 -0.3126  0.5982 -0.6338
 6995SOL    HW132618   3.565   0.727  14.561  0.0467  0.1152  2.0083
 6995SOL    HW232619   3.470   0.764  14.663  1.0614 -0.0920 -0.3258
 6996SOL     OW32620   0.903   0.847  10.438 -0.4683 -0.3019  0.1596
 6996SOL    HW132621   0.922   0.940  10.423 -4.1592  0.3536 -0.2657
 6996SOL    HW232622   0.958   0.823  10.513  1.4605 -1.1298 -1.5290
 6997SOL     OW32623   1.833   4.073   3.637 -0.2315 -0.0337 -0.2289
 6997SOL    HW132624   1.757   4.128   3.615 -0.1020 -0.2048 -1.1179
 6997SOL    HW232625   1.834   4.018   3.558 -0.9181 -0.1914 -0.1350
 6998SOL     OW32626   0.346   1.308   7.630 -0.2013  0.5328 -0.2643
 6998SOL    HW132627   0.366   1.252   7.554  0.2926  0.0682  0.2069
 6998SOL    HW232628   0.383   1.246   7.692 -1.0746 -1.7776 -2.0176
 6999SOL     OW32629   3.094   3.560   3.215  0.4967 -0.4288 -0.0315
 6999SOL    HW132630   3.126   3.523   3.133 -4.4917 -0.1673 -2.1408
 6999SOL    HW232631   3.007   3.523   3.203  0.9405 -1.8070  1.0844
 7000SOL     OW32632   1.024   4.128   6.313  0.2973  0.0209  0.4459
 7000SOL    HW132633   0.958   4.188   6.279  1.4665 -0.0305 -1.9389
 7000SOL    HW232634   1.003   4.146   6.405  4.0796  0.6512  1.1952
 7001SOL     OW32635   2.455   1.753   2.619  0.9551 -0.1249  0.6994
 7001SOL    HW132636   2.475   1.672   2.666  2.4683  0.9060  1.7976
 7001SOL    HW232637   2.476   1.822   2.682  1.1997  1.2923 -0.9257
 7002SOL     OW32638   2.136   0.053  16.034  0.4463 -0.5055 -0.3967
 7002SOL    HW132639   2.143   0.140  16.074 -1.2269 -0.9236  0.7994
 7002SOL    HW232640   2.061   0.021  16.084  0.9749  0.0057  0.7284
 7003SOL     OW32641   2.854   2.479   6.198  0.0332  0.3376  0.4362
 7003SOL    HW132642   2.769   2.474   6.242 -0.6709 -1.0457 -1.0958
 7003SOL    HW232643   2.816   2.521   6.121 -0.0207  1.2837  0.9802
 7004SOL     OW32644   1.194   1.709   3.220  0.2218  0.0527  0.2330
 7004SOL    HW132645   1.125   1.689   3.158  0.7138 -1.0719  0.0385
 7004SOL    HW232646   1.159   1.783   3.269 -0.9422 -1.7328  2.0988
 7005SOL     OW32647   2.643   4.245   1.659 -0.0347  0.1447  0.4739
 7005SOL    HW132648   2.558   4.261   1.617  0.4215  1.7686  0.1670
 7005SOL    HW232649   2.702   4.244   1.584 -1.3703  0.0743 -0.5803
 7006SOL     OW32650   0.624   1.551   8.449 -0.2518 -0.0327  0.5955
 7006SOL    HW132651   0.689   1.548   8.519  0.2492  1.5680  0.2033
 7006SOL    HW232652   0.621   1.643   8.423  1.1189  0.2162  1.3162
 7007SOL     OW32653   4.026   2.389  12.262 -0.2342 -0.6060 -0.5962
 7007SOL    HW132654   3.937   2.371  12.232 -0.9401  0.8230  0.6064
 7007SOL    HW232655   4.023   2.485  12.271  2.0871 -0.5444 -0.5424
 7008SOL     OW32656   4.282   1.160   1.455  0.4145 -0.1574 -0.7280
 7008SOL    HW132657   4.297   1.211   1.534  0.9110 -1.3251 -0.0775
 7008SOL    HW232658   4.358   1.172   1.398  0.5494 -2.1554 -0.9784
 7009SOL     OW32659   4.662   3.908   2.041 -0.3275  0.4823 -0.4111
 7009SOL    HW132660   4.609   3.947   1.970  0.3561 -1.1672 -1.8297
 7009SOL    HW232661   4.621   3.822   2.049  0.6265  0.0909  0.1835
 7010SOL     OW32662   3.483   3.402  15.756  0.1507 -0.4959 -0.2559
 7010SOL    HW132663   3.499   3.307  15.757  1.0456 -0.3338  0.8691
 7010SOL    HW232664   3.414   3.404  15.822  1.0115 -0.3557  0.6450
 7011SOL     OW32665   0.068   1.932   2.455 -0.0059  0.2872  0.3337
 7011SOL    HW132666   0.062   1.842   2.421 -1.2651  0.3553  0.3496
 7011SOL    HW232667   4.706   1.947   2.467  0.1492  1.9552 -0.6044
 7012SOL     OW32668   4.440   1.651   4.157 -0.3860 -0.1813 -0.4413
 7012SOL    HW132669   4.384   1.574   4.145  0.1426 -0.4237 -1.3284
 7012SOL    HW232670   4.451   1.682   4.067 -1.2321  2.1404  0.2652
 7013SOL     OW32671   1.058   4.199   7.184  0.3889 -0.5058  0.4080
 7013SOL    HW132672   1.012   4.202   7.100  1.1574 -1.5332 -0.0495
 7013SOL    HW232673   1.060   4.285   7.225 -3.5062 -0.1021 -0.2766
 7014SOL     OW32674   3.171   4.589   5.963  0.5223 -0.2544 -0.1093
 7014SOL    HW132675   3.130   4.666   6.002 -0.3010 -2.0214  2.5250
 7014SOL    HW232676   3.107   4.561   5.899  0.5835  1.6878 -1.0336
 7015SOL     OW32677   0.654   2.976   3.565 -0.6563  0.6149 -0.1283
 7015SOL    HW132678   0.736   2.931   3.545 -0.5914  0.7410 -0.1466
 7015SOL    HW232679   0.670   3.068   3.545  1.6511  0.2624  0.1203
 7016SOL     OW32680   0.115   0.452   7.741  0.2580 -0.1884  0.6489
 7016SOL    HW132681   0.105   0.517   7.810  1.4260  0.5112  0.1633
 7016SOL    HW232682   0.048   0.467   7.674  0.3917  0.2215  0.6075
 7017SOL     OW32683   1.743   1.433   2.305 -0.0813  0.5674 -0.0313
 7017SOL    HW132684   1.822   1.418   2.253 -0.9452  0.2312 -1.2631
 7017SOL    HW232685   1.697   1.351   2.286 -0.1160  0.2326  1.5694
 7018SOL     OW32686   0.889   4.063   8.418 -0.5332 -0.2116 -0.6158
 7018SOL    HW132687   0.980   4.038   8.430 -0.3126 -0.0476 -1.9235
 7018SOL    HW232688   0.869   4.110   8.499  1.9531 -0.3895  0.1061
 7019SOL     OW32689   3.999   3.257   2.083  0.0748  0.0873 -0.2393
 7019SOL    HW132690   4.054   3.333   2.104 -1.0987  1.2871 -1.5041
 7019SOL    HW232691   4.070   3.193   2.089  0.9460  1.1160  0.5152
 7020SOL     OW32692   1.638   4.395  10.062 -0.4991  0.0587  0.0509
 7020SOL    HW132693   1.723   4.353  10.072 -0.3171  0.3113 -0.4501
 7020SOL    HW232694   1.572   4.331  10.035  3.0509 -3.7255  0.3727
 7021SOL     OW32695   3.399   0.668   3.921  0.1608 -0.0034  0.5442
 7021SOL    HW132696   3.434   0.736   3.864 -1.0600 -0.0523 -0.2576
 7021SOL    HW232697   3.349   0.704   3.994  1.6281 -0.3597  1.7256
 7022SOL     OW32698   0.247   0.425  15.688  0.0208 -0.2881  0.1470
 7022SOL    HW132699   0.204   0.400  15.606  0.6972  0.1584 -0.3393
 7022SOL    HW232700   0.339   0.404  15.671  0.5942  3.5143 -1.4007
 7023SOL     OW32701   2.439   1.220   6.707 -0.2006 -0.4468  0.0865
 7023SOL    HW132702   2.400   1.266   6.632 -0.7726 -0.2734  0.4876
 7023SOL    HW232703   2.506   1.284   6.735 -0.6214  0.1701 -0.3138
 7024SOL     OW32704   0.364   0.258   5.819  0.4517 -0.0960  0.7416
 7024SOL    HW132705   0.442   0.242   5.872 -0.0117 -1.9612  0.8292
 7024SOL    HW232706   0.329   0.170   5.832 -0.1554  0.5500  3.3920
 7025SOL     OW32707   1.553   0.427   4.905  0.0846  0.3927  0.3059
 7025SOL    HW132708   1.529   0.398   4.993  0.5977 -1.2837 -0.0943
 7025SOL    HW232709   1.602   0.507   4.921 -0.0764  0.3941  0.7670
 7026SOL     OW32710   4.011   0.623   1.924  0.1941 -0.0263 -1.1566
 7026SOL    HW132711   4.043   0.627   2.014 -2.4376 -1.6775 -0.1333
 7026SOL    HW232712   3.999   0.718   1.916 -4.5980 -0.5877 -0.9776
 7027SOL     OW32713   1.748   2.278   2.238 -0.2094 -1.0695 -0.0825
 7027SOL    HW132714   1.837   2.286   2.271 -0.9109  0.1797  1.4936
 7027SOL    HW232715   1.757   2.320   2.153  2.1137 -1.4562 -0.0092
 7028SOL     OW32716   2.935   0.061   4.314  1.0944 -0.2780 -0.1168
 7028SOL    HW132717   2.981   0.081   4.396  1.5102  0.6334 -0.5675
 7028SOL    HW232718   2.990   4.729   4.270 -0.4259  0.0792 -2.5874
 7029SOL     OW32719   1.077   0.755   1.642 -0.1053  0.0943 -0.1776
 7029SOL    HW132720   1.047   0.805   1.567 -1.2972  0.5839  0.6148
 7029SOL    HW232721   1.063   0.812   1.718 -0.5704 -3.2115  2.2534
 7030SOL     OW32722   1.728   3.907   5.283 -0.2543  0.1905  0.2504
 7030SOL    HW132723   1.812   3.949   5.303 -0.1705  0.3020 -0.3248
 7030SOL    HW232724   1.671   3.982   5.299 -0.7030 -0.1415  0.2039
 7031SOL     OW32725   4.001   1.111  16.785  0.3452  0.1784 -0.0610
 7031SOL    HW132726   3.927   1.161  16.751  0.2930  0.3336  0.2829
 7031SOL    HW232727   3.964   1.079  16.867 -2.1808  0.6651 -0.9954
 7032SOL     OW32728   2.374   3.525  10.618 -0.7115  0.1340 -0.3260
 7032SOL    HW132729   2.401   3.602  10.569  0.9239  1.3813  2.5782
 7032SOL    HW232730   2.390   3.545  10.710  1.2738  0.1689 -0.6884
 7033SOL     OW32731   3.027   2.741   6.914  0.1356 -0.5079  0.0090
 7033SOL    HW132732   2.945   2.691   6.915 -1.4100  2.1296  3.6698
 7033SOL    HW232733   2.999   2.814   6.859  1.5804  0.3836  0.4540
 7034SOL     OW32734   2.689   1.353  10.482 -0.0405 -0.5393  0.1461
 7034SOL    HW132735   2.623   1.416  10.455 -0.9800 -1.9241 -0.7884
 7034SOL    HW232736   2.729   1.319  10.402  0.5185  1.5582 -0.4686
 7035SOL     OW32737   4.288   2.869   8.911  0.2338 -0.1972 -0.2485
 7035SOL    HW132738   4.299   2.774   8.904 -0.1431 -0.1420 -1.5003
 7035SOL    HW232739   4.199   2.881   8.878  1.3402  1.4338 -2.6766
 7036SOL     OW32740   3.211   1.240   3.565 -0.3503  0.0196 -0.5294
 7036SOL    HW132741   3.152   1.294   3.513  1.4603 -0.4600 -3.1351
 7036SOL    HW232742   3.210   1.284   3.650  0.4729 -2.7298  0.8937
 7037SOL     OW32743   1.078   3.272   3.802 -0.4650 -0.1239  0.0614
 7037SOL    HW132744   1.045   3.281   3.713 -2.3567  0.8278  0.8678
 7037SOL    HW232745   1.138   3.200   3.783  0.1663  0.5326 -0.4787
 7038SOL     OW32746   1.421   3.932   3.203  0.5737  0.1393 -0.1187
 7038SOL    HW132747   1.384   4.018   3.221  1.7440  0.9627 -1.6375
 7038SOL    HW232748   1.502   3.969   3.167  1.9565 -1.2843  1.5231
 7039SOL     OW32749   3.083   1.556   9.364  1.0786 -0.8139  0.4137
 7039SOL    HW132750   3.110   1.494   9.296  0.2207 -0.7814  0.0464
 7039SOL    HW232751   3.149   1.536   9.430  1.4177 -0.4478  0.1842
 7040SOL     OW32752   3.024   2.753  13.999 -0.3078 -0.2826  0.4664
 7040SOL    HW132753   3.068   2.813  14.060  1.2821  0.6380 -1.5925
 7040SOL    HW232754   3.092   2.690  13.974  0.0496  0.6864 -0.9794
 7041SOL     OW32755   1.809   0.309   8.024  0.0173  0.3702  0.5444
 7041SOL    HW132756   1.722   0.293   7.987 -0.4098 -0.5006  1.9407
 7041SOL    HW232757   1.857   0.300   7.941 -1.7983  1.4390 -0.6238
 7042SOL     OW32758   3.992   2.474   6.043  0.2924 -0.2601 -0.6201
 7042SOL    HW132759   4.047   2.485   5.966 -2.5163 -0.0466 -2.6268
 7042SOL    HW232760   4.028   2.389   6.067  1.3368  0.7987  1.5469
 7043SOL     OW32761   2.424   2.425   9.466 -0.4687  0.3161 -0.2397
 7043SOL    HW132762   2.346   2.430   9.521 -0.8865  0.5028 -0.8514
 7043SOL    HW232763   2.385   2.443   9.381 -0.8125 -1.2782 -0.4169
 7044SOL     OW32764   2.974   4.479   5.808  0.2515 -0.3572 -0.3580
 7044SOL    HW132765   2.908   4.449   5.870 -1.3151  0.9608 -1.3920
 7044SOL    HW232766   3.005   4.396   5.773  0.9890 -1.0645  1.9394
 7045SOL     OW32767   1.985   3.866   5.543  0.3871  0.2332  0.4006
 7045SOL    HW132768   1.943   3.912   5.469  2.0222  0.2741 -0.5001
 7045SOL    HW232769   2.037   3.800   5.498 -2.4892 -1.3694 -0.5505
 7046SOL     OW32770   4.670   2.539   8.129  0.2126  0.1225  0.3822
 7046SOL    HW132771   4.720   2.617   8.151  2.4081 -1.5492  1.3508
 7046SOL    HW232772   4.680   2.532   8.034 -0.2972  2.0071  0.2091
 7047SOL     OW32773   0.384   0.910   4.118 -0.2953  0.0841 -0.6036
 7047SOL    HW132774   0.370   0.971   4.191 -2.6463 -0.8547 -0.2758
 7047SOL    HW232775   0.447   0.964   4.071  1.3236 -0.6863  0.7058
 7048SOL     OW32776   0.960   0.704   0.981 -0.5567 -0.1365 -0.2631
 7048SOL    HW132777   0.948   0.646   1.056  2.6796 -1.9446 -1.1252
 7048SOL    HW232778   0.901   0.678   0.911 -1.1277 -1.0921  0.5702
 7049SOL     OW32779   1.375   2.403  15.266 -0.0429 -0.3061 -0.1594
 7049SOL    HW132780   1.314   2.449  15.324  0.7466 -1.8767  1.9058
 7049SOL    HW232781   1.441   2.363  15.322  0.1360  0.2750  0.0484
 7050SOL     OW32782   0.843   0.402   5.019 -0.0888  0.3461  0.1908
 7050SOL    HW132783   0.933   0.432   5.003 -0.4472  2.0852  1.4057
 7050SOL    HW232784   0.850   0.308   5.006 -0.5765  0.0968  1.7837
 7051SOL     OW32785   1.543   0.015   7.436 -0.6738  0.6803  0.4647
 7051SOL    HW132786   1.554   0.021   7.531  0.2876  0.1745  0.3787
 7051SOL    HW232787   1.604   0.083   7.408 -0.5208  0.2873 -0.1568
 7052SOL     OW32788   0.749   1.446   6.810  0.1228  0.0289  0.5231
 7052SOL    HW132789   0.696   1.366   6.807  1.2645 -0.7530  1.0044
 7052SOL    HW232790   0.713   1.495   6.736 -0.0974  0.5645  0.9840
 7053SOL     OW32791   0.249   2.844   1.955  0.1579  0.5009  0.1890
 7053SOL    HW132792   0.298   2.924   1.974 -1.3014  0.7093  3.0544
 7053SOL    HW232793   0.172   2.890   1.921 -0.8355 -0.9293  0.4879
 7054SOL     OW32794   3.496   0.487   8.708  0.5730 -0.3704 -0.1421
 7054SOL    HW132795   3.473   0.423   8.775 -0.3063 -0.9527 -0.9879
 7054SOL    HW232796   3.478   0.428   8.634 -0.8811  1.8060 -1.5277
 7055SOL     OW32797   0.471   1.871   5.325 -0.5881  0.2873  0.0100
 7055SOL    HW132798   0.505   1.889   5.237 -1.2420  1.6628  0.0320
 7055SOL    HW232799   0.486   1.950   5.377  2.7355  0.1837 -0.7746
 7056SOL     OW32800   1.579   4.448   3.336  0.8384  0.2747  0.2393
 7056SOL    HW132801   1.599   4.541   3.345  0.1852  0.5545 -1.3523
 7056SOL    HW232802   1.596   4.424   3.428 -1.1519  0.5657  0.6722
 7057SOL     OW32803   4.281   1.919   9.159  0.2063  0.0678  0.0089
 7057SOL    HW132804   4.190   1.946   9.171  0.5897  1.2478  0.2630
 7057SOL    HW232805   4.326   1.990   9.206  1.1463  0.7238 -1.8461
 7058SOL     OW32806   1.684   2.698   6.445  0.6900  0.0383 -0.0822
 7058SOL    HW132807   1.643   2.782   6.464  1.8813  0.6437 -0.2219
 7058SOL    HW232808   1.738   2.690   6.524 -0.0295  0.6563  0.4778
 7059SOL     OW32809   1.874   3.567   5.174 -0.0641  0.2696  0.3277
 7059SOL    HW132810   1.783   3.584   5.197  0.7608  1.6665  2.5161
 7059SOL    HW232811   1.929   3.570   5.252 -0.5521 -1.7940  0.7401
 7060SOL     OW32812   4.478   3.601  10.804 -0.6184 -0.1492  0.4026
 7060SOL    HW132813   4.433   3.641  10.878  0.7942  0.7132  0.8027
 7060SOL    HW232814   4.430   3.624  10.725 -1.5940  2.7743  1.8653
 7061SOL     OW32815   4.637   0.207   7.058 -0.3028 -0.2015  0.4587
 7061SOL    HW132816   4.591   0.179   6.979  1.0406 -0.1347 -0.3534
 7061SOL    HW232817   4.583   0.258   7.117  0.8447  1.6185 -0.0828
 7062SOL     OW32818   4.550   4.397   4.238 -0.0907 -0.4264  0.5567
 7062SOL    HW132819   4.554   4.491   4.218 -1.5698 -0.9740 -2.4302
 7062SOL    HW232820   4.643   4.377   4.254 -0.3669 -2.0859  0.1526
 7063SOL     OW32821   1.544   2.916   2.554 -0.0895  0.3158  0.4802
 7063SOL    HW132822   1.457   2.879   2.537 -0.7051  1.5319  0.9535
 7063SOL    HW232823   1.514   3.007   2.549  1.9043  0.8273 -2.5627
 7064SOL     OW32824   3.129   0.955   5.324 -0.5757  0.1225 -0.5520
 7064SOL    HW132825   3.139   0.969   5.230  2.5047 -1.8177 -0.5221
 7064SOL    HW232826   3.034   0.949   5.334 -0.5918  0.5754 -0.4175
 7065SOL     OW32827   4.332   1.674   2.769 -0.1584  0.4960 -0.0465
 7065SOL    HW132828   4.267   1.716   2.824 -1.2415  0.9070 -1.6293
 7065SOL    HW232829   4.369   1.748   2.721  0.5250 -1.5885 -2.7829
 7066SOL     OW32830   4.272   3.472   9.397  0.3925 -0.5601  0.7567
 7066SOL    HW132831   4.292   3.489   9.489  0.3544  0.5424  0.5612
 7066SOL    HW232832   4.241   3.382   9.395  2.4080 -1.2158 -1.5242
 7067SOL     OW32833   0.423   3.538   4.129  0.6182  0.2247 -0.2108
 7067SOL    HW132834   0.385   3.451   4.119 -0.4892  0.4945  1.6259
 7067SOL    HW232835   0.392   3.564   4.216 -0.9837  1.5023 -1.1538
 7068SOL     OW32836   2.349   2.963   3.587  0.1838  0.0339  0.5951
 7068SOL    HW132837   2.355   2.904   3.662 -2.0599 -1.0959 -0.1089
 7068SOL    HW232838   2.398   3.037   3.623  0.7835  0.1975 -0.5321
 7069SOL     OW32839   3.468   4.377   8.631  0.3668 -0.3032 -0.1438
 7069SOL    HW132840   3.523   4.332   8.567 -0.8760 -0.8370 -0.8294
 7069SOL    HW232841   3.389   4.376   8.576  1.8548  0.4342 -2.3147
 7070SOL     OW32842   3.443   1.804   6.799  0.0763 -0.1391 -0.3327
 7070SOL    HW132843   3.518   1.755   6.833 -1.4365 -2.9363 -1.0049
 7070SOL    HW232844   3.455   1.891   6.836  1.7779 -0.6237  0.2715
 7071SOL     OW32845   4.085   2.576   3.906 -0.0924 -0.5590  0.3260
 7071SOL    HW132846   4.025   2.584   3.832 -2.0478 -1.1632  1.8467
 7071SOL    HW232847   4.122   2.665   3.904 -0.8039 -0.2671  0.3222
 7072SOL     OW32848   2.053   4.713  15.082  0.6192 -0.4165  0.1003
 7072SOL    HW132849   2.148   4.709  15.070  0.6223  0.6106 -0.2528
 7072SOL    HW232850   2.033   0.067  15.119  0.9342 -1.5160  2.8204
 7073SOL     OW32851   0.797   0.898   3.799 -0.3721 -0.0967  0.3544
 7073SOL    HW132852   0.868   0.950   3.835  0.1630 -1.5285  1.3510
 7073SOL    HW232853   0.845   0.815   3.797  1.5824  1.0286  0.4385
 7074SOL     OW32854   2.972   4.350   0.345  0.1229 -0.8175 -0.5029
 7074SOL    HW132855   3.004   4.269   0.306  2.1872  0.8274 -2.2102
 7074SOL    HW232856   2.970   4.317   0.435 -0.0852 -0.9921 -0.5701
 7075SOL     OW32857   4.204   1.535  17.107  0.1374 -0.2739 -0.3913
 7075SOL    HW132858   4.150   1.505  17.034  0.5212 -0.5445 -0.5631
 7075SOL    HW232859   4.273   1.585  17.062 -0.3542  0.2256 -0.5904
 7076SOL     OW32860   1.259   2.281  12.906  0.0198 -0.2300 -0.6252
 7076SOL    HW132861   1.165   2.263  12.895 -0.2091  0.6847 -0.1649
 7076SOL    HW232862   1.273   2.369  12.873 -1.0564  0.1182 -0.1458
 7077SOL     OW32863   1.670   3.671   2.308 -0.0388  0.5434 -0.1532
 7077SOL    HW132864   1.643   3.618   2.232  0.4865 -1.0037  0.7378
 7077SOL    HW232865   1.639   3.758   2.285  0.6547  1.0954  1.0178
 7078SOL     OW32866   0.916   2.035   2.301  0.3700  0.0294  0.0313
 7078SOL    HW132867   0.996   2.005   2.258  0.7966  0.3371  0.6075
 7078SOL    HW232868   0.903   1.951   2.345 -0.5485  0.3330  0.3550
 7079SOL     OW32869   2.148   0.701   3.453 -0.3176  0.1194  0.1991
 7079SOL    HW132870   2.240   0.701   3.478  0.6195  1.0721 -3.2560
 7079SOL    HW232871   2.094   0.711   3.531  0.2595  0.7077  0.5191
 7080SOL     OW32872   2.247   3.859   5.335  0.5810 -0.4066  0.7271
 7080SOL    HW132873   2.272   3.803   5.408 -0.6901 -1.8826  0.0197
 7080SOL    HW232874   2.279   3.807   5.262 -0.2038 -0.2432  0.2625
 7081SOL     OW32875   1.745   1.364   0.306  0.3630  0.0212  0.0898
 7081SOL    HW132876   1.752   1.387   0.399 -0.2479  1.6762 -0.2753
 7081SOL    HW232877   1.803   1.433   0.273  0.3267  0.2810  0.5757
 7082SOL     OW32878   0.244   2.909   4.713 -0.9926 -0.2107  0.3574
 7082SOL    HW132879   0.307   2.848   4.674 -0.9276 -1.1652  1.9332
 7082SOL    HW232880   0.185   2.847   4.756  0.3663 -2.8129 -1.5487
 7083SOL     OW32881   0.558   2.410   4.348  0.1913  0.1987 -0.4864
 7083SOL    HW132882   0.583   2.342   4.285 -2.3890 -1.1843 -0.0329
 7083SOL    HW232883   0.485   2.375   4.399  0.6831  0.6756  0.5473
 7084SOL     OW32884   0.305   3.941  13.588  0.4417  0.2009  0.5913
 7084SOL    HW132885   0.214   3.961  13.565  0.5446 -0.1394 -0.1075
 7084SOL    HW232886   0.313   3.853  13.552 -0.2239  0.2882  0.2370
 7085SOL     OW32887   3.551   2.238   8.456 -0.4742  0.1246  0.3401
 7085SOL    HW132888   3.473   2.198   8.494 -0.5805 -0.3462 -0.3613
 7085SOL    HW232889   3.604   2.244   8.535 -0.5060 -1.9875  0.5287
 7086SOL     OW32890   0.703   0.540   3.451 -0.3350 -0.3852 -0.3331
 7086SOL    HW132891   0.625   0.554   3.399  0.9993 -1.1985 -2.5611
 7086SOL    HW232892   0.695   0.611   3.515 -0.7409 -0.2532 -0.5300
 7087SOL     OW32893   1.887   0.573   5.021 -0.5580 -0.5693  0.3825
 7087SOL    HW132894   1.805   0.619   5.037 -0.0158  0.3267  0.5784
 7087SOL    HW232895   1.954   0.610   5.079 -0.0054  0.5979 -1.0101
 7088SOL     OW32896   0.257   2.045   7.927  0.7438  0.1912  0.2834
 7088SOL    HW132897   0.282   1.989   8.000  0.9443  0.6980  0.6052
 7088SOL    HW232898   0.344   2.080   7.906  0.1163  2.3324  1.2597
 7089SOL     OW32899   3.179   1.026   5.055 -0.1420 -0.6415  0.8065
 7089SOL    HW132900   3.118   1.000   4.986  0.3098  0.8268 -0.1421
 7089SOL    HW232901   3.258   1.004   5.004  1.1069  0.4074  2.2959
 7090SOL     OW32902   4.559   1.302   2.436  0.2727  0.4304  0.0220
 7090SOL    HW132903   4.517   1.217   2.443 -0.2652  0.7513  0.6868
 7090SOL    HW232904   4.500   1.364   2.479  1.6019 -0.9942  3.9539
 7091SOL     OW32905   2.274   4.041   8.042 -0.2201  0.0142 -0.1988
 7091SOL    HW132906   2.300   4.121   7.997  0.9580 -0.4489 -0.3479
 7091SOL    HW232907   2.214   4.002   7.978 -0.1263  0.2880 -0.4514
 7092SOL     OW32908   2.635   0.623   4.887 -0.0514 -0.4278 -0.1435
 7092SOL    HW132909   2.721   0.636   4.847  0.5722  0.0963  1.3687
 7092SOL    HW232910   2.571   0.676   4.839 -1.2312 -1.9156 -0.2340
 7093SOL     OW32911   3.136   1.278   2.505  0.1702 -0.3094 -0.0826
 7093SOL    HW132912   3.145   1.293   2.599 -0.9480  0.1940 -0.0539
 7093SOL    HW232913   3.224   1.241   2.492 -0.1677 -0.9305 -0.6046
 7094SOL     OW32914   3.432   4.538   5.043 -0.2107 -0.0170  0.0642
 7094SOL    HW132915   3.527   4.533   5.029 -0.2727 -0.6115 -0.1641
 7094SOL    HW232916   3.417   4.624   5.005  0.0125 -0.1298 -0.2821
 7095SOL     OW32917   2.762   0.941   8.292 -0.3160  0.3090  0.2582
 7095SOL    HW132918   2.777   1.032   8.268  0.8822  0.0861  0.1359
 7095SOL    HW232919   2.833   0.933   8.356  1.0986  1.5942 -1.1419
 7096SOL     OW32920   3.863   1.960   8.253 -0.3008 -0.4942  0.6504
 7096SOL    HW132921   3.784   1.912   8.277  0.3325 -0.9726  1.7530
 7096SOL    HW232922   3.840   2.034   8.196 -0.4740  0.0847  1.4707
 7097SOL     OW32923   2.739   0.635  10.151 -0.0686 -0.3300 -0.0019
 7097SOL    HW132924   2.812   0.580  10.180  0.0089 -0.6610 -0.8430
 7097SOL    HW232925   2.789   0.680  10.083 -1.0816 -1.2620 -1.3714
 7098SOL     OW32926   1.677   4.016   3.082 -0.4825  0.3732 -0.0675
 7098SOL    HW132927   1.675   3.930   3.042 -0.2831  0.7454 -0.8791
 7098SOL    HW232928   1.702   4.065   3.004  0.8370  2.2491  1.5101
 7099SOL     OW32929   4.540   4.667   9.046  0.2189 -0.3447  0.4733
 7099SOL    HW132930   4.621   4.643   9.001 -0.9384 -0.1077 -1.7642
 7099SOL    HW232931   4.577   4.723   9.114 -0.8893 -0.5130  1.2139
 7100SOL     OW32932   3.726   2.170   4.187 -0.8568 -0.1767  0.3321
 7100SOL    HW132933   3.793   2.155   4.254 -1.1765 -1.0963  0.4537
 7100SOL    HW232934   3.688   2.256   4.206 -2.6326 -0.0472 -3.7265
 7101SOL     OW32935   0.918   2.816   4.910 -0.0026 -0.2975  0.1142
 7101SOL    HW132936   0.850   2.771   4.860 -1.4014  2.4249 -0.4696
 7101SOL    HW232937   0.889   2.906   4.894 -1.2471 -0.3282  2.2434
 7102SOL     OW32938   2.560   2.584  12.210  0.2318 -0.0842  0.0650
 7102SOL    HW132939   2.571   2.503  12.161 -2.5815 -0.7641  0.5333
 7102SOL    HW232940   2.624   2.641  12.168  1.0304 -1.8541 -1.1281
 7103SOL     OW32941   3.669   1.814   8.348 -0.1955  0.4979  0.7227
 7103SOL    HW132942   3.587   1.801   8.395 -0.6979 -2.6479 -0.9529
 7103SOL    HW232943   3.656   1.762   8.268 -0.6259  1.2328  0.3102
 7104SOL     OW32944   4.456   2.219   7.311 -0.2126  0.1448  0.2224
 7104SOL    HW132945   4.540   2.199   7.351 -0.4835 -1.1867  0.1121
 7104SOL    HW232946   4.489   2.296   7.264 -0.1340 -0.8454 -1.3596
 7105SOL     OW32947   1.017   2.026   5.762  0.2824 -0.4664  0.0479
 7105SOL    HW132948   0.985   1.961   5.825  1.8731 -1.2532  0.0462
 7105SOL    HW232949   0.980   1.998   5.679  0.6459  1.0627 -0.6249
 7106SOL     OW32950   2.280   0.825   9.282 -0.2071 -0.4844  0.2285
 7106SOL    HW132951   2.335   0.748   9.268 -0.5507 -0.8203  0.7077
 7106SOL    HW232952   2.260   0.831   9.375  1.0124 -1.1730  0.5321
 7107SOL     OW32953   2.918   0.928   7.574 -0.1810 -0.2364  0.2986
 7107SOL    HW132954   2.921   0.859   7.508 -1.5082  0.2181 -0.2408
 7107SOL    HW232955   3.010   0.954   7.582 -0.4273  1.9841 -4.0168
 7108SOL     OW32956   2.751   0.382  11.418  0.1570  0.0138 -0.3465
 7108SOL    HW132957   2.745   0.377  11.514 -2.0133  1.4870 -0.3900
 7108SOL    HW232958   2.840   0.415  11.418  0.6541 -1.3033  1.3733
 7109SOL     OW32959   3.681   3.677   1.420 -0.5733 -0.1255  0.5066
 7109SOL    HW132960   3.598   3.710   1.385 -1.5558 -1.0817  1.9345
 7109SOL    HW232961   3.731   3.712   1.346 -0.1824 -0.4231  0.6313
 7110SOL     OW32962   2.320   1.960   3.962  0.2547  0.0289  0.3904
 7110SOL    HW132963   2.407   1.931   3.934  0.1449 -0.4902  0.5821
 7110SOL    HW232964   2.319   1.955   4.058  0.6959  1.1546  0.4467
 7111SOL     OW32965   2.490   3.874   8.086 -0.1000 -0.0823  0.2929
 7111SOL    HW132966   2.415   3.926   8.057 -1.9828 -1.2011  3.1666
 7111SOL    HW232967   2.493   3.911   8.174 -0.4944 -0.7767  0.5943
 7112SOL     OW32968   4.086   0.085   5.663 -0.0071 -0.0855  0.0179
 7112SOL    HW132969   4.022   0.131   5.717 -0.0490 -0.1671  0.0378
 7112SOL    HW232970   4.065   4.729   5.692  1.1937  0.0498  1.3064
 7113SOL     OW32971   4.100   1.583  17.527  0.3636 -0.0870  0.0201
 7113SOL    HW132972   4.120   1.650  17.462  0.5994  0.6798  0.8682
 7113SOL    HW232973   4.074   1.639  17.601  0.0557  0.8975 -0.8343
 7114SOL     OW32974   1.634   1.040   7.236 -0.2069  0.3991  0.0609
 7114SOL    HW132975   1.722   1.015   7.266 -0.2299 -0.6979 -0.8175
 7114SOL    HW232976   1.645   1.136   7.232 -1.0866  0.4370 -1.2924
 7115SOL     OW32977   0.518   1.281   3.639  0.3792  0.4085  0.1164
 7115SOL    HW132978   0.538   1.310   3.550 -1.0133 -0.6705 -0.5423
 7115SOL    HW232979   0.608   1.255   3.661  1.2570  1.7406 -1.9299
 7116SOL     OW32980   4.479   0.517   5.192 -0.0651 -0.6684  0.1889
 7116SOL    HW132981   4.395   0.557   5.212 -0.1881 -0.9930  0.3218
 7116SOL    HW232982   4.489   0.467   5.273  0.2360 -2.2649 -0.8345
 7117SOL     OW32983   2.894   1.938   9.746  0.0394 -0.1858  0.2240
 7117SOL    HW132984   2.855   1.851   9.758  1.1447 -0.4706  1.6357
 7117SOL    HW232985   2.814   1.985   9.720 -1.1693 -2.3607  0.0152
 7118SOL     OW32986   0.325   2.328   6.054  0.2590  0.9448 -0.4303
 7118SOL    HW132987   0.302   2.352   5.964  0.1935 -1.3863 -1.0436
 7118SOL    HW232988   0.379   2.253   6.027  0.4915  1.1872 -0.6422
 7119SOL     OW32989   1.548   1.701   4.676  0.1940  0.1115 -0.3998
 7119SOL    HW132990   1.617   1.740   4.623 -0.4312  3.2023  1.0190
 7119SOL    HW232991   1.480   1.768   4.663  0.7699  0.8187  0.2137
 7120SOL     OW32992   4.077   2.128   2.112 -0.3083  0.3899  0.5766
 7120SOL    HW132993   4.001   2.156   2.060 -0.4353 -2.3234 -0.6977
 7120SOL    HW232994   4.029   2.105   2.192  0.6352 -0.8584  0.7759
 7121SOL     OW32995   2.929   1.701   4.682 -0.3485  0.6740 -0.1516
 7121SOL    HW132996   2.994   1.771   4.675 -0.0773  0.7469  3.4267
 7121SOL    HW232997   2.847   1.749   4.668 -0.0443  0.5408 -2.4739
 7122SOL     OW32998   1.608   3.632   6.652 -0.2276 -0.5172  0.3321
 7122SOL    HW132999   1.665   3.690   6.701  1.9927 -2.2790 -0.1759
 7122SOL    HW233000   1.574   3.588   6.730 -1.0746 -0.3478  0.0605
 7123SOL     OW33001   3.677   0.559   1.188 -0.2808 -0.0890  0.3455
 7123SOL    HW133002   3.663   0.491   1.255 -0.7286 -0.3641 -0.0215
 7123SOL    HW233003   3.760   0.534   1.149  0.1798  1.9342  0.0251
 7124SOL     OW33004   1.063   0.181   7.275  0.0951 -0.2586 -0.0092
 7124SOL    HW133005   1.056   0.098   7.227 -0.2249 -0.6393  0.6911
 7124SOL    HW233006   0.975   0.217   7.267  0.4764  1.0543  1.7723
 7125SOL     OW33007   3.245   4.181   0.886  0.4359  0.1878 -0.1191
 7125SOL    HW133008   3.250   4.123   0.810  0.6117 -0.2442  0.2216
 7125SOL    HW233009   3.229   4.116   0.954 -0.8003  1.2108  0.5637
 7126SOL     OW33010   1.949   2.484  11.738  0.1710  0.0515 -0.1711
 7126SOL    HW133011   1.874   2.534  11.769  0.6264  0.4921  0.2087
 7126SOL    HW233012   1.906   2.398  11.736 -0.4555  0.4371 -3.9176
 7127SOL     OW33013   0.947   2.272   6.315  0.2321 -0.6598  0.2960
 7127SOL    HW133014   1.006   2.218   6.263  0.8833 -2.5366  2.9785
 7127SOL    HW233015   0.943   2.231   6.402  0.8894 -1.1035  0.1132
 7128SOL     OW33016   4.208   2.858   5.879  0.5134  0.2259  0.4770
 7128SOL    HW133017   4.258   2.821   5.952 -0.8139  0.5987  1.5792
 7128SOL    HW233018   4.179   2.781   5.829 -0.9878  1.4731 -0.5803
 7129SOL     OW33019   2.080   1.497   2.922 -0.4600  0.0616  0.1029
 7129SOL    HW133020   2.158   1.541   2.955 -1.2180 -0.9832  3.2728
 7129SOL    HW233021   2.109   1.481   2.833  1.3297  1.4147  0.4582
 7130SOL     OW33022   4.412   4.689   6.351  0.0988  0.0097 -0.4496
 7130SOL    HW133023   4.450   0.045   6.352 -0.7080  0.3663 -0.3417
 7130SOL    HW233024   4.319   4.712   6.359  1.0934  2.8166  2.9433
 7131SOL     OW33025   0.297   0.162   4.085  0.4609  0.5170  0.2611
 7131SOL    HW133026   0.373   0.187   4.033  0.9988 -1.7480 -0.0628
 7131SOL    HW233027   0.267   0.250   4.108 -0.5160  0.2370  0.0839
 7132SOL     OW33028   4.342   2.387   0.002  0.2004  0.2805  0.4401
 7132SOL    HW133029   4.333   2.364  17.637  0.0925  0.0077  0.5182
 7132SOL    HW233030   4.365   2.479  17.714  0.2152  0.1658 -0.2420
 7133SOL     OW33031   0.859   2.952   0.790 -0.1052 -0.4413 -0.4106
 7133SOL    HW133032   0.841   3.027   0.733 -1.0481 -1.5465 -1.5800
 7133SOL    HW233033   0.784   2.892   0.788  0.4143 -1.1087 -0.0456
 7134SOL     OW33034   4.522   2.166   6.481  0.3085 -0.0412 -0.1223
 7134SOL    HW133035   4.488   2.117   6.556 -0.3155 -0.5211 -0.7204
 7134SOL    HW233036   4.607   2.126   6.462  0.1289  0.3080 -1.6561
 7135SOL     OW33037   1.381   1.534   3.332 -0.1951 -0.3878 -0.0056
 7135SOL    HW133038   1.362   1.548   3.424  0.0833  1.9744 -0.3217
 7135SOL    HW233039   1.325   1.588   3.276  0.5378  0.6390  0.2647
 7136SOL     OW33040   4.231   0.273   2.043  0.3634 -0.0988 -0.4621
 7136SOL    HW133041   4.191   0.193   2.009  0.3742 -0.3798  0.1846
 7136SOL    HW233042   4.286   0.308   1.973 -0.1529  3.1480  0.7427
 7137SOL     OW33043   1.695   3.715   0.765 -0.2316 -0.6971  0.3316
 7137SOL    HW133044   1.742   3.678   0.690  0.4013 -2.5836  1.6715
 7137SOL    HW233045   1.732   3.804   0.762  0.8025 -1.1548 -0.4580
 7138SOL     OW33046   3.316   3.888   7.639 -0.2379  0.8326  0.3439
 7138SOL    HW133047   3.365   3.968   7.657 -2.8158  2.8624 -1.6326
 7138SOL    HW233048   3.227   3.923   7.645 -0.1310  0.7935  2.0738
 7139SOL     OW33049   2.469   3.127   4.827  0.1858  0.0981  0.0305
 7139SOL    HW133050   2.456   3.132   4.733  0.8748 -2.4104 -0.1908
 7139SOL    HW233051   2.402   3.061   4.842 -2.1924  2.1098 -1.7170
 7140SOL     OW33052   3.644   1.723   2.360  0.5149  0.4152  0.2633
 7140SOL    HW133053   3.557   1.717   2.320 -0.4146 -0.4018  2.3931
 7140SOL    HW233054   3.640   1.641   2.409 -0.5171 -0.7142 -1.6826
 7141SOL     OW33055   1.775   0.747  13.093  0.6391 -0.4512 -0.2292
 7141SOL    HW133056   1.853   0.801  13.078  0.6261  0.4652  2.9924
 7141SOL    HW233057   1.815   0.668  13.130  1.1273 -0.2103 -0.2477
 7142SOL     OW33058   4.346   1.914   5.825  0.5402  0.2548  0.5648
 7142SOL    HW133059   4.345   1.988   5.887 -0.8784  0.0380  0.8035
 7142SOL    HW233060   4.437   1.906   5.800  0.4208  2.3422 -0.5572
 7143SOL     OW33061   4.171   2.797   0.718  0.2057  0.0003  0.0596
 7143SOL    HW133062   4.207   2.732   0.779  1.8242  2.1557  1.4141
 7143SOL    HW233063   4.251   2.850   0.721 -0.4458  1.0506 -1.2962
 7144SOL     OW33064   3.035   4.192  11.104  0.2131  0.0109 -0.0799
 7144SOL    HW133065   3.081   4.276  11.095  0.9028 -0.4173 -0.5489
 7144SOL    HW233066   3.102   4.125  11.116  0.7313  0.4792 -0.3252
 7145SOL     OW33067   1.485   4.229  16.126  0.1883 -0.4517  0.1485
 7145SOL    HW133068   1.544   4.154  16.139 -1.3466 -1.3488  2.0972
 7145SOL    HW233069   1.516   4.290  16.193 -0.7540 -1.9748  1.9983
 7146SOL     OW33070   0.821   1.876   5.255 -0.2491 -0.1044 -0.4849
 7146SOL    HW133071   0.887   1.889   5.187  0.2981  3.6672  0.7495
 7146SOL    HW233072   0.798   1.785   5.235  0.8555 -1.0725  2.6308
 7147SOL     OW33073   3.443   2.617  10.549 -0.7891 -0.1692  0.0999
 7147SOL    HW133074   3.477   2.537  10.588 -0.0421  0.5163  0.8557
 7147SOL    HW233075   3.526   2.665  10.550 -1.2979  0.7687 -1.7715
 7148SOL     OW33076   3.986   0.496   8.824 -0.5186  0.0113 -0.0644
 7148SOL    HW133077   3.989   0.543   8.740  0.6928 -2.3903 -1.3555
 7148SOL    HW233078   3.938   0.420   8.792 -0.1176 -0.1074 -0.3920
 7149SOL     OW33079   3.778   4.217   1.781 -0.1099  0.1735 -0.0348
 7149SOL    HW133080   3.804   4.127   1.797  0.2764 -0.0138 -1.7304
 7149SOL    HW233081   3.683   4.213   1.767 -0.2421  1.4733  0.4635
 7150SOL     OW33082   0.825   4.700   6.275 -0.6384 -0.1111  0.2380
 7150SOL    HW133083   0.899   0.015   6.237 -1.3302  1.2516  0.5606
 7150SOL    HW233084   0.748   0.026   6.276  0.1281  0.9118 -0.3993
 7151SOL     OW33085   1.752   1.510   3.385 -0.0150 -0.2094  0.1458
 7151SOL    HW133086   1.810   1.437   3.408  1.4552  1.3550  1.4632
 7151SOL    HW233087   1.784   1.580   3.442 -2.3727  0.8999  0.0837
 7152SOL     OW33088   1.088   1.735  15.078 -0.1761 -0.2572  0.5719
 7152SOL    HW133089   1.053   1.824  15.077 -1.2013 -0.6590  1.8622
 7152SOL    HW233090   1.019   1.683  15.037 -0.6285  0.4523  0.4338
 7153SOL     OW33091   1.598   2.787   1.665  0.1607 -0.3979  0.0949
 7153SOL    HW133092   1.507   2.790   1.637  0.4586 -0.6204 -0.9015
 7153SOL    HW233093   1.622   2.697   1.642  0.6370  0.1769 -1.6645
 7154SOL     OW33094   3.620   3.623  12.009  0.2824  0.0120  0.1065
 7154SOL    HW133095   3.601   3.599  12.100  0.4228  0.9156  0.3766
 7154SOL    HW233096   3.648   3.544  11.963 -1.4983 -0.9870  0.7184
 7155SOL     OW33097   3.847   0.008   1.235  0.6790  0.3777  0.0261
 7155SOL    HW133098   3.801   4.683   1.173  1.6764 -0.9247  0.4878
 7155SOL    HW233099   3.877   4.676   1.300 -0.1278 -1.8134 -1.7582
 7156SOL     OW33100   2.760   2.284   6.501 -0.2852 -0.1067  0.1489
 7156SOL    HW133101   2.669   2.289   6.473 -0.9897  2.6914  2.9744
 7156SOL    HW233102   2.783   2.375   6.520 -1.4188  0.7464 -2.4923
 7157SOL     OW33103   4.325   2.729  14.321 -0.5546  0.2824  0.1767
 7157SOL    HW133104   4.356   2.682  14.399  3.5604  1.3030 -0.8284
 7157SOL    HW233105   4.391   2.708  14.254  1.5689 -0.0090  2.3393
 7158SOL     OW33106   3.862   3.271   7.642  0.0595  0.4699  0.0215
 7158SOL    HW133107   3.824   3.184   7.656 -0.1906  0.1092 -2.7447
 7158SOL    HW233108   3.881   3.262   7.548 -0.0290  0.0129  0.0501
 7159SOL     OW33109   0.080   3.752   2.480  0.0682  0.2143 -0.3351
 7159SOL    HW133110   0.039   3.838   2.493 -0.3415 -0.2054  1.1374
 7159SOL    HW233111   0.051   3.729   2.392  1.6181  3.3567 -1.6843
 7160SOL     OW33112   1.144   0.220   4.186 -0.1151  0.0744  0.1861
 7160SOL    HW133113   1.158   0.271   4.106  0.0204 -1.0286 -0.4965
 7160SOL    HW233114   1.165   0.141   4.135 -0.6214 -1.4888  2.4236
 7161SOL     OW33115   3.791   0.616  11.789  0.2369  0.3365 -0.0709
 7161SOL    HW133116   3.761   0.551  11.726 -4.0534  0.7965  1.5052
 7161SOL    HW233117   3.710   0.665  11.807 -0.2847 -1.1559  1.5710
 7162SOL     OW33118   1.646   3.722   2.568 -0.6900  0.1932 -0.3153
 7162SOL    HW133119   1.627   3.816   2.571 -0.9265  0.0758  1.7332
 7162SOL    HW233120   1.690   3.708   2.484  1.0916  0.9653  0.4892
 7163SOL     OW33121   0.063   4.113  11.046 -0.5260  0.4161  0.1123
 7163SOL    HW133122   0.028   4.028  11.020  4.4704 -1.7269  0.4298
 7163SOL    HW233123   0.101   4.134  10.961 -1.8631  1.8344 -0.1509
 7164SOL     OW33124   1.234   3.367   2.983 -0.5045  0.5114 -0.1372
 7164SOL    HW133125   1.297   3.363   2.912 -0.9311  1.0587 -0.5444
 7164SOL    HW233126   1.268   3.300   3.043 -1.9569 -0.9647 -0.9481
 7165SOL     OW33127   1.624   3.873  10.482 -0.0327 -0.1413 -0.1853
 7165SOL    HW133128   1.689   3.806  10.465 -0.8377 -0.4436 -2.1021
 7165SOL    HW233129   1.679   3.933  10.532  2.2021  0.1311 -2.9460
 7166SOL     OW33130   1.285   0.260   0.472 -0.2764  0.3415 -0.1364
 7166SOL    HW133131   1.286   0.302   0.559  0.7267 -1.1825  0.5823
 7166SOL    HW233132   1.378   0.252   0.450 -0.3875 -0.8113 -0.1509
 7167SOL     OW33133   3.651   4.308   8.437  0.3751  0.2875  0.1145
 7167SOL    HW133134   3.713   4.327   8.508  1.1323 -1.1956 -0.1281
 7167SOL    HW233135   3.673   4.215   8.427  3.1940  0.6609  2.9688
 7168SOL     OW33136   1.306   1.329   2.494 -0.2260 -0.3691  0.0889
 7168SOL    HW133137   1.307   1.286   2.408 -1.6847  1.3368 -0.7821
 7168SOL    HW233138   1.400   1.321   2.512  0.0809  1.2865 -0.7827
 7169SOL     OW33139   1.000   1.584   8.183 -0.7760  0.1023  0.7440
 7169SOL    HW133140   1.087   1.623   8.190  0.4682 -2.1439 -2.2874
 7169SOL    HW233141   0.998   1.567   8.089 -0.9963  0.8602  0.6065
 7170SOL     OW33142   3.599   3.951   9.208 -0.1203  0.0224  0.0819
 7170SOL    HW133143   3.661   3.889   9.169 -0.5326  0.1100 -0.7143
 7170SOL    HW233144   3.611   3.955   9.303 -0.1334 -1.1561  0.1348
 7171SOL     OW33145   0.888   3.642   9.904 -0.3102 -0.2450 -0.2921
 7171SOL    HW133146   0.940   3.719   9.883 -1.4480 -0.1808 -2.7848
 7171SOL    HW233147   0.917   3.598   9.824  1.3864  0.6377 -0.1558
 7172SOL     OW33148   0.320   1.786  14.409  0.2732  0.1439 -0.1626
 7172SOL    HW133149   0.275   1.774  14.326 -1.3299 -1.8005  0.9899
 7172SOL    HW233150   0.412   1.782  14.383 -0.2772 -1.6859 -1.8475
 7173SOL     OW33151   3.605   4.041   5.960  0.6183 -0.7532 -0.3182
 7173SOL    HW133152   3.595   4.001   5.874 -3.8773  3.4379 -1.7295
 7173SOL    HW233153   3.598   4.136   5.948 -2.9573 -1.1859 -1.6704
 7174SOL     OW33154   3.444   0.822   6.377  0.0322 -0.7398 -0.0099
 7174SOL    HW133155   3.429   0.774   6.458  1.7210  0.9810  1.3309
 7174SOL    HW233156   3.494   0.895   6.413 -0.4587 -0.3646 -0.0895
 7175SOL     OW33157   3.395   1.223  10.423  0.4560  0.3093 -0.0371
 7175SOL    HW133158   3.321   1.178  10.463  1.0124 -0.7305 -0.1497
 7175SOL    HW233159   3.352   1.304  10.398 -2.9952 -1.1956  1.0849
 7176SOL     OW33160   4.261   1.389  17.353  0.1328 -0.5166 -0.1320
 7176SOL    HW133161   4.215   1.451  17.409  1.4369 -2.7719  3.4492
 7176SOL    HW233162   4.260   1.446  17.276  0.6459 -0.3507 -0.0133
 7177SOL     OW33163   1.667   2.039   9.219 -0.2491 -0.4259 -0.5281
 7177SOL    HW133164   1.700   2.098   9.152  1.8055 -0.5821  0.3370
 7177SOL    HW233165   1.574   2.060   9.209 -0.0588  1.4106  1.5870
 7178SOL     OW33166   1.626   0.551   7.260  0.2824 -0.1218  0.5333
 7178SOL    HW133167   1.638   0.604   7.181  0.7266  0.4005  0.9442
 7178SOL    HW233168   1.707   0.569   7.309  0.7837  0.9995 -0.7167
 7179SOL     OW33169   1.545   1.834  12.056 -0.1996 -0.5719  0.0888
 7179SOL    HW133170   1.616   1.866  12.112 -0.1776  1.3286 -1.0180
 7179SOL    HW233171   1.499   1.914  12.032  1.9153  0.5106 -0.3983
 7180SOL     OW33172   3.025   1.484   7.374 -0.1294 -0.6046  0.4817
 7180SOL    HW133173   2.932   1.485   7.351 -0.3492 -1.2397  1.3501
 7180SOL    HW233174   3.023   1.520   7.462 -1.3274  0.8191 -0.1397
 7181SOL     OW33175   1.035   0.440   6.798 -0.2237 -0.9238 -0.0830
 7181SOL    HW133176   1.062   0.430   6.889  0.8101 -2.9999 -0.6311
 7181SOL    HW233177   1.122   0.426   6.762  1.0078 -1.5739  3.1792
 7182SOL     OW33178   3.649   1.263  11.500 -0.2793  0.6470  0.0885
 7182SOL    HW133179   3.602   1.331  11.452  0.4050  0.9015 -0.2115
 7182SOL    HW233180   3.737   1.259  11.462 -0.6740 -2.0762 -0.5894
 7183SOL     OW33181   0.434   1.376   3.207  0.1603  0.6332  0.1300
 7183SOL    HW133182   0.347   1.336   3.199  0.1239  1.0676 -1.6321
 7183SOL    HW233183   0.478   1.349   3.127  0.5103  0.2722  0.4460
 7184SOL     OW33184   3.502   0.004   7.729 -0.1807  0.4872 -0.0318
 7184SOL    HW133185   3.596   4.720   7.738 -0.2825 -1.2028 -1.8447
 7184SOL    HW233186   3.471   4.688   7.806 -0.0360  4.0964  2.2681
 7185SOL     OW33187   2.049   3.681   6.811 -0.1003  0.2031  1.0980
 7185SOL    HW133188   2.002   3.687   6.894 -2.3426 -3.1839  0.0890
 7185SOL    HW233189   2.004   3.607   6.771 -0.1577  1.1307 -0.5475
 7186SOL     OW33190   0.858   0.761   2.842 -0.2445 -0.2358 -0.1350
 7186SOL    HW133191   0.806   0.760   2.922 -1.6833  1.5326 -1.0692
 7186SOL    HW233192   0.852   0.853   2.817 -0.7078  0.5690  3.0093
 7187SOL     OW33193   2.040   0.636   5.404  0.0715 -0.1142 -0.2973
 7187SOL    HW133194   1.974   0.645   5.473 -1.1939 -1.5182 -1.3208
 7187SOL    HW233195   2.075   0.548   5.420 -0.6565 -0.4807 -0.6780
 7188SOL     OW33196   2.796   4.522   9.979  0.7898 -0.2179 -0.0635
 7188SOL    HW133197   2.778   4.432  10.005 -0.4191  0.3285  0.9848
 7188SOL    HW233198   2.888   4.523   9.955  0.5673  0.0969 -0.8896
 7189SOL     OW33199   0.278   0.773  16.492 -0.1271  0.2109  0.5146
 7189SOL    HW133200   0.373   0.776  16.487 -0.1307 -0.3395  0.0655
 7189SOL    HW233201   0.250   0.713  16.422 -1.4044  2.0203 -0.5308
 7190SOL     OW33202   0.815   0.104   8.478 -0.7029  0.0544  0.6883
 7190SOL    HW133203   0.745   0.044   8.502 -0.6345 -0.1602  0.3496
 7190SOL    HW233204   0.829   0.148   8.562 -1.4443  2.2326 -0.3539
 7191SOL     OW33205   4.629   2.513   7.829  0.2333  0.0755 -0.2387
 7191SOL    HW133206   4.566   2.445   7.806  0.8000 -0.5169 -0.0174
 7191SOL    HW233207   4.710   2.462   7.831 -0.1223 -0.4172  2.3125
 7192SOL     OW33208   4.346   0.070   2.839 -0.3966 -0.1988  0.0823
 7192SOL    HW133209   4.333   0.007   2.768 -1.5753 -0.8942  0.9149
 7192SOL    HW233210   4.282   0.138   2.819 -2.2661 -1.8415  0.4411
 7193SOL     OW33211   4.540   4.215   9.211  0.2627 -0.1062  0.4682
 7193SOL    HW133212   4.463   4.265   9.186  0.5569  0.4169  0.6092
 7193SOL    HW233213   4.555   4.234   9.304  0.5075  4.4181 -0.5259
 7194SOL     OW33214   0.381   4.418  11.820  0.1352  1.1647 -0.5188
 7194SOL    HW133215   0.396   4.409  11.914  0.7693  0.3561 -0.6922
 7194SOL    HW233216   0.461   4.382  11.781 -0.4816 -1.5957  0.8077
 7195SOL     OW33217   4.350   2.240  11.217  0.3099  0.0956  0.4164
 7195SOL    HW133218   4.271   2.187  11.206  2.0378 -2.0006 -1.9809
 7195SOL    HW233219   4.414   2.172  11.239  1.7932  1.5060  0.4907
 7196SOL     OW33220   4.031   0.846   6.778  0.8850 -0.2128 -0.5325
 7196SOL    HW133221   3.950   0.803   6.752  1.2188 -1.3027  0.2415
 7196SOL    HW233222   4.013   0.851   6.872 -2.1184  0.2308 -1.1427
 7197SOL     OW33223   2.220   0.015   6.284  0.7955  0.4355 -0.2032
 7197SOL    HW133224   2.258   0.095   6.247 -0.5901  1.0718 -0.2708
 7197SOL    HW233225   2.128   0.041   6.277  0.4330 -0.3765  1.6020
 7198SOL     OW33226   1.767   1.732  14.074  0.4425  0.0074  0.4126
 7198SOL    HW133227   1.798   1.681  14.149 -1.7639 -1.3814  0.3901
 7198SOL    HW233228   1.690   1.685  14.043  0.9848 -1.7097  1.6808
 7199SOL     OW33229   3.330   0.899  14.316  0.4288 -0.4842 -0.4049
 7199SOL    HW133230   3.247   0.870  14.280 -0.1499 -0.0684  0.6106
 7199SOL    HW233231   3.391   0.880  14.244 -0.1220 -3.2583 -0.1335
 7200SOL     OW33232   2.697   3.140   5.783  0.5054 -0.0446  0.3938
 7200SOL    HW133233   2.725   3.118   5.694  0.4904 -0.0415  0.3883
 7200SOL    HW233234   2.704   3.051   5.816 -1.2427 -0.5105 -0.4642
 7201SOL     OW33235   1.447   3.373   9.125  0.1689  0.4929  0.1790
 7201SOL    HW133236   1.520   3.434   9.121  0.0324  0.8562  3.2129
 7201SOL    HW233237   1.380   3.422   9.077 -1.3640 -1.9032 -0.1590
 7202SOL     OW33238   0.881   4.716  12.968  0.8741 -0.7175  0.4534
 7202SOL    HW133239   0.874   0.078  12.986 -0.1888 -0.4522 -1.4270
 7202SOL    HW233240   0.813   4.681  13.025 -0.2417 -0.6455 -0.8492
 7203SOL     OW33241   0.268   1.098   8.610  0.3780  0.0864 -0.4299
 7203SOL    HW133242   0.339   1.141   8.562  0.6985  1.0261  0.9078
 7203SOL    HW233243   0.259   1.148   8.691 -0.3716 -0.2771 -0.2801
 7204SOL     OW33244   2.397   3.874  10.815 -0.3238  0.0349 -0.0496
 7204SOL    HW133245   2.347   3.793  10.822  0.7996 -0.7745 -1.5331
 7204SOL    HW233246   2.487   3.843  10.806  1.0094  3.1932  2.3439
 7205SOL     OW33247   2.974   3.796   5.676  0.6806  0.0079 -0.3477
 7205SOL    HW133248   2.959   3.724   5.615  2.1133 -0.2962 -0.3385
 7205SOL    HW233249   2.901   3.784   5.736  1.5010  1.3531  0.9302
 7206SOL     OW33250   1.876   0.985   7.316  0.3001 -0.0369  0.7332
 7206SOL    HW133251   1.924   1.024   7.243  2.1886 -0.1480  1.9105
 7206SOL    HW233252   1.927   0.905   7.331  1.5165  0.1920 -2.3030
 7207SOL     OW33253   3.600   2.246   4.844 -0.0458 -0.1817  1.0706
 7207SOL    HW133254   3.661   2.277   4.776  0.4359 -1.2668  1.0030
 7207SOL    HW233255   3.597   2.151   4.827  1.7527  0.2731 -1.9876
 7208SOL     OW33256   0.048   3.388   6.077 -0.4828 -0.8830 -0.0320
 7208SOL    HW133257   4.709   3.357   6.021  0.0378 -0.8904 -0.6833
 7208SOL    HW233258   0.034   3.482   6.081  0.6530 -0.5955 -2.7740
 7209SOL     OW33259   0.851   2.979   7.968  0.4353  0.2804  0.4360
 7209SOL    HW133260   0.790   2.910   7.943  0.3337  0.4722  0.1553
 7209SOL    HW233261   0.819   3.056   7.922  2.0364 -0.7428 -2.3803
 7210SOL     OW33262   4.077   1.902   4.888 -0.9073 -0.2963 -0.4335
 7210SOL    HW133263   4.030   1.885   4.969 -0.1476 -0.4292 -0.0141
 7210SOL    HW233264   4.121   1.986   4.903 -1.7726 -0.0110  0.4736
 7211SOL     OW33265   2.149   0.763   8.434  0.1339  0.0349  0.2103
 7211SOL    HW133266   2.135   0.695   8.499 -1.0643 -1.3696 -1.5267
 7211SOL    HW233267   2.197   0.834   8.477  1.0196  0.2839 -1.1782
 7212SOL     OW33268   4.675   2.993  13.917  0.4230 -0.3011 -0.0168
 7212SOL    HW133269   4.692   2.977  13.824  1.4018  0.4521  0.0380
 7212SOL    HW233270   4.580   2.993  13.926  0.3633 -0.4352 -0.6106
 7213SOL     OW33271   4.119   4.481  13.759 -0.4775  0.0616  0.2995
 7213SOL    HW133272   4.071   4.411  13.803  2.3060  0.7448  4.4860
 7213SOL    HW233273   4.179   4.433  13.701 -1.0802 -0.1491 -0.1522
 7214SOL     OW33274   0.996   4.277   3.382  0.2976  0.1173 -0.1856
 7214SOL    HW133275   1.015   4.355   3.435  2.1721 -0.3459 -0.1827
 7214SOL    HW233276   1.031   4.304   3.298  3.1891 -4.0437 -0.3204
 7215SOL     OW33277   3.869   2.455   1.262 -0.3174 -0.4756  0.1911
 7215SOL    HW133278   3.908   2.514   1.197  1.6022 -2.3722 -0.4148
 7215SOL    HW233279   3.950   2.458   1.313 -0.0712 -0.1606 -0.2150
 7216SOL     OW33280   1.120   2.826  15.298 -0.2305 -0.2185  0.1509
 7216SOL    HW133281   1.132   2.840  15.392  0.7417 -0.7771  0.1221
 7216SOL    HW233282   1.210   2.803  15.274  0.3455  0.7884  1.3020
 7217SOL     OW33283   1.006   4.189   4.618 -0.2362  0.9196 -0.7086
 7217SOL    HW133284   1.070   4.221   4.681  0.2312 -2.6572  0.6042
 7217SOL    HW233285   0.927   4.197   4.670  1.8602  0.4451  2.5115
 7218SOL     OW33286   4.018   2.642   3.648 -0.5186  0.2112  0.0331
 7218SOL    HW133287   3.940   2.661   3.595 -2.2676  0.5596  2.7381
 7218SOL    HW233288   4.095   2.664   3.595 -0.3357 -0.4135  0.0472
 7219SOL     OW33289   0.397   3.256  14.349 -0.0176  0.2178  0.1485
 7219SOL    HW133290   0.303   3.250  14.334  0.1060 -2.7732  0.5625
 7219SOL    HW233291   0.417   3.165  14.371  1.0911  0.1939 -0.9533
 7220SOL     OW33292   0.836   0.973   7.404  0.0879  0.2997 -0.0701
 7220SOL    HW133293   0.800   0.911   7.341  2.6008 -1.8223  0.5976
 7220SOL    HW233294   0.754   0.998   7.447 -1.4657 -1.3621 -2.1144
 7221SOL     OW33295   3.139   1.597   2.201  0.1109  0.2613 -0.2853
 7221SOL    HW133296   3.073   1.657   2.164  1.3369  1.4711 -0.5139
 7221SOL    HW233297   3.082   1.536   2.248 -0.3399  0.3123 -0.7592
 7222SOL     OW33298   3.801   3.543  11.731 -0.2111 -0.2540  0.6547
 7222SOL    HW133299   3.720   3.504  11.766  0.2088  0.3590  2.3089
 7222SOL    HW233300   3.875   3.520  11.787 -0.2646 -0.5165  0.6172
 7223SOL     OW33301   3.173   1.954  11.739  0.5151 -0.0955 -0.3504
 7223SOL    HW133302   3.120   2.033  11.731 -0.3479 -0.7118 -0.7448
 7223SOL    HW233303   3.244   1.971  11.801  2.2392  0.9797 -2.6043
 7224SOL     OW33304   1.158   0.285   3.529  0.1685 -0.3263  0.5579
 7224SOL    HW133305   1.174   0.248   3.616  1.6199 -0.8059  0.0788
 7224SOL    HW233306   1.087   0.348   3.542  0.8327  0.5764 -0.1666
 7225SOL     OW33307   0.024   0.815   6.260 -0.4164 -1.1015 -0.3406
 7225SOL    HW133308   0.076   0.830   6.182 -1.5951  1.7906 -0.5738
 7225SOL    HW233309   4.674   0.773   6.232 -0.2329 -1.9500  0.3802
 7226SOL     OW33310   0.137   0.258   5.415 -0.2622 -0.0460  0.3014
 7226SOL    HW133311   0.200   0.234   5.483 -0.7503 -1.2934  0.3068
 7226SOL    HW233312   0.088   0.176   5.416  0.7625 -0.6350  1.0138
 7227SOL     OW33313   4.481   3.723   6.752  0.9990  0.2840  0.2985
 7227SOL    HW133314   4.514   3.761   6.671 -0.7431 -0.1592 -0.6154
 7227SOL    HW233315   4.393   3.760   6.754  0.7454 -0.4071  1.7633
 7228SOL     OW33316   1.611   0.290   7.339 -0.5335  0.1622 -0.1206
 7228SOL    HW133317   1.691   0.290   7.391  0.3080  2.0996 -1.4067
 7228SOL    HW233318   1.596   0.383   7.322 -0.2431 -0.0297 -1.4685
 7229SOL     OW33319   3.309   0.316  13.329 -0.3089 -0.1723 -0.0345
 7229SOL    HW133320   3.227   0.339  13.286  0.1582 -1.4563 -1.5983
 7229SOL    HW233321   3.287   0.226  13.352  1.0150 -1.0304 -2.1688
 7230SOL     OW33322   0.464   1.449   2.865 -0.6760  0.0366 -0.0408
 7230SOL    HW133323   0.509   1.385   2.921  3.6924  1.9363 -1.4049
 7230SOL    HW233324   0.540   1.507   2.858 -0.3879  0.2134  4.8759
 7231SOL     OW33325   2.095   0.799   5.704 -0.2532  0.1244 -0.2670
 7231SOL    HW133326   2.061   0.713   5.681  0.2271  0.0037 -0.5404
 7231SOL    HW233327   2.043   0.823   5.780 -0.2429  0.5488 -0.3888
 7232SOL     OW33328   2.347   2.488  12.390  0.0579 -0.5090 -0.0566
 7232SOL    HW133329   2.260   2.515  12.419 -1.3330 -2.8766 -1.9702
 7232SOL    HW233330   2.384   2.548  12.325  1.0807 -0.9178  0.1368
 7233SOL     OW33331   3.736   3.704   6.868 -0.4302 -0.2619 -0.4177
 7233SOL    HW133332   3.647   3.735   6.886  0.0260  0.3291  0.7866
 7233SOL    HW233333   3.779   3.719   6.952  0.7175 -2.7220 -0.5547
 7234SOL     OW33334   2.171   3.302  10.114  0.5568  0.1650  0.2344
 7234SOL    HW133335   2.217   3.220  10.095 -0.4796 -0.0390 -1.3203
 7234SOL    HW233336   2.230   3.340  10.179  1.1714  0.2458 -0.3674
 7235SOL     OW33337   2.792   2.376   8.222 -0.7231 -0.2150  0.0743
 7235SOL    HW133338   2.721   2.426   8.263  0.6055  1.7824 -0.0879
 7235SOL    HW233339   2.806   2.313   8.293 -0.9899 -2.2841 -1.6818
 7236SOL     OW33340   3.597   4.366  15.174  0.3179  0.0278 -0.1636
 7236SOL    HW133341   3.578   4.278  15.139 -0.0237  0.5687 -1.3440
 7236SOL    HW233342   3.624   4.404  15.090 -1.1065  0.3674 -0.4758
 7237SOL     OW33343   2.708   4.663   3.763  0.4693 -0.3380  0.4965
 7237SOL    HW133344   2.654   4.621   3.696  1.1206  1.0551 -0.8999
 7237SOL    HW233345   2.775   4.595   3.763 -0.1333 -0.9384 -0.8795
 7238SOL     OW33346   3.750   4.279   4.154  0.2119  0.2134  0.7116
 7238SOL    HW133347   3.741   4.310   4.244  0.1992 -0.3568  0.9060
 7238SOL    HW233348   3.667   4.297   4.109  0.7574  2.1470  0.5207
 7239SOL     OW33349   1.570   0.938   9.137 -0.1007 -0.5994  0.1612
 7239SOL    HW133350   1.565   0.961   9.230 -1.6367  0.2528 -0.1392
 7239SOL    HW233351   1.647   0.882   9.143 -0.8972 -1.7356 -0.3223
 7240SOL     OW33352   2.534   0.526   6.659 -0.3709 -0.6803 -0.3110
 7240SOL    HW133353   2.471   0.481   6.716 -0.4381  0.5602  0.6082
 7240SOL    HW233354   2.529   0.611   6.702  1.6531 -0.2687 -0.9049
 7241SOL     OW33355   2.630   2.092   4.151 -0.3554  0.2548 -0.0350
 7241SOL    HW133356   2.703   2.110   4.092 -0.0309 -2.1200 -0.3761
 7241SOL    HW233357   2.616   2.000   4.129 -1.3627 -0.0449  1.8438
 7242SOL     OW33358   1.255   4.350  11.608 -0.1044  0.1174 -0.0246
 7242SOL    HW133359   1.319   4.414  11.577  1.3402 -1.0720  0.4907
 7242SOL    HW233360   1.277   4.333  11.700 -1.2668 -0.9162  0.0756
 7243SOL     OW33361   1.288   2.489   9.294  0.2007  0.7777  0.8895
 7243SOL    HW133362   1.266   2.532   9.377  0.4383  0.3803  1.1597
 7243SOL    HW233363   1.206   2.506   9.248  0.8390 -0.5501 -0.7079
 7244SOL     OW33364   4.713   1.887   5.844 -0.3477 -0.2017  0.7404
 7244SOL    HW133365   0.033   1.932   5.777 -2.5789 -0.7473 -1.3230
 7244SOL    HW233366   4.716   1.945   5.920 -0.2706 -0.5311  0.9906
 7245SOL     OW33367   0.356   1.747  15.681 -0.0997 -0.3214 -0.0376
 7245SOL    HW133368   0.436   1.766  15.731 -1.3037  0.8823  1.4296
 7245SOL    HW233369   0.360   1.822  15.622 -1.0827 -2.3787 -2.7192
 7246SOL     OW33370   1.089   3.026  10.286 -0.0162 -1.4163  0.1618
 7246SOL    HW133371   1.026   2.968  10.328  0.0450 -0.4587  1.5848
 7246SOL    HW233372   1.155   2.961  10.265  0.4440 -0.7214 -0.5748
 7247SOL     OW33373   4.610   4.315  12.446  0.2185  0.4912 -0.0341
 7247SOL    HW133374   4.562   4.321  12.364 -0.5182 -1.8063  0.2239
 7247SOL    HW233375   4.628   4.220  12.448 -1.0975  0.2339 -0.9176
 7248SOL     OW33376   2.447   2.122   2.837 -0.4298  0.4633 -0.1997
 7248SOL    HW133377   2.500   2.190   2.795 -0.4287  1.1742  0.9621
 7248SOL    HW233378   2.395   2.097   2.761 -0.7517  0.0204  0.1688
 7249SOL     OW33379   4.511   1.527  17.355  0.4320  0.4681  0.0188
 7249SOL    HW133380   4.443   1.461  17.355 -0.1210  1.0602  1.8706
 7249SOL    HW233381   4.567   1.492  17.285 -0.3402 -0.1527 -0.2749
 7250SOL     OW33382   2.985   3.322   3.934 -0.0763  0.5127 -0.0670
 7250SOL    HW133383   2.994   3.401   3.881  0.8249 -0.3711 -1.2351
 7250SOL    HW233384   2.961   3.257   3.868 -2.6466 -0.7690  2.1222
 7251SOL     OW33385   1.819   1.105   7.564 -0.0301 -0.5636 -0.3696
 7251SOL    HW133386   1.728   1.135   7.562  0.6200  1.4308 -0.1287
 7251SOL    HW233387   1.833   1.080   7.472 -0.8461  1.0641 -0.9295
 7252SOL     OW33388   0.067   2.170  14.848  0.0968  0.2899  0.3988
 7252SOL    HW133389   0.151   2.161  14.802  0.2791 -0.7632  0.9492
 7252SOL    HW233390   0.055   2.265  14.846 -0.8364  0.1928  1.8994
 7253SOL     OW33391   3.605   2.214   5.876  0.1416 -0.4926 -0.3600
 7253SOL    HW133392   3.516   2.228   5.844  0.0407  0.5124  0.3321
 7253SOL    HW233393   3.593   2.204   5.971 -0.8212 -0.1586 -0.4427
 7254SOL     OW33394   2.218   0.690   3.180  0.0638 -0.0522 -0.1414
 7254SOL    HW133395   2.308   0.718   3.192  0.7700 -2.0050 -0.7970
 7254SOL    HW233396   2.194   0.679   3.272  1.2375 -4.3149 -0.3180
 7255SOL     OW33397   3.754   1.200   0.690 -0.1894  0.0909 -0.2992
 7255SOL    HW133398   3.813   1.275   0.695 -0.2436  0.1842 -0.9949
 7255SOL    HW233399   3.713   1.205   0.776 -0.2820  2.4855 -0.4641
 7256SOL     OW33400   3.320   2.013   3.745  0.3027 -0.0561 -0.0145
 7256SOL    HW133401   3.316   1.956   3.821  1.4622 -1.7832 -1.2654
 7256SOL    HW233402   3.414   2.024   3.734 -0.0106  3.0983  0.3003
 7257SOL     OW33403   4.114   3.992  10.955 -0.3949  0.0481 -0.1822
 7257SOL    HW133404   4.102   4.081  10.988 -0.0206 -0.3700  1.0493
 7257SOL    HW233405   4.209   3.989  10.955 -0.3630  0.9870 -1.4817
 7258SOL     OW33406   1.753   2.593   8.041  0.1719 -0.1680  0.3600
 7258SOL    HW133407   1.754   2.508   7.996 -1.0273  0.0731 -0.1212
 7258SOL    HW233408   1.806   2.653   7.989 -0.6517  1.6312  1.6325
 7259SOL     OW33409   1.577   4.658  15.575  0.2542  0.7674  0.2727
 7259SOL    HW133410   1.651   4.615  15.533 -1.0869 -2.1949  0.9248
 7259SOL    HW233411   1.500   4.611  15.540  1.6716 -0.9481 -0.5347
 7260SOL     OW33412   0.375   1.520   6.732  0.1398  0.1542 -0.3542
 7260SOL    HW133413   0.355   1.438   6.687 -2.1399  0.8682 -0.6351
 7260SOL    HW233414   0.454   1.536   6.681 -0.5152  1.5489 -0.9241
 7261SOL     OW33415   3.722   4.476  17.279  0.4300 -0.4193 -0.4016
 7261SOL    HW133416   3.672   4.405  17.238 -2.0498  1.6943 -0.9969
 7261SOL    HW233417   3.725   4.435  17.366  0.6480 -1.0203 -0.6911
 7262SOL     OW33418   1.205   4.367   4.067 -0.2027  0.4574  0.1061
 7262SOL    HW133419   1.238   4.422   3.996  1.0501  0.6181  0.8200
 7262SOL    HW233420   1.125   4.330   4.028 -0.8851 -1.0200  2.9454
 7263SOL     OW33421   1.029   3.275  14.653 -0.0612 -0.0277  0.3385
 7263SOL    HW133422   1.102   3.275  14.714 -0.3971  1.2747  0.7561
 7263SOL    HW233423   1.067   3.319  14.577 -1.2204  1.3198  0.5287
 7264SOL     OW33424   3.810   4.097  10.405  0.5597  0.1872 -0.3499
 7264SOL    HW133425   3.896   4.070  10.436  1.1777  1.0162 -1.3378
 7264SOL    HW233426   3.788   4.153  10.480  1.4165  2.2261 -1.6163
 7265SOL     OW33427   0.596   1.765  14.267  0.2037  0.2012  0.2178
 7265SOL    HW133428   0.571   1.687  14.216  2.2745 -2.0499  2.6643
 7265SOL    HW233429   0.691   1.762  14.256  0.5698  4.0187  2.3428
 7266SOL     OW33430   3.390   0.328   5.652 -0.0054  0.9369 -0.0815
 7266SOL    HW133431   3.463   0.274   5.683  0.0311  0.9557 -0.1340
 7266SOL    HW233432   3.431   0.415   5.655  3.0380 -0.5406  1.6544
 7267SOL     OW33433   1.425   1.699   1.987 -0.4583 -0.3392  0.0181
 7267SOL    HW133434   1.462   1.696   1.898  2.5573  3.3583  1.1568
 7267SOL    HW233435   1.442   1.609   2.015  0.5997  0.2615  1.2893
 7268SOL     OW33436   1.612   1.256   9.527  0.1008  0.4013  0.3022
 7268SOL    HW133437   1.674   1.321   9.561  0.1349  0.6808 -0.2937
 7268SOL    HW233438   1.619   1.265   9.432  0.6852 -0.4799  0.2625
 7269SOL     OW33439   2.734   1.535   2.368 -0.7648 -0.5474 -0.5333
 7269SOL    HW133440   2.749   1.567   2.279 -0.2835 -0.3218 -0.3686
 7269SOL    HW233441   2.645   1.503   2.352 -0.0098 -2.5252 -0.7252
 7270SOL     OW33442   3.772   1.393  15.282  0.0100 -0.6617 -0.3240
 7270SOL    HW133443   3.815   1.309  15.268 -2.3574 -1.8063 -0.7435
 7270SOL    HW233444   3.763   1.408  15.188 -1.4900 -2.0721 -0.4054
 7271SOL     OW33445   1.600   2.333   6.622  0.4756  0.3814  0.4870
 7271SOL    HW133446   1.590   2.238   6.617 -0.4888  0.3640  2.8356
 7271SOL    HW233447   1.689   2.341   6.656  1.0338  1.9883 -1.3204
 7272SOL     OW33448   4.449   1.441   7.120  0.4578  0.5235 -0.1447
 7272SOL    HW133449   4.432   1.514   7.179 -1.4966  1.1409 -1.4734
 7272SOL    HW233450   4.541   1.451   7.093 -0.2585  1.5936 -2.1788
 7273SOL     OW33451   2.784   2.282  10.338  0.3523  0.1717  0.2736
 7273SOL    HW133452   2.873   2.294  10.306  0.1552  1.3624  0.1843
 7273SOL    HW233453   2.788   2.191  10.369 -3.0201 -0.0662  0.0727
 7274SOL     OW33454   4.097   0.925   8.288 -0.7242  0.3133 -0.1604
 7274SOL    HW133455   4.038   0.894   8.220 -0.2379 -0.3901 -0.2625
 7274SOL    HW233456   4.030   0.947   8.351 -1.6978 -0.3511 -0.9672
 7275SOL     OW33457   1.048   2.651   6.890  0.1592 -0.5206  0.3280
 7275SOL    HW133458   1.019   2.617   6.974  1.6206  1.1694  1.4944
 7275SOL    HW233459   1.089   2.573   6.852 -1.7346 -0.8673 -1.0399
 7276SOL     OW33460   3.965   2.045   3.025  0.0161 -0.3058  0.3604
 7276SOL    HW133461   4.026   1.972   3.026  0.5864  0.1528 -0.9704
 7276SOL    HW233462   4.016   2.107   3.077 -2.3125 -0.1473  2.4991
 7277SOL     OW33463   2.325   3.943   6.980 -0.4783 -0.2673  0.5254
 7277SOL    HW133464   2.297   4.028   7.012  0.0402  0.1927 -0.2465
 7277SOL    HW233465   2.405   3.960   6.930 -0.4723 -3.4476 -0.5454
 7278SOL     OW33466   3.239   2.234   4.708  0.5773 -0.8638 -0.0862
 7278SOL    HW133467   3.265   2.150   4.668  2.3502 -0.0948 -0.5516
 7278SOL    HW233468   3.149   2.232   4.741  0.8813 -1.0815  0.7414
 7279SOL     OW33469   3.036   0.679   6.812  0.2242 -0.5280  0.4751
 7279SOL    HW133470   2.972   0.632   6.864 -0.7997  0.5976  0.2316
 7279SOL    HW233471   3.110   0.666   6.872 -0.7875 -0.3962  1.7315
 7280SOL     OW33472   1.896   0.334   3.538 -0.1574  0.5362  0.0941
 7280SOL    HW133473   1.953   0.396   3.492 -0.2988 -0.6539 -1.6883
 7280SOL    HW233474   1.958   0.261   3.545 -1.7143 -0.8909 -1.3231
 7281SOL     OW33475   0.407   2.728   4.604  0.1271 -0.4818  0.0804
 7281SOL    HW133476   0.501   2.737   4.588  0.1165  2.4566  1.6386
 7281SOL    HW233477   0.372   2.701   4.519 -2.0649  3.1477 -0.2150
 7282SOL     OW33478   1.204   2.609   5.268  0.2035 -0.0396 -0.0515
 7282SOL    HW133479   1.176   2.690   5.226 -0.4942  0.1714  0.8316
 7282SOL    HW233480   1.270   2.639   5.330  0.1904 -1.1158  0.4960
 7283SOL     OW33481   0.935   2.305  17.681 -0.1721  0.1774  0.4256
 7283SOL    HW133482   0.959   2.369  17.615 -0.3625 -0.0722  0.1097
 7283SOL    HW233483   0.872   2.251  17.633 -0.3617  1.2852 -0.5447
 7284SOL     OW33484   2.271   3.800   7.864  0.6211 -0.2448  0.2113
 7284SOL    HW133485   2.197   3.745   7.837  1.1604 -0.5300 -0.6703
 7284SOL    HW233486   2.262   3.784   7.958  4.6748  0.0122  0.6120
 7285SOL     OW33487   3.100   4.651   2.254 -0.2047 -0.2457 -0.0372
 7285SOL    HW133488   3.043   4.597   2.199  2.6642 -1.9064 -1.3845
 7285SOL    HW233489   3.040   4.666   2.327 -1.5381  0.9418 -1.3721
 7286SOL     OW33490   3.040   2.191   2.752  0.0089  0.4143 -0.2538
 7286SOL    HW133491   2.967   2.234   2.796 -0.1288 -0.8682  0.7491
 7286SOL    HW233492   3.081   2.273   2.725 -1.8024  0.8855 -1.5603
 7287SOL     OW33493   1.372   2.083   1.265 -0.2791  0.6929  0.0322
 7287SOL    HW133494   1.329   2.168   1.255 -1.6143 -0.4088 -3.5377
 7287SOL    HW233495   1.465   2.106   1.266  0.0599 -0.7418  1.1874
 7288SOL     OW33496   3.891   2.830   9.677  0.9321  0.5313  0.3685
 7288SOL    HW133497   3.969   2.863   9.631 -0.6484  1.3656 -1.7132
 7288SOL    HW233498   3.841   2.911   9.686 -1.0075 -0.4409 -1.8199
 7289SOL     OW33499   1.730   0.090   6.622 -0.0566  0.4563 -0.9083
 7289SOL    HW133500   1.763   0.007   6.656  0.7952  1.1408 -0.0862
 7289SOL    HW233501   1.694   0.127   6.702 -0.6124  0.7898 -1.3063
 7290SOL     OW33502   1.108   2.450   9.043  0.1533  0.1099 -0.2495
 7290SOL    HW133503   1.089   2.381   9.107 -0.0327 -0.5114 -0.9816
 7290SOL    HW233504   1.025   2.497   9.032  1.4399  2.9256  1.8655
 7291SOL     OW33505   4.082   1.616   3.551 -0.4365 -0.1314 -0.0071
 7291SOL    HW133506   4.107   1.596   3.461 -0.2188 -1.0953  0.2708
 7291SOL    HW233507   4.068   1.528   3.587 -1.8528 -0.5800 -1.6660
 7292SOL     OW33508   0.924   4.245   3.677 -0.1108  0.1811  0.0330
 7292SOL    HW133509   0.848   4.303   3.683  0.4457  0.9552 -0.5444
 7292SOL    HW233510   0.899   4.162   3.635  0.5079 -1.2902  2.5361
 7293SOL     OW33511   2.764   3.795   8.377 -0.2653 -0.0253 -0.1522
 7293SOL    HW133512   2.840   3.806   8.433 -0.5754  1.8351 -0.0882
 7293SOL    HW233513   2.780   3.708   8.340 -1.0970 -0.5759  0.7947
 7294SOL     OW33514   4.261   1.238  11.115  0.3105  0.1591  0.0680
 7294SOL    HW133515   4.195   1.237  11.185  0.2924  0.2671  0.0537
 7294SOL    HW233516   4.274   1.333  11.104  0.7811 -0.0934 -1.5457
 7295SOL     OW33517   4.633   3.368   8.384 -0.3934  0.4583 -0.4837
 7295SOL    HW133518   4.711   3.409   8.423  0.8059  1.4001 -3.9440
 7295SOL    HW233519   4.601   3.313   8.456  2.8399 -1.4457 -0.5081
 7296SOL     OW33520   2.481   2.694   4.316  0.2634 -0.5762  0.4220
 7296SOL    HW133521   2.500   2.657   4.230  0.6911  1.6276 -0.4310
 7296SOL    HW233522   2.495   2.613   4.365  1.1816 -0.0212  1.0684
 7297SOL     OW33523   0.435   4.306  17.323 -0.3113 -0.2381  0.5092
 7297SOL    HW133524   0.415   4.341  17.236  0.2798 -0.3366  0.3373
 7297SOL    HW233525   0.530   4.317  17.328 -0.2327 -1.0687  0.9152
 7298SOL     OW33526   1.335   1.815   6.977 -0.0682  0.0139 -0.0015
 7298SOL    HW133527   1.328   1.787   7.068  2.3452 -0.0299  0.1860
 7298SOL    HW233528   1.280   1.893   6.976  0.0827  0.0858 -2.1813
 7299SOL     OW33529   1.333   2.453   1.387  0.5383 -0.0220 -0.2340
 7299SOL    HW133530   1.290   2.427   1.305  0.7356  1.3670 -0.7699
 7299SOL    HW233531   1.308   2.544   1.397  1.1356 -0.0181  1.2979
 7300SOL     OW33532   4.404   3.753   2.210  0.1276  0.9816 -0.1720
 7300SOL    HW133533   4.493   3.724   2.228 -0.8857 -0.8309  1.8221
 7300SOL    HW233534   4.403   3.741   2.115  0.1197 -1.6281  0.1659
 7301SOL     OW33535   2.827   2.203  15.481 -0.8850  1.0054 -0.1071
 7301SOL    HW133536   2.830   2.276  15.543  0.9532 -0.3887  1.4653
 7301SOL    HW233537   2.910   2.160  15.503 -1.4859 -1.1470 -2.1572
 7302SOL     OW33538   2.561   3.568   6.708 -0.1381 -0.1592  0.0330
 7302SOL    HW133539   2.510   3.491   6.686 -0.3957 -0.3376  1.2748
 7302SOL    HW233540   2.529   3.627   6.640 -0.2952 -2.5182 -1.9409
 7303SOL     OW33541   0.119   2.920   5.394  0.3119 -0.1566 -0.4919
 7303SOL    HW133542   0.058   2.941   5.465 -0.9484 -1.1678 -1.2748
 7303SOL    HW233543   0.186   2.987   5.405 -0.0378  0.6060 -2.8900
 7304SOL     OW33544   1.587   2.125   5.645  0.0610 -0.0975 -0.1549
 7304SOL    HW133545   1.528   2.070   5.594  1.0447 -1.6750  0.4015
 7304SOL    HW233546   1.633   2.176   5.578 -2.5144  1.7994 -0.4600
 7305SOL     OW33547   3.162   3.908   4.499 -0.0430 -0.2276 -0.0819
 7305SOL    HW133548   3.127   3.821   4.479  0.8193 -0.5798 -0.0480
 7305SOL    HW233549   3.120   3.914   4.585  0.6865  2.2650  0.0923
 7306SOL     OW33550   2.943   0.446  11.898 -0.4895 -0.3763 -0.1077
 7306SOL    HW133551   2.872   0.432  11.960  0.6557 -0.9262  1.0862
 7306SOL    HW233552   2.993   0.365  11.905  1.9578  0.8891 -2.7002
 7307SOL     OW33553   3.636   4.096   2.524 -0.5048 -0.4044 -0.8780
 7307SOL    HW133554   3.709   4.150   2.554  0.4158 -1.8725 -0.4438
 7307SOL    HW233555   3.678   4.010   2.526 -0.8326 -0.5728 -1.1758
 7308SOL     OW33556   3.108   2.985  10.793  0.2259 -0.8116 -0.2271
 7308SOL    HW133557   3.075   2.900  10.823  0.6240 -0.9629 -0.2125
 7308SOL    HW233558   3.072   2.988  10.704 -3.0576 -1.5854  1.0993
 7309SOL     OW33559   0.788   4.513  15.820 -0.0045  0.6571 -0.6612
 7309SOL    HW133560   0.883   4.527  15.815  0.4543 -2.3192 -0.0562
 7309SOL    HW233561   0.775   4.462  15.900 -0.0586  1.3815 -0.1979
 7310SOL     OW33562   2.311   3.338   5.823  0.1744 -0.1311  0.1493
 7310SOL    HW133563   2.319   3.316   5.916  0.9324  0.2752  0.1814
 7310SOL    HW233564   2.279   3.428   5.825 -1.8862 -0.8877  1.0631
 7311SOL     OW33565   3.724   4.101   6.305 -0.2593  0.4117  0.0522
 7311SOL    HW133566   3.724   4.033   6.373 -1.2138 -0.0133 -0.3794
 7311SOL    HW233567   3.638   4.075   6.273 -0.8793  0.4568  1.6950
 7312SOL     OW33568   0.446   2.155   5.057  0.4584  0.2059 -0.3541
 7312SOL    HW133569   0.372   2.095   5.063  0.1873  0.6085  0.3174
 7312SOL    HW233570   0.513   2.088   5.072  0.5084 -0.0817 -1.8328
 7313SOL     OW33571   2.416   0.639   8.713  0.0444 -0.1397 -0.5618
 7313SOL    HW133572   2.485   0.674   8.769  1.1298 -0.7853 -1.4975
 7313SOL    HW233573   2.353   0.710   8.729  0.1156 -0.5977  1.7677
 7314SOL     OW33574   2.431   1.145  16.508  0.3524  0.1409  0.4739
 7314SOL    HW133575   2.358   1.084  16.501 -0.5994  0.9879  2.9593
 7314SOL    HW233576   2.383   1.226  16.526  0.3176  0.9922 -3.4208
 7315SOL     OW33577   4.379   2.972   5.645  0.8226  0.1002 -0.2734
 7315SOL    HW133578   4.411   2.885   5.668 -2.2485 -0.7634  0.7629
 7315SOL    HW233579   4.285   2.964   5.629  0.2954  1.6299  2.1512
 7316SOL     OW33580   0.465   1.135   0.392 -0.1578 -0.5086 -0.4322
 7316SOL    HW133581   0.514   1.054   0.377  2.4171  0.9797 -0.0578
 7316SOL    HW233582   0.421   1.127   0.476  0.2614 -1.7628 -0.3326
 7317SOL     OW33583   4.180   2.745  13.367 -0.0596 -0.6957 -0.7409
 7317SOL    HW133584   4.089   2.773  13.382  0.1678 -0.7259  0.6891
 7317SOL    HW233585   4.207   2.801  13.294 -1.8069  0.8888 -0.1761
 7318SOL     OW33586   4.369   4.268  12.705 -0.7521  0.1329 -0.2138
 7318SOL    HW133587   4.395   4.357  12.681 -0.3749 -0.0384 -0.4402
 7318SOL    HW233588   4.444   4.224  12.746 -0.6173 -0.1881 -0.8136
 7319SOL     OW33589   2.436   3.301  13.654  0.3347  0.4904 -0.3287
 7319SOL    HW133590   2.432   3.356  13.576  0.7167  0.3276 -0.4645
 7319SOL    HW233591   2.432   3.359  13.730  1.6852  0.6947 -0.4089
 7320SOL     OW33592   0.943   1.018  14.468  0.0821 -0.2322  0.8039
 7320SOL    HW133593   0.882   0.968  14.523 -0.7231  1.4410  1.4259
 7320SOL    HW233594   0.978   0.954  14.406 -0.6572  0.0682  0.0783
 7321SOL     OW33595   0.792   4.659   3.536  0.0055 -0.7350  0.4728
 7321SOL    HW133596   0.736   4.588   3.507  0.8636 -2.5434  3.2470
 7321SOL    HW233597   0.811   4.631   3.625  2.9762  0.0799  0.1211
 7322SOL     OW33598   1.217   0.120   1.370 -0.5247  0.7055 -0.2160
 7322SOL    HW133599   1.270   0.146   1.295  0.0626  2.0442  0.6418
 7322SOL    HW233600   1.135   0.167   1.356  1.5228  3.4969 -2.7702
 7323SOL     OW33601   0.904   1.338  15.005 -0.1626 -0.6865 -0.2586
 7323SOL    HW133602   0.841   1.354  15.075  0.4315  1.2865 -0.1842
 7323SOL    HW233603   0.958   1.264  15.032  0.5129  0.0284  0.3323
 7324SOL     OW33604   0.032   3.914  13.409  0.4062 -0.0406  0.1484
 7324SOL    HW133605   4.671   3.921  13.388  0.2832 -0.8485  0.4261
 7324SOL    HW233606   0.066   3.999  13.380 -1.1335 -0.0779 -1.7689
 7325SOL     OW33607   3.147   0.359   1.818 -0.3675  0.4887  0.2948
 7325SOL    HW133608   3.153   0.269   1.786 -3.1558  0.2268  0.5145
 7325SOL    HW233609   3.104   0.415   1.754 -1.2909 -0.6612 -0.0827
 7326SOL     OW33610   0.382   3.070  12.474  0.9268 -0.3144  0.3016
 7326SOL    HW133611   0.312   3.006  12.467  1.3639 -0.7631  0.0521
 7326SOL    HW233612   0.455   3.028  12.429 -0.6014 -1.3219 -1.2508
 7327SOL     OW33613   1.908   2.699   4.360  0.2928 -0.3397  0.3401
 7327SOL    HW133614   1.836   2.722   4.302  0.6926 -3.6208 -1.4477
 7327SOL    HW233615   1.982   2.686   4.301  0.7655 -1.2329  1.1296
 7328SOL     OW33616   2.246   0.717   6.360 -0.0473  0.3446 -0.9288
 7328SOL    HW133617   2.320   0.775   6.380  0.3874 -0.2849 -0.7203
 7328SOL    HW233618   2.206   0.754   6.281 -0.4263  2.6323  0.3409
 7329SOL     OW33619   3.111   0.453   4.922 -0.3157  0.0030 -0.3723
 7329SOL    HW133620   3.046   0.397   4.879  0.5250 -1.0212 -0.2973
 7329SOL    HW233621   3.052   0.487   4.989 -0.0075  0.9316 -0.5656
 7330SOL     OW33622   4.412   3.355   3.569  0.3235 -0.4117  0.0611
 7330SOL    HW133623   4.474   3.341   3.641  1.6421 -1.1441 -1.2039
 7330SOL    HW233624   4.377   3.266   3.567 -0.2879 -0.2029  1.0791
 7331SOL     OW33625   4.615   0.589   7.234 -0.0082  0.1349  0.0414
 7331SOL    HW133626   4.586   0.675   7.202 -0.5951  0.4464  1.4327
 7331SOL    HW233627   4.547   0.533   7.196  1.0471 -1.4518  0.4943
 7332SOL     OW33628   2.460   3.180   7.979 -0.2398  0.3894 -0.5061
 7332SOL    HW133629   2.397   3.241   8.017  0.3510  0.8296 -0.2430
 7332SOL    HW233630   2.533   3.199   8.037  1.4664 -2.3664 -1.7771
 7333SOL     OW33631   3.691   3.701   3.079  0.4274 -0.0800 -0.2220
 7333SOL    HW133632   3.775   3.698   3.034  0.6412 -1.0118  0.2292
 7333SOL    HW233633   3.707   3.676   3.170  1.1229  1.1171 -0.0242
 7334SOL     OW33634   0.564   2.012   8.273 -0.5798 -0.3686  0.0936
 7334SOL    HW133635   0.600   1.929   8.306  0.2407  0.3687  1.0935
 7334SOL    HW233636   0.536   2.062   8.350 -1.6685  0.7113 -1.0230
 7335SOL     OW33637   0.335   0.524   1.740 -0.2040 -0.8561 -0.2320
 7335SOL    HW133638   0.302   0.598   1.689  1.2111  0.5575  0.9014
 7335SOL    HW233639   0.293   0.452   1.692  3.0084 -1.7264 -1.7289
 7336SOL     OW33640   0.004   3.234   8.078  0.0058 -0.2672  0.5957
 7336SOL    HW133641   4.648   3.196   8.084 -0.4864  0.3400 -2.5443
 7336SOL    HW233642   4.714   3.306   8.137  0.5949  0.3353  0.0928
 7337SOL     OW33643   3.830   2.382   8.064 -0.2490 -0.2776  0.3386
 7337SOL    HW133644   3.773   2.379   7.987  0.5310 -1.9027 -0.1666
 7337SOL    HW233645   3.911   2.335   8.043 -0.2600 -0.2001  0.1181
 7338SOL     OW33646   4.591   3.720   7.298  0.2748 -0.3968 -0.4916
 7338SOL    HW133647   4.537   3.753   7.369  2.4623 -1.0574  1.4517
 7338SOL    HW233648   4.532   3.651   7.266 -0.2053 -0.1586 -0.1163
 7339SOL     OW33649   0.471   1.470  17.088  0.3917  0.0802  0.4723
 7339SOL    HW133650   0.550   1.497  17.134  1.8680 -1.7233 -0.9919
 7339SOL    HW233651   0.413   1.507  17.154  0.1398  1.1589 -0.3393
 7340SOL     OW33652   0.151   4.494   1.262  0.4695 -0.2018 -0.3659
 7340SOL    HW133653   0.165   4.495   1.168 -2.7965 -0.7129 -0.8570
 7340SOL    HW233654   0.134   4.402   1.281 -1.1305 -0.0952 -1.3148
 7341SOL     OW33655   4.630   0.223  16.297  0.7061  0.2441 -0.0488
 7341SOL    HW133656   4.698   0.272  16.250  0.7947  1.4782  1.3644
 7341SOL    HW233657   4.626   0.276  16.376 -1.8597  0.8175 -0.5710
 7342SOL     OW33658   0.640   1.025  13.603 -0.0850 -0.0560 -0.0463
 7342SOL    HW133659   0.700   1.100  13.611 -0.2524  0.1605 -0.8449
 7342SOL    HW233660   0.647   1.000  13.511 -1.2831 -1.4792  0.2624
 7343SOL     OW33661   3.018   2.586   8.857 -0.0316  0.1099 -1.0241
 7343SOL    HW133662   3.099   2.546   8.891 -0.5634 -0.4148 -0.3684
 7343SOL    HW233663   3.047   2.675   8.838  0.8243 -0.5808 -2.9525
 7344SOL     OW33664   2.209   3.632  10.355  0.1274  0.3854 -0.2013
 7344SOL    HW133665   2.229   3.588  10.438 -0.0881  2.1068  0.7483
 7344SOL    HW233666   2.213   3.725  10.377 -0.9069  0.4931 -0.4694
 7345SOL     OW33667   1.138   2.495   6.496 -0.3296  0.4130  0.0141
 7345SOL    HW133668   1.151   2.479   6.403 -0.9785  0.9662 -0.1699
 7345SOL    HW233669   1.224   2.480   6.535 -1.3177 -1.7323  1.4091
 7346SOL     OW33670   4.596   0.156  11.664  0.5752  0.6876  0.2381
 7346SOL    HW133671   4.595   0.062  11.652  0.9555  0.8619 -1.1255
 7346SOL    HW233672   4.541   0.161  11.743 -2.3018 -2.1130 -1.6162
 7347SOL     OW33673   3.105   4.172   8.673 -0.0843 -0.1640  0.3509
 7347SOL    HW133674   3.170   4.105   8.653 -1.0173 -0.7693 -0.6187
 7347SOL    HW233675   3.128   4.193   8.764 -1.8379  1.9122  0.3152
 7348SOL     OW33676   2.005   3.618   1.898  0.0571  0.6662  0.1347
 7348SOL    HW133677   1.986   3.709   1.876 -1.9835  0.3457  0.5738
 7348SOL    HW233678   2.067   3.616   1.971 -0.7386 -0.2937  0.7894
 7349SOL     OW33679   3.230   0.031  13.387 -0.4156 -0.5564  0.3352
 7349SOL    HW133680   3.181   0.096  13.437  1.4073  0.0120  1.3853
 7349SOL    HW233681   3.271   4.697  13.443  0.7717 -0.8841 -0.9097
 7350SOL     OW33682   1.012   1.291   5.335  0.2516  0.7609 -0.0246
 7350SOL    HW133683   0.923   1.293   5.301  1.2702 -0.4235 -2.7423
 7350SOL    HW233684   1.033   1.382   5.354 -1.2842  1.2662 -0.7728
 7351SOL     OW33685   4.588   1.492  16.766 -0.4230 -0.0750  0.2884
 7351SOL    HW133686   4.538   1.416  16.736 -1.3751  0.4890  0.4341
 7351SOL    HW233687   4.671   1.483  16.720  0.3302  0.9413  1.4580
 7352SOL     OW33688   1.176   0.629   9.474  0.2612  0.4250 -0.1372
 7352SOL    HW133689   1.265   0.595   9.464  0.7664  1.8275 -0.5097
 7352SOL    HW233690   1.190   0.713   9.518 -0.3455  0.5535 -0.1920
 7353SOL     OW33691   2.559   0.292   5.284  0.6369 -0.2342  0.9523
 7353SOL    HW133692   2.638   0.248   5.252 -0.4602 -0.4077 -1.5638
 7353SOL    HW233693   2.567   0.262   5.374  0.8891 -2.9633  0.0350
 7354SOL     OW33694   0.521   4.668   3.776 -0.2276  0.6885 -0.0098
 7354SOL    HW133695   0.577   4.727   3.826 -0.7138 -0.1223  1.4782
 7354SOL    HW233696   0.483   0.005   3.722 -0.4772 -0.2990 -1.1013
 7355SOL     OW33697   4.027   1.681   0.045 -0.0269 -0.2805  0.6566
 7355SOL    HW133698   4.075   1.649   0.122 -1.3892 -0.6702  1.3437
 7355SOL    HW233699   4.074   1.764   0.032 -0.1884 -0.8988 -3.6202
 7356SOL     OW33700   4.645   4.502   4.817 -0.1200  0.4390 -0.0021
 7356SOL    HW133701   4.599   4.449   4.752 -1.7553  0.5387  1.0867
 7356SOL    HW233702   4.587   4.576   4.797 -0.2457  1.0224  2.4884
 7357SOL     OW33703   0.589   2.213   9.051  0.3304  0.7178 -0.5225
 7357SOL    HW133704   0.505   2.184   9.015  0.9217 -1.3051 -0.2640
 7357SOL    HW233705   0.629   2.273   8.989  0.8357 -0.1247 -1.0063
 7358SOL     OW33706   4.357   0.918   8.372  0.9782 -0.0263 -0.9611
 7358SOL    HW133707   4.265   0.944   8.365  1.0322  0.3919 -0.0898
 7358SOL    HW233708   4.358   0.832   8.330 -1.1618 -0.5075 -0.0495
 7359SOL     OW33709   0.462   0.658   5.239  0.4821  0.1022 -1.0123
 7359SOL    HW133710   0.387   0.610   5.275  1.5070 -0.5524  0.2517
 7359SOL    HW233711   0.521   0.584   5.222  1.7690  1.1705 -1.1595
 7360SOL     OW33712   2.091   1.530   2.632 -0.2697 -0.1006  0.1613
 7360SOL    HW133713   2.003   1.498   2.612  0.0235 -0.6152 -0.3095
 7360SOL    HW233714   2.142   1.453   2.607  1.6809  0.4419  2.4106
 7361SOL     OW33715   4.560   4.547   8.124  0.1333  0.1288 -0.1445
 7361SOL    HW133716   4.550   4.611   8.054  2.8717 -1.6038 -2.1413
 7361SOL    HW233717   4.625   4.490   8.082  1.0469  1.4725 -0.5408
 7362SOL     OW33718   2.268   2.837   4.269 -0.5300  0.0163 -0.0921
 7362SOL    HW133719   2.218   2.792   4.337 -0.2119  1.0221  0.8006
 7362SOL    HW233720   2.350   2.789   4.280 -0.3408 -0.2577 -2.5844
 7363SOL     OW33721   3.664   0.868   9.246 -0.1341  0.0398  0.0173
 7363SOL    HW133722   3.629   0.796   9.298  3.4357 -0.8765  1.1325
 7363SOL    HW233723   3.700   0.830   9.166 -1.4736 -1.0226 -0.0812
 7364SOL     OW33724   4.180   2.658   2.759 -0.2673  0.2560  0.0706
 7364SOL    HW133725   4.224   2.614   2.832 -0.7362 -1.1598 -0.4994
 7364SOL    HW233726   4.126   2.582   2.736 -0.6633 -0.2534  2.7516
 7365SOL     OW33727   4.283   4.664  11.596  0.3029  0.1840 -0.3529
 7365SOL    HW133728   4.349   4.649  11.664 -0.1041 -1.9120 -0.4270
 7365SOL    HW233729   4.281   4.580  11.549 -1.0182  1.0062 -1.7855
 7366SOL     OW33730   0.999   1.595  15.341  0.2664  0.1561 -0.5688
 7366SOL    HW133731   0.989   1.633  15.254 -0.9369 -1.6430 -1.1982
 7366SOL    HW233732   1.014   1.677  15.389 -0.1867 -0.9275  1.4030
 7367SOL     OW33733   0.239   3.199  16.407  0.4418  0.0351 -0.0205
 7367SOL    HW133734   0.219   3.118  16.360  1.9416 -0.7490  0.7051
 7367SOL    HW233735   0.282   3.159  16.483  2.7448  0.9661 -0.8455
 7368SOL     OW33736   1.644   2.304  13.516 -0.2144  0.0206  0.2554
 7368SOL    HW133737   1.595   2.304  13.434 -2.1743  0.7256  1.4331
 7368SOL    HW233738   1.574   2.326  13.577 -1.6907 -0.2198 -1.3525
 7369SOL     OW33739   0.257   3.285  15.652 -0.4244  0.1080 -0.0358
 7369SOL    HW133740   0.195   3.357  15.641 -0.9105 -0.5442 -1.4459
 7369SOL    HW233741   0.333   3.339  15.631 -0.1046  0.5626  2.2957
 7370SOL     OW33742   2.514   2.164   5.189  0.4568 -0.1620  0.6222
 7370SOL    HW133743   2.480   2.134   5.105 -0.2382  0.1349  0.7956
 7370SOL    HW233744   2.504   2.084   5.240 -2.0390  0.5239  1.1898
 7371SOL     OW33745   2.884   2.051   0.058  0.1276 -0.2545 -0.4176
 7371SOL    HW133746   2.872   1.961   0.090 -2.1420  0.1848 -0.0724
 7371SOL    HW233747   2.821   2.095   0.115 -0.1212 -1.6225  0.3733
 7372SOL     OW33748   4.393   2.298   3.190  0.6447 -0.2892 -0.2139
 7372SOL    HW133749   4.456   2.357   3.149 -1.0968 -0.9980 -3.8867
 7372SOL    HW233750   4.452   2.244   3.243  1.3166 -0.0620 -0.7422
 7373SOL     OW33751   1.703   0.385  14.098 -0.0015  0.1770  0.4563
 7373SOL    HW133752   1.731   0.471  14.065  2.3668 -0.1098  1.6778
 7373SOL    HW233753   1.736   0.328  14.028  0.4848  2.4281 -1.1506
 7374SOL     OW33754   2.080   0.789   6.157  0.0388  0.4837 -0.3024
 7374SOL    HW133755   2.061   0.863   6.099 -0.9475  0.4557 -0.0104
 7374SOL    HW233756   2.126   0.728   6.099 -2.5252 -2.8444  1.1378
 7375SOL     OW33757   1.152   3.759   8.594  0.2542 -0.4671  0.4293
 7375SOL    HW133758   1.243   3.767   8.621  0.4787  1.1169 -0.7842
 7375SOL    HW233759   1.159   3.787   8.502  0.5210  0.6895  0.8003
 7376SOL     OW33760   1.973   2.095   4.066 -0.1318 -0.6639 -0.2163
 7376SOL    HW133761   1.983   2.135   4.152 -0.8690  1.2639 -1.0354
 7376SOL    HW233762   1.903   2.031   4.079 -2.1934  1.4478 -0.8869
 7377SOL     OW33763   3.757   1.801   1.932 -0.2612 -0.0259 -0.2007
 7377SOL    HW133764   3.692   1.871   1.939 -0.4602 -0.0220 -1.9104
 7377SOL    HW233765   3.728   1.722   1.978 -1.3815  0.1126 -0.6790
 7378SOL     OW33766   4.256   4.673   2.175  0.3658 -0.2970 -0.4758
 7378SOL    HW133767   4.215   4.596   2.137  0.4907 -0.1378 -0.9349
 7378SOL    HW233768   4.190   0.006   2.150  0.3602 -0.1611 -0.1081
 7379SOL     OW33769   0.026   0.895   4.666  0.1216  0.1108  0.0280
 7379SOL    HW133770   4.665   0.874   4.657  0.3797 -1.3962  0.8164
 7379SOL    HW233771   0.011   0.987   4.689 -0.3693 -0.3376  1.5060
 7380SOL     OW33772   2.430   3.029   9.440  0.1460 -0.0631 -0.0203
 7380SOL    HW133773   2.495   2.972   9.400 -0.2730  0.0744 -0.9076
 7380SOL    HW233774   2.384   2.974   9.503  1.5553 -1.8709 -0.5879
 7381SOL     OW33775   3.049   0.219   8.371 -0.1739  0.4270  0.9406
 7381SOL    HW133776   3.095   0.141   8.339  0.0063  0.9131  0.0364
 7381SOL    HW233777   2.982   0.190   8.433  0.6904 -1.6172  0.9154
 7382SOL     OW33778   4.106   0.882   9.629  0.4409 -0.1987 -0.1665
 7382SOL    HW133779   4.022   0.843   9.657 -1.0615  1.6233 -2.1545
 7382SOL    HW233780   4.077   0.973   9.621  1.4066  0.3258  2.1831
 7383SOL     OW33781   1.018   4.061   2.114  0.0048  0.2422 -0.4777
 7383SOL    HW133782   0.930   4.095   2.097 -0.6034 -1.5271 -0.8735
 7383SOL    HW233783   0.990   3.998   2.180 -0.6699  1.3167  0.2539
 7384SOL     OW33784   3.624   0.174  13.808 -0.1485  0.3143 -0.1564
 7384SOL    HW133785   3.542   0.223  13.813 -0.8620 -0.9039 -0.0796
 7384SOL    HW233786   3.637   0.155  13.901 -0.0340  2.8647  0.3637
 7385SOL     OW33787   4.071   4.285  12.663 -0.8125 -0.0512  0.2713
 7385SOL    HW133788   4.144   4.287  12.726 -1.1037 -5.7283  0.7445
 7385SOL    HW233789   3.993   4.272  12.717 -0.6952 -3.1413 -0.3565
 7386SOL     OW33790   2.736   2.108   4.417  0.2695  0.1879 -0.2646
 7386SOL    HW133791   2.710   2.117   4.325  1.5505  2.6582 -0.3626
 7386SOL    HW233792   2.762   2.196   4.443  3.2243 -0.6141 -0.4968
 7387SOL     OW33793   1.760   2.598   8.950  0.0321 -0.2598 -0.3560
 7387SOL    HW133794   1.671   2.611   8.981  0.4375  3.0278 -0.5742
 7387SOL    HW233795   1.749   2.517   8.900 -1.8158 -1.7266  2.4260
 7388SOL     OW33796   0.308   3.589   8.679 -0.6154  0.1424 -0.1608
 7388SOL    HW133797   0.342   3.552   8.761  2.0091  0.9616 -0.8926
 7388SOL    HW233798   0.351   3.674   8.673 -0.2046 -0.0956 -0.5462
 7389SOL     OW33799   3.304   2.296   8.773 -0.1527 -0.7990 -0.1154
 7389SOL    HW133800   3.256   2.316   8.693 -1.0377  1.2663  0.9287
 7389SOL    HW233801   3.309   2.387   8.802  0.4366 -0.8227 -0.1521
 7390SOL     OW33802   4.706   1.207   5.263 -0.2523 -0.4669 -0.0119
 7390SOL    HW133803   4.694   1.283   5.320  1.3215  1.2352 -1.9663
 7390SOL    HW233804   4.702   1.137   5.328 -2.3652 -1.4973 -1.2445
 7391SOL     OW33805   0.945   1.670   4.737  0.1403  0.0605 -0.0602
 7391SOL    HW133806   0.876   1.608   4.717  0.9781  0.0718 -3.0026
 7391SOL    HW233807   1.019   1.620   4.701  0.1799  0.0862 -0.0140
 7392SOL     OW33808   2.061   2.471  16.145 -0.5129  0.4192  0.0209
 7392SOL    HW133809   2.128   2.464  16.213  0.1753  1.0872 -0.5988
 7392SOL    HW233810   2.103   2.506  16.067  3.2238 -1.3343  1.2314
 7393SOL     OW33811   0.476   1.020   5.836 -0.0924  0.6855  0.7265
 7393SOL    HW133812   0.411   1.010   5.905  1.0091 -0.1198  1.6484
 7393SOL    HW233813   0.454   1.107   5.801 -0.1598  1.3361  2.3844
 7394SOL     OW33814   0.267   3.289   9.102  0.3579  0.0535 -0.8294
 7394SOL    HW133815   0.294   3.315   9.190 -3.2624 -0.0426  0.3043
 7394SOL    HW233816   0.171   3.288   9.108  0.4785 -1.2804  0.9387
 7395SOL     OW33817   3.913   1.480   4.878 -0.6698 -0.5101  0.2542
 7395SOL    HW133818   3.847   1.543   4.906  0.1822  0.3462  0.3216
 7395SOL    HW233819   3.980   1.528   4.829 -0.2489 -1.1864  0.1658
 7396SOL     OW33820   3.808   1.174   9.030 -1.0660  0.0904 -0.1455
 7396SOL    HW133821   3.827   1.101   9.089 -0.3340  1.6936  1.5659
 7396SOL    HW233822   3.899   1.195   9.009 -0.2237 -1.8294  1.5873
 7397SOL     OW33823   0.378   4.585   3.260 -0.0378  0.1163  0.0889
 7397SOL    HW133824   0.413   4.552   3.343  0.3427 -2.3363 -1.0567
 7397SOL    HW233825   0.285   4.579   3.281 -0.1340  2.0342  0.2164
 7398SOL     OW33826   0.928   1.912  15.646  0.0850 -0.5149 -0.2740
 7398SOL    HW133827   0.923   1.879  15.735 -1.9136 -1.3160 -0.6888
 7398SOL    HW233828   0.835   1.918  15.625  0.2166  1.6043 -0.1677
 7399SOL     OW33829   0.610   3.559   6.976 -0.5198  0.4498  0.3422
 7399SOL    HW133830   0.652   3.541   6.892 -2.1399  1.4282 -0.6837
 7399SOL    HW233831   0.539   3.617   6.949 -0.9326 -1.0536 -1.8575
 7400SOL     OW33832   4.266   3.189   8.507 -0.0395 -0.4436  0.3817
 7400SOL    HW133833   4.298   3.112   8.555 -0.4103 -1.4609 -1.0199
 7400SOL    HW233834   4.202   3.144   8.453  1.0057  0.3487 -1.5293
 7401SOL     OW33835   2.044   3.755  14.008 -0.0592  0.2320  0.6159
 7401SOL    HW133836   2.022   3.753  13.915  1.2922 -1.5689  0.3210
 7401SOL    HW233837   1.958   3.733  14.045 -0.4838  3.3796  1.5129
 7402SOL     OW33838   2.019   0.353   0.582 -0.5173 -0.0350 -0.0649
 7402SOL    HW133839   2.012   0.445   0.610 -2.2983 -0.6998  1.6835
 7402SOL    HW233840   2.100   0.327   0.625 -0.4841  0.9312  0.4583
 7403SOL     OW33841   3.145   3.359   2.989  0.4572 -0.2885 -0.1920
 7403SOL    HW133842   3.225   3.315   3.019 -0.1790 -0.4825  1.1877
 7403SOL    HW233843   3.094   3.288   2.950 -3.7168  2.4888  0.2747
 7404SOL     OW33844   0.197   3.951   3.575  0.4412 -0.3839  0.1475
 7404SOL    HW133845   0.214   3.906   3.658 -0.0082  0.1204  0.5119
 7404SOL    HW233846   0.103   3.943   3.560  0.9129 -0.9161 -2.4971
 7405SOL     OW33847   3.473   3.038   5.360 -0.1470  0.3910 -0.3940
 7405SOL    HW133848   3.480   3.002   5.272  0.9551 -1.2884  0.3963
 7405SOL    HW233849   3.391   2.994   5.384  0.4512 -0.9057 -0.7611
 7406SOL     OW33850   1.679   1.020   9.394 -0.2012  0.5527  0.0879
 7406SOL    HW133851   1.701   0.931   9.421  2.0883  1.0191 -0.2668
 7406SOL    HW233852   1.666   1.065   9.477  0.2907 -1.1826  1.1043
 7407SOL     OW33853   4.628   0.262   3.476  0.4581  0.0171 -0.0493
 7407SOL    HW133854   4.583   0.296   3.398  2.0341  1.5336 -0.2921
 7407SOL    HW233855   4.553   0.219   3.517  1.0374 -0.3171  0.6535
 7408SOL     OW33856   4.727   0.458   2.363 -0.1167 -0.1749  0.7172
 7408SOL    HW133857   0.041   0.406   2.429  1.0465 -1.4192 -1.0900
 7408SOL    HW233858   0.044   0.540   2.370  1.8691 -1.2961 -0.1282
 7409SOL     OW33859   3.993   2.643   5.526  0.6515 -0.7225 -0.1923
 7409SOL    HW133860   3.911   2.612   5.486 -0.2417 -0.4257  1.3938
 7409SOL    HW233861   3.978   2.617   5.617  0.6970 -0.8095 -0.2095
 7410SOL     OW33862   1.371   4.207   6.116  0.1028  0.1304  0.5020
 7410SOL    HW133863   1.363   4.279   6.053 -0.5406  0.6583  1.1830
 7410SOL    HW233864   1.287   4.162   6.112  1.1819 -1.6444 -2.2823
 7411SOL     OW33865   2.483   3.515   8.168  0.3249 -0.4672  0.0864
 7411SOL    HW133866   2.437   3.576   8.227  1.7051  0.8819 -0.2112
 7411SOL    HW233867   2.434   3.527   8.087  1.8411 -1.1272 -0.9187
 7412SOL     OW33868   1.499   0.612  13.387 -0.0556 -0.3397 -0.9751
 7412SOL    HW133869   1.563   0.677  13.417 -1.5740  0.5285  0.3725
 7412SOL    HW233870   1.420   0.640  13.432  0.0350  1.5849 -2.0328
 7413SOL     OW33871   4.272   1.450   3.444 -0.2122 -0.3245  0.1243
 7413SOL    HW133872   4.232   1.416   3.364 -1.0910 -1.3161  0.9868
 7413SOL    HW233873   4.347   1.392   3.455 -0.2078 -0.1920  0.7988
 7414SOL     OW33874   2.677   4.002   3.514  0.2468  0.3566 -0.0649
 7414SOL    HW133875   2.669   3.934   3.581  1.6391  1.1656  0.9133
 7414SOL    HW233876   2.589   3.984   3.479  0.0237  0.6142  0.3556
 7415SOL     OW33877   0.585   3.453   5.972  0.0065  0.2227  0.3072
 7415SOL    HW133878   0.559   3.366   6.001 -1.0211  0.1351 -0.8624
 7415SOL    HW233879   0.549   3.497   6.049 -0.4814 -0.0701  0.2480
 7416SOL     OW33880   0.419   0.942   4.590  0.2426  0.0635 -0.2416
 7416SOL    HW133881   0.496   0.890   4.570 -0.8766 -0.9214 -2.0194
 7416SOL    HW233882   0.401   0.982   4.505  1.4237  0.0921 -0.4704
 7417SOL     OW33883   4.475   3.256   2.071  0.0542 -0.0660  0.3075
 7417SOL    HW133884   4.460   3.336   2.020  0.7165  0.4413  0.9105
 7417SOL    HW233885   4.559   3.229   2.034  0.5733 -0.9148  2.1232
 7418SOL     OW33886   1.673   1.014   5.312  0.4282 -0.3848 -0.0388
 7418SOL    HW133887   1.727   1.000   5.233  1.6928  3.2720  0.1395
 7418SOL    HW233888   1.611   0.942   5.318  1.3149 -1.2413 -1.0694
 7419SOL     OW33889   1.634   2.089   1.179 -0.7188 -0.5852  0.5158
 7419SOL    HW133890   1.646   2.182   1.158  0.6974 -0.5532  1.4222
 7419SOL    HW233891   1.715   2.070   1.227 -0.1513  1.4007  0.3451
 7420SOL     OW33892   2.518   4.301   5.411  0.1529  0.3996 -0.1595
 7420SOL    HW133893   2.562   4.225   5.448 -2.5276 -0.0869  2.0809
 7420SOL    HW233894   2.500   4.270   5.322 -0.5157 -0.7852  0.4000
 7421SOL     OW33895   1.774   4.693   4.289  0.1257 -0.1709 -0.6284
 7421SOL    HW133896   1.762   4.631   4.362  0.4718 -0.1127 -0.5232
 7421SOL    HW233897   1.787   0.042   4.338 -2.5251 -0.6294  0.8567
 7422SOL     OW33898   1.567   3.816   7.173 -0.0756 -0.6932 -0.2824
 7422SOL    HW133899   1.574   3.876   7.099  1.0920 -0.2784  0.1571
 7422SOL    HW233900   1.582   3.733   7.128  1.3980  0.2646 -1.6030
 7423SOL     OW33901   4.336   4.231   3.667 -0.0299  0.1980 -0.0031
 7423SOL    HW133902   4.286   4.176   3.606 -0.6451  2.4784 -1.5483
 7423SOL    HW233903   4.415   4.252   3.619 -2.5078 -0.9174 -4.5631
 7424SOL     OW33904   0.285   2.949   6.068 -0.5132  0.9577  0.7836
 7424SOL    HW133905   0.244   2.895   6.000 -1.2032  1.5203  0.7521
 7424SOL    HW233906   0.374   2.915   6.067  0.1232  2.7925 -2.0395
 7425SOL     OW33907   3.730   2.624   3.107  0.2421  0.5144 -0.2858
 7425SOL    HW133908   3.804   2.573   3.075  0.1705 -0.3529  0.9289
 7425SOL    HW233909   3.686   2.648   3.026 -2.9434  0.7179  1.4843
 7426SOL     OW33910   0.991   1.335   9.878  0.4614 -0.6275  0.4517
 7426SOL    HW133911   0.994   1.271   9.807  0.6767 -0.6757  0.5015
 7426SOL    HW233912   1.006   1.275   9.952  0.3676 -1.5736 -0.2872
 7427SOL     OW33913   1.606   4.004   2.478 -0.1541 -0.0119 -0.8512
 7427SOL    HW133914   1.671   4.027   2.411  1.6024  0.1627  0.9081
 7427SOL    HW233915   1.540   4.072   2.468  0.3435  0.5432 -0.4196
 7428SOL     OW33916   2.842   3.450   3.213  0.3254 -0.0606 -0.0173
 7428SOL    HW133917   2.808   3.361   3.209  1.8391 -0.5388 -2.1571
 7428SOL    HW233918   2.768   3.496   3.251  2.3864  2.5563  0.8660
 7429SOL     OW33919   4.179   2.794   4.891 -0.5571  0.8412  0.4704
 7429SOL    HW133920   4.169   2.872   4.836 -1.5752  1.0615  0.9763
 7429SOL    HW233921   4.106   2.828   4.942 -2.5146 -3.0190  0.2649
 7430SOL     OW33922   4.324   4.402   7.645  0.0414  0.1478 -0.5809
 7430SOL    HW133923   4.349   4.371   7.557 -0.9788 -1.2207 -0.3806
 7430SOL    HW233924   4.342   4.336   7.711 -1.1550  0.0049 -0.3985
 7431SOL     OW33925   3.046   3.357   7.615 -0.2059 -0.3375  0.2965
 7431SOL    HW133926   3.029   3.374   7.522 -1.8493  1.1882  0.8838
 7431SOL    HW233927   2.985   3.284   7.619  1.1568 -1.6289 -2.0296
 7432SOL     OW33928   0.694   1.725   6.356  0.0928  0.3621 -0.0161
 7432SOL    HW133929   0.612   1.770   6.375 -1.1193 -1.7045 -0.3705
 7432SOL    HW233930   0.761   1.794   6.352 -1.5432  2.0025  1.2644
 7433SOL     OW33931   0.145   1.935   3.566 -0.4021  0.1025  0.0876
 7433SOL    HW133932   0.079   1.917   3.632  0.8972 -0.3455  1.2762
 7433SOL    HW233933   0.117   2.019   3.530 -0.5083  0.5170  1.1117
 7434SOL     OW33934   2.389   1.698  14.309 -0.2914 -0.3758  0.0104
 7434SOL    HW133935   2.470   1.736  14.276 -1.1984  2.3902  0.9351
 7434SOL    HW233936   2.373   1.762  14.378  1.2510  1.8464 -1.6826
 7435SOL     OW33937   4.572   3.805   5.052 -0.9879 -0.2087  0.3539
 7435SOL    HW133938   4.611   3.764   4.975  0.3806  0.2254  0.8274
 7435SOL    HW233939   4.602   3.894   5.036  0.4341 -0.8303 -0.4316
 7436SOL     OW33940   0.163   4.026  15.878  0.4509 -0.5082 -0.0336
 7436SOL    HW133941   0.215   3.998  15.803  0.5958  0.7246 -0.4033
 7436SOL    HW233942   0.074   4.009  15.846  2.3545 -3.9641 -3.5228
 7437SOL     OW33943   3.208   3.935   3.738  0.2007  0.1588 -0.4061
 7437SOL    HW133944   3.226   3.929   3.644  1.0663  1.8374 -0.3528
 7437SOL    HW233945   3.129   3.882   3.752  0.9086 -1.2128 -1.6359
 7438SOL     OW33946   2.618   3.677   0.316  0.0267 -0.4222 -0.6512
 7438SOL    HW133947   2.705   3.679   0.356 -1.1271  0.6859  1.7748
 7438SOL    HW233948   2.636   3.687   0.223 -2.7671 -2.5202 -1.4053
 7439SOL     OW33949   0.614   3.120   0.631 -0.1758 -0.1450  0.3964
 7439SOL    HW133950   0.709   3.133   0.635 -0.4450  1.8281  0.4862
 7439SOL    HW233951   0.576   3.192   0.580 -0.6415 -1.3792 -1.0258
 7440SOL     OW33952   1.456   4.602   4.055  0.2789  0.3009 -0.6306
 7440SOL    HW133953   1.489   4.620   4.143  1.4329  0.4287 -1.0844
 7440SOL    HW233954   1.362   4.619   4.065  0.3967  1.1721 -0.9506
 7441SOL     OW33955   2.865   4.237   3.256 -0.0807 -0.6958 -0.4813
 7441SOL    HW133956   2.926   4.278   3.195 -0.3279 -0.3042 -0.4589
 7441SOL    HW233957   2.851   4.157   3.205 -1.1792 -1.4583  1.0049
 7442SOL     OW33958   1.614   0.514  14.564  0.6408  0.0561  0.2346
 7442SOL    HW133959   1.579   0.515  14.653  1.0547  1.3106  0.3900
 7442SOL    HW233960   1.621   0.609  14.551  0.5325 -0.1535 -1.3004
 7443SOL     OW33961   3.605   2.967   0.532 -0.0937 -0.0590 -0.0420
 7443SOL    HW133962   3.584   2.968   0.439 -0.1807 -0.0928 -0.0223
 7443SOL    HW233963   3.670   2.896   0.531 -0.2415 -0.1955  0.0465
 7444SOL     OW33964   2.678   0.879  13.035 -0.2258 -0.1929  0.6547
 7444SOL    HW133965   2.693   0.972  13.014  0.9328 -1.0543 -2.2700
 7444SOL    HW233966   2.734   0.876  13.113  1.3949 -0.5692 -0.5349
 7445SOL     OW33967   1.883   3.802   6.303 -0.1474 -0.3085  0.1793
 7445SOL    HW133968   1.896   3.810   6.397 -2.2147  1.3059  0.3271
 7445SOL    HW233969   1.921   3.714   6.295  0.4376 -0.0282 -0.1824
 7446SOL     OW33970   3.242   2.675  10.752 -0.0447  0.2259 -0.5906
 7446SOL    HW133971   3.316   2.652  10.697 -0.5130  1.0173 -1.5588
 7446SOL    HW233972   3.276   2.747  10.806 -0.1990 -0.0869 -0.0760
 7447SOL     OW33973   3.593   0.914   9.861 -0.2782  0.5571  0.1832
 7447SOL    HW133974   3.676   0.939   9.900 -0.5628  1.1118  0.4350
 7447SOL    HW233975   3.576   0.999   9.821  2.3522  1.3759  0.8399
 7448SOL     OW33976   4.640   2.720   1.933 -0.2185 -0.0472  0.3392
 7448SOL    HW133977   4.583   2.684   1.865  0.3273 -0.1936 -0.0306
 7448SOL    HW233978   4.665   2.806   1.900 -2.0796  0.1490 -0.5588
 7449SOL     OW33979   1.756   0.169   9.068 -0.3276 -0.0519 -0.2960
 7449SOL    HW133980   1.830   0.214   9.027  0.0724  0.9818  1.5640
 7449SOL    HW233981   1.697   0.243   9.052  3.4816  3.2738  1.1814
 7450SOL     OW33982   2.364   2.388  12.929  0.0066 -0.2042  0.0584
 7450SOL    HW133983   2.400   2.475  12.911 -2.6348  0.4344 -2.0836
 7450SOL    HW233984   2.271   2.410  12.932 -0.2648 -1.7382  2.6361
 7451SOL     OW33985   1.420   3.160   2.603  0.2116  0.5775  0.1527
 7451SOL    HW133986   1.365   3.201   2.536 -1.5886  1.4723  2.1686
 7451SOL    HW233987   1.351   3.110   2.647  0.7174 -0.9554 -0.7897
 7452SOL     OW33988   3.288   1.242   9.621  0.1276 -0.6623 -0.4164
 7452SOL    HW133989   3.235   1.199   9.688  2.1449 -1.9991  0.3138
 7452SOL    HW233990   3.379   1.237   9.649  0.3519  0.6352 -0.9190
 7453SOL     OW33991   4.402   3.592   6.959 -0.1624  0.2674  0.4740
 7453SOL    HW133992   4.317   3.612   6.919 -0.6216 -2.5200  0.0371
 7453SOL    HW233993   4.457   3.647   6.903 -1.6107  0.1013 -1.1363
 7454SOL     OW33994   3.117   0.827   0.120  0.1242 -0.5313 -0.4119
 7454SOL    HW133995   3.163   0.899   0.162  0.5387 -1.2140  0.3143
 7454SOL    HW233996   3.030   0.848   0.153  0.3100 -0.4378  0.0196
 7455SOL     OW33997   2.089   0.295   2.941 -0.3402  0.6660 -0.3007
 7455SOL    HW133998   2.166   0.351   2.953 -0.4611  0.1453  2.8607
 7455SOL    HW233999   2.025   0.348   2.988  0.4294  1.6374 -0.3212
 7456SOL     OW34000   4.236   4.545   1.450  0.1673 -0.0419 -0.2255
 7456SOL    HW134001   4.284   4.625   1.470 -1.8276  0.8035  1.1730
 7456SOL    HW234002   4.186   4.540   1.531  0.5038 -0.0318 -0.0207
 7457SOL     OW34003   0.126   0.934  15.764  0.4349 -0.0024  0.6484
 7457SOL    HW134004   0.174   0.852  15.772  1.3624  0.5283  0.5437
 7457SOL    HW234005   0.104   0.944  15.857 -0.0895 -0.4437  0.5704
 7458SOL     OW34006   4.022   1.624   9.492  0.3018  0.4658 -0.1170
 7458SOL    HW134007   4.080   1.690   9.530  3.2971 -1.2590 -1.6858
 7458SOL    HW234008   4.017   1.556   9.560 -0.8875  1.3279  0.6624
 7459SOL     OW34009   4.446   0.761   8.797 -0.4109  0.0992 -0.2857
 7459SOL    HW134010   4.441   0.667   8.779  0.5673  0.1871 -1.0226
 7459SOL    HW234011   4.351   0.773   8.801 -0.3804  0.2218  0.0552
 7460SOL     OW34012   1.127   0.186   1.869 -0.0835 -0.1464 -0.3736
 7460SOL    HW134013   1.049   0.142   1.902  1.0257 -1.3013  0.7086
 7460SOL    HW234014   1.165   0.130   1.802 -0.0153  0.3234 -0.7324
 7461SOL     OW34015   2.120   2.558   4.244  0.7133  0.2241 -0.1131
 7461SOL    HW134016   2.089   2.593   4.161 -1.4743  1.8302  1.3909
 7461SOL    HW234017   2.208   2.530   4.219  1.2503 -0.9233  3.1050
 7462SOL     OW34018   4.384   4.228  13.291  0.1605  0.3758  0.3733
 7462SOL    HW134019   4.290   4.208  13.297 -0.7626  4.3323 -0.5739
 7462SOL    HW234020   4.391   4.240  13.196  0.6639 -1.8594  0.1263
 7463SOL     OW34021   1.135   4.189   3.015 -0.0419 -0.2766 -0.1789
 7463SOL    HW134022   1.153   4.266   3.068 -3.3461  1.7458 -2.0232
 7463SOL    HW234023   1.080   4.223   2.944  0.0006 -0.5922 -0.3607
 7464SOL     OW34024   4.247   2.026   6.109  0.2771  0.1528  0.3366
 7464SOL    HW134025   4.279   1.938   6.128 -1.0353 -0.1338  1.2060
 7464SOL    HW234026   4.318   2.079   6.073  1.2711 -1.6340 -0.3291
 7465SOL     OW34027   2.115   1.947   2.183  0.2913  0.0892  0.5798
 7465SOL    HW134028   2.104   2.034   2.145 -1.5478 -1.3357 -2.1648
 7465SOL    HW234029   2.049   1.950   2.252  2.5534  0.2809  2.7069
 7466SOL     OW34030   2.057   3.968   0.533 -0.3769  0.0322 -0.0053
 7466SOL    HW134031   2.103   4.032   0.479  0.8625  0.4152  1.4877
 7466SOL    HW234032   2.000   4.022   0.589 -0.7805 -0.7366  0.3157
 7467SOL     OW34033   3.717   4.392   4.401  0.0670  0.0388  0.2522
 7467SOL    HW134034   3.760   4.471   4.433  0.8917  0.4426 -1.8795
 7467SOL    HW234035   3.757   4.325   4.457 -0.3170 -0.5361 -0.1604
 7468SOL     OW34036   0.343   2.696   1.676 -0.2040 -0.4047  0.3272
 7468SOL    HW134037   0.333   2.726   1.766  0.1053  1.9551 -0.4267
 7468SOL    HW234038   0.256   2.723   1.646 -0.6092 -0.5988  1.3511
 7469SOL     OW34039   0.403   0.117  13.542 -0.2575 -0.0800 -0.3379
 7469SOL    HW134040   0.328   0.163  13.580 -0.1225 -2.6388  2.9521
 7469SOL    HW234041   0.358   0.041  13.505 -1.3939 -0.3834  1.6770
 7470SOL     OW34042   2.958   3.636   3.503  0.0190  0.3340 -0.1068
 7470SOL    HW134043   2.929   3.663   3.416  1.3292  2.7151  0.1934
 7470SOL    HW234044   3.044   3.595   3.496 -0.2715 -0.3823  0.5025
 7471SOL     OW34045   0.254   2.208  10.632 -0.2870 -0.0656  0.1133
 7471SOL    HW134046   0.316   2.251  10.573  0.7196 -0.3850  0.9479
 7471SOL    HW234047   0.253   2.270  10.705 -1.2828 -1.9295  1.6809
 7472SOL     OW34048   1.715   4.365   5.910 -0.4630 -0.1976  0.7642
 7472SOL    HW134049   1.700   4.279   5.870 -0.0889 -0.0128  0.2075
 7472SOL    HW234050   1.807   4.372   5.882 -0.6708  3.2430  0.9449
 7473SOL     OW34051   4.430   2.505   2.571  0.2200 -0.4194 -0.2007
 7473SOL    HW134052   4.336   2.503   2.551  0.0346 -3.0465  0.8588
 7473SOL    HW234053   4.444   2.599   2.570  0.8703 -0.5167  0.0299
 7474SOL     OW34054   1.374   1.143   2.252  0.0343  0.0805 -0.2834
 7474SOL    HW134055   1.371   1.059   2.206  1.5894 -0.6804  0.9984
 7474SOL    HW234056   1.280   1.157   2.247  0.0574 -0.1469 -1.4229
 7475SOL     OW34057   2.831   4.576   4.736  0.5528  0.0832  0.0987
 7475SOL    HW134058   2.852   4.498   4.787 -0.4007  0.8304  1.6265
 7475SOL    HW234059   2.912   4.606   4.696 -0.5418  0.4782 -1.8334
 7476SOL     OW34060   1.867   0.878   9.093 -0.0667 -0.5958  0.5936
 7476SOL    HW134061   1.863   0.791   9.053 -0.3512  0.1320 -0.9667
 7476SOL    HW234062   1.927   0.862   9.166  0.5991 -3.7061 -0.6586
 7477SOL     OW34063   0.955   4.550   3.008 -0.4549 -0.5100 -0.2768
 7477SOL    HW134064   0.996   4.505   3.082  1.1131 -0.0368 -0.8432
 7477SOL    HW234065   1.030   4.581   2.956 -0.9024  0.3524 -0.4044
 7478SOL     OW34066   0.295   1.533   5.420  0.5937 -0.3615  0.5028
 7478SOL    HW134067   0.348   1.454   5.428 -0.7355 -1.5181 -1.9616
 7478SOL    HW234068   0.322   1.572   5.336 -0.9072  2.5048  1.3535
 7479SOL     OW34069   4.275   1.935   8.601 -0.6538 -0.4367  0.1168
 7479SOL    HW134070   4.224   1.957   8.679  1.3301 -0.5079  1.4132
 7479SOL    HW234071   4.209   1.960   8.536 -1.2209 -2.1568  0.0385
 7480SOL     OW34072   3.730   4.709   5.135  0.5651  0.3052  0.6496
 7480SOL    HW134073   3.825   4.709   5.144  0.6621 -0.4795 -0.4485
 7480SOL    HW234074   3.704   4.655   5.210 -1.7268  2.4060  1.3858
 7481SOL     OW34075   3.723   0.354  15.463 -0.7448  0.5523  0.3747
 7481SOL    HW134076   3.800   0.299  15.445 -0.6570  1.1637 -1.0476
 7481SOL    HW234077   3.663   0.290  15.500 -0.9213 -0.4681 -1.6847
 7482SOL     OW34078   0.881   1.169   6.653 -0.1569 -0.0885 -0.7236
 7482SOL    HW134079   0.872   1.246   6.597 -0.6321  0.8976  0.7084
 7482SOL    HW234080   0.916   1.106   6.591  1.8295  0.0274  0.2671
 7483SOL     OW34081   3.481   1.304   6.767 -0.1127  0.4431  0.1181
 7483SOL    HW134082   3.476   1.309   6.671  3.4364  1.6643  0.0169
 7483SOL    HW234083   3.534   1.381   6.783 -0.1311 -0.0095  2.3035
 7484SOL     OW34084   1.999   4.297   3.270  0.3047 -0.1449 -0.5253
 7484SOL    HW134085   1.938   4.326   3.202  0.9411  2.5950  0.0488
 7484SOL    HW234086   1.983   4.361   3.339 -1.2420 -0.3562 -0.6972
 7485SOL     OW34087   3.644   3.669  13.480  0.5269 -0.1524  0.2803
 7485SOL    HW134088   3.669   3.752  13.440 -0.3599  0.1015  0.2559
 7485SOL    HW234089   3.709   3.612  13.438  0.9871  0.2766  0.4015
 7486SOL     OW34090   1.988   3.378   1.485 -0.4852 -0.3947  0.3293
 7486SOL    HW134091   2.026   3.348   1.568 -0.2234  0.5843  0.5616
 7486SOL    HW234092   2.027   3.310   1.431 -2.4556 -0.2685 -1.2473
 7487SOL     OW34093   3.752   1.278   2.805  0.0607 -0.3792  0.2496
 7487SOL    HW134094   3.760   1.224   2.726 -0.8165  0.6365 -0.5381
 7487SOL    HW234095   3.842   1.312   2.809  0.5364 -1.7440  1.0087
 7488SOL     OW34096   2.801   2.294   0.598 -0.1749  0.1253 -0.0043
 7488SOL    HW134097   2.793   2.211   0.647  2.2462  1.0827  2.0372
 7488SOL    HW234098   2.707   2.311   0.594 -0.7487 -3.1286 -0.5710
 7489SOL     OW34099   3.513   0.575   4.420  0.4646  0.8571  0.1940
 7489SOL    HW134100   3.473   0.490   4.401  2.0855  0.3706 -1.0168
 7489SOL    HW234101   3.529   0.547   4.510  0.3453 -1.6049 -0.5723
 7490SOL     OW34102   0.633   2.713   3.278 -0.4896  0.3858  0.6693
 7490SOL    HW134103   0.723   2.729   3.306  0.0214 -1.8481  0.3133
 7490SOL    HW234104   0.576   2.741   3.350 -0.9586  0.5755  0.2179
 7491SOL     OW34105   0.746   0.212   1.717  0.4798 -1.0110  0.0874
 7491SOL    HW134106   0.811   0.143   1.704 -0.3428 -1.6144 -0.8607
 7491SOL    HW234107   0.732   0.253   1.632 -1.1588 -1.6426  0.0521
 7492SOL     OW34108   0.338   3.053   5.371  0.1821  0.0045 -0.0725
 7492SOL    HW134109   0.329   3.125   5.309  2.3578  1.1348  0.9325
 7492SOL    HW234110   0.392   3.087   5.442  0.0614  2.0752 -0.9646
 7493SOL     OW34111   4.616   2.476   6.844  0.4171  0.6099 -0.3021
 7493SOL    HW134112   4.607   2.448   6.753  3.2022  1.1755 -0.7360
 7493SOL    HW234113   4.580   2.564   6.836 -1.8255 -0.3985 -1.4988
 7494SOL     OW34114   2.904   4.416   6.297 -0.3209  0.0642 -0.0179
 7494SOL    HW134115   2.977   4.398   6.238 -1.9105  2.2322 -2.5955
 7494SOL    HW234116   2.947   4.474   6.360 -0.1173 -0.1252  0.0183
 7495SOL     OW34117   4.683   3.199   4.905 -0.2582 -0.4184  0.2508
 7495SOL    HW134118   4.619   3.161   4.965 -0.6045  0.8749  0.7079
 7495SOL    HW234119   0.032   3.168   4.946  0.0843  1.6636  1.1533
 7496SOL     OW34120   2.586   1.981   9.185  0.0866 -0.4547  0.1853
 7496SOL    HW134121   2.551   1.891   9.186 -0.5935 -0.1411  3.5418
 7496SOL    HW234122   2.506   2.032   9.203 -1.8829 -2.7759 -1.9436
 7497SOL     OW34123   0.257   3.781   4.301  0.0191  0.3156  0.1649
 7497SOL    HW134124   0.310   3.855   4.275 -1.2304  1.0397 -0.3297
 7497SOL    HW234125   0.190   3.788   4.233  0.7364  1.2142 -0.4401
 7498SOL     OW34126   1.506   2.730   8.826 -0.8032  0.2897 -0.3515
 7498SOL    HW134127   1.503   2.649   8.775  1.8972 -2.1745  3.4162
 7498SOL    HW234128   1.417   2.738   8.860 -0.8692 -0.3004 -0.3803
 7499SOL     OW34129   1.450   0.514   9.662 -0.2506 -0.4107  0.3486
 7499SOL    HW134130   1.453   0.482   9.752 -0.1281 -1.8454 -0.1582
 7499SOL    HW234131   1.484   0.602   9.678  0.5621 -0.5223 -0.6861
 7500SOL     OW34132   2.058   4.522   3.039 -0.3038  0.5975  0.1898
 7500SOL    HW134133   2.033   4.435   3.008 -0.1097  0.7127 -0.2848
 7500SOL    HW234134   2.141   4.499   3.082  0.2238  4.5037  1.2292
 7501SOL     OW34135   3.816   0.381  13.215  0.3899  0.0227  0.4485
 7501SOL    HW134136   3.777   0.327  13.283  0.1658  1.8269  1.7519
 7501SOL    HW234137   3.871   0.314  13.173  1.3120  2.1120 -1.7089
 7502SOL     OW34138   3.545   3.700  13.730  0.4315  0.4091 -0.5488
 7502SOL    HW134139   3.619   3.762  13.726  1.9938 -1.4796 -0.9145
 7502SOL    HW234140   3.500   3.731  13.652 -0.5643 -1.4924 -0.7336
 7503SOL     OW34141   3.124   4.584   3.823  0.0871 -0.0711  0.1426
 7503SOL    HW134142   3.108   4.637   3.902 -0.1358  2.9995 -1.9726
 7503SOL    HW234143   3.157   4.658   3.772  2.5977 -0.5992  0.9682
 7504SOL     OW34144   1.073   4.390   8.581 -0.7529  0.1016  0.5666
 7504SOL    HW134145   1.041   4.301   8.561 -0.3438  0.2174 -0.6276
 7504SOL    HW234146   1.027   4.439   8.513  0.7960 -1.6070 -1.7324
 7505SOL     OW34147   3.979   0.159   7.130  0.3328  0.5142  0.6639
 7505SOL    HW134148   4.022   0.163   7.216 -0.0238  1.5643  0.7905
 7505SOL    HW234149   3.891   0.195   7.133  0.7513  1.4980  1.0490
 7506SOL     OW34150   3.200   4.322  13.953  0.0188  0.3046  0.5536
 7506SOL    HW134151   3.227   4.242  13.996 -1.5178 -0.2570  0.4899
 7506SOL    HW234152   3.189   4.282  13.866  1.7973  0.1690  0.3879
 7507SOL     OW34153   1.427   1.581  12.173 -0.5094 -0.1821  0.2037
 7507SOL    HW134154   1.447   1.672  12.153 -2.8636 -0.2721 -2.5347
 7507SOL    HW234155   1.333   1.580  12.190 -0.2703 -0.6724  1.5612
 7508SOL     OW34156   0.704   2.192   9.298  0.4281 -0.2968 -0.0459
 7508SOL    HW134157   0.627   2.156   9.341  0.3342  1.1129  0.9677
 7508SOL    HW234158   0.669   2.213   9.211  2.0348 -0.6595 -0.7709
 7509SOL     OW34159   4.708   1.358   1.368 -0.2607  0.0255  0.1180
 7509SOL    HW134160   4.730   1.450   1.378  1.1598 -0.1679 -1.2538
 7509SOL    HW234161   4.619   1.361   1.332 -0.8104  0.5694  1.5172
 7510SOL     OW34162   3.464   2.053   6.844  0.2044  0.0006  0.0206
 7510SOL    HW134163   3.454   2.133   6.793 -0.0850 -0.4790 -0.6674
 7510SOL    HW234164   3.555   2.062   6.874  0.3217  1.0862 -0.6733
 7511SOL     OW34165   4.113   3.990  16.118 -0.4063 -0.6120  0.1397
 7511SOL    HW134166   4.070   4.058  16.170  2.6460  0.9287  0.6471
 7511SOL    HW234167   4.041   3.928  16.110 -1.8900  1.6083 -3.7482
 7512SOL     OW34168   2.848   0.038  13.234  0.3728  0.4093  0.2399
 7512SOL    HW134169   2.852   4.683  13.194  0.5346 -0.4773  2.2329
 7512SOL    HW234170   2.770   0.021  13.286 -0.6794  1.0777 -1.1020
 7513SOL     OW34171   0.305   0.494  15.325 -0.0964  0.2210  0.6735
 7513SOL    HW134172   0.267   0.426  15.381 -1.6692  1.1299  0.7270
 7513SOL    HW234173   0.389   0.454  15.303 -0.4172  0.2327 -0.6258
 7514SOL     OW34174   1.117   3.889   2.975  0.0456 -0.7926  0.0767
 7514SOL    HW134175   1.111   3.978   3.008  0.9351 -0.2680 -1.1564
 7514SOL    HW234176   1.139   3.914   2.885 -0.8572  0.2819  0.1548
 7515SOL     OW34177   1.644   1.816   0.664  0.0187  0.5175  0.2678
 7515SOL    HW134178   1.709   1.766   0.713  0.2225 -0.0883 -0.6249
 7515SOL    HW234179   1.668   1.906   0.687 -0.2637  1.1244 -1.7479
 7516SOL     OW34180   3.168   1.542   4.548  0.2764 -0.0177  0.0407
 7516SOL    HW134181   3.124   1.466   4.585 -0.3358  0.1254 -0.3844
 7516SOL    HW234182   3.118   1.546   4.466 -1.4150  2.2784  1.1708
 7517SOL     OW34183   4.638   2.162   0.591  0.0362 -0.2548 -0.0724
 7517SOL    HW134184   4.580   2.141   0.518 -1.6795  1.7036  0.7339
 7517SOL    HW234185   4.714   2.206   0.551 -0.8605  0.6918 -0.7423
 7518SOL     OW34186   3.132   1.821   5.983  0.1687 -0.3305 -0.5890
 7518SOL    HW134187   3.068   1.854   6.045  0.0355  0.7662 -1.3144
 7518SOL    HW234188   3.076   1.768   5.926 -0.3702  0.5489 -0.8747
 7519SOL     OW34189   1.762   0.646  14.344 -0.3775 -0.4027  0.8620
 7519SOL    HW134190   1.853   0.648  14.314 -0.8344 -0.4957 -0.5543
 7519SOL    HW234191   1.765   0.736  14.374 -3.2339  0.3606 -1.1071
 7520SOL     OW34192   0.186   2.163   0.518  0.6503  0.1664  0.1593
 7520SOL    HW134193   0.220   2.214   0.445  1.7165  1.7743  1.7625
 7520SOL    HW234194   0.266   2.141   0.567  0.0688 -0.7172  0.7244
 7521SOL     OW34195   3.962   4.489   9.223 -0.6122  0.3441 -0.0928
 7521SOL    HW134196   3.992   4.465   9.311 -0.5541  2.8422  0.5929
 7521SOL    HW234197   3.917   4.573   9.235 -0.5067  0.2239  1.2225
 7522SOL     OW34198   1.374   3.921   1.460  0.6302 -0.5461 -0.0504
 7522SOL    HW134199   1.329   3.848   1.419  0.0316  0.2818 -0.8640
 7522SOL    HW234200   1.370   3.990   1.394  1.4531 -2.8041 -2.4490
 7523SOL     OW34201   2.614   4.607  12.592  0.2057 -0.2871  0.2530
 7523SOL    HW134202   2.608   4.659  12.512  2.1514  0.5223  0.6163
 7523SOL    HW234203   2.614   4.678  12.657 -2.3511  0.1346 -0.2013
 7524SOL     OW34204   2.733   1.967   6.985  0.1205  0.4271 -0.6757
 7524SOL    HW134205   2.811   1.964   6.929 -0.8302 -1.2023 -1.8870
 7524SOL    HW234206   2.687   1.885   6.967 -1.1505  1.0130 -0.1148
 7525SOL     OW34207   4.307   1.643   7.762  0.5377 -0.1172 -0.0380
 7525SOL    HW134208   4.259   1.715   7.804 -1.5971 -1.0936 -0.7789
 7525SOL    HW234209   4.242   1.631   7.693  1.6203 -1.5836 -0.8058
 7526SOL     OW34210   1.830   0.588   9.569  0.3788 -0.2788 -0.4988
 7526SOL    HW134211   1.915   0.545   9.575  0.5059  0.2441  1.4992
 7526SOL    HW234212   1.825   0.632   9.654 -1.6265  0.6232 -1.0838
 7527SOL     OW34213   3.236   3.347   1.335  0.6130  0.2240  0.4186
 7527SOL    HW134214   3.326   3.320   1.315  0.1012 -0.9647 -0.3098
 7527SOL    HW234215   3.247   3.384   1.423 -0.2824  1.0241  0.1934
 7528SOL     OW34216   4.188   1.812   6.772  0.3747 -0.0871  0.4384
 7528SOL    HW134217   4.198   1.876   6.843 -0.0392  0.6471 -0.1724
 7528SOL    HW234218   4.171   1.734   6.824  3.3953 -0.4684  0.8893
 7529SOL     OW34219   1.526   4.570  10.234 -0.6072  0.3644 -0.2535
 7529SOL    HW134220   1.498   4.510  10.304 -0.0372  0.6741  0.2377
 7529SOL    HW234221   1.556   4.503  10.173  0.9904  0.9649 -0.1137
 7530SOL     OW34222   1.001   2.032  12.596 -0.6771 -0.9273 -0.1023
 7530SOL    HW134223   0.939   2.034  12.668 -0.1306  0.6699  0.3138
 7530SOL    HW234224   1.045   1.951  12.623 -0.9851 -1.1582 -0.2953
 7531SOL     OW34225   3.827   1.396   5.614  0.0937  0.0545 -1.1887
 7531SOL    HW134226   3.808   1.322   5.672 -1.7015  0.5635 -1.1092
 7531SOL    HW234227   3.738   1.433   5.610  0.2723  0.7822  1.5317
 7532SOL     OW34228   0.908   3.202   6.764  0.1460 -0.0847 -0.0760
 7532SOL    HW134229   0.875   3.129   6.816 -0.8933  1.2380  1.0882
 7532SOL    HW234230   0.986   3.151   6.739  0.3694  0.8783 -1.3660
 7533SOL     OW34231   1.877   0.460   2.137  0.6014 -0.7331 -0.5030
 7533SOL    HW134232   1.809   0.394   2.149 -0.1617 -0.0349 -1.0473
 7533SOL    HW234233   1.962   0.416   2.147 -0.2814 -2.3494 -0.1587
 7534SOL     OW34234   1.532   2.210   2.641  0.8682  0.3155 -0.1241
 7534SOL    HW134235   1.523   2.304   2.656 -1.1747  0.3650 -1.7730
 7534SOL    HW234236   1.503   2.200   2.551 -0.5172 -0.8716  0.4735
 7535SOL     OW34237   2.077   1.293  12.504 -0.0371 -0.0044  0.1240
 7535SOL    HW134238   1.984   1.278  12.519 -0.1301  1.2790  0.7855
 7535SOL    HW234239   2.118   1.240  12.573 -2.0974 -1.8773 -0.0775
 7536SOL     OW34240   1.023   3.106   3.438  0.0018  0.0979 -0.2331
 7536SOL    HW134241   1.022   3.138   3.348 -1.8259  0.2323 -0.1710
 7536SOL    HW234242   1.113   3.128   3.462  1.5390 -1.3512 -4.6362
 7537SOL     OW34243   0.784   1.375   5.266  0.5707  0.7607 -0.1367
 7537SOL    HW134244   0.785   1.470   5.253  0.0022  0.8453  0.4223
 7537SOL    HW234245   0.769   1.343   5.177 -1.3503 -1.1584  0.8899
 7538SOL     OW34246   3.254   0.838   3.529  0.2062 -0.2212  0.0710
 7538SOL    HW134247   3.242   0.887   3.448 -1.3493 -4.2527 -2.1333
 7538SOL    HW234248   3.316   0.898   3.571 -2.0558 -0.0836  3.2108
 7539SOL     OW34249   2.284   3.049   2.804 -0.7085  0.4594 -0.0976
 7539SOL    HW134250   2.356   2.985   2.806 -0.6895  0.5186  1.0339
 7539SOL    HW234251   2.224   3.007   2.866 -1.1968 -1.4323 -1.8426
 7540SOL     OW34252   0.825   1.494  17.032  0.1072  0.3898 -0.0413
 7540SOL    HW134253   0.807   1.588  17.031 -0.3917  0.2959  0.1657
 7540SOL    HW234254   0.912   1.497  17.073  0.9973 -0.9433 -1.8234
 7541SOL     OW34255   3.746   1.981   9.351  1.0187 -0.0252 -0.4528
 7541SOL    HW134256   3.736   2.060   9.297 -2.0278 -0.6428 -0.7960
 7541SOL    HW234257   3.802   1.923   9.300  1.3825 -0.2634  0.2159
 7542SOL     OW34258   4.305   1.078   6.388  0.8960 -0.3290 -0.1905
 7542SOL    HW134259   4.288   0.988   6.359  0.7038 -0.5735  0.6966
 7542SOL    HW234260   4.230   1.084   6.447 -0.0107 -1.4662 -1.1936
 7543SOL     OW34261   2.422   0.869   6.512 -0.3953 -0.3645  0.1408
 7543SOL    HW134262   2.495   0.807   6.512  0.0662  0.1817  0.1158
 7543SOL    HW234263   2.459   0.949   6.475 -1.2901  0.1158  0.2959
 7544SOL     OW34264   3.078   3.454   5.087 -0.1952 -0.3027  0.1402
 7544SOL    HW134265   3.007   3.433   5.147 -0.3108 -1.6974 -0.4808
 7544SOL    HW234266   3.034   3.469   5.003 -1.1587 -1.0025  0.5125
 7545SOL     OW34267   3.321   2.670   5.720  0.0874  0.1200  0.7049
 7545SOL    HW134268   3.246   2.627   5.679  0.9453 -0.2837 -0.4285
 7545SOL    HW234269   3.318   2.634   5.809  0.4822 -0.8762  0.3151
 7546SOL     OW34270   1.357   1.828  11.250  0.1098 -0.3237 -0.4498
 7546SOL    HW134271   1.419   1.758  11.273  0.7038  0.4514  0.3076
 7546SOL    HW234272   1.309   1.836  11.332 -2.3939  0.5053 -2.0119
 7547SOL     OW34273   1.991   3.317  11.043  0.0612  0.2133 -0.3075
 7547SOL    HW134274   2.067   3.314  10.984  1.2334  1.3697  1.1122
 7547SOL    HW234275   1.942   3.238  11.019  1.6791 -1.4410  1.8954
 7548SOL     OW34276   1.344   0.471   5.538  0.1240  0.6323 -0.4199
 7548SOL    HW134277   1.356   0.551   5.588  1.2799 -0.5959  1.2575
 7548SOL    HW234278   1.396   0.405   5.583 -0.4389  2.5218  2.9918
 7549SOL     OW34279   4.667   0.650   2.112  0.3982  0.2794 -0.4995
 7549SOL    HW134280   0.014   0.681   2.157 -0.9994  2.3162  0.5477
 7549SOL    HW234281   4.692   0.560   2.092 -0.8019  0.2060 -1.6304
 7550SOL     OW34282   0.821   0.018   7.038 -0.2912  0.4855  0.8116
 7550SOL    HW134283   0.894   0.031   6.978 -0.5314  0.6687  0.5562
 7550SOL    HW234284   0.835   0.103   7.077  0.0514  0.3181  1.0512
 7551SOL     OW34285   3.809   3.705  11.506  0.1017  0.1425 -0.1984
 7551SOL    HW134286   3.796   3.798  11.524  0.1635  0.0438  0.3584
 7551SOL    HW234287   3.809   3.663  11.592  2.5032  4.6503  1.9611
 7552SOL     OW34288   2.452   2.816   0.069 -0.6049  0.6550 -0.0907
 7552SOL    HW134289   2.421   2.782  17.712  0.8348 -3.8196  1.2382
 7552SOL    HW234290   2.508   2.884   0.031 -0.9416  0.8872 -0.1733
 7553SOL     OW34291   0.028   1.813   2.836 -0.1887  0.1958  0.4166
 7553SOL    HW134292   0.040   1.725   2.874 -0.5744 -0.1268 -0.2100
 7553SOL    HW234293   4.714   1.846   2.912 -0.9604 -0.0942  0.0707
 7554SOL     OW34294   4.153   1.479  13.555 -0.1320  0.6567  0.5961
 7554SOL    HW134295   4.147   1.500  13.648 -1.6026 -2.1116  1.1145
 7554SOL    HW234296   4.112   1.393  13.552  0.0125  0.6450 -1.4573
 7555SOL     OW34297   2.010   1.565  17.144 -0.5525  0.5458  0.3661
 7555SOL    HW134298   2.100   1.578  17.174  0.8227 -0.5843 -3.3215
 7555SOL    HW234299   1.965   1.608  17.218 -1.7393 -1.6757  0.9336
 7556SOL     OW34300   0.009   2.983   1.862  0.0087 -0.0766 -0.2058
 7556SOL    HW134301   0.014   3.060   1.918 -2.0976  0.5773 -0.9049
 7556SOL    HW234302   4.693   3.020   1.787 -1.3408  1.1886  1.2758
 7557SOL     OW34303   2.874   0.286   2.215 -0.0388  0.3287 -0.7079
 7557SOL    HW134304   2.935   0.281   2.289 -2.4596  0.7347  1.3141
 7557SOL    HW234305   2.910   0.232   2.145  0.2121 -0.6745  0.1909
 7558SOL     OW34306   3.566   3.122   2.697 -0.3417  0.0808  0.1876
 7558SOL    HW134307   3.614   3.095   2.775 -0.4354  1.2660  0.6577
 7558SOL    HW234308   3.549   3.036   2.659  0.9153 -0.9890  2.0336
 7559SOL     OW34309   3.562   1.161   3.779  0.2667 -0.3851 -0.2342
 7559SOL    HW134310   3.510   1.113   3.715  1.6235 -0.0155 -1.6389
 7559SOL    HW234311   3.560   1.242   3.726  1.7662  0.3056  0.7722
 7560SOL     OW34312   2.926   1.837  16.756  0.1936  0.1790  0.1701
 7560SOL    HW134313   2.950   1.775  16.687 -0.6772  0.5679 -0.4723
 7560SOL    HW234314   2.963   1.917  16.721 -1.0299  1.0813  0.9125
 7561SOL     OW34315   3.362   2.610  16.519 -0.3805 -0.1335 -0.2926
 7561SOL    HW134316   3.327   2.610  16.430 -0.7282 -2.2515 -0.1564
 7561SOL    HW234317   3.289   2.643  16.572  1.4988 -0.2503  2.3459
 7562SOL     OW34318   1.859   3.515   3.349 -0.4675  0.3068 -0.3000
 7562SOL    HW134319   1.833   3.498   3.258  0.1021  0.2734 -0.4566
 7562SOL    HW234320   1.781   3.562   3.380 -2.3501 -2.3466 -0.9561
 7563SOL     OW34321   2.502   1.485   4.683  0.7827  0.2107 -0.2798
 7563SOL    HW134322   2.508   1.557   4.621  0.0237  1.2267  0.8174
 7563SOL    HW234323   2.583   1.441   4.659  1.6708 -0.0085  3.2089
 7564SOL     OW34324   1.436   2.401   8.169 -0.2171  0.1561  0.0193
 7564SOL    HW134325   1.483   2.480   8.194 -1.1845 -0.0034  2.3144
 7564SOL    HW234326   1.347   2.434   8.161 -1.1708 -2.5630 -0.4372
 7565SOL     OW34327   2.863   2.806   5.023  0.0526  0.0172 -0.0869
 7565SOL    HW134328   2.908   2.890   5.038  1.0780 -0.6862  0.8111
 7565SOL    HW234329   2.783   2.822   5.074 -0.1811 -1.1228 -0.1036
 7566SOL     OW34330   0.126   2.922   7.149  0.1896  0.1151 -0.7318
 7566SOL    HW134331   0.102   3.013   7.167 -0.7149  0.0333 -1.5126
 7566SOL    HW234332   0.214   2.920   7.186 -0.8386 -2.0880  1.5780
 7567SOL     OW34333   1.598   1.831   6.904 -0.0426 -0.2017 -0.4653
 7567SOL    HW134334   1.515   1.791   6.930  0.8955 -2.3123 -0.7182
 7567SOL    HW234335   1.655   1.819   6.980 -1.8977 -0.2756  0.9084
 7568SOL     OW34336   0.094   4.367  14.804 -0.3442 -0.1625  0.1108
 7568SOL    HW134337   0.032   4.427  14.846  0.7618  1.1592 -0.1399
 7568SOL    HW234338   0.157   4.431  14.770  0.5805 -0.5399  1.0808
 7569SOL     OW34339   0.207   0.419   1.304  0.1154  0.1537 -1.1227
 7569SOL    HW134340   0.295   0.383   1.296 -0.8337 -1.8820 -2.2040
 7569SOL    HW234341   0.168   0.364   1.372  0.5349 -0.2776 -1.2347
 7570SOL     OW34342   4.145   4.671   6.337  0.0033 -0.6952 -0.5464
 7570SOL    HW134343   4.099   4.629   6.265 -1.6039  0.3378 -0.1117
 7570SOL    HW234344   4.095   4.632   6.408 -2.7188  1.6973 -1.1507
 7571SOL     OW34345   3.878   0.985   5.163 -0.6898 -0.5631  0.4519
 7571SOL    HW134346   3.841   1.072   5.144  0.4284 -0.0566  0.5877
 7571SOL    HW234347   3.870   0.982   5.258  2.8311 -2.2875  0.6871
 7572SOL     OW34348   0.184   1.209   4.024 -0.1743  0.1310 -0.0009
 7572SOL    HW134349   0.131   1.183   3.948  0.2652  0.8421 -0.5562
 7572SOL    HW234350   0.252   1.261   3.980  0.6529 -1.0596 -0.1547
 7573SOL     OW34351   0.542   2.096  15.767  0.5437  0.0392  0.0014
 7573SOL    HW134352   0.523   2.038  15.693 -0.2435  0.1988  0.0853
 7573SOL    HW234353   0.461   2.146  15.766 -0.1921 -1.1762 -0.8652
 7574SOL     OW34354   2.034   2.829   3.197 -0.2775 -0.6982 -0.9996
 7574SOL    HW134355   2.100   2.852   3.261  0.4822  0.3006 -2.1552
 7574SOL    HW234356   1.950   2.811   3.241 -0.1908  0.5940 -0.3034
 7575SOL     OW34357   3.496   4.119   7.681  0.0623 -0.0816 -0.2492
 7575SOL    HW134358   3.575   4.112   7.734  0.0477 -3.4474 -0.7205
 7575SOL    HW234359   3.440   4.159   7.748 -1.7063  1.6278 -2.7309
 7576SOL     OW34360   2.673   1.833   6.394 -0.6222 -0.4150  0.2081
 7576SOL    HW134361   2.650   1.741   6.409 -0.7334 -0.3422  0.4889
 7576SOL    HW234362   2.679   1.866   6.483  0.1573 -0.6730  0.2515
 7577SOL     OW34363   0.055   3.660  14.163  0.0386 -0.0053  0.2109
 7577SOL    HW134364   0.126   3.642  14.101 -0.5108  1.7581 -0.9271
 7577SOL    HW234365   0.090   3.743  14.195 -0.8842  0.9380 -1.2407
 7578SOL     OW34366   3.747   4.023   8.434 -0.1079  0.1189 -0.0109
 7578SOL    HW134367   3.660   4.015   8.396  0.0929 -3.7777  0.3300
 7578SOL    HW234368   3.752   3.942   8.485  2.9653 -0.2726 -0.9276
 7579SOL     OW34369   2.009   1.898   0.870 -0.4503  0.7569  0.3474
 7579SOL    HW134370   2.059   1.856   0.940 -2.2732 -1.9549  0.0283
 7579SOL    HW234371   2.072   1.932   0.806 -1.8098  2.1888 -0.2360
 7580SOL     OW34372   1.099   4.680   6.646 -0.2967  0.1967  0.6229
 7580SOL    HW134373   1.138   4.612   6.591  0.2323  0.6230  0.4654
 7580SOL    HW234374   1.088   0.015   6.578 -2.5004 -1.7421 -0.9133
 7581SOL     OW34375   2.450   0.041   8.553  0.0856 -0.2744  0.1947
 7581SOL    HW134376   2.496   0.028   8.471  1.4390 -0.1710  0.9394
 7581SOL    HW234377   2.449   4.692   8.604 -0.3117 -1.0117 -0.9815
 7582SOL     OW34378   4.279   0.406  11.335 -0.1060  0.5133 -0.7719
 7582SOL    HW134379   4.334   0.442  11.404 -0.5584  1.1208 -0.7241
 7582SOL    HW234380   4.288   0.314  11.359  0.5368  1.0415  0.9823
 7583SOL     OW34381   0.419   1.759  16.938 -0.2762 -0.4064  0.1734
 7583SOL    HW134382   0.416   1.664  16.938  0.0239 -0.4185 -0.0195
 7583SOL    HW234383   0.349   1.759  16.873 -0.6092  3.1274  0.5308
 7584SOL     OW34384   2.747   2.076  11.642 -0.0008 -0.0258 -0.3799
 7584SOL    HW134385   2.818   2.120  11.689 -0.6035  2.7634 -2.0877
 7584SOL    HW234386   2.676   2.139  11.654  0.1368 -0.1744  1.3225
 7585SOL     OW34387   3.894   4.421  14.564 -0.4142 -0.1704 -0.3507
 7585SOL    HW134388   3.989   4.421  14.551 -0.2228  1.0009  1.0629
 7585SOL    HW234389   3.870   4.382  14.481  0.5598  0.5279 -0.9655
 7586SOL     OW34390   1.488   1.378   5.450  0.6122 -0.1133  0.1684
 7586SOL    HW134391   1.437   1.298   5.443  1.2833 -0.4556 -0.8189
 7586SOL    HW234392   1.572   1.334   5.465 -0.3677 -2.0079 -0.0515
 7587SOL     OW34393   0.542   3.278   4.768  0.0279 -0.4353 -0.2043
 7587SOL    HW134394   0.624   3.282   4.717  0.5053  0.8236  0.6694
 7587SOL    HW234395   0.540   3.183   4.781 -3.5664 -0.2927  0.1717
 7588SOL     OW34396   4.356   4.440   5.038 -0.5201 -0.1515  0.2134
 7588SOL    HW134397   4.408   4.503   5.089  0.4336  0.2500 -1.2569
 7588SOL    HW234398   4.306   4.396   5.107  1.0726  0.0918  1.5308
 7589SOL     OW34399   3.448   0.723   8.358  0.2606 -0.6290  0.3576
 7589SOL    HW134400   3.391   0.787   8.401  0.9647 -0.0622  0.4528
 7589SOL    HW234401   3.485   0.669   8.429 -0.1943 -0.2384  0.8899
 7590SOL     OW34402   2.070   3.456   3.485 -0.0421 -0.2638  0.1020
 7590SOL    HW134403   2.101   3.374   3.446 -1.6902 -0.7628 -0.1596
 7590SOL    HW234404   1.999   3.471   3.422 -0.0922 -3.2283 -0.5476
 7591SOL     OW34405   3.115   3.485   6.609  0.1948  0.3860 -0.0868
 7591SOL    HW134406   3.025   3.456   6.626  0.9703 -1.7167  0.3729
 7591SOL    HW234407   3.164   3.411   6.643  0.1295  0.6747  0.6377
 7592SOL     OW34408   2.479   2.273  12.283  0.1283  0.0381  0.2943
 7592SOL    HW134409   2.449   2.297  12.195  0.3771  0.6058  0.3678
 7592SOL    HW234410   2.439   2.343  12.333  0.0554  0.0400  0.2336
 7593SOL     OW34411   4.629   2.736   7.074  0.2806  0.1009  0.6768
 7593SOL    HW134412   4.586   2.818   7.096 -1.7665 -0.9841  0.7107
 7593SOL    HW234413   4.705   2.765   7.023 -0.1947  0.2985  0.0950
 7594SOL     OW34414   1.168   4.342  10.475  0.1165 -1.1047  0.0046
 7594SOL    HW134415   1.149   4.431  10.503  1.0004 -0.8638 -0.1631
 7594SOL    HW234416   1.158   4.297  10.559 -2.7536  0.9993  0.7840
 7595SOL     OW34417   2.272   3.390   1.949 -0.2392 -0.4610 -0.9015
 7595SOL    HW134418   2.326   3.366   2.024 -0.0665  1.0691 -0.5526
 7595SOL    HW234419   2.268   3.483   1.970  0.0804 -1.1512  2.1741
 7596SOL     OW34420   3.811   4.436   0.661  0.2492  0.8395  0.4603
 7596SOL    HW134421   3.808   4.448   0.756  2.7927  1.8988  0.4120
 7596SOL    HW234422   3.897   4.395   0.647 -0.6170 -1.1033  0.8366
 7597SOL     OW34423   2.688   3.919   6.231 -0.0962  0.0628 -0.3124
 7597SOL    HW134424   2.675   4.000   6.280 -1.1257  1.1238 -2.3724
 7597SOL    HW234425   2.610   3.871   6.259  1.2902 -1.8983  0.1953
 7598SOL     OW34426   1.338   2.523  12.817  0.2227  0.5474 -0.3492
 7598SOL    HW134427   1.433   2.531  12.823  0.0485  5.1105 -3.4350
 7598SOL    HW234428   1.319   2.524  12.723 -0.8859  0.9407 -0.1164
 7599SOL     OW34429   0.494   3.057   3.858 -0.0616 -0.2591  0.0927
 7599SOL    HW134430   0.499   3.011   3.942 -1.3619  0.9418  0.8317
 7599SOL    HW234431   0.531   3.142   3.883 -0.5738 -0.0077  0.0054
 7600SOL     OW34432   3.045   0.678   5.173  0.3500  0.8479 -0.4678
 7600SOL    HW134433   3.114   0.668   5.106  0.2777  0.0652 -0.4250
 7600SOL    HW234434   2.981   0.735   5.130 -1.6099 -0.5575  0.6329
 7601SOL     OW34435   3.586   0.155  15.608  0.1007  0.9028  0.8009
 7601SOL    HW134436   3.599   0.070  15.650 -0.5849 -0.2304 -1.2549
 7601SOL    HW234437   3.636   0.212  15.666  0.5723  0.2167  1.0636
 7602SOL     OW34438   2.293   1.359   4.487 -0.2029 -0.1915  0.1198
 7602SOL    HW134439   2.353   1.422   4.448  2.2452 -2.3243  0.4196
 7602SOL    HW234440   2.232   1.415   4.535 -0.5820 -0.3890 -0.1380
 7603SOL     OW34441   4.408   4.714   3.901  0.2457  0.1012 -0.2393
 7603SOL    HW134442   4.488   4.662   3.905  0.7604  0.9111 -0.0900
 7603SOL    HW234443   4.350   4.641   3.924 -1.9274  1.3805 -1.6755
 7604SOL     OW34444   2.895   4.509   8.903  0.1028  0.2020 -0.3390
 7604SOL    HW134445   2.882   4.415   8.918 -0.0817  0.0953 -1.1632
 7604SOL    HW234446   2.963   4.511   8.836 -0.6777  1.1730 -1.0989
 7605SOL     OW34447   0.282   3.812   6.442  0.4607  0.0628 -0.2592
 7605SOL    HW134448   0.372   3.794   6.468  1.1704  1.2799 -1.8479
 7605SOL    HW234449   0.254   3.727   6.407  0.4037 -0.3830  0.8898
 7606SOL     OW34450   3.073   1.528   5.850 -0.5268  0.3597  0.2238
 7606SOL    HW134451   2.981   1.533   5.823 -0.2849 -0.4456 -0.7439
 7606SOL    HW234452   3.126   1.583   5.793 -1.7969  0.9281 -0.4167
 7607SOL     OW34453   3.658   3.619  11.019 -0.4040  0.0890 -0.1486
 7607SOL    HW134454   3.697   3.663  11.095  0.4894 -1.3889  0.2316
 7607SOL    HW234455   3.656   3.691  10.956 -1.8803  1.0845  1.0184
 7608SOL     OW34456   1.269   1.021   9.092 -0.1190 -0.2187  0.9914
 7608SOL    HW134457   1.252   1.109   9.059 -1.7183 -1.0972 -0.5780
 7608SOL    HW234458   1.364   1.021   9.098 -0.0462 -0.4390 -0.2139
 7609SOL     OW34459   2.525   0.112  13.589  0.0278  0.1660 -0.1892
 7609SOL    HW134460   2.489   0.190  13.632  0.5130 -2.0271  4.1998
 7609SOL    HW234461   2.477   0.122  13.507 -1.0271  0.8088  0.4955
 7610SOL     OW34462   3.849   1.034   7.654  0.1523 -0.2878  0.0559
 7610SOL    HW134463   3.769   1.002   7.613 -0.0145 -1.0439  0.9849
 7610SOL    HW234464   3.829   1.044   7.747 -1.9464 -1.0934 -0.3047
 7611SOL     OW34465   4.455   0.115   1.780 -0.4187  0.5668  0.1196
 7611SOL    HW134466   4.394   0.188   1.773  0.1209  1.0246  0.2043
 7611SOL    HW234467   4.401   0.045   1.818  0.2985 -0.3020 -0.4498
 7612SOL     OW34468   4.429   4.300   3.921  0.1961  0.2020  0.0650
 7612SOL    HW134469   4.386   4.277   3.839  0.9021  2.0054 -0.8081
 7612SOL    HW234470   4.466   4.214   3.944  0.8808  0.6013  0.4521
 7613SOL     OW34471   2.771   4.592   7.200 -0.5776 -0.1090  0.4732
 7613SOL    HW134472   2.859   4.556   7.209 -0.1448  0.4711 -1.5201
 7613SOL    HW234473   2.787   4.680   7.166  0.4949 -0.8319 -0.8237
 7614SOL     OW34474   2.681   4.028   2.791 -0.4039 -0.1255 -0.0683
 7614SOL    HW134475   2.621   3.985   2.852  0.1506 -1.1592 -0.2432
 7614SOL    HW234476   2.696   4.111   2.835  0.4257 -0.0368 -0.5222
 7615SOL     OW34477   3.731   0.489   5.955  0.0812  0.8166 -0.7222
 7615SOL    HW134478   3.724   0.566   6.011  0.7010  1.4399 -1.5047
 7615SOL    HW234479   3.671   0.434   6.006 -1.2923  2.8744 -0.1307
 7616SOL     OW34480   1.388   0.447   1.879 -0.1420 -0.5235 -0.4443
 7616SOL    HW134481   1.436   0.367   1.860  2.4146  0.6065  1.2766
 7616SOL    HW234482   1.416   0.447   1.971 -1.4612 -0.8037 -0.0383
 7617SOL     OW34483   2.318   4.439  10.549 -0.3436  0.8260 -0.5444
 7617SOL    HW134484   2.264   4.421  10.473 -2.1973 -1.1095  1.2357
 7617SOL    HW234485   2.402   4.457  10.507 -0.8264 -1.1949 -2.3386
 7618SOL     OW34486   1.261   4.564  12.088 -0.1347  0.5056 -0.4831
 7618SOL    HW134487   1.277   4.568  12.182 -1.6608  1.6345 -0.2823
 7618SOL    HW234488   1.177   4.520  12.097  0.0116  0.7636  2.0541
 7619SOL     OW34489   2.479   4.594  16.890  0.6438 -0.0357 -0.2917
 7619SOL    HW134490   2.401   4.550  16.856  0.4544  2.9900 -3.7855
 7619SOL    HW234491   2.474   4.573  16.983  1.9703  2.2024  0.2925
 7620SOL     OW34492   0.154   2.722   6.939 -0.4768  0.3471 -0.3873
 7620SOL    HW134493   0.132   2.778   6.865 -0.7052 -0.6794 -1.0978
 7620SOL    HW234494   0.173   2.790   7.004 -2.6662  0.7770 -0.2036
 7621SOL     OW34495   2.099   1.340   7.342 -0.0280  0.5028 -0.4556
 7621SOL    HW134496   2.083   1.274   7.275 -1.4592  0.2490  0.1431
 7621SOL    HW234497   2.175   1.313   7.394 -0.8283  1.5404  1.2557
 7622SOL     OW34498   1.967   2.760   2.281 -0.1942 -0.3485  0.0894
 7622SOL    HW134499   2.053   2.767   2.323  0.2938 -0.8395 -0.8349
 7622SOL    HW234500   1.910   2.822   2.327 -0.3790  0.0943 -0.7373
 7623SOL     OW34501   2.903   0.522   6.624  0.0488  0.2191 -0.0204
 7623SOL    HW134502   2.936   0.558   6.542  0.8354 -2.6364 -0.9357
 7623SOL    HW234503   2.920   0.588   6.692  1.2082 -0.3370  0.2290
 7624SOL     OW34504   1.901   0.352  15.684 -0.0360 -0.4049 -0.1421
 7624SOL    HW134505   1.938   0.357  15.596  0.2139 -2.2060 -0.1412
 7624SOL    HW234506   1.971   0.380  15.743 -1.4168 -3.6595  3.0282
 7625SOL     OW34507   0.606   2.370   5.077 -0.5938 -0.0185  0.0924
 7625SOL    HW134508   0.682   2.312   5.065 -0.1343  0.3613  1.0913
 7625SOL    HW234509   0.533   2.309   5.085  0.2127 -1.0538 -0.3820
 7626SOL     OW34510   3.532   0.145   9.118  0.0325  0.1605  0.2426
 7626SOL    HW134511   3.570   0.210   9.177 -0.2023 -0.2702  0.8658
 7626SOL    HW234512   3.483   0.094   9.183 -0.7123 -0.2330 -0.6181
 7627SOL     OW34513   2.293   4.253  14.745 -0.0436 -0.0958  0.5007
 7627SOL    HW134514   2.301   4.180  14.684  0.4180  1.3274 -1.1257
 7627SOL    HW234515   2.350   4.311  14.695 -1.4270 -0.8355 -1.9330
 7628SOL     OW34516   2.773   3.228   2.866 -0.0983  0.0675 -0.1754
 7628SOL    HW134517   2.719   3.149   2.870  0.0032  0.0168  0.1517
 7628SOL    HW234518   2.854   3.201   2.911  0.2138 -0.3928 -1.0188
 7629SOL     OW34519   4.033   3.082   6.670 -0.2910  0.3909 -0.3482
 7629SOL    HW134520   4.033   3.055   6.762 -0.7377  1.2958 -0.0855
 7629SOL    HW234521   4.116   3.045   6.639 -0.4820  0.8346 -1.3706
 7630SOL     OW34522   2.596   2.332   3.200  0.4674 -0.2375 -0.0645
 7630SOL    HW134523   2.617   2.363   3.288  0.1960  1.5929 -0.6448
 7630SOL    HW234524   2.674   2.280   3.179  1.6845  1.5227  0.0996
 7631SOL     OW34525   0.985   3.014  14.728 -0.2746 -0.5031  0.5292
 7631SOL    HW134526   0.981   3.039  14.820  2.2525  2.1380 -0.0890
 7631SOL    HW234527   0.947   3.095  14.694  0.2904  0.4411  2.1481
 7632SOL     OW34528   0.076   0.135   6.464 -0.4546  0.0396  0.4799
 7632SOL    HW134529   0.129   0.154   6.387 -1.0680  0.3317  0.1352
 7632SOL    HW234530   0.101   0.043   6.474 -0.7508 -0.2677 -1.7216
 7633SOL     OW34531   3.366   2.411   7.229  0.0428  0.0768  0.2202
 7633SOL    HW134532   3.287   2.425   7.177 -0.7587 -0.4818  1.2860
 7633SOL    HW234533   3.369   2.316   7.216  0.2616 -0.1362  1.7914
 7634SOL     OW34534   2.685   3.939  16.009 -0.1826  0.4065 -0.3432
 7634SOL    HW134535   2.683   3.844  15.993  0.9786  0.5024 -1.1164
 7634SOL    HW234536   2.592   3.957  16.000 -0.5480 -0.8755  0.8681
 7635SOL     OW34537   0.044   4.000   4.314 -0.4468 -0.1570  0.2540
 7635SOL    HW134538   0.098   3.945   4.257 -2.2327  1.0534 -2.6264
 7635SOL    HW234539   0.048   4.084   4.268  1.2719 -0.0638  0.5736
 7636SOL     OW34540   2.129   4.536   9.018 -0.8114 -0.3836  0.5055
 7636SOL    HW134541   2.109   4.491   9.100  0.2606 -0.1045  0.9230
 7636SOL    HW234542   2.063   4.605   9.026 -0.9581 -0.5993  1.1649
 7637SOL     OW34543   1.768   3.262   6.237  0.1012  0.0322  0.9188
 7637SOL    HW134544   1.768   3.339   6.293 -2.7831 -1.6003  3.1256
 7637SOL    HW234545   1.864   3.259   6.231  0.1877 -0.8035  2.6264
 7638SOL     OW34546   3.337   2.561   8.900 -0.4839  0.0334  0.6771
 7638SOL    HW134547   3.340   2.652   8.871 -0.8397 -0.4106 -0.7737
 7638SOL    HW234548   3.397   2.557   8.974 -1.1950 -0.5011  1.2204
 7639SOL     OW34549   0.483   3.506   3.255  0.4510 -0.3500 -0.5739
 7639SOL    HW134550   0.575   3.507   3.281  0.3573  0.9776 -0.2523
 7639SOL    HW234551   0.461   3.593   3.289  2.6108 -0.5775  1.3716
 7640SOL     OW34552   2.666   2.169   7.712 -0.2321  0.2546  0.7251
 7640SOL    HW134553   2.672   2.230   7.785 -1.3167 -1.3922  2.1748
 7640SOL    HW234554   2.692   2.084   7.747  1.5441  0.0241 -1.1173
 7641SOL     OW34555   4.092   2.985   4.708 -0.4483  0.0952  0.1575
 7641SOL    HW134556   4.112   3.011   4.619  1.5353  0.0056  0.5836
 7641SOL    HW234557   4.016   3.038   4.732 -1.7528 -2.0652  0.8568
 7642SOL     OW34558   4.095   3.253   7.821 -0.2588 -0.7335  0.8996
 7642SOL    HW134559   4.150   3.180   7.850  1.4193 -0.3389 -1.2866
 7642SOL    HW234560   4.036   3.202   7.764  2.6445 -1.1338 -1.7572
 7643SOL     OW34561   4.648   1.656   5.336  0.2718  0.3375 -0.3573
 7643SOL    HW134562   4.568   1.611   5.307  0.2473  1.4994 -2.0743
 7643SOL    HW234563   4.667   1.691   5.249  1.1765  1.2856  0.2333
 7644SOL     OW34564   1.147   4.585  10.558  0.0724 -0.4266 -0.7705
 7644SOL    HW134565   1.104   4.610  10.640  0.6714 -2.4874  0.1734
 7644SOL    HW234566   1.210   4.654  10.539 -0.3353 -0.3337 -1.7687
 7645SOL     OW34567   3.503   3.561   6.574 -0.1881  0.5263 -0.2514
 7645SOL    HW134568   3.560   3.609   6.514  2.7413 -2.0679  0.4216
 7645SOL    HW234569   3.568   3.515   6.627  0.6677  1.8354 -0.1726
 7646SOL     OW34570   1.563   1.585   3.722  0.0577 -0.1257  0.3427
 7646SOL    HW134571   1.629   1.648   3.749  0.0710 -1.0558  2.4353
 7646SOL    HW234572   1.504   1.633   3.663 -0.4667  0.5566  1.4161
 7647SOL     OW34573   1.379   2.139   4.989  0.2930  0.4710  0.1015
 7647SOL    HW134574   1.334   2.216   5.025  1.0079  0.8583  0.1537
 7647SOL    HW234575   1.447   2.177   4.935  0.5310  1.5451  1.1533
 7648SOL     OW34576   1.045   0.598  15.622 -0.5616  0.1684 -0.1613
 7648SOL    HW134577   1.122   0.603  15.679 -0.3025  0.3661 -0.5260
 7648SOL    HW234578   1.080   0.629  15.538 -0.7000 -0.8933 -0.6031
 7649SOL     OW34579   0.151   4.578   6.501  0.1925  0.3826 -0.1670
 7649SOL    HW134580   0.225   4.519   6.494  1.7454  1.8806  3.3143
 7649SOL    HW234581   0.092   4.537   6.438  0.2841 -1.5558  1.0052
 7650SOL     OW34582   1.113   3.672   7.678 -0.6062 -0.3133 -0.2291
 7650SOL    HW134583   1.187   3.617   7.705 -1.1025 -0.3249  1.1071
 7650SOL    HW234584   1.099   3.653   7.585 -1.4418  1.0958 -0.3795
 7651SOL     OW34585   4.596   2.831   6.242 -0.2198  0.0546 -0.5272
 7651SOL    HW134586   4.682   2.872   6.241 -0.6735  1.0294 -0.6620
 7651SOL    HW234587   4.593   2.800   6.151 -0.4887  0.6105 -0.7112
 7652SOL     OW34588   0.801   2.468   4.530 -0.0067  0.6767 -0.2550
 7652SOL    HW134589   0.730   2.428   4.480 -0.5784 -1.7868  2.5041
 7652SOL    HW234590   0.874   2.409   4.516  0.8712  1.4624  0.9576
 7653SOL     OW34591   4.659   2.068   5.155  0.1702  0.1541 -0.2830
 7653SOL    HW134592   4.610   1.988   5.173  1.1161  0.0966  2.0030
 7653SOL    HW234593   4.594   2.122   5.109 -2.1631 -1.4508  1.1070
 7654SOL     OW34594   0.117   3.533   8.496 -0.3920 -0.4816 -0.0946
 7654SOL    HW134595   0.100   3.621   8.463  3.0319  0.4145  0.4993
 7654SOL    HW234596   0.178   3.548   8.568  2.7030 -0.0671 -2.7875
 7655SOL     OW34597   1.714   0.294   3.740 -0.1685 -0.3286  0.2764
 7655SOL    HW134598   1.786   0.264   3.794 -0.4552  0.9457  1.3850
 7655SOL    HW234599   1.760   0.328   3.663 -0.3730  0.8592  0.6747
 7656SOL     OW34600   3.003   1.044  14.710 -0.6335  1.1686  0.2077
 7656SOL    HW134601   3.009   1.123  14.764 -1.4788  1.8601 -0.7232
 7656SOL    HW234602   2.918   1.046  14.667  0.0485 -1.6218 -1.2532
 7657SOL     OW34603   4.361   3.381   1.120 -0.4238 -0.3508 -0.6701
 7657SOL    HW134604   4.401   3.324   1.055 -1.8397 -1.2404 -0.7719
 7657SOL    HW234605   4.399   3.464   1.092 -0.7883 -0.0545 -0.2918
 7658SOL     OW34606   2.395   3.762   9.524  0.0213 -0.6216  0.6632
 7658SOL    HW134607   2.392   3.857   9.532  2.1996 -0.4580 -0.3657
 7658SOL    HW234608   2.413   3.750   9.431  0.2323  0.1670  0.6050
 7659SOL     OW34609   1.825   0.505   5.848 -0.1829  0.0018  0.1786
 7659SOL    HW134610   1.919   0.493   5.862 -0.3127 -1.3273 -0.1106
 7659SOL    HW234611   1.792   0.584   5.891  1.8316  1.9859 -1.9143
 7660SOL     OW34612   4.247   2.696   3.485 -0.5364  0.0907  0.2669
 7660SOL    HW134613   4.338   2.682   3.459 -0.5163 -0.0056  0.3900
 7660SOL    HW234614   4.267   2.780   3.526  0.0931  0.4009 -0.6693
 7661SOL     OW34615   4.199   0.719   5.475  0.3268  0.3692 -0.2581
 7661SOL    HW134616   4.283   0.693   5.512  1.4321 -0.1158 -3.1423
 7661SOL    HW234617   4.218   0.812   5.461 -0.8246  0.5013 -1.0282
 7662SOL     OW34618   2.145   0.949   7.138 -0.0738 -0.4275  0.4975
 7662SOL    HW134619   2.161   1.018   7.074  1.8783 -0.4360  0.9639
 7662SOL    HW234620   2.124   0.877   7.079  0.9667 -0.2049 -0.1303
 7663SOL     OW34621   0.318   3.670   4.904  0.0179  0.1709 -0.0872
 7663SOL    HW134622   0.349   3.650   4.816  2.6799  0.7124  0.7434
 7663SOL    HW234623   0.337   3.583   4.939  1.2259  0.5739  0.2498
 7664SOL     OW34624   1.938   3.297   2.502 -0.2413  0.0363 -0.1712
 7664SOL    HW134625   1.900   3.363   2.444 -1.5401 -0.1373  0.4969
 7664SOL    HW234626   1.993   3.357   2.553 -1.1465  1.0988 -0.4496
 7665SOL     OW34627   0.766   0.475   7.839 -0.7875  0.1228  0.0231
 7665SOL    HW134628   0.691   0.427   7.802  1.6151 -2.0284 -2.0307
 7665SOL    HW234629   0.830   0.426   7.787 -2.9507 -1.3139 -1.3488
 7666SOL     OW34630   3.597   4.581   6.004  0.0938 -0.2270  0.2509
 7666SOL    HW134631   3.603   4.558   6.097 -2.3497  1.5078  0.8454
 7666SOL    HW234632   3.681   4.626   5.997  0.0244  0.1792  2.0134
 7667SOL     OW34633   0.343   1.252   5.485  0.1609 -0.8511 -0.1900
 7667SOL    HW134634   0.423   1.209   5.458  1.1580  0.0985  1.2173
 7667SOL    HW234635   0.279   1.182   5.471 -1.4185  0.4624  0.3971
 7668SOL     OW34636   3.088   3.891   1.823  0.3931 -0.1352 -0.2799
 7668SOL    HW134637   3.054   3.861   1.907 -0.1484 -0.0743 -0.4828
 7668SOL    HW234638   3.085   3.809   1.775  0.1409  1.1424 -2.4305
 7669SOL     OW34639   4.446   3.980   7.379 -0.0303  0.7321 -0.2763
 7669SOL    HW134640   4.381   3.936   7.325 -1.4571 -0.7928  2.6983
 7669SOL    HW234641   4.408   4.068   7.380 -0.2770  0.6195  0.4883
 7670SOL     OW34642   2.642   2.354   5.816 -0.2448 -0.6546  0.0113
 7670SOL    HW134643   2.590   2.421   5.861 -1.0779 -0.3282 -1.4491
 7670SOL    HW234644   2.599   2.286   5.868 -0.0738 -0.8680 -0.1257
 7671SOL     OW34645   3.542   2.301  11.387  0.3151 -0.2197  0.5613
 7671SOL    HW134646   3.477   2.251  11.436 -0.7738 -0.0002 -0.6399
 7671SOL    HW234647   3.497   2.307  11.303  1.4788 -0.0148 -0.0505
 7672SOL     OW34648   2.586   0.953  17.435  0.3583 -0.4490  0.0949
 7672SOL    HW134649   2.503   0.998  17.421  1.0098  1.4971  2.4473
 7672SOL    HW234650   2.646   1.021  17.465  1.0652 -1.0071 -0.0609
 7673SOL     OW34651   1.383   3.666   6.233  0.1870  0.0788 -0.1496
 7673SOL    HW134652   1.389   3.709   6.318 -2.5976  1.2753 -0.5510
 7673SOL    HW234653   1.476   3.653   6.214 -0.0078  0.0407 -1.0713
 7674SOL     OW34654   2.386   0.461   7.657 -0.0803  0.4970  0.6418
 7674SOL    HW134655   2.435   0.439   7.736  0.8786 -1.5261 -0.5128
 7674SOL    HW234656   2.352   0.374   7.635  1.6346  0.3317 -1.4182
 7675SOL     OW34657   2.590   4.399   8.638 -0.1989  0.3428  0.4535
 7675SOL    HW134658   2.635   4.334   8.692 -0.8515 -2.2629 -2.1899
 7675SOL    HW234659   2.635   4.477   8.671  0.4024  0.1592  0.0667
 7676SOL     OW34660   3.635   4.694   8.230  0.2132  0.1518  0.2754
 7676SOL    HW134661   3.663   4.683   8.321 -0.9729  0.6233  0.6895
 7676SOL    HW234662   3.570   4.623   8.226  0.6793 -0.3507  1.7443
 7677SOL     OW34663   2.861   2.924  17.246  0.0576  0.6025 -0.2962
 7677SOL    HW134664   2.774   2.890  17.224  0.0527 -1.0301  2.1704
 7677SOL    HW234665   2.910   2.842  17.255 -1.6175 -0.2796  0.9872
 7678SOL     OW34666   3.706   1.987  10.961  0.1755  0.2928 -0.0807
 7678SOL    HW134667   3.719   2.010  10.869 -0.8942  1.1941 -0.0093
 7678SOL    HW234668   3.648   1.911  10.957  0.3284  0.2084 -0.7128
 7679SOL     OW34669   2.587   3.657   8.571 -0.4127  0.5417 -0.8058
 7679SOL    HW134670   2.672   3.672   8.529 -1.2934 -0.4405 -2.9626
 7679SOL    HW234671   2.613   3.605   8.647  0.9929 -0.2829 -1.8394
 7680SOL     OW34672   2.057   1.556   3.564  0.1785  0.0394 -0.1337
 7680SOL    HW134673   2.092   1.586   3.648 -1.7136 -1.7225  1.2789
 7680SOL    HW234674   1.976   1.606   3.567  0.6035  0.6336  1.1798
 7681SOL     OW34675   1.495   0.173   1.832  0.0789  0.0967  0.2635
 7681SOL    HW134676   1.442   0.094   1.822  1.9679 -1.1080 -0.1742
 7681SOL    HW234677   1.576   0.123   1.841 -0.1202 -0.4561 -1.0525
 7682SOL     OW34678   3.943   1.026  10.530 -0.1078  0.2130  0.0217
 7682SOL    HW134679   3.864   1.048  10.580  1.1779  5.0936 -0.2047
 7682SOL    HW234680   3.970   0.942  10.568 -1.7935  0.1912  1.2052
 7683SOL     OW34681   3.164   4.295   2.786  0.2564 -0.1518  0.6601
 7683SOL    HW134682   3.255   4.295   2.814  0.1822  2.0819  0.8749
 7683SOL    HW234683   3.168   4.238   2.709  0.3075 -2.3992  2.3283
 7684SOL     OW34684   4.264   0.539  10.939  0.0367 -0.2491  0.3957
 7684SOL    HW134685   4.319   0.592  10.882 -2.4219  1.5321 -0.2776
 7684SOL    HW234686   4.316   0.549  11.019 -1.8727 -0.3556  1.6550
 7685SOL     OW34687   3.296   1.440   7.109 -0.0196 -0.3686  0.4848
 7685SOL    HW134688   3.376   1.459   7.158 -0.4421  1.0233  0.6140
 7685SOL    HW234689   3.290   1.524   7.065 -0.0580  0.8114  2.7542
 7686SOL     OW34690   0.342   0.745  10.611 -0.0346 -0.4209  0.4531
 7686SOL    HW134691   0.430   0.708  10.604 -0.2878 -0.9960  0.3736
 7686SOL    HW234692   0.309   0.719  10.525 -0.5349  3.2884 -0.4674
 7687SOL     OW34693   4.372   3.883   5.220  0.1876  0.1775 -0.1108
 7687SOL    HW134694   4.403   3.880   5.311 -1.8656  1.8551  0.6605
 7687SOL    HW234695   4.440   3.838   5.170  0.7250  2.8250 -1.7352
 7688SOL     OW34696   3.488   0.197  16.484  1.1675  0.4545 -0.1905
 7688SOL    HW134697   3.488   0.113  16.530  0.9262 -0.3986 -1.7539
 7688SOL    HW234698   3.579   0.223  16.501  1.8505 -3.1684  1.9792
 7689SOL     OW34699   2.938   1.111   1.750  0.1788  0.1106 -0.0425
 7689SOL    HW134700   2.878   1.052   1.705 -1.7729  3.0691 -1.3138
 7689SOL    HW234701   2.963   1.052   1.821  1.3404 -0.4837 -0.9593
 7690SOL     OW34702   2.213   0.387  12.118  0.4078 -0.3304 -0.0107
 7690SOL    HW134703   2.258   0.443  12.181 -1.9859 -0.3743  1.7024
 7690SOL    HW234704   2.149   0.449  12.082  2.8081 -0.1886 -4.0730
 7691SOL     OW34705   4.410   0.329   8.287  0.2505  0.3284  0.3446
 7691SOL    HW134706   4.498   0.305   8.261 -0.3743  0.1855 -1.6028
 7691SOL    HW234707   4.387   0.349   8.197 -0.5317 -0.2099  0.4235
 7692SOL     OW34708   1.905   4.631   2.215 -0.4442  0.2386  0.2315
 7692SOL    HW134709   1.932   4.621   2.307  0.1324 -1.2934 -0.1089
 7692SOL    HW234710   1.821   4.676   2.226  0.3185  1.3367  1.7592
 7693SOL     OW34711   0.382   1.454  10.698 -0.2333  0.1358 -1.1803
 7693SOL    HW134712   0.379   1.538  10.744  0.1620  0.6444 -2.0749
 7693SOL    HW234713   0.452   1.483  10.639 -0.7963 -1.0279 -2.4034
 7694SOL     OW34714   0.665   2.762   7.901  0.5693  0.0501  0.3650
 7694SOL    HW134715   0.576   2.764   7.865  1.4596 -0.8463 -1.8747
 7694SOL    HW234716   0.655   2.699   7.973  0.3126 -1.3864 -0.9287
 7695SOL     OW34717   0.460   2.068   1.417 -0.1391  0.6455  0.0030
 7695SOL    HW134718   0.516   2.138   1.451 -1.7265  3.0874 -2.4007
 7695SOL    HW234719   0.377   2.094   1.457 -1.5631 -3.1404 -0.5018
 7696SOL     OW34720   3.814   2.665   7.310  0.0754 -0.2278 -0.3338
 7696SOL    HW134721   3.765   2.586   7.288 -2.2160  1.8630 -2.7831
 7696SOL    HW234722   3.767   2.717   7.374 -0.0275  2.9028 -2.9054
 7697SOL     OW34723   3.795   0.659   5.275  0.1445  0.2517  0.7276
 7697SOL    HW134724   3.841   0.599   5.334  3.0812  1.6035 -0.1952
 7697SOL    HW234725   3.704   0.636   5.297  0.4607 -0.5610  1.1921
 7698SOL     OW34726   4.285   2.438  10.837 -0.9598  0.0701 -0.2647
 7698SOL    HW134727   4.338   2.474  10.766  0.4395  1.2641  1.3922
 7698SOL    HW234728   4.354   2.418  10.899 -0.1764  1.5357 -0.6512
 7699SOL     OW34729   1.080   2.236   9.221 -0.4387  0.4946  0.6206
 7699SOL    HW134730   1.133   2.237   9.300 -1.5162 -0.2617  1.3375
 7699SOL    HW234731   0.989   2.228   9.248 -1.0308  0.5919 -1.3105
 7700SOL     OW34732   3.182   3.715  15.011 -0.0616  0.4344 -0.1814
 7700SOL    HW134733   3.099   3.756  15.034  0.7215  1.6676  0.3927
 7700SOL    HW234734   3.232   3.716  15.092 -1.2964  0.8284  0.5660
 7701SOL     OW34735   1.509   4.610   8.908 -0.7931 -0.3048 -0.0210
 7701SOL    HW134736   1.536   4.701   8.900  0.5760 -0.7478 -0.5071
 7701SOL    HW234737   1.423   4.619   8.867 -0.9864 -0.1345  0.4237
 7702SOL     OW34738   0.426   0.540   8.030  0.4868  0.0309 -0.4951
 7702SOL    HW134739   0.402   0.460   7.984  1.2927  0.9645 -2.5445
 7702SOL    HW234740   0.346   0.571   8.071 -0.7467 -3.8480  0.0314
 7703SOL     OW34741   1.886   1.369   2.561 -0.0521  0.1980  0.5139
 7703SOL    HW134742   1.818   1.308   2.591 -0.3820  1.0599  1.5431
 7703SOL    HW234743   1.866   1.401   2.473 -2.2214 -0.2839  0.8170
 7704SOL     OW34744   1.421   2.589   1.829  0.3148  0.1881  0.1630
 7704SOL    HW134745   1.416   2.505   1.875  1.9033 -0.0627 -0.1437
 7704SOL    HW234746   1.455   2.562   1.743 -0.3652  1.2067 -0.4206
 7705SOL     OW34747   1.804   1.468   9.709  0.2407 -0.2761 -0.2955
 7705SOL    HW134748   1.728   1.512   9.672  0.3099  0.6977  0.6848
 7705SOL    HW234749   1.786   1.487   9.802  2.0896 -0.4093  0.0957
 7706SOL     OW34750   4.293   3.750  15.405  0.5301 -0.3529  0.0988
 7706SOL    HW134751   4.250   3.834  15.383  3.1238  0.2756 -2.5232
 7706SOL    HW234752   4.212   3.701  15.392 -0.0391  0.5740  0.0808
 7707SOL     OW34753   4.130   2.255   3.140 -0.1214  0.2968  0.0010
 7707SOL    HW134754   4.218   2.274   3.171  0.5312 -1.1549 -0.9629
 7707SOL    HW234755   4.073   2.250   3.217 -0.1071 -0.9905 -0.0600
 7708SOL     OW34756   0.679   2.717   8.596 -0.3765  0.0873  0.2868
 7708SOL    HW134757   0.741   2.784   8.625 -0.5048  0.2282  0.2381
 7708SOL    HW234758   0.743   2.651   8.571  0.4508  1.2584 -0.6600
 7709SOL     OW34759   2.737   4.683   7.489 -0.0708 -0.2934 -0.6914
 7709SOL    HW134760   2.780   4.609   7.532 -0.8738 -1.7555 -2.3691
 7709SOL    HW234761   2.719   4.652   7.400  1.2487  0.8692 -1.3587
 7710SOL     OW34762   2.835   3.352   6.284  0.3153  0.0637 -0.5010
 7710SOL    HW134763   2.787   3.429   6.316 -3.3948 -1.2478 -2.9244
 7710SOL    HW234764   2.762   3.293   6.267  0.2979  1.1056 -4.0849
 7711SOL     OW34765   2.643   1.824   5.101 -0.0842  0.1073  0.0231
 7711SOL    HW134766   2.695   1.745   5.116 -0.1954 -0.1046 -0.7044
 7711SOL    HW234767   2.616   1.808   5.011  1.3193  0.8992 -0.5346
 7712SOL     OW34768   1.475   3.933   9.386  0.3408 -0.4163  0.3563
 7712SOL    HW134769   1.531   3.857   9.369 -0.5092 -1.4196  2.1451
 7712SOL    HW234770   1.544   3.989   9.423  0.5384 -2.8855  3.7007
 7713SOL     OW34771   2.489   1.978   1.985  0.3734  0.0493 -0.3146
 7713SOL    HW134772   2.524   1.935   1.907 -0.0108 -0.7404 -0.0511
 7713SOL    HW234773   2.449   1.898   2.020 -1.2544  0.8334 -0.3483
 7714SOL     OW34774   1.736   2.275   7.293 -0.1504 -0.0656  0.1453
 7714SOL    HW134775   1.749   2.370   7.297 -0.8900  0.0140  0.7286
 7714SOL    HW234776   1.746   2.259   7.200 -3.4691 -3.8557  0.4564
 7715SOL     OW34777   4.616   0.360  10.904  0.0029 -0.3071  0.2450
 7715SOL    HW134778   4.564   0.370  10.984  1.0153  3.1339  0.4894
 7715SOL    HW234779   4.694   0.407  10.936  2.0463 -2.4187 -1.5981
 7716SOL     OW34780   4.477   1.947  17.072 -0.0388  0.0335 -0.1199
 7716SOL    HW134781   4.464   1.895  17.151  2.9810  0.4186  0.6334
 7716SOL    HW234782   4.521   1.882  17.016 -1.3807 -0.3222 -0.7741
 7717SOL     OW34783   3.040   1.903   9.427  0.0600  0.5657  0.6940
 7717SOL    HW134784   2.972   1.837   9.424  0.3512  0.3738 -1.3148
 7717SOL    HW234785   3.006   1.967   9.490  1.9878  2.8719 -0.6038
 7718SOL     OW34786   0.699   2.277   0.849 -0.0363  0.1788 -0.1041
 7718SOL    HW134787   0.618   2.294   0.801 -0.1920  1.2403  0.5391
 7718SOL    HW234788   0.666   2.223   0.920  1.5634  1.1156  1.3352
 7719SOL     OW34789   1.111   0.565   4.097 -0.4531 -0.2801  0.2359
 7719SOL    HW134790   1.126   0.482   4.051 -1.4109  0.5894 -1.6182
 7719SOL    HW234791   1.133   0.548   4.189  0.2395  2.8444  0.6664
 7720SOL     OW34792   4.485   3.491   6.566 -0.0101 -0.0719 -0.1843
 7720SOL    HW134793   4.395   3.485   6.534 -0.3753  0.4102  0.7436
 7720SOL    HW234794   4.463   3.510   6.657 -0.2972 -0.3199 -0.2030
 7721SOL     OW34795   3.218   1.911   9.230 -0.6476  0.1649 -0.0735
 7721SOL    HW134796   3.137   1.889   9.276 -1.0591 -0.1050 -0.9298
 7721SOL    HW234797   3.273   1.953   9.295  1.5033 -2.6064 -0.1020
 7722SOL     OW34798   4.217   1.167   7.322 -0.6439  0.9566  0.4004
 7722SOL    HW134799   4.213   1.259   7.293 -1.9203  0.3336 -1.4221
 7722SOL    HW234800   4.206   1.179   7.416  1.2544  1.4271  0.5675
 7723SOL     OW34801   1.851   4.233   1.593 -0.3834 -0.2939 -0.4055
 7723SOL    HW134802   1.767   4.259   1.555 -0.0394 -1.3252 -1.8659
 7723SOL    HW234803   1.849   4.308   1.653 -1.4524 -1.7513  1.3539
 7724SOL     OW34804   4.041   1.000  11.265  0.4387  0.3650 -0.0136
 7724SOL    HW134805   4.131   0.996  11.233  0.0207  0.9948 -1.2612
 7724SOL    HW234806   4.048   0.926  11.324  0.5977  0.2605 -0.1656
 7725SOL     OW34807   0.161   3.799   2.864  0.1819 -0.1503 -0.0340
 7725SOL    HW134808   0.178   3.779   2.956 -0.8517 -0.5706  0.0712
 7725SOL    HW234809   0.163   3.895   2.862  1.1592 -0.1438  1.3725
 7726SOL     OW34810   4.571   2.706   8.740 -0.4738 -0.6119 -0.4616
 7726SOL    HW134811   4.647   2.765   8.735 -0.9838 -0.1242 -2.3534
 7726SOL    HW234812   4.506   2.759   8.694  0.6753  3.0636  2.0466
 7727SOL     OW34813   0.206   2.626   5.999  0.3939  0.7311 -0.4213
 7727SOL    HW134814   0.269   2.680   5.951  1.3399  0.3431  0.3745
 7727SOL    HW234815   0.182   2.555   5.940 -0.5971 -0.7262  1.7601
 7728SOL     OW34816   0.005   2.465   1.295  0.2956 -0.5581 -0.2776
 7728SOL    HW134817   0.043   2.466   1.383  1.3421 -2.6083 -0.7135
 7728SOL    HW234818   4.693   2.550   1.298  2.4844  0.5516  0.1412
 7729SOL     OW34819   3.882   4.643   6.585  0.3916 -0.2637  0.0877
 7729SOL    HW134820   3.937   4.564   6.594 -0.4814 -0.7466  1.2053
 7729SOL    HW234821   3.918   4.689   6.661 -0.4074  0.0638  0.2679
 7730SOL     OW34822   3.884   1.324   5.938  0.3213 -0.5924  0.0101
 7730SOL    HW134823   3.831   1.400   5.915  1.5717  0.4686  0.6231
 7730SOL    HW234824   3.830   1.257   5.894  0.3693 -0.0379 -0.8980
 7731SOL     OW34825   2.444   0.851   2.898 -0.0312  0.3224  0.1479
 7731SOL    HW134826   2.533   0.820   2.914  0.1797  1.7340  1.6209
 7731SOL    HW234827   2.409   0.892   2.977 -0.0699 -0.9576  0.8010
 7732SOL     OW34828   0.784   4.095   7.079  0.0846  0.2349  0.0054
 7732SOL    HW134829   0.779   4.188   7.100 -0.8538  0.0881  0.4270
 7732SOL    HW234830   0.750   4.060   7.161  1.5281  0.9637  0.9121
 7733SOL     OW34831   1.624   0.423  13.247 -0.2246 -0.0444  0.4281
 7733SOL    HW134832   1.613   0.493  13.311  0.9744  2.1576 -1.7664
 7733SOL    HW234833   1.588   0.349  13.296 -0.9988 -0.5263 -0.8636
 7734SOL     OW34834   2.783   1.086   7.395  0.4379 -0.3164  0.5246
 7734SOL    HW134835   2.709   1.071   7.455  0.3116 -0.6576  0.2818
 7734SOL    HW234836   2.826   1.008   7.429 -0.6661 -0.9131  0.5559
 7735SOL     OW34837   3.405   0.492  13.525  0.1860  0.9621 -0.1049
 7735SOL    HW134838   3.386   0.439  13.448 -1.3841 -0.0789  0.9966
 7735SOL    HW234839   3.315   0.498  13.557 -0.6968 -1.0407 -2.2525
 7736SOL     OW34840   0.416   0.013   3.058  0.1346 -0.5464 -0.0549
 7736SOL    HW134841   0.410   4.692   3.138 -0.7441  4.6988  3.3193
 7736SOL    HW234842   0.510   0.002   3.042  0.2443 -1.3576  1.1344
 7737SOL     OW34843   3.976   4.280   5.822  0.0081 -0.7163 -0.2479
 7737SOL    HW134844   3.922   4.262   5.899 -0.9134  0.3990 -0.6125
 7737SOL    HW234845   4.054   4.299   5.873 -1.7273 -0.2905  2.2250
 7738SOL     OW34846   1.981   1.005   5.555  0.3133 -0.1906  0.0837
 7738SOL    HW134847   2.025   0.928   5.591  1.1313  0.6612  0.9236
 7738SOL    HW234848   1.894   0.991   5.593  0.0965  0.5044 -0.1478
 7739SOL     OW34849   3.997   0.715   8.620  0.1070  0.3841 -0.7748
 7739SOL    HW134850   3.992   0.662   8.541  0.4876  0.6306 -0.9622
 7739SOL    HW234851   3.973   0.804   8.593 -2.5159  0.0899  0.5737
 7740SOL     OW34852   3.822   2.936  10.109 -0.1899 -0.4258 -0.0724
 7740SOL    HW134853   3.744   2.907  10.062  0.7137  0.5012 -2.1404
 7740SOL    HW234854   3.886   2.870  10.081  1.9256  1.1555  1.0802
 7741SOL     OW34855   0.091   2.505   7.592 -0.3741 -0.5746  0.2072
 7741SOL    HW134856   0.125   2.424   7.552 -2.5665 -1.3552 -0.0926
 7741SOL    HW234857   0.083   2.562   7.516  1.2628 -1.3924 -0.5821
 7742SOL     OW34858   0.883   3.991   4.476 -0.0798  0.0105 -0.0306
 7742SOL    HW134859   0.933   4.041   4.541  0.7157 -0.3597 -0.3532
 7742SOL    HW234860   0.819   3.946   4.531  2.5084 -1.9226  1.3896
 7743SOL     OW34861   3.363   3.200   9.230  0.1103  0.2034  0.3186
 7743SOL    HW134862   3.359   3.105   9.222  0.7841  0.0850  1.2738
 7743SOL    HW234863   3.335   3.235   9.146 -2.0658 -0.7484  0.6736
 7744SOL     OW34864   4.019   2.875   5.093 -0.1881 -0.6795 -0.9864
 7744SOL    HW134865   4.053   2.947   5.147  2.2490 -2.5981  0.0220
 7744SOL    HW234866   3.925   2.875   5.114 -0.2218  1.7294 -1.1218
 7745SOL     OW34867   2.388   3.086  15.761  0.6668 -0.3297  0.0103
 7745SOL    HW134868   2.327   3.158  15.778 -0.9682 -1.5977 -0.5632
 7745SOL    HW234869   2.472   3.132  15.763 -0.0095  0.9345 -0.0142
 7746SOL     OW34870   2.808   0.332   3.796 -0.1420  0.0162  0.0538
 7746SOL    HW134871   2.890   0.357   3.754  1.6589 -2.3004  2.2053
 7746SOL    HW234872   2.820   0.373   3.882  0.9052  0.8760 -0.5045
 7747SOL     OW34873   2.574   1.051   9.080  0.1403 -0.5382 -0.3932
 7747SOL    HW134874   2.571   0.989   9.152 -0.8891  0.8332  0.7442
 7747SOL    HW234875   2.594   0.992   9.008  0.9201 -1.7159  0.8079
 7748SOL     OW34876   2.561   2.369  12.027 -0.1761 -0.3765 -0.0359
 7748SOL    HW134877   2.575   2.282  11.988  1.5425 -0.0221 -0.2089
 7748SOL    HW234878   2.575   2.425  11.950  2.1190 -0.7102  0.1370
 7749SOL     OW34879   0.148   1.833   3.188 -0.4457 -0.3523 -0.9818
 7749SOL    HW134880   0.215   1.896   3.161 -0.3722  0.2704  0.6399
 7749SOL    HW234881   0.070   1.861   3.140 -1.2921  1.3187  1.4068
 7750SOL     OW34882   2.749   1.883   1.078 -0.3006  0.4965 -0.3946
 7750SOL    HW134883   2.706   1.959   1.039  1.2029  0.4965 -2.0398
 7750SOL    HW234884   2.778   1.919   1.161  0.8205 -1.3192 -0.0152
 7751SOL     OW34885   0.321   4.317  10.073 -0.0585 -1.2068  0.6355
 7751SOL    HW134886   0.414   4.318  10.049 -0.3325 -2.5828 -0.4879
 7751SOL    HW234887   0.314   4.222  10.058 -1.7168 -1.0066  0.2268
 7752SOL     OW34888   1.877   1.136  11.232  0.3915 -0.2899  0.0973
 7752SOL    HW134889   1.830   1.198  11.289  0.2741  1.9301 -2.4311
 7752SOL    HW234890   1.956   1.188  11.216 -0.9195  1.9923  0.9928
 7753SOL     OW34891   3.480   4.550   1.311 -0.1761  0.4302  0.2140
 7753SOL    HW134892   3.399   4.548   1.362  0.3456 -0.7165  0.9999
 7753SOL    HW234893   3.540   4.555   1.385  1.1972 -4.8512 -0.5463
 7754SOL     OW34894   2.507   0.678   5.449  0.1101  0.8117 -0.3968
 7754SOL    HW134895   2.595   0.707   5.473  0.7705 -1.3855 -0.1563
 7754SOL    HW234896   2.513   0.657   5.355  0.7309  2.2013 -0.6586
 7755SOL     OW34897   1.406   1.488   2.924  0.0067 -0.4477  0.5053
 7755SOL    HW134898   1.452   1.494   2.840  0.3668  1.8477  0.8434
 7755SOL    HW234899   1.470   1.438   2.974  0.0978  0.8335  1.6761
 7756SOL     OW34900   0.088   1.089   2.533  0.0425 -0.0598 -0.5212
 7756SOL    HW134901   0.043   1.074   2.450  1.5866 -1.1534 -1.1642
 7756SOL    HW234902   0.149   1.156   2.503 -1.6186  2.4386  1.6948
 7757SOL     OW34903   3.082   3.781   1.349 -0.1856 -0.2759 -0.0179
 7757SOL    HW134904   3.177   3.785   1.363 -0.3262  0.3557  0.7584
 7757SOL    HW234905   3.048   3.838   1.418 -1.2871 -0.0135 -0.7698
 7758SOL     OW34906   2.555   2.468   7.777 -0.6017 -0.1482  0.1568
 7758SOL    HW134907   2.594   2.409   7.840  0.7290  0.9374  0.3329
 7758SOL    HW234908   2.508   2.534   7.828 -0.7953 -0.4210  0.3339
 7759SOL     OW34909   1.243   0.791   5.813  0.7255  0.1797 -0.4530
 7759SOL    HW134910   1.316   0.820   5.758  0.0937  1.0416 -0.8432
 7759SOL    HW234911   1.212   0.719   5.759  2.7363 -0.8631 -0.2057
 7760SOL     OW34912   4.225   0.351   5.311  0.3836  0.3989  0.1877
 7760SOL    HW134913   4.250   0.281   5.372  0.8892  1.1319  0.8196
 7760SOL    HW234914   4.262   0.318   5.228 -1.1921 -0.0643 -0.3243
 7761SOL     OW34915   3.931   2.486   2.999 -0.5925 -0.4187 -0.4904
 7761SOL    HW134916   3.923   2.459   2.908  2.2405  3.0828 -1.8029
 7761SOL    HW234917   4.006   2.433   3.027  0.2422  0.2156 -1.5530
 7762SOL     OW34918   2.083   1.942   8.363  0.0790  0.6629  0.3240
 7762SOL    HW134919   2.006   1.972   8.315 -0.8815  2.0350  2.6898
 7762SOL    HW234920   2.086   1.862   8.310 -1.1779 -0.0253  1.2650
 7763SOL     OW34921   1.834   4.688   7.839  0.0083  0.2628  0.0597
 7763SOL    HW134922   1.777   4.658   7.910 -0.2168  1.5458  0.4040
 7763SOL    HW234923   1.909   4.627   7.838 -0.9008 -0.8339 -0.8652
 7764SOL     OW34924   0.764   1.597   7.534  0.0478  0.3466 -0.1403
 7764SOL    HW134925   0.671   1.601   7.554  0.4155  0.7092  1.4934
 7764SOL    HW234926   0.795   1.621   7.622  0.2460 -1.6009  0.3175
 7765SOL     OW34927   1.637   1.523   2.688 -0.2423  0.1196  0.2239
 7765SOL    HW134928   1.718   1.574   2.684 -1.3689  1.9743  1.2064
 7765SOL    HW234929   1.600   1.552   2.604 -1.0259 -1.1032  0.1565
 7766SOL     OW34930   2.376   4.302   8.332 -0.3055 -0.6640 -0.2495
 7766SOL    HW134931   2.406   4.338   8.249  2.3239  0.1199  1.0339
 7766SOL    HW234932   2.302   4.249   8.304  0.0103 -0.1867 -1.9863
 7767SOL     OW34933   2.492   2.884   8.376 -0.1192 -0.0141 -0.7181
 7767SOL    HW134934   2.484   2.802   8.423  0.2576 -0.8948 -2.2036
 7767SOL    HW234935   2.585   2.898   8.358  0.6578 -1.5953  2.0247
 7768SOL     OW34936   3.453   0.507   4.993 -0.4102  0.1641  0.0586
 7768SOL    HW134937   3.445   0.530   5.086 -2.1831  0.4831 -0.1685
 7768SOL    HW234938   3.483   0.416   4.994  0.0348  0.2834 -2.5943
 7769SOL     OW34939   2.615   0.431   4.252  0.0235 -0.2311  0.5280
 7769SOL    HW134940   2.702   0.404   4.279  0.9796 -0.1620 -2.5593
 7769SOL    HW234941   2.597   0.383   4.171  1.4408  0.6316 -0.2907
 7770SOL     OW34942   2.579   2.757   2.249 -0.2768  0.0226  0.2341
 7770SOL    HW134943   2.661   2.753   2.199 -0.4401  2.7096 -0.2338
 7770SOL    HW234944   2.520   2.815   2.200  2.2276  0.3747 -2.3966
 7771SOL     OW34945   4.108   3.315   3.790 -0.2027  0.0532 -0.3691
 7771SOL    HW134946   4.196   3.348   3.811  0.1116 -1.4163  0.5745
 7771SOL    HW234947   4.074   3.386   3.735  0.6323  0.2715 -0.6066
 7772SOL     OW34948   0.452   1.882   6.411 -0.2088  0.5249 -0.0936
 7772SOL    HW134949   0.453   1.952   6.346  1.8455 -0.7063 -1.3724
 7772SOL    HW234950   0.391   1.926   6.471 -1.2120  1.0091 -1.4883
 7773SOL     OW34951   3.719   2.708  11.582  0.0799 -0.6969  0.2342
 7773SOL    HW134952   3.755   2.738  11.666 -0.5508 -2.1806  1.0488
 7773SOL    HW234953   3.784   2.746  11.525  0.2873  0.6467  1.3701
 7774SOL     OW34954   2.572   2.821   6.430 -0.3288  0.3336 -0.0345
 7774SOL    HW134955   2.559   2.809   6.336 -0.7044  1.1464 -0.0907
 7774SOL    HW234956   2.662   2.853   6.427  0.1056 -0.9226 -0.2806
 7775SOL     OW34957   2.827   2.315   7.550 -0.0003 -0.3315 -0.0608
 7775SOL    HW134958   2.764   2.259   7.596  0.4290 -2.2158 -1.7803
 7775SOL    HW234959   2.832   2.270   7.466 -0.3225 -1.2939  0.4383
 7776SOL     OW34960   0.563   3.676   8.436 -0.1627  0.0436 -0.1751
 7776SOL    HW134961   0.633   3.731   8.473  0.9150 -1.0067 -0.6322
 7776SOL    HW234962   0.562   3.705   8.345 -2.8976 -2.0968 -0.8055
 7777SOL     OW34963   3.349   3.368   6.889  0.3293  0.0502 -0.5250
 7777SOL    HW134964   3.328   3.451   6.932  1.9760  0.4855 -0.5575
 7777SOL    HW234965   3.438   3.348   6.918  0.6435  2.0349 -0.1070
 7778SOL     OW34966   0.270   4.513  14.665  0.3446 -0.1542  0.0280
 7778SOL    HW134967   0.334   4.585  14.659  0.4533 -0.2443  0.1014
 7778SOL    HW234968   0.214   4.537  14.591  2.1257 -0.6878 -1.5161
 7779SOL     OW34969   4.516   3.807   3.739 -0.1384 -0.2179  0.5448
 7779SOL    HW134970   4.596   3.779   3.694 -0.9673 -0.7582 -0.6031
 7779SOL    HW234971   4.455   3.746   3.698 -2.4997  2.6171 -0.2244
 7780SOL     OW34972   1.472   2.690  13.278 -0.2057 -0.0327  0.4973
 7780SOL    HW134973   1.522   2.662  13.355 -0.4645  2.7890  1.6916
 7780SOL    HW234974   1.409   2.619  13.271  1.2234 -1.3178  0.7849
 7781SOL     OW34975   4.575   3.507  14.208  0.2183 -0.2546 -0.5602
 7781SOL    HW134976   4.636   3.580  14.205  0.3281 -0.2319  2.2735
 7781SOL    HW234977   4.599   3.474  14.121  3.0250  2.5569 -0.8561
 7782SOL     OW34978   0.011   1.928   6.524 -0.6545  0.1430 -0.7765
 7782SOL    HW134979   4.701   1.885   6.449  2.6300 -1.1601 -1.8553
 7782SOL    HW234980   0.059   1.859   6.569  2.3446  1.1664 -2.4531
 7783SOL     OW34981   2.281   3.641   2.088 -0.2337 -0.2713 -0.0769
 7783SOL    HW134982   2.291   3.639   2.183 -3.0016 -3.9037  0.1196
 7783SOL    HW234983   2.322   3.724   2.061 -0.3744 -0.2098 -0.0982
 7784SOL     OW34984   1.894   3.711  12.333 -1.2131  0.1245  0.3195
 7784SOL    HW134985   1.917   3.619  12.320  0.2633  0.4402  0.6175
 7784SOL    HW234986   1.981   3.744  12.356 -0.6018 -0.3913 -1.2680
 7785SOL     OW34987   0.370   1.785   2.518  0.4826  0.3388  0.2111
 7785SOL    HW134988   0.297   1.758   2.463  1.1218 -0.0325 -0.4552
 7785SOL    HW234989   0.349   1.757   2.607 -1.1533 -0.4399 -0.4213
 7786SOL     OW34990   3.331   3.315   3.257  0.0574  0.8603 -0.3825
 7786SOL    HW134991   3.310   3.408   3.266  1.4479  1.0034  1.4567
 7786SOL    HW234992   3.368   3.303   3.344  0.3494  0.3849 -0.5691
 7787SOL     OW34993   3.286   4.109  14.102  0.4310  0.4177 -0.0307
 7787SOL    HW134994   3.257   4.019  14.091 -0.3110  0.3758  2.1846
 7787SOL    HW234995   3.287   4.112  14.198  2.7459 -2.8185  0.0366
 7788SOL     OW34996   4.702   0.698  14.889 -0.0662 -0.6207 -0.2230
 7788SOL    HW134997   0.041   0.750  14.928  2.5476 -4.5670  0.3375
 7788SOL    HW234998   4.727   0.690  14.797  3.1706  1.9461  0.4243
 7789SOL     OW34999   2.938   3.801   7.862 -0.7917 -0.4837  0.3937
 7789SOL    HW135000   2.858   3.761   7.896 -2.3199  0.6625 -1.8945
 7789SOL    HW235001   2.997   3.798   7.937 -1.0616  0.0328  0.6267
 7790SOL     OW35002   3.502   0.918  10.553 -0.0789  0.3353  0.2937
 7790SOL    HW135003   3.529   0.888  10.466 -0.3792 -0.1218  0.3569
 7790SOL    HW235004   3.410   0.893  10.551 -0.3940  1.5528 -0.0899
 7791SOL     OW35005   3.601   1.029   2.876 -0.7579 -0.1638  0.0831
 7791SOL    HW135006   3.619   1.007   2.967  0.7444  1.8288  0.2794
 7791SOL    HW235007   3.630   1.120   2.867 -0.8605 -0.1754 -0.3660
 7792SOL     OW35008   1.467   3.917   8.165  0.1634 -0.3275 -0.8334
 7792SOL    HW135009   1.441   4.007   8.183  3.2691  0.8109 -2.0966
 7792SOL    HW235010   1.456   3.919   8.070  1.8576 -3.7579 -1.1024
 7793SOL     OW35011   1.582   4.257   3.921 -0.1248 -0.3821 -0.1108
 7793SOL    HW135012   1.668   4.217   3.914  0.4732  0.7585  0.7396
 7793SOL    HW235013   1.597   4.345   3.886  1.3289 -0.3690  0.5417
 7794SOL     OW35014   2.381   4.223   2.386 -0.0590  0.3520  0.1898
 7794SOL    HW135015   2.301   4.188   2.426 -1.2912  1.2029 -1.5316
 7794SOL    HW235016   2.375   4.310   2.425 -0.3125  0.5692 -0.3459
 7795SOL     OW35017   0.755   4.176   8.637 -0.7545 -0.6986  0.8103
 7795SOL    HW135018   0.716   4.262   8.617  0.4679 -0.7810 -1.9151
 7795SOL    HW235019   0.798   4.200   8.718  1.2455 -0.6231 -0.2751
 7796SOL     OW35020   1.485   2.995   4.065  1.0147 -0.0731  0.0301
 7796SOL    HW135021   1.555   2.941   4.102 -0.6034 -0.6026  2.3189
 7796SOL    HW235022   1.536   3.068   4.031 -0.3457  0.4637 -0.8608
 7797SOL     OW35023   4.467   2.198  11.683 -0.2643 -0.2660  0.2570
 7797SOL    HW135024   4.421   2.227  11.761 -1.3149  4.1063 -1.9919
 7797SOL    HW235025   4.420   2.117  11.662 -0.4630 -0.4130  1.3026
 7798SOL     OW35026   3.108   3.305  14.872 -0.1879 -0.2862 -0.3552
 7798SOL    HW135027   3.103   3.215  14.905  1.9257 -0.7225 -1.1636
 7798SOL    HW235028   3.072   3.283  14.786 -1.0355 -0.8735  0.1500
 7799SOL     OW35029   3.723   1.119   7.946 -0.1935 -0.2683  0.2460
 7799SOL    HW135030   3.808   1.130   7.989 -0.2426 -0.8662  0.5117
 7799SOL    HW235031   3.678   1.052   7.998 -1.8253 -0.5549 -1.5567
 7800SOL     OW35032   3.016   3.858   7.614  0.4086  0.2315  0.0390
 7800SOL    HW135033   2.997   3.780   7.563  1.9115  0.2295 -0.5090
 7800SOL    HW235034   3.001   3.820   7.701 -1.2381  1.5338  0.3386
 7801SOL     OW35035   4.424   2.444   1.658  0.2973  0.0494 -0.0861
 7801SOL    HW135036   4.487   2.377   1.686 -1.7808 -1.7529  0.2338
 7801SOL    HW235037   4.396   2.478   1.743  1.8190  0.3065  0.3178
 7802SOL     OW35038   3.504   2.766   5.518  0.5706 -0.6830  0.0800
 7802SOL    HW135039   3.446   2.718   5.577 -0.3292  1.0008  0.5420
 7802SOL    HW235040   3.525   2.843   5.571  0.6280  0.4980 -1.6639
 7803SOL     OW35041   0.943   0.668   6.305 -0.2126  0.4947  0.5449
 7803SOL    HW135042   1.006   0.737   6.327  0.0001  1.0643 -1.8686
 7803SOL    HW235043   0.958   0.651   6.212 -0.6051  0.7864  0.4335
 7804SOL     OW35044   3.840   0.951   8.453 -0.2345  0.4349 -0.6149
 7804SOL    HW135045   3.815   1.028   8.503  0.7760  0.2931  0.1017
 7804SOL    HW235046   3.790   0.951   8.371  0.4932  2.2014 -1.0491
 7805SOL     OW35047   3.796   2.845  12.967 -0.3756  0.4798  0.6011
 7805SOL    HW135048   3.852   2.839  13.045 -1.4402 -1.4014  1.2271
 7805SOL    HW235049   3.769   2.936  12.978 -0.9589  0.4142 -0.3565
 7806SOL     OW35050   4.606   4.691  16.361 -0.3247 -0.1891 -0.0199
 7806SOL    HW135051   4.628   0.045  16.326 -0.5436 -0.6821 -1.3613
 7806SOL    HW235052   4.517   4.706  16.393 -0.1137 -0.4417  0.7006
 7807SOL     OW35053   3.607   0.804   7.242  0.3623 -0.4960  0.4592
 7807SOL    HW135054   3.626   0.897   7.256  1.5484 -0.9840  2.0983
 7807SOL    HW235055   3.511   0.814   7.238  0.8378  4.1426  0.4442
 7808SOL     OW35056   0.155   0.461   3.666  0.1987  0.2964  0.4800
 7808SOL    HW135057   0.069   0.491   3.693 -0.8925 -0.6115 -1.9359
 7808SOL    HW235058   0.204   0.477   3.746 -1.1823 -0.3153  1.4428
 7809SOL     OW35059   3.032   3.247   7.014 -0.2331 -0.1522 -0.3496
 7809SOL    HW135060   2.956   3.192   7.026 -0.7195  0.7966  0.9335
 7809SOL    HW235061   3.094   3.188   6.970  1.2548  0.5719  0.7629
 7810SOL     OW35062   1.857   2.679   9.282  0.2059  0.0671 -0.4697
 7810SOL    HW135063   1.820   2.627   9.354  1.4682 -0.1222  0.0491
 7810SOL    HW235064   1.807   2.637   9.212  0.0316  0.6339 -0.6876
 7811SOL     OW35065   3.692   4.577   1.523 -0.3823 -0.0088 -1.3029
 7811SOL    HW135066   3.730   4.495   1.492  1.5046  0.5931 -0.5117
 7811SOL    HW235067   3.766   4.637   1.529 -0.4742 -0.2238  1.7038
 7812SOL     OW35068   1.144   2.748   7.524 -0.0601  0.1087 -0.2991
 7812SOL    HW135069   1.137   2.774   7.616 -0.7075  2.5905 -1.0412
 7812SOL    HW235070   1.088   2.671   7.521  1.1969 -0.8788  1.6136
 7813SOL     OW35071   3.251   3.738  15.552  0.1464  0.2719 -0.1137
 7813SOL    HW135072   3.253   3.759  15.459  3.9937  0.3782 -0.0179
 7813SOL    HW235073   3.327   3.682  15.565  1.6231  2.2035 -0.4408
 7814SOL     OW35074   1.976   4.567   6.924 -0.5873 -0.1146  0.0510
 7814SOL    HW135075   2.021   4.607   6.998  1.7015 -1.2057 -0.7422
 7814SOL    HW235076   2.044   4.552   6.858 -0.6599  1.4637 -0.3878
 7815SOL     OW35077   2.041   2.462   8.260  0.0622  0.0898 -0.1585
 7815SOL    HW135078   1.953   2.430   8.277 -0.4319  1.7369  0.3862
 7815SOL    HW235079   2.091   2.381   8.257 -0.0406  0.0580 -0.8468
 7816SOL     OW35080   3.156   1.286   1.764 -0.1558  0.0847  0.4452
 7816SOL    HW135081   3.087   1.225   1.738 -1.9332  2.1901  0.3331
 7816SOL    HW235082   3.128   1.289   1.855 -1.3324 -0.3681  0.0951
 7817SOL     OW35083   0.408   0.695   6.120 -0.6733 -0.9196 -0.0062
 7817SOL    HW135084   0.378   0.674   6.031  0.8396  1.4893 -1.0840
 7817SOL    HW235085   0.392   0.790   6.121  3.2158 -0.2499  0.5710
 7818SOL     OW35086   1.197   0.087   2.459  0.3208 -0.1269  0.1821
 7818SOL    HW135087   1.118   0.138   2.441  0.9847  0.0771 -2.2257
 7818SOL    HW235088   1.173   4.727   2.454 -1.0172  0.3312 -1.8104
 7819SOL     OW35089   2.507   1.064   2.424  0.0894 -0.9663 -0.5556
 7819SOL    HW135090   2.535   0.990   2.371  1.0428 -1.9966  1.3472
 7819SOL    HW235091   2.573   1.128   2.396 -1.0084  0.7325  0.7008
 7820SOL     OW35092   3.427   0.909   2.643 -0.1298 -0.1105  0.1606
 7820SOL    HW135093   3.491   0.938   2.708 -0.8995  3.1305 -0.5481
 7820SOL    HW235094   3.457   0.968   2.574 -0.7081 -1.0666 -0.9148
 7821SOL     OW35095   0.130   2.955  16.326 -0.2794  0.0733 -0.3065
 7821SOL    HW135096   0.191   2.881  16.320 -0.9638 -0.3826 -1.6903
 7821SOL    HW235097   0.099   2.954  16.235  0.8387 -1.3024 -0.6807
 7822SOL     OW35098   0.538   1.774   8.078 -0.7263  0.2803  0.3931
 7822SOL    HW135099   0.565   1.852   8.030 -1.2073  1.8589  2.7075
 7822SOL    HW235100   0.621   1.748   8.119 -0.7928 -0.1691  0.2381
 7823SOL     OW35101   4.101   4.016   8.412  0.3193 -0.2604 -0.3760
 7823SOL    HW135102   4.114   4.088   8.474  3.1242 -1.8038  0.8357
 7823SOL    HW235103   4.189   3.978   8.418  0.1364 -0.6293 -0.0074
 7824SOL     OW35104   4.359   4.068   3.147  0.1498  0.1096 -0.0555
 7824SOL    HW135105   4.320   4.114   3.222  0.7309 -0.3043  0.4965
 7824SOL    HW235106   4.290   4.003   3.132 -0.0169 -0.1245  1.6896
 7825SOL     OW35107   0.613   2.534   7.200 -0.1003  0.0232 -0.3504
 7825SOL    HW135108   0.601   2.544   7.294  0.4675  0.1512 -0.2935
 7825SOL    HW235109   0.638   2.624   7.179 -1.0701  0.0782 -1.2944
 7826SOL     OW35110   0.222   2.209  15.089  0.7595 -0.0051 -0.0143
 7826SOL    HW135111   0.156   2.254  15.140  0.1827 -0.6906 -0.1576
 7826SOL    HW235112   0.181   2.178  15.008 -2.0498  2.0662  0.6321
 7827SOL     OW35113   2.314   4.474   9.716 -0.1782 -0.1606  0.1091
 7827SOL    HW135114   2.272   4.553   9.748 -1.6443 -0.5045 -0.9107
 7827SOL    HW235115   2.279   4.484   9.627 -2.6554 -1.0648  0.9640
 7828SOL     OW35116   0.681   4.028  12.997 -0.6821 -0.0940  0.4883
 7828SOL    HW135117   0.676   3.992  13.086 -0.0788 -1.1133  0.1148
 7828SOL    HW235118   0.680   3.949  12.944 -1.2954 -0.4019  0.9598
 7829SOL     OW35119   4.242   1.959   1.151 -0.2087  0.0790 -0.2229
 7829SOL    HW135120   4.210   1.868   1.146 -0.9853  0.5359 -3.1682
 7829SOL    HW235121   4.309   1.962   1.083  1.4040 -0.3748  1.3528
 7830SOL     OW35122   0.156   3.690  15.664 -0.0572 -0.1428  0.0998
 7830SOL    HW135123   0.143   3.782  15.640 -1.8146 -0.7454 -1.2817
 7830SOL    HW235124   0.249   3.675  15.646 -0.5628  0.0577 -2.7676
 7831SOL     OW35125   4.720   0.211   4.473 -0.5888  0.3806  0.6846
 7831SOL    HW135126   4.636   0.202   4.517 -2.0628  0.7383 -2.0420
 7831SOL    HW235127   4.711   0.289   4.418  0.7393 -0.0190 -0.1124
 7832SOL     OW35128   2.700   0.658   7.890 -0.8457 -0.2866  0.3174
 7832SOL    HW135129   2.700   0.579   7.945  1.6142 -0.3418  0.2418
 7832SOL    HW235130   2.612   0.695   7.895 -1.7860 -2.2522 -2.1856
 7833SOL     OW35131   1.345   0.774   1.878 -0.9146  0.6653  0.3199
 7833SOL    HW135132   1.409   0.801   1.812 -1.4304  1.5025  0.1728
 7833SOL    HW235133   1.268   0.812   1.838 -1.6312 -0.8258  0.2749
 7834SOL     OW35134   0.801   0.239   7.179  0.6357 -0.6280  0.0709
 7834SOL    HW135135   0.807   0.329   7.211  1.7397  0.2302 -2.5119
 7834SOL    HW235136   0.707   0.225   7.184  0.4629 -0.1808 -1.9714
 7835SOL     OW35137   1.842   1.888   3.347  1.0031 -0.1677 -0.5108
 7835SOL    HW135138   1.850   1.970   3.297  2.3099  0.0280  0.0237
 7835SOL    HW235139   1.756   1.870   3.309 -0.4995  0.2724  2.6802
 7836SOL     OW35140   3.862   2.268   5.803 -0.0686 -0.1925  0.0623
 7836SOL    HW135141   3.772   2.279   5.834 -0.1207  1.5554 -0.6910
 7836SOL    HW235142   3.909   2.237   5.881 -1.1307 -1.5055  0.1744
 7837SOL     OW35143   4.110   4.016   5.208 -0.3348 -0.3652  0.1815
 7837SOL    HW135144   4.065   3.937   5.235  1.1461 -0.9985  0.8056
 7837SOL    HW235145   4.200   4.002   5.238  0.0621  1.2608 -0.2088
 7838SOL     OW35146   0.692   1.807   6.725 -0.1872 -0.2609 -0.0067
 7838SOL    HW135147   0.677   1.850   6.809 -1.2968 -1.2142  0.2737
 7838SOL    HW235148   0.686   1.882   6.665 -1.9695 -0.4169  0.0051
 7839SOL     OW35149   3.163   0.728   5.949  0.0467  0.1058 -0.0235
 7839SOL    HW135150   3.165   0.719   5.854  0.7962  2.1509 -0.2161
 7839SOL    HW235151   3.255   0.711   5.968 -0.6024 -1.1724  2.0107
 7840SOL     OW35152   0.838   1.527   4.377  1.0738  0.7521  0.0211
 7840SOL    HW135153   0.744   1.517   4.386  1.2162 -0.5162  0.0934
 7840SOL    HW235154   0.871   1.451   4.424 -1.0520  1.6341  2.9429
 7841SOL     OW35155   0.869   2.535  14.903 -0.0668  0.2285  0.1974
 7841SOL    HW135156   0.878   2.590  14.825  0.3659 -3.1761 -2.1723
 7841SOL    HW235157   0.778   2.505  14.903 -0.3940  1.2174  1.5063
 7842SOL     OW35158   1.372   1.171   3.084  0.3517 -0.4177  0.0357
 7842SOL    HW135159   1.461   1.197   3.061  0.1068  1.6191  1.3970
 7842SOL    HW235160   1.341   1.160   2.994  0.2589  0.8981 -0.1042
 7843SOL     OW35161   3.159   2.734  12.157 -0.4242  0.2342 -0.3627
 7843SOL    HW135162   3.239   2.745  12.107  0.7461  1.1138  1.6911
 7843SOL    HW235163   3.201   2.696  12.234  0.2241  1.3457 -0.1583
 7844SOL     OW35164   0.444   1.774   3.027  0.6554 -0.4368  0.0692
 7844SOL    HW135165   0.441   1.711   3.099 -2.7980  1.4673  1.6231
 7844SOL    HW235166   0.367   1.823   3.058  2.0004  1.3669  0.5551
 7845SOL     OW35167   1.094   0.599   3.393  0.1807 -0.0069  0.2085
 7845SOL    HW135168   1.048   0.523   3.431  0.5284  0.3363  1.2922
 7845SOL    HW235169   1.154   0.617   3.465 -1.0056 -0.0406  1.2241
 7846SOL     OW35170   2.340   1.050   5.005  0.0371 -0.6325  0.7591
 7846SOL    HW135171   2.337   1.139   5.041  0.1529 -0.8219  1.2401
 7846SOL    HW235172   2.280   1.056   4.931  0.2251  0.4324  0.6930
 7847SOL     OW35173   3.162   1.368  12.084 -0.1229  0.4644 -0.0051
 7847SOL    HW135174   3.068   1.349  12.087 -0.1650  0.4111 -1.3013
 7847SOL    HW235175   3.169   1.414  12.000  1.8932  0.0619 -0.0683
 7848SOL     OW35176   3.059   1.091   8.917  0.0285  0.0561  0.3651
 7848SOL    HW135177   3.153   1.084   8.929  0.0307  0.0274  0.3286
 7848SOL    HW235178   3.055   1.187   8.915 -1.1288  0.0476  2.1744
 7849SOL     OW35179   4.072   4.238   5.075 -0.1080 -0.4947 -0.3216
 7849SOL    HW135180   4.018   4.267   5.149  1.6964  2.7458 -0.2742
 7849SOL    HW235181   4.088   4.150   5.109 -0.1129 -0.6969 -0.8439
 7850SOL     OW35182   1.399   2.250   2.403 -0.5978 -0.3451  0.6863
 7850SOL    HW135183   1.395   2.164   2.362  3.7078  0.3537 -1.1983
 7850SOL    HW235184   1.306   2.271   2.410 -0.9412 -1.3325 -0.9234
 7851SOL     OW35185   3.190   2.907  13.175  0.3489 -0.3892 -0.0827
 7851SOL    HW135186   3.197   2.951  13.260  1.1067  0.3284 -0.5210
 7851SOL    HW235187   3.169   2.982  13.119  0.8804 -0.0218  0.2109
 7852SOL     OW35188   4.414   2.687   4.990 -0.5950 -0.4132  0.2849
 7852SOL    HW135189   4.443   2.600   4.964  4.2395  1.0057  0.8838
 7852SOL    HW235190   4.330   2.696   4.945 -2.2613 -0.4361  3.4267
 7853SOL     OW35191   2.067   1.552   7.972  0.1336  0.2746  0.3265
 7853SOL    HW135192   2.149   1.541   7.924 -0.3406 -0.8611 -0.2033
 7853SOL    HW235193   2.099   1.610   8.042  1.0532  0.6497 -0.4028
 7854SOL     OW35194   1.992   0.404   8.446  0.3837 -0.0426 -0.0538
 7854SOL    HW135195   1.928   0.436   8.509 -1.0252 -0.6940 -1.1564
 7854SOL    HW235196   2.066   0.449   8.486  0.4110 -0.9114  0.8758
 7855SOL     OW35197   2.492   3.259   2.445  0.0982 -0.1851  0.2253
 7855SOL    HW135198   2.549   3.326   2.408 -0.9014 -1.2773 -3.2734
 7855SOL    HW235199   2.548   3.214   2.509 -0.5602  0.5309  1.3032
 7856SOL     OW35200   3.258   3.108   6.350  0.1450  0.1212  0.3193
 7856SOL    HW135201   3.314   3.163   6.405 -0.8956  1.2596  0.2425
 7856SOL    HW235202   3.330   3.057   6.313  0.9848 -0.3224  2.5534
 7857SOL     OW35203   3.247   3.636  14.506 -0.1864  0.4127 -0.2570
 7857SOL    HW135204   3.208   3.620  14.591 -1.2044  2.8462 -0.2544
 7857SOL    HW235205   3.282   3.549  14.486  0.4593  0.2259  1.7465
 7858SOL     OW35206   3.768   0.370   4.619  0.4904 -0.0361  0.0663
 7858SOL    HW135207   3.683   0.390   4.659  1.3030  0.2061  1.6667
 7858SOL    HW235208   3.816   0.332   4.692 -0.1998 -1.3127 -0.1410
 7859SOL     OW35209   1.814   4.268   5.602  0.1905  0.1914  0.1537
 7859SOL    HW135210   1.722   4.244   5.613  0.6350 -1.3342  0.4943
 7859SOL    HW235211   1.858   4.234   5.679  2.1078 -1.6089 -1.7443
 7860SOL     OW35212   1.277   2.292   5.640 -0.3567 -0.2519  0.2836
 7860SOL    HW135213   1.285   2.333   5.554 -0.3770  0.0581  0.4256
 7860SOL    HW235214   1.288   2.199   5.625 -0.3313 -0.2043  0.0208
 7861SOL     OW35215   3.929   2.027   4.422 -0.7712  0.2126 -0.4609
 7861SOL    HW135216   3.841   2.014   4.457 -0.9166  0.5117 -0.7202
 7861SOL    HW235217   3.983   1.982   4.488  0.1171  1.9303 -0.0121
 7862SOL     OW35218   1.318   1.073   6.347 -0.1222 -0.2326  0.7645
 7862SOL    HW135219   1.273   1.154   6.321  3.1954  1.4365  0.2904
 7862SOL    HW235220   1.377   1.098   6.418  0.3817 -1.0171  0.6189
 7863SOL     OW35221   0.307   2.760   3.047  0.0861 -0.5749  0.3448
 7863SOL    HW135222   0.396   2.724   3.041  0.7878  1.0391  0.8820
 7863SOL    HW235223   0.259   2.702   2.989  0.1344  0.9076 -1.1756
 7864SOL     OW35224   1.247   0.712  13.510  0.5941  0.4343  0.5418
 7864SOL    HW135225   1.177   0.647  13.522  0.0360  0.8035 -0.7964
 7864SOL    HW235226   1.232   0.732  13.418 -0.8359 -2.4175  0.1528
 7865SOL     OW35227   0.552   0.950   5.219  0.1648  0.3775 -0.2655
 7865SOL    HW135228   0.463   0.967   5.186  0.8592  0.9028 -1.8992
 7865SOL    HW235229   0.523   0.891   5.288  1.1318  0.0755 -0.1266
 7866SOL     OW35230   3.063   3.132  11.254 -0.0586 -0.0707  0.0729
 7866SOL    HW135231   2.983   3.084  11.277  0.5790 -0.7128  0.9765
 7866SOL    HW235232   3.128   3.067  11.283 -0.1212 -0.3034 -0.3099
 7867SOL     OW35233   3.192   3.199   2.668 -0.0972  0.9330  0.6877
 7867SOL    HW135234   3.264   3.263   2.667 -0.0762  0.9174  2.0492
 7867SOL    HW235235   3.138   3.251   2.608 -2.2728 -1.4276  0.5893
 7868SOL     OW35236   2.431   0.938   2.104 -0.1958  0.4394 -0.3952
 7868SOL    HW135237   2.356   0.879   2.108 -0.4745  0.7791 -0.6090
 7868SOL    HW235238   2.428   0.976   2.016 -0.2735 -1.2334 -1.1125
 7869SOL     OW35239   4.712   4.597   4.451  0.6630  0.3589 -0.9170
 7869SOL    HW135240   4.681   4.657   4.384 -0.7678  0.4899 -0.1499
 7869SOL    HW235241   4.639   4.536   4.442 -0.3853  1.4165  0.4677
 7870SOL     OW35242   2.263   3.303  10.967  0.0700  0.6395  0.1220
 7870SOL    HW135243   2.283   3.265  10.881 -0.8268 -0.0052  0.1949
 7870SOL    HW235244   2.348   3.331  10.999  0.0540  2.3071 -1.3148
 7871SOL     OW35245   4.023   3.975   2.702 -0.7383 -0.2404  0.5975
 7871SOL    HW135246   4.082   3.930   2.762  1.5890  0.0514 -1.4405
 7871SOL    HW235247   4.075   3.955   2.624  0.0547  2.0441  0.5182
 7872SOL     OW35248   4.059   3.544  10.024 -0.2890 -0.3887 -0.7765
 7872SOL    HW135249   4.120   3.542  10.098  0.5765 -1.1771 -1.5180
 7872SOL    HW235250   3.981   3.564  10.076 -0.3338 -0.9411 -0.6306
 7873SOL     OW35251   4.350   1.415   8.981 -0.0570 -0.1814 -0.1299
 7873SOL    HW135252   4.260   1.435   9.004  0.5364  1.4006  0.8103
 7873SOL    HW235253   4.371   1.497   8.936  2.2798 -0.8659 -0.3166
 7874SOL     OW35254   1.867   1.641  13.622 -0.0476 -0.0235 -0.1607
 7874SOL    HW135255   1.895   1.686  13.701  2.7195 -0.8471 -0.6761
 7874SOL    HW235256   1.949   1.650  13.575  0.3292 -1.2983  0.2584
 7875SOL     OW35257   1.966   0.596  11.454 -0.4834  0.1461  0.3083
 7875SOL    HW135258   1.893   0.648  11.421 -0.4195  0.7632  1.1164
 7875SOL    HW235259   1.935   0.508  11.473 -0.7600 -0.0799 -1.2587
 7876SOL     OW35260   4.553   1.888   3.485  0.1699 -0.2430  0.3643
 7876SOL    HW135261   4.570   1.846   3.569  0.0280  1.0910  1.0493
 7876SOL    HW235262   4.473   1.935   3.508  0.6608  0.9271 -0.2870
 7877SOL     OW35263   4.044   2.927   7.533 -0.3605  0.3156  0.2818
 7877SOL    HW135264   3.998   2.999   7.490  0.1480  0.5375  0.1090
 7877SOL    HW235265   4.033   2.935   7.627 -0.2078  1.1449  0.2298
 7878SOL     OW35266   4.125   4.452   0.359 -0.2619 -0.0430 -0.2194
 7878SOL    HW135267   4.141   4.393   0.286  1.6434 -0.5227  0.5795
 7878SOL    HW235268   4.035   4.433   0.386 -0.5444 -1.9089 -2.5673
 7879SOL     OW35269   0.550   0.391  15.292  0.2156 -0.1006 -0.1715
 7879SOL    HW135270   0.616   0.367  15.227  0.6261  2.0872 -0.5744
 7879SOL    HW235271   0.603   0.457  15.337  1.5578 -0.5223 -1.1381
 7880SOL     OW35272   3.716   0.920   3.488 -0.1046  0.2282  0.0207
 7880SOL    HW135273   3.671   0.988   3.438 -1.1191 -0.3949  0.0899
 7880SOL    HW235274   3.790   0.977   3.509 -1.9150  1.6758  2.4708
 7881SOL     OW35275   4.468   1.946  12.704  0.3425 -0.0534 -0.3585
 7881SOL    HW135276   4.415   1.987  12.636  2.2896 -0.2351 -1.9881
 7881SOL    HW235277   4.400   1.920  12.767 -0.2772  1.6695 -0.3196
 7882SOL     OW35278   1.923   3.435   4.826  0.3266 -0.3760  0.1484
 7882SOL    HW135279   1.831   3.455   4.807  1.0779 -0.2866 -3.3771
 7882SOL    HW235280   1.907   3.354   4.876  2.7408 -1.0500 -0.2021
 7883SOL     OW35281   3.169   2.978   7.380 -0.5323  0.0555 -0.0748
 7883SOL    HW135282   3.077   2.973   7.355 -0.8367 -0.1816  1.1168
 7883SOL    HW235283   3.203   2.905   7.327  0.4839 -1.2374  2.3731
 7884SOL     OW35284   2.471   3.887   7.727  0.2179 -0.1874 -0.0355
 7884SOL    HW135285   2.490   3.820   7.661  0.0818 -1.1401  0.8967
 7884SOL    HW235286   2.413   3.845   7.790  0.6259 -0.8889 -0.1267
 7885SOL     OW35287   4.439   2.028  10.919  0.2030  0.2221 -0.2426
 7885SOL    HW135288   4.495   1.961  10.958 -0.3696 -0.7766 -1.1087
 7885SOL    HW235289   4.483   2.109  10.943 -0.1312 -0.2065  1.8310
 7886SOL     OW35290   0.072   4.720   3.976  0.0257  0.2423 -0.1338
 7886SOL    HW135291   0.140   0.056   3.971 -1.3534  1.8412  2.8355
 7886SOL    HW235292   4.725   0.039   3.993 -0.1896 -0.1635  0.0686
 7887SOL     OW35293   4.107   1.175   9.557 -0.3241  0.0837 -0.6499
 7887SOL    HW135294   4.175   1.216   9.610 -1.3752 -0.6441  1.2999
 7887SOL    HW235295   4.165   1.147   9.487  0.9603 -1.7999  1.1471
 7888SOL     OW35296   4.052   0.846   4.985 -1.1583  0.3525 -0.0503
 7888SOL    HW135297   3.986   0.897   5.033 -1.2262  0.1796  0.0419
 7888SOL    HW235298   4.057   0.765   5.037  2.4330  0.6941  0.1450
 7889SOL     OW35299   2.758   3.674   2.641  0.1400 -1.0757  0.0431
 7889SOL    HW135300   2.760   3.580   2.622 -2.3855 -1.2408  0.5555
 7889SOL    HW235301   2.817   3.711   2.576  0.4754 -2.6589 -0.5665
 7890SOL     OW35302   0.728   1.499   1.219 -0.1886 -0.0463 -0.7725
 7890SOL    HW135303   0.745   1.524   1.128  0.8963 -2.1416 -1.1378
 7890SOL    HW235304   0.665   1.430   1.200 -1.5530  0.4427  1.9759
 7891SOL     OW35305   1.543   1.270   2.591 -0.3013  0.4406  0.1249
 7891SOL    HW135306   1.551   1.185   2.634  0.9456  1.8512  2.6895
 7891SOL    HW235307   1.553   1.328   2.667  1.7539 -0.5238  0.5779
 7892SOL     OW35308   3.555   0.035  12.759  0.5820 -0.2635  0.0796
 7892SOL    HW135309   3.597   4.700  12.814 -1.0688 -0.3896  1.2004
 7892SOL    HW235310   3.492   4.715  12.709 -0.0908  0.8235 -0.1957
 7893SOL     OW35311   0.417   4.542   4.654  0.1541  0.2182  0.4520
 7893SOL    HW135312   0.343   4.529   4.714  0.1206 -0.7481  0.1970
 7893SOL    HW235313   0.485   4.508   4.714  1.7936 -0.1598 -1.6237
 7894SOL     OW35314   3.592   1.999   8.064 -0.4189 -0.4977 -0.1169
 7894SOL    HW135315   3.511   1.986   8.113 -0.6037 -0.5810 -0.4441
 7894SOL    HW235316   3.630   2.072   8.113  0.9092 -0.4032 -1.2736
 7895SOL     OW35317   2.442   2.572  13.641  0.1240  0.3547 -0.4060
 7895SOL    HW135318   2.455   2.579  13.735 -1.3599 -3.6676  0.1073
 7895SOL    HW235319   2.349   2.556  13.626 -0.1108  0.4761  0.9703
 7896SOL     OW35320   2.539   4.527  17.135 -0.3282 -0.3383 -0.2966
 7896SOL    HW135321   2.571   4.576  17.210  0.6235 -0.5410 -0.5704
 7896SOL    HW235322   2.540   4.436  17.164  0.7643  0.5112  2.3353
 7897SOL     OW35323   1.025   4.474  10.976  0.1971  0.1998  0.3037
 7897SOL    HW135324   1.086   4.525  11.030  0.8543 -2.3288  1.9603
 7897SOL    HW235325   1.085   4.407  10.943 -0.1820 -0.7241  1.4728
 7898SOL     OW35326   1.582   0.559   8.027  0.2708 -0.2515  0.8908
 7898SOL    HW135327   1.668   0.571   7.988  0.0145  1.8971  0.9606
 7898SOL    HW235328   1.573   0.649   8.060  2.1731  0.2159  0.1357
 7899SOL     OW35329   4.453   4.188  15.585 -0.6111  0.3754  0.0156
 7899SOL    HW135330   4.470   4.094  15.577  1.0584  0.6858 -0.2361
 7899SOL    HW235331   4.536   4.228  15.557 -0.1988 -0.2392  0.3672
 7900SOL     OW35332   1.440   3.348   2.795 -0.4339  0.7234 -0.3297
 7900SOL    HW135333   1.487   3.422   2.757 -0.9058  0.9976 -0.3810
 7900SOL    HW235334   1.448   3.286   2.722  0.6396 -2.1067  2.2094
 7901SOL     OW35335   2.376   2.419   5.594 -0.2529 -0.1882  0.3303
 7901SOL    HW135336   2.329   2.351   5.546 -0.7499  0.3643  0.0200
 7901SOL    HW235337   2.350   2.387   5.681 -0.6533  1.2492  0.7449
 7902SOL     OW35338   2.118   0.345   8.153 -0.5252  0.5998  0.0151
 7902SOL    HW135339   2.115   0.283   8.080 -0.6077  0.8713 -0.2124
 7902SOL    HW235340   2.212   0.364   8.155 -0.6619  1.0965  1.3454
 7903SOL     OW35341   0.542   2.539   9.065 -0.5789  0.1119  0.5537
 7903SOL    HW135342   0.556   2.466   9.004 -0.2099 -0.7143  1.6195
 7903SOL    HW235343   0.459   2.510   9.103 -1.8987  0.6864 -1.9056
 7904SOL     OW35344   1.657   1.643   4.167 -0.0506 -1.1236 -0.3958
 7904SOL    HW135345   1.578   1.657   4.218 -0.1788 -2.1979 -0.3042
 7904SOL    HW235346   1.677   1.555   4.199  0.1615 -1.1210 -0.5208
 7905SOL     OW35347   4.693   0.656   0.997 -0.0661  0.2274 -0.0514
 7905SOL    HW135348   4.644   0.731   1.032 -1.2903 -0.7019  0.2363
 7905SOL    HW235349   4.648   0.649   0.912  0.1668 -0.7686 -0.0854
 7906SOL     OW35350   1.140   2.796   2.852  0.0703  0.6940 -0.1592
 7906SOL    HW135351   1.088   2.802   2.771  0.4763 -0.3538 -0.4991
 7906SOL    HW235352   1.080   2.808   2.925 -0.6566 -0.6594 -0.5313
 7907SOL     OW35353   0.711   0.088   3.899  0.1273 -0.4328 -0.6418
 7907SOL    HW135354   0.759   0.146   3.959 -0.7819 -0.7375  0.3968
 7907SOL    HW235355   0.742   0.004   3.934 -1.4363 -0.5750  0.3958
 7908SOL     OW35356   0.100   1.822  16.461 -0.2462 -0.3526  0.6205
 7908SOL    HW135357   0.140   1.798  16.545  0.5048 -0.1136  0.3276
 7908SOL    HW235358   0.166   1.883  16.428  0.9242  0.0186  3.5736
 7909SOL     OW35359   4.098   0.052   6.024 -0.0462 -0.4778 -0.0937
 7909SOL    HW135360   4.147   0.114   5.970  1.6429 -0.5903  1.2904
 7909SOL    HW235361   4.059   0.114   6.086 -0.2422 -1.3028  0.6028
 7910SOL     OW35362   2.998   3.665  16.714 -0.4967  0.0069 -0.4797
 7910SOL    HW135363   2.976   3.579  16.677 -2.4014  0.9612 -1.6253
 7910SOL    HW235364   3.081   3.636  16.750  0.8603  2.7414 -1.4326
 7911SOL     OW35365   0.338   2.426   6.658 -0.1914  0.8493 -0.6085
 7911SOL    HW135366   0.379   2.387   6.581  0.5009  0.5763 -0.1091
 7911SOL    HW235367   0.313   2.512   6.626  0.2064  1.0002 -0.5202
 7912SOL     OW35368   0.220   3.403   7.137  0.2731  0.7909 -0.6509
 7912SOL    HW135369   0.182   3.457   7.068 -1.8438 -1.8449 -1.5379
 7912SOL    HW235370   0.309   3.437   7.134  0.0474  1.5249  0.8257
 7913SOL     OW35371   0.518   3.143  15.449 -0.4183  0.0562 -0.3401
 7913SOL    HW135372   0.463   3.086  15.502 -0.2987  0.0923 -0.1744
 7913SOL    HW235373   0.581   3.176  15.514 -1.4142 -0.5805  0.9477
 7914SOL     OW35374   2.683   4.238  17.586  0.8344  0.0132  0.1343
 7914SOL    HW135375   2.690   4.271  17.676  1.6086 -0.0203  0.0865
 7914SOL    HW235376   2.588   4.236  17.577  0.8266 -3.7081  1.0905
 7915SOL     OW35377   4.411   2.566   3.879 -0.1352 -0.5559 -0.0860
 7915SOL    HW135378   4.498   2.561   3.918  0.2521 -0.0271 -0.8892
 7915SOL    HW235379   4.373   2.615   3.951  0.6569 -1.7783  1.1675
 7916SOL     OW35380   0.974   2.131   1.940 -0.2680  0.1908  0.0043
 7916SOL    HW135381   0.970   2.060   1.876  0.2676 -2.5469  2.9566
 7916SOL    HW235382   1.036   2.190   1.897  0.0632 -1.3363 -1.6327
 7917SOL     OW35383   3.724   0.045   3.625  0.0916 -0.4065 -0.2699
 7917SOL    HW135384   3.813   0.072   3.603 -0.1193  0.5563  0.0808
 7917SOL    HW235385   3.724   4.688   3.589  1.3475 -1.0644  1.3289
 7918SOL     OW35386   3.314   2.656   4.566  0.3609 -0.2678  0.5540
 7918SOL    HW135387   3.317   2.599   4.642  3.5809  0.9828  1.3916
 7918SOL    HW235388   3.363   2.622   4.491  2.2397  2.4568  0.5271
 7919SOL     OW35389   3.207   4.127   3.154  0.0262  0.1058  0.4051
 7919SOL    HW135390   3.187   4.034   3.169 -0.9765  0.5225  1.5802
 7919SOL    HW235391   3.231   4.123   3.061 -0.5600  0.8412  0.2270
 7920SOL     OW35392   2.041   0.547  13.371  0.4733 -0.3151  0.0382
 7920SOL    HW135393   2.005   0.509  13.290 -0.8093  1.9015 -0.4356
 7920SOL    HW235394   2.131   0.534  13.341  0.5589 -1.2445  0.6770
 7921SOL     OW35395   0.056   3.564   3.617  0.0490  0.1469  0.1238
 7921SOL    HW135396   4.711   3.528   3.660  0.2085 -0.5405 -0.1663
 7921SOL    HW235397   0.034   3.656   3.600 -1.1011 -0.5664 -2.2910
 7922SOL     OW35398   2.602   0.213   4.710 -0.2909 -0.7283 -0.3726
 7922SOL    HW135399   2.628   0.202   4.619 -1.2516 -1.8252 -0.5158
 7922SOL    HW235400   2.548   0.136   4.728  1.9124 -2.0693  0.5398
 7923SOL     OW35401   1.120   1.472   2.960 -0.5270 -0.0827 -0.2255
 7923SOL    HW135402   1.211   1.497   2.944 -0.3111 -1.1615 -0.6910
 7923SOL    HW235403   1.071   1.554   2.950 -0.9156 -0.2888  0.0114
 7924SOL     OW35404   4.632   0.337  13.080  0.3032  0.8313  0.1313
 7924SOL    HW135405   4.701   0.368  13.021  0.3151  2.5878  1.0713
 7924SOL    HW235406   4.670   0.277  13.145 -0.1435 -0.3252 -0.6631
 7925SOL     OW35407   4.365   0.847   7.681  0.0805 -0.0528  0.0651
 7925SOL    HW135408   4.344   0.842   7.588  1.2447  0.3627 -0.2251
 7925SOL    HW235409   4.286   0.807   7.716  0.2151 -0.4029 -0.0346
 7926SOL     OW35410   1.762   2.703   4.906  0.0390  0.0323 -0.0592
 7926SOL    HW135411   1.727   2.614   4.905  0.1784  0.0110 -2.1845
 7926SOL    HW235412   1.768   2.713   4.811  1.5623 -0.6081 -0.0308
 7927SOL     OW35413   1.970   0.111   1.922 -0.3708  0.1322 -0.0183
 7927SOL    HW135414   2.065   0.116   1.909 -0.0996 -1.2377  1.3929
 7927SOL    HW235415   1.961   0.082   2.013 -1.3551  0.2434 -0.0804
 7928SOL     OW35416   3.038   1.642   6.261 -0.4154 -0.0481 -0.1696
 7928SOL    HW135417   2.988   1.706   6.210  0.5209 -0.6734 -1.8622
 7928SOL    HW235418   3.057   1.681   6.346 -0.1722  0.5140 -0.4750
 7929SOL     OW35419   4.293   4.428  10.220 -0.2447 -0.3940 -0.2874
 7929SOL    HW135420   4.339   4.361  10.169  0.0476  0.1070 -0.6777
 7929SOL    HW235421   4.363   4.456  10.279  1.2281 -0.4391 -2.0199
 7930SOL     OW35422   2.054   0.674  12.436 -0.1390 -0.2669  0.6370
 7930SOL    HW135423   2.123   0.730  12.473 -1.2539  0.2372  1.9453
 7930SOL    HW235424   2.010   0.745  12.389 -1.6756 -1.0470  0.8910
 7931SOL     OW35425   3.590   3.635   8.787  0.2039 -0.6080  0.4452
 7931SOL    HW135426   3.646   3.682   8.724 -1.4008  0.2700 -0.3162
 7931SOL    HW235427   3.646   3.565   8.821  0.7526 -0.6844 -0.5865
 7932SOL     OW35428   2.212   3.472   3.872 -0.3726 -0.0808  0.2198
 7932SOL    HW135429   2.257   3.500   3.951 -0.7561  0.2134  0.3366
 7932SOL    HW235430   2.209   3.379   3.895 -2.5267 -0.1321 -0.2594
 7933SOL     OW35431   2.797   1.305   7.228 -0.0175  0.2515  0.9099
 7933SOL    HW135432   2.788   1.231   7.288 -0.5920 -0.8311 -0.5121
 7933SOL    HW235433   2.892   1.309   7.215 -0.1049 -1.8048 -0.3383
 7934SOL     OW35434   0.486   1.258  14.923  0.2405  0.2161 -0.4156
 7934SOL    HW135435   0.499   1.353  14.926  1.5251 -0.0224  1.5976
 7934SOL    HW235436   0.495   1.256  15.019 -0.8301  2.0889 -0.2718
 7935SOL     OW35437   0.696   2.180   4.500  0.5778 -0.7506 -0.1171
 7935SOL    HW135438   0.653   2.219   4.576  0.3186 -2.6732  0.7112
 7935SOL    HW235439   0.624   2.122   4.477 -0.7010  1.0581 -0.6722
 7936SOL     OW35440   0.978   2.806   3.096  0.0502  0.0870 -0.2366
 7936SOL    HW135441   0.936   2.863   3.160  0.1492 -0.4139  0.2735
 7936SOL    HW235442   0.934   2.723   3.113  2.6343 -1.1222  0.6181
 7937SOL     OW35443   4.336   2.377  17.467 -0.3626 -0.3297 -0.3085
 7937SOL    HW135444   4.243   2.368  17.443 -0.2897 -2.2571  0.1329
 7937SOL    HW235445   4.368   2.426  17.392 -0.2137 -1.2214 -0.8363
 7938SOL     OW35446   0.339   0.871   6.703  0.0917 -0.1332  0.0392
 7938SOL    HW135447   0.336   0.966   6.705 -1.9549 -0.1879 -0.0720
 7938SOL    HW235448   0.309   0.851   6.792 -1.9645  2.8223  0.0022
 7939SOL     OW35449   1.396   1.313   3.759  0.2115 -0.6575  0.0644
 7939SOL    HW135450   1.487   1.328   3.734  0.1488 -1.1965 -0.4800
 7939SOL    HW235451   1.347   1.316   3.677  0.7913 -1.1663 -0.3027
 7940SOL     OW35452   3.201   4.364   5.374  0.1768 -0.6290  0.1169
 7940SOL    HW135453   3.168   4.426   5.439  1.1026  0.8230 -0.7901
 7940SOL    HW235454   3.199   4.425   5.300  0.2068  0.5881  1.1268
 7941SOL     OW35455   3.367   2.868   4.162  0.0802 -0.0701  0.5075
 7941SOL    HW135456   3.309   2.859   4.237 -0.4319  0.8638  0.2244
 7941SOL    HW235457   3.402   2.781   4.180 -3.1454 -1.5182 -0.2654
 7942SOL     OW35458   0.410   1.496  16.353  0.2864  0.5313 -0.1300
 7942SOL    HW135459   0.391   1.504  16.446  2.0564 -1.0785  0.3636
 7942SOL    HW235460   0.498   1.532  16.343  1.6740 -2.4261  1.6212
 7943SOL     OW35461   0.767   3.797  15.995  0.3807 -0.2629  0.5290
 7943SOL    HW135462   0.735   3.885  15.977 -0.5350 -1.2492 -2.5419
 7943SOL    HW235463   0.780   3.799  16.090  0.9102  1.0809  0.4283
 7944SOL     OW35464   2.229   3.735  13.519  0.2984  0.2008  0.0016
 7944SOL    HW135465   2.258   3.803  13.458  0.4260  1.4432  1.4395
 7944SOL    HW235466   2.177   3.680  13.460  1.6170 -0.7024 -0.3114
 7945SOL     OW35467   1.584   3.142   9.716  0.5410 -0.2844  0.4353
 7945SOL    HW135468   1.646   3.161   9.646  0.1530 -1.1900 -0.1587
 7945SOL    HW235469   1.626   3.195   9.783 -0.0549  0.8655 -0.1134
 7946SOL     OW35470   3.740   4.185  15.999 -0.2460  0.7423 -0.8580
 7946SOL    HW135471   3.647   4.202  16.015 -0.2376  1.2894 -1.4137
 7946SOL    HW235472   3.743   4.184  15.904 -0.6822  0.7099 -0.8739
 7947SOL     OW35473   3.613   0.096  15.315 -0.6432  0.5969  0.5258
 7947SOL    HW135474   3.587   0.188  15.313 -2.2447  0.1708  2.1922
 7947SOL    HW235475   3.579   0.071  15.400  0.5292  1.9961  1.4073
 7948SOL     OW35476   3.463   4.729   4.791 -0.0716  0.2413  0.2425
 7948SOL    HW135477   3.470   4.649   4.739  2.2395 -0.4093  1.5429
 7948SOL    HW235478   3.551   0.034   4.801 -0.0776  0.0476  0.9628
 7949SOL     OW35479   3.746   1.807   9.985 -0.5671 -0.3437 -0.2762
 7949SOL    HW135480   3.752   1.891  10.031 -0.2710 -0.2880 -0.4163
 7949SOL    HW235481   3.679   1.836   9.924  0.5801 -1.1579 -1.9365
 7950SOL     OW35482   3.351   0.769   1.368 -0.0676  0.9944  0.4513
 7950SOL    HW135483   3.313   0.852   1.339  1.0882  0.5487 -2.3285
 7950SOL    HW235484   3.272   0.717   1.385 -0.7172  1.9342  0.3229
 7951SOL     OW35485   1.368   2.169  16.860  0.3945  0.1276  0.3403
 7951SOL    HW135486   1.456   2.134  16.845 -0.5651 -0.4889 -3.9031
 7951SOL    HW235487   1.353   2.136  16.949 -0.8747  0.0989  0.1169
 7952SOL     OW35488   2.825   3.034   3.297  0.4137  0.1375 -0.0795
 7952SOL    HW135489   2.864   2.981   3.228  1.8369 -0.7346  1.3842
 7952SOL    HW235490   2.750   3.063   3.245  0.5980 -0.4383 -0.6585
 7953SOL     OW35491   2.008   2.727   2.885  0.5843 -0.2256  0.1935
 7953SOL    HW135492   2.068   2.800   2.902  0.4248 -0.7633  2.9465
 7953SOL    HW235493   1.935   2.780   2.853  1.4332  0.7213 -0.2020
 7954SOL     OW35494   4.344   3.263   1.650 -0.0206  0.0151  0.7536
 7954SOL    HW135495   4.251   3.286   1.650  0.1704  0.7434 -1.3586
 7954SOL    HW235496   4.361   3.262   1.556 -1.8712 -0.3361  0.4219
 7955SOL     OW35497   0.868   3.144   5.905 -0.5921  0.0622  0.0782
 7955SOL    HW135498   0.871   3.216   5.843  0.9016 -1.7517 -1.9968
 7955SOL    HW235499   0.934   3.167   5.970 -0.4470 -0.4817  0.1244
 7956SOL     OW35500   1.540   1.877   8.060 -0.4735 -0.3396  0.3294
 7956SOL    HW135501   1.628   1.841   8.053  0.1226  0.7981  1.9908
 7956SOL    HW235502   1.498   1.811   8.005  0.7512 -0.0098 -1.0132
 7957SOL     OW35503   3.917   3.965   2.294  0.2157 -0.8612  0.3279
 7957SOL    HW135504   3.999   3.917   2.304 -0.2597 -1.8827 -0.6204
 7957SOL    HW235505   3.844   3.904   2.306 -1.2428 -0.1109 -4.4449
 7958SOL     OW35506   0.508   1.375   6.436 -0.1699 -0.2084 -0.3069
 7958SOL    HW135507   0.472   1.434   6.370  0.5366 -1.3288 -1.6902
 7958SOL    HW235508   0.595   1.414   6.450  0.6868 -2.3594  0.3506
 7959SOL     OW35509   3.541   0.712   4.212 -0.0437  0.1977 -0.3539
 7959SOL    HW135510   3.536   0.653   4.288 -1.5216  0.9632  0.1530
 7959SOL    HW235511   3.604   0.658   4.164  0.4166  1.2470 -0.9278
 7960SOL     OW35512   1.885   3.177   3.145 -0.1783 -0.7011  0.3597
 7960SOL    HW135513   1.804   3.143   3.107  0.5668 -1.4856 -0.5436
 7960SOL    HW235514   1.888   3.261   3.099 -2.7472  0.0279  1.5761
 7961SOL     OW35515   1.495   0.787   5.231  0.0048  0.6841  0.1037
 7961SOL    HW135516   1.450   0.848   5.173 -0.0545  0.0477 -0.5195
 7961SOL    HW235517   1.438   0.712   5.216 -1.7510  1.7566  1.4753
 7962SOL     OW35518   2.000   4.353  13.303 -0.1920  0.1556  0.1237
 7962SOL    HW135519   2.030   4.419  13.365 -0.3279 -0.3240  0.7065
 7962SOL    HW235520   2.079   4.300  13.292 -1.1320 -0.7751 -2.1588
 7963SOL     OW35521   0.686   0.569  12.075  0.4805  0.5319  0.1034
 7963SOL    HW135522   0.664   0.642  12.017 -0.8751 -0.5650 -0.7606
 7963SOL    HW235523   0.614   0.514  12.044  0.1202  1.3297 -0.4722
 7964SOL     OW35524   1.951   2.501   3.769  0.3432 -0.0197  0.3146
 7964SOL    HW135525   1.927   2.437   3.702 -0.5318  0.1770  0.4450
 7964SOL    HW235526   1.879   2.563   3.761  1.6768  1.4761 -0.0630
 7965SOL     OW35527   2.547   2.859  11.953 -0.2246  0.6147  0.1688
 7965SOL    HW135528   2.520   2.862  12.045 -0.0756 -0.4886  0.2419
 7965SOL    HW235529   2.634   2.823  11.970  0.6050  2.1429 -0.7818
 7966SOL     OW35530   1.663   3.232   2.315 -0.0061  0.2537  0.3178
 7966SOL    HW135531   1.736   3.184   2.354 -0.4271 -2.0177 -1.6739
 7966SOL    HW235532   1.592   3.173   2.338  2.0165 -0.8142  3.7489
 7967SOL     OW35533   0.814   3.948   6.228  0.0435  0.4339  0.6348
 7967SOL    HW135534   0.721   3.929   6.215 -0.0706  1.3508  0.1229
 7967SOL    HW235535   0.850   3.916   6.146 -1.3030 -0.4482  0.3897
 7968SOL     OW35536   3.570   0.327   7.859  0.4781  0.5801 -0.2504
 7968SOL    HW135537   3.543   0.256   7.916  2.6388 -1.3263 -1.5930
 7968SOL    HW235538   3.483   0.364   7.848  1.2418  2.6566  0.6330
 7969SOL     OW35539   0.731   2.147   7.041  0.5042  0.6058  0.0803
 7969SOL    HW135540   0.818   2.108   7.039 -0.1043 -0.7332 -0.8678
 7969SOL    HW235541   0.743   2.230   6.995  0.0280  0.7861  0.2784
 7970SOL     OW35542   0.786   3.975   4.213 -0.5657  0.0720  0.9279
 7970SOL    HW135543   0.846   3.959   4.285  0.2495 -0.1820  0.2025
 7970SOL    HW235544   0.780   4.069   4.224 -0.3761  0.1991 -0.0023
 7971SOL     OW35545   3.108   1.892   1.109  0.3113  0.3340 -0.4100
 7971SOL    HW135546   3.178   1.857   1.164 -0.1365  0.8392  0.4750
 7971SOL    HW235547   3.030   1.870   1.160 -0.1145 -1.8216 -1.9578
 7972SOL     OW35548   0.739   3.544   6.407 -0.2389 -0.2764 -0.2280
 7972SOL    HW135549   0.822   3.580   6.437  0.2318 -0.8722 -0.8243
 7972SOL    HW235550   0.752   3.453   6.431  0.5937  0.0178  0.4571
 7973SOL     OW35551   1.369   3.893   7.624 -0.2533 -0.1264  0.5922
 7973SOL    HW135552   1.395   3.906   7.533  0.0533  0.9012  0.8360
 7973SOL    HW235553   1.292   3.949   7.633  0.5143  1.0614 -0.3031
 7974SOL     OW35554   2.505   2.558   5.930  0.1116 -0.0152 -1.2854
 7974SOL    HW135555   2.460   2.485   5.971  1.9490 -1.4219 -1.7711
 7974SOL    HW235556   2.443   2.628   5.948  0.4220 -0.3157  0.9078
 7975SOL     OW35557   0.092   3.985   6.345  0.0169 -0.3917  0.5473
 7975SOL    HW135558   0.093   3.983   6.250  2.7138  0.9741  0.5519
 7975SOL    HW235559   0.158   3.918   6.361  2.8229  2.6390  1.6963
 7976SOL     OW35560   1.212   0.129   7.886 -0.0740 -0.4604 -0.0016
 7976SOL    HW135561   1.222   0.122   7.791  0.2463 -0.2952  0.0204
 7976SOL    HW235562   1.246   0.218   7.896 -1.2154 -0.1658  1.1497
 7977SOL     OW35563   2.033   2.768   7.411  0.5547 -0.1939 -0.4716
 7977SOL    HW135564   2.090   2.706   7.366  2.0130  1.5818 -1.0893
 7977SOL    HW235565   1.957   2.759   7.355  0.1383 -0.0706  0.0697
 7978SOL     OW35566   1.073   3.133  16.536 -0.3259  0.1259  0.1304
 7978SOL    HW135567   0.991   3.179  16.556  0.1194  1.0379 -0.1096
 7978SOL    HW235568   1.076   3.138  16.440 -0.9898  3.6749  0.2797
 7979SOL     OW35569   0.115   2.184   4.012 -0.4756  0.0208  0.5773
 7979SOL    HW135570   0.173   2.168   3.938 -0.0946 -0.6790  1.0282
 7979SOL    HW235571   0.091   2.098   4.048 -1.4422 -0.3403 -0.9607
 7980SOL     OW35572   1.161   0.116  14.543 -0.0763 -0.0493  0.0590
 7980SOL    HW135573   1.219   0.046  14.515  1.7125  1.5817 -0.3817
 7980SOL    HW235574   1.217   0.157  14.610 -2.0617  1.9600  0.5085
 7981SOL     OW35575   0.394   2.805   6.704 -0.3785 -0.0272  0.5435
 7981SOL    HW135576   0.417   2.853   6.784 -0.1413  0.0980  0.4013
 7981SOL    HW235577   0.299   2.813   6.693 -0.3717 -0.0406  0.4730
 7982SOL     OW35578   0.247   1.808   9.032  0.3927 -0.1910  0.5809
 7982SOL    HW135579   0.200   1.725   9.027 -0.5973  0.4696 -1.3190
 7982SOL    HW235580   0.176   1.866   9.060  0.6281  0.5360 -0.2906
 7983SOL     OW35581   4.705   3.308   1.135 -0.2602  0.1610  0.8939
 7983SOL    HW135582   4.655   3.230   1.110 -1.4654  1.1842  0.1088
 7983SOL    HW235583   0.061   3.282   1.107 -0.2357  1.9276 -0.7340
 7984SOL     OW35584   3.349   1.322   4.244 -0.2477  0.8385 -0.3736
 7984SOL    HW135585   3.281   1.378   4.207 -1.4248 -0.5804 -0.3341
 7984SOL    HW235586   3.401   1.309   4.165 -0.8842 -0.1943 -0.6221
 7985SOL     OW35587   4.071   1.545   8.512 -0.0776  0.6875  0.0189
 7985SOL    HW135588   4.139   1.608   8.486 -0.0675 -0.4440 -2.7259
 7985SOL    HW235589   4.067   1.488   8.435 -1.5471  2.1567 -1.0035
 7986SOL     OW35590   0.401   2.781   5.881 -0.0087  0.0682 -0.6051
 7986SOL    HW135591   0.465   2.802   5.813  0.9223  2.1991  0.9352
 7986SOL    HW235592   0.458   2.806   5.954 -0.8047  2.5540 -0.8535
 7987SOL     OW35593   0.516   2.608   7.441  0.6053 -0.3806  0.1166
 7987SOL    HW135594   0.472   2.691   7.427  2.6851  0.7378  0.2665
 7987SOL    HW235595   0.451   2.538   7.455 -3.1910  2.8239 -1.5552
 7988SOL     OW35596   4.283   4.551   2.416  0.4556 -0.1496 -0.8773
 7988SOL    HW135597   4.195   4.582   2.437  0.1262 -1.2676 -0.6268
 7988SOL    HW235598   4.308   4.618   2.352 -0.6871  3.5313  2.4749
 7989SOL     OW35599   0.172   1.454   8.401  0.8890  0.1938  0.6630
 7989SOL    HW135600   0.242   1.486   8.458  2.2603 -0.9570 -0.3370
 7989SOL    HW235601   0.228   1.444   8.323  3.3712  2.5166  2.1570
 7990SOL     OW35602   3.120   2.741   6.105 -0.2571 -0.4026 -0.1442
 7990SOL    HW135603   3.207   2.708   6.081  0.2721 -0.0797  1.3185
 7990SOL    HW235604   3.147   2.830   6.082  0.1144 -0.7817 -1.1623
 7991SOL     OW35605   1.270   0.412  12.076 -1.0415  0.2864 -0.2697
 7991SOL    HW135606   1.214   0.456  12.011 -1.5393  0.1988  0.1048
 7991SOL    HW235607   1.270   0.322  12.044 -1.3736 -0.0137  0.5762
 7992SOL     OW35608   0.069   0.065  10.169  0.1225 -0.2035  0.0758
 7992SOL    HW135609   0.134   4.730  10.146 -2.2323 -1.8257 -1.7719
 7992SOL    HW235610   4.719   0.016  10.177  0.0622  0.0106  0.7564
 7993SOL     OW35611   3.607   2.388   6.971 -0.4938  0.0316 -0.0861
 7993SOL    HW135612   3.673   2.361   7.035 -0.4596  0.0591 -0.1090
 7993SOL    HW235613   3.562   2.463   7.011 -0.5615  0.1426 -0.3698
 7994SOL     OW35614   1.579   0.742   2.861 -0.5169  0.9894  0.0398
 7994SOL    HW135615   1.660   0.765   2.815  0.8153 -1.0909  1.3407
 7994SOL    HW235616   1.568   0.815   2.922 -1.9444  1.0417 -0.2626
 7995SOL     OW35617   4.402   3.341   6.091 -0.0433 -0.2653  0.2561
 7995SOL    HW135618   4.423   3.420   6.141 -1.2112  0.6762 -0.7567
 7995SOL    HW235619   4.463   3.338   6.017 -1.8388  0.4931 -1.2398
 7996SOL     OW35620   0.474   3.678  16.263  0.4083  0.5038  0.3412
 7996SOL    HW135621   0.535   3.744  16.229  2.1171 -0.5556  1.3469
 7996SOL    HW235622   0.486   3.692  16.356  0.1918 -1.5691  0.6805
 7997SOL     OW35623   1.729   0.642   8.821 -0.0838  0.0113 -0.1508
 7997SOL    HW135624   1.749   0.640   8.915 -1.0490  1.4947  0.0773
 7997SOL    HW235625   1.640   0.676   8.822 -1.4111 -3.3850 -4.0057
 7998SOL     OW35626   0.788   3.604   1.932  0.1761 -0.5292 -0.2541
 7998SOL    HW135627   0.826   3.576   1.848  0.4352  1.1416 -0.6978
 7998SOL    HW235628   0.748   3.689   1.920  2.3868  0.6519  0.6984
 7999SOL     OW35629   2.533   2.137   8.156 -0.3919  0.0429  0.1498
 7999SOL    HW135630   2.512   2.164   8.245 -0.3234 -0.0666  0.1985
 7999SOL    HW235631   2.442   2.125   8.129 -0.6763  1.6128  0.4120
 8000SOL     OW35632   1.007   4.483   8.326 -0.5157 -0.0197  0.2900
 8000SOL    HW135633   1.033   4.574   8.333  0.3806 -0.3339  0.9711
 8000SOL    HW235634   0.938   4.494   8.260  1.9610 -0.7052 -2.4250
 8001SOL     OW35635   4.054   0.259   2.479  0.5841  0.1119 -0.1106
 8001SOL    HW135636   4.013   0.234   2.562  0.2748  2.6387  0.4891
 8001SOL    HW235637   3.987   0.218   2.424  2.3058 -1.3955 -1.0896
 8002SOL     OW35638   1.316   2.399   2.994  0.5186  0.4934 -0.2232
 8002SOL    HW135639   1.354   2.473   3.042 -1.1033 -1.1797  3.5424
 8002SOL    HW235640   1.384   2.370   2.933  0.0538 -0.4083 -0.2998
 8003SOL     OW35641   4.276   3.849  14.923  0.6660  0.2801  0.0949
 8003SOL    HW135642   4.216   3.776  14.909  1.3870 -0.2243 -0.3419
 8003SOL    HW235643   4.361   3.807  14.937  1.2267  1.5862  0.7194
 8004SOL     OW35644   3.156   0.160   4.994  1.2375  0.1844  0.2542
 8004SOL    HW135645   3.106   0.238   4.968  0.7166 -0.9150 -2.0941
 8004SOL    HW235646   3.186   0.147   4.904  1.0358  1.3697  0.0164
 8005SOL     OW35647   1.303   4.719   9.348  0.0080 -0.1942 -0.3674
 8005SOL    HW135648   1.263   4.723   9.435 -0.6350 -0.4326 -0.6569
 8005SOL    HW235649   1.374   0.052   9.353 -0.1481 -0.0835  0.4869
 8006SOL     OW35650   4.288   0.706   3.646  0.1964 -0.0713 -0.0510
 8006SOL    HW135651   4.340   0.762   3.588 -1.3662  1.2937 -0.1486
 8006SOL    HW235652   4.342   0.702   3.725 -0.7951  1.8306  0.7475
 8007SOL     OW35653   1.453   3.965   4.424 -0.0766  0.0567 -0.3799
 8007SOL    HW135654   1.441   3.900   4.354 -0.8187 -0.2037 -0.0034
 8007SOL    HW235655   1.407   3.916   4.492  1.4036 -1.5012 -0.4732
 8008SOL     OW35656   0.042   4.623   3.034 -0.1548  0.1207 -0.2096
 8008SOL    HW135657   0.097   4.641   3.110  0.9111  0.5459 -1.0722
 8008SOL    HW235658   4.695   4.668   3.062  1.1286  1.3122  1.4895
 8009SOL     OW35659   3.670   1.804   4.380 -0.1357  0.1357  0.2802
 8009SOL    HW135660   3.682   1.890   4.421 -1.8186  0.2218  0.6011
 8009SOL    HW235661   3.656   1.747   4.456  0.7670 -1.2104 -0.5617
 8010SOL     OW35662   3.901   2.587   1.019  0.7540 -1.0323  0.1413
 8010SOL    HW135663   3.894   2.612   0.927 -1.8249  1.3464  0.9770
 8010SOL    HW235664   3.837   2.649   1.055  1.6592 -0.5825  0.9640
 8011SOL     OW35665   3.160   2.499   5.600 -0.1209 -0.1026 -0.6498
 8011SOL    HW135666   3.071   2.467   5.586 -0.3269 -0.6353  1.8858
 8011SOL    HW235667   3.201   2.417   5.630  0.7734 -0.0933 -1.8469
 8012SOL     OW35668   2.345   1.013   7.349 -0.2835  0.3179  0.3855
 8012SOL    HW135669   2.274   0.993   7.288  0.3906  0.4198 -0.4297
 8012SOL    HW235670   2.426   0.995   7.302 -0.1908  2.1716 -0.1594
 8013SOL     OW35671   0.525   2.597   5.232 -0.5944 -0.4471  0.2661
 8013SOL    HW135672   0.576   2.527   5.191  0.1214 -0.2379  0.8074
 8013SOL    HW235673   0.447   2.598   5.176 -1.5401 -0.3633  1.6046
 8014SOL     OW35674   1.636   3.660   6.170 -0.0944  0.1588 -0.7629
 8014SOL    HW135675   1.706   3.705   6.217 -0.1321 -0.5727 -0.0164
 8014SOL    HW235676   1.681   3.631   6.090  0.9191  1.3590 -0.6175
 8015SOL     OW35677   0.355   0.071   8.567  0.5899  0.3580  0.1196
 8015SOL    HW135678   0.415   0.001   8.591  0.3208  0.1347  0.1491
 8015SOL    HW235679   0.403   0.152   8.587  1.5013  0.4301 -2.4939
 8016SOL     OW35680   1.688   0.592   4.468 -0.3168  0.3028 -0.0572
 8016SOL    HW135681   1.738   0.672   4.453 -0.9527  0.2217 -2.5631
 8016SOL    HW235682   1.751   0.520   4.463  0.5143  1.1322 -1.5549
 8017SOL     OW35683   0.068   4.443   6.732  0.3431  0.1922 -0.0858
 8017SOL    HW135684   0.109   4.524   6.701  0.8446  0.1996  0.5770
 8017SOL    HW235685   0.082   4.375   6.667  0.0097  0.1621 -0.1213
 8018SOL     OW35686   3.045   0.501   9.659 -0.8928  0.2723  0.1530
 8018SOL    HW135687   3.023   0.558   9.585 -2.4942  1.9104  1.8926
 8018SOL    HW235688   3.140   0.503   9.649 -0.9309 -1.1978 -0.5386
 8019SOL     OW35689   0.591   1.828   8.478 -0.0666 -0.5709  0.8259
 8019SOL    HW135690   0.670   1.849   8.527 -2.3167  2.7354  3.0051
 8019SOL    HW235691   0.529   1.861   8.543  0.8796  1.2710  0.7641
 8020SOL     OW35692   3.921   1.073   4.372 -0.7665  0.3029 -0.2241
 8020SOL    HW135693   3.854   1.008   4.391 -0.6890 -0.1356 -1.4270
 8020SOL    HW235694   3.908   1.140   4.439  0.8689  1.7972 -1.3786
 8021SOL     OW35695   0.442   4.715   2.163 -0.3847 -0.1707  0.1173
 8021SOL    HW135696   0.398   4.630   2.153 -0.8468 -0.2234  2.5662
 8021SOL    HW235697   0.357   0.027   2.169 -0.3630 -0.0270 -0.6033
 8022SOL     OW35698   3.249   4.715   7.584 -0.0047 -0.1728  0.0386
 8022SOL    HW135699   3.282   4.714   7.494  1.1007 -1.0324  0.4513
 8022SOL    HW235700   3.326   4.679   7.628  0.9734  2.0531  0.1024
 8023SOL     OW35701   4.526   0.003   7.938  0.2510 -0.2585 -0.4949
 8023SOL    HW135702   4.580   4.706   7.864 -0.8176 -1.2243 -0.8984
 8023SOL    HW235703   4.557   0.093   7.938 -0.5218  0.0105  1.0358
 8024SOL     OW35704   3.727   1.154   5.757  0.4268  0.4221 -0.3433
 8024SOL    HW135705   3.764   1.070   5.781  0.9887  0.5156 -0.8955
 8024SOL    HW235706   3.634   1.133   5.747  0.2902  1.4447 -1.1787
 8025SOL     OW35707   3.747   4.202   8.097  0.0467  0.4464 -0.2520
 8025SOL    HW135708   3.777   4.124   8.144 -2.0227  0.2919  0.8232
 8025SOL    HW235709   3.831   4.246   8.091  0.3193  0.0989  1.2544
 8026SOL     OW35710   2.137   3.641  15.341 -0.0348  1.2096 -0.0730
 8026SOL    HW135711   2.109   3.671  15.254 -1.8373  0.3039  0.1953
 8026SOL    HW235712   2.105   3.711  15.398  1.6113  1.5790  0.4145
 8027SOL     OW35713   4.644   0.456   1.710 -0.3654 -0.3471 -0.4853
 8027SOL    HW135714   4.695   0.383   1.673  2.5310  1.3072  0.2830
 8027SOL    HW235715   4.588   0.409   1.773  0.9295 -2.7344 -1.1146
 8028SOL     OW35716   2.866   1.158   6.340  0.5672  0.3518 -0.1051
 8028SOL    HW135717   2.853   1.237   6.392 -2.3907  0.4929 -1.0971
 8028SOL    HW235718   2.920   1.197   6.271 -0.6165 -1.4060 -2.0034
 8029SOL     OW35719   2.202   1.140   6.951 -0.4655  0.2101 -0.0426
 8029SOL    HW135720   2.285   1.189   6.949  1.1104 -2.5535 -3.5524
 8029SOL    HW235721   2.158   1.147   6.866  0.3838 -1.6439 -0.6417
 8030SOL     OW35722   2.112   2.079  16.626 -0.5141 -0.0061 -0.2596
 8030SOL    HW135723   2.206   2.096  16.616 -0.2454 -1.3957 -0.0862
 8030SOL    HW235724   2.105   2.003  16.569 -0.5546 -0.1995  0.0050
 8031SOL     OW35725   1.826   4.422   8.563  0.0026 -0.4837  0.2294
 8031SOL    HW135726   1.785   4.383   8.640 -1.7738 -0.3995 -0.6894
 8031SOL    HW235727   1.888   4.355   8.534  1.0603  0.8494 -0.6386
 8032SOL     OW35728   4.504   3.163   2.937  0.0555  0.2602  0.0331
 8032SOL    HW135729   4.541   3.212   3.010 -0.1720  0.0354  0.3041
 8032SOL    HW235730   4.452   3.237   2.905  0.8637  1.0643  0.6026
 8033SOL     OW35731   1.919   2.162  11.459  0.6711  0.4624 -0.2516
 8033SOL    HW135732   1.939   2.248  11.422 -1.4324  0.5204 -1.2222
 8033SOL    HW235733   1.835   2.153  11.415  0.6723  0.1294 -0.1811
 8034SOL     OW35734   3.385   0.564   8.136 -0.0726 -0.4963 -0.1636
 8034SOL    HW135735   3.394   0.646   8.185 -3.0149  0.1651 -0.7061
 8034SOL    HW235736   3.335   0.510   8.196 -0.8756  1.3029  0.7771
 8035SOL     OW35737   2.558   4.579   4.664 -0.0728 -0.4535 -0.4957
 8035SOL    HW135738   2.648   4.574   4.695 -0.4908  0.0214  0.7716
 8035SOL    HW235739   2.517   4.606   4.746 -0.9590 -1.6641 -0.5357
 8036SOL     OW35740   4.307   2.148   5.305 -0.2034 -1.1194  0.0916
 8036SOL    HW135741   4.243   2.153   5.376  0.0159  1.1189  0.1148
 8036SOL    HW235742   4.260   2.195   5.237  2.4506 -1.2002 -1.7870
 8037SOL     OW35743   1.608   2.441   2.396  0.3908 -0.4377 -0.0558
 8037SOL    HW135744   1.645   2.379   2.333 -0.1146  0.3442 -1.1408
 8037SOL    HW235745   1.520   2.408   2.416  0.5073 -1.4372 -1.1846
 8038SOL     OW35746   0.623   4.663   8.889 -0.2442 -0.1561 -0.0415
 8038SOL    HW135747   0.711   4.665   8.929 -0.7529  1.7324  1.0081
 8038SOL    HW235748   0.589   0.018   8.911  3.0792  1.8811 -2.8626
 8039SOL     OW35749   3.425   4.046   7.042 -0.5497 -0.4951  0.0551
 8039SOL    HW135750   3.449   4.012   7.129  0.3665  0.3507  0.1279
 8039SOL    HW235751   3.482   3.992   6.987 -0.5191  0.1623 -0.5589
 8040SOL     OW35752   1.280   0.399   0.712  0.8830 -0.3513 -0.0682
 8040SOL    HW135753   1.194   0.404   0.753  1.3412  0.5283  0.7906
 8040SOL    HW235754   1.323   0.460   0.772  0.7791 -1.2033  0.8719
 8041SOL     OW35755   3.613   3.020   3.522 -0.2019 -0.0434 -0.0341
 8041SOL    HW135756   3.598   3.111   3.547  1.3313  0.8074 -2.1657
 8041SOL    HW235757   3.539   3.006   3.463  0.0591 -0.8530 -0.1748
 8042SOL     OW35758   4.709   2.969   7.503 -0.4134  0.0599  0.0511
 8042SOL    HW135759   4.708   2.918   7.584 -0.7857 -3.4481 -2.1656
 8042SOL    HW235760   0.065   3.006   7.494 -0.8744  1.5923  1.7022
 8043SOL     OW35761   2.419   3.859  14.381 -0.1289  0.1064  0.6628
 8043SOL    HW135762   2.481   3.843  14.310  0.2522  0.4286  0.9231
 8043SOL    HW235763   2.340   3.810  14.360  0.8657 -1.5619  0.8315
 8044SOL     OW35764   3.729   0.134   6.021 -0.3978 -0.1580 -0.4160
 8044SOL    HW135765   3.791   0.187   6.071 -0.3251  2.0437 -2.8327
 8044SOL    HW235766   3.661   0.118   6.086  0.4838 -0.8921  0.3210
 8045SOL     OW35767   0.658   0.013   7.410 -0.0905  0.1226 -0.1260
 8045SOL    HW135768   0.614   4.712   7.332 -0.0180  0.9391 -0.5117
 8045SOL    HW235769   0.613   4.691   7.475  0.2590 -1.6066 -1.3235
 8046SOL     OW35770   3.655   2.849   7.431 -0.1424 -0.4326  0.6361
 8046SOL    HW135771   3.581   2.790   7.444 -0.5504  0.4501  2.3096
 8046SOL    HW235772   3.635   2.891   7.348 -0.1852  0.3272  1.0361
 8047SOL     OW35773   1.441   3.768   8.657  0.1649  0.6442 -0.5842
 8047SOL    HW135774   1.473   3.688   8.616  1.1696  0.6566  0.1697
 8047SOL    HW235775   1.458   3.826   8.582  2.5545  0.9309  0.1697
 8048SOL     OW35776   4.703   4.586   1.866  0.2294 -0.6623 -0.2763
 8048SOL    HW135777   4.629   4.630   1.907  0.3807 -0.0202 -0.6885
 8048SOL    HW235778   4.671   4.497   1.853 -1.0221 -0.7481  3.3305
 8049SOL     OW35779   1.588   3.739   3.293 -0.3861  0.1643  0.1484
 8049SOL    HW135780   1.543   3.658   3.315 -0.7529  0.3541  0.0986
 8049SOL    HW235781   1.523   3.792   3.247  1.3539 -0.7895 -3.3696
 8050SOL     OW35782   0.028   3.097   2.217  0.6840  0.0494  0.6833
 8050SOL    HW135783   0.071   3.120   2.299  0.2939  0.1921  0.8495
 8050SOL    HW235784   0.039   3.172   2.159  2.0899 -1.4140 -0.9539
 8051SOL     OW35785   0.068   4.727  13.734 -0.0795 -0.2015  0.8996
 8051SOL    HW135786   0.054   0.079  13.690 -0.3186 -2.1903 -2.8352
 8051SOL    HW235787   4.716   4.685  13.715 -0.2865  1.0735 -0.9614
 8052SOL     OW35788   1.980   0.886   3.129  0.3476 -0.1953 -0.2338
 8052SOL    HW135789   1.930   0.917   3.204 -1.0539 -0.8103 -0.8924
 8052SOL    HW235790   2.067   0.908   3.161  0.6447 -0.3855 -0.9035
 8053SOL     OW35791   3.284   2.799   8.450  0.5688 -0.4462  0.3775
 8053SOL    HW135792   3.255   2.720   8.406 -0.8431  0.9143 -1.1454
 8053SOL    HW235793   3.268   2.791   8.544 -2.2477 -0.6416 -0.1380
 8054SOL     OW35794   3.430   4.367   2.830 -0.2827 -0.0929 -0.5906
 8054SOL    HW135795   3.500   4.304   2.843 -0.2485  0.4934  2.0903
 8054SOL    HW235796   3.471   4.453   2.819  1.4465 -1.2544 -3.2066
 8055SOL     OW35797   2.293   0.142   6.596 -0.3703 -0.1170  0.4232
 8055SOL    HW135798   2.304   0.071   6.532 -1.5435 -0.7641  0.9464
 8055SOL    HW235799   2.277   0.224   6.549  0.3572 -0.6402 -0.7310
 8056SOL     OW35800   2.688   4.192   5.771  0.5884  0.4765 -0.4437
 8056SOL    HW135801   2.722   4.162   5.687 -0.9218  2.3725 -1.7428
 8056SOL    HW235802   2.660   4.111   5.813 -0.3595  0.8485 -0.3505
 8057SOL     OW35803   0.601   4.630   8.228 -0.7078 -0.6325  0.0697
 8057SOL    HW135804   0.602   4.720   8.194 -0.0107 -0.6226  0.1230
 8057SOL    HW235805   0.508   4.613   8.242 -0.8661 -1.9071 -2.6997
 8058SOL     OW35806   1.794   3.733  16.813  0.1909 -0.3202 -0.0918
 8058SOL    HW135807   1.868   3.692  16.857  0.7951  1.3652  0.4639
 8058SOL    HW235808   1.750   3.648  16.806  0.6461 -0.8404  3.3564
 8059SOL     OW35809   1.026   2.952   7.389 -0.8787  0.0243  0.5371
 8059SOL    HW135810   1.068   2.866   7.394  0.4842  0.5015 -3.0190
 8059SOL    HW235811   0.942   2.942   7.436  0.0600 -0.7318  2.0569
 8060SOL     OW35812   3.123   4.024   5.895  0.0254 -0.3059  0.9330
 8060SOL    HW135813   3.062   4.069   5.952  0.6341 -0.5521  1.7799
 8060SOL    HW235814   3.141   3.942   5.941 -2.0022 -0.4631  1.4312
 8061SOL     OW35815   2.659   1.656   6.140 -0.1851  0.7394  0.7839
 8061SOL    HW135816   2.590   1.594   6.117  1.8928 -1.5963  0.7629
 8061SOL    HW235817   2.670   1.632   6.232 -0.3626 -1.2487  0.2924
 8062SOL     OW35818   0.577   2.234   4.134  0.5830 -0.0295 -0.4209
 8062SOL    HW135819   0.613   2.145   4.137 -1.6692 -0.8603  1.6574
 8062SOL    HW235820   0.485   2.214   4.150  1.4555 -4.1447 -0.3719
 8063SOL     OW35821   0.830   3.630   2.973  0.4203  0.2498 -0.2393
 8063SOL    HW135822   0.869   3.663   2.892 -0.0904 -0.1121 -0.6318
 8063SOL    HW235823   0.853   3.708   3.023  0.0518  0.1060  0.1553
 8064SOL     OW35824   2.912   0.897   6.437  0.3763 -0.4038  0.1458
 8064SOL    HW135825   2.872   0.911   6.523  1.5543  0.3731  0.5758
 8064SOL    HW235826   2.902   0.983   6.396 -0.9051 -1.2292 -1.2643
 8065SOL     OW35827   1.032   0.997   8.543 -0.6806 -0.1405  0.3388
 8065SOL    HW135828   0.987   0.996   8.459  0.0837 -3.4375 -0.0229
 8065SOL    HW235829   1.115   1.011   8.498 -1.1366 -0.4291 -0.6001
 8066SOL     OW35830   1.540   0.968   7.791 -0.4366  0.6838  0.4674
 8066SOL    HW135831   1.609   1.013   7.838  2.3225 -0.8364 -2.1352
 8066SOL    HW235832   1.575   0.878   7.789 -0.1209  0.7823  2.0519
 8067SOL     OW35833   1.280   2.523  15.517  0.2959  0.4146 -0.5754
 8067SOL    HW135834   1.360   2.523  15.569 -0.3206  0.9139  0.3738
 8067SOL    HW235835   1.223   2.461  15.564  0.2301  1.1786  0.3367
 8068SOL     OW35836   2.704   2.530   5.336 -0.1870 -0.4055  1.0392
 8068SOL    HW135837   2.788   2.575   5.343  1.6362 -3.6258 -0.8355
 8068SOL    HW235838   2.732   2.458   5.280 -1.7912 -0.1888 -0.0362
 8069SOL     OW35839   0.819   3.450   5.833 -0.2977 -0.4553 -0.0847
 8069SOL    HW135840   0.805   3.482   5.744  1.5297 -0.6843 -0.4616
 8069SOL    HW235841   0.738   3.478   5.875  0.8091  1.5790  0.6779
 8070SOL     OW35842   2.895   3.987   9.078 -0.1975 -0.0451 -0.1023
 8070SOL    HW135843   2.935   3.902   9.095  0.7438  0.3877 -0.1406
 8070SOL    HW235844   2.819   3.961   9.025  0.9990 -0.7230 -1.4591
 8071SOL     OW35845   2.325   1.583  16.738  0.1819  0.6594  0.3767
 8071SOL    HW135846   2.246   1.617  16.780 -0.6482 -1.4178  0.5319
 8071SOL    HW235847   2.385   1.610  16.808  2.3199  1.0583 -1.6310
 8072SOL     OW35848   1.631   0.352   1.647 -0.3964 -0.0741 -0.0767
 8072SOL    HW135849   1.649   0.439   1.682 -2.3176  1.1993 -2.2608
 8072SOL    HW235850   1.627   0.289   1.719 -0.1936 -1.4845 -1.2766
 8073SOL     OW35851   2.290   4.038  10.044  0.5468 -0.4573  0.3587
 8073SOL    HW135852   2.306   3.949  10.074  1.1153 -1.2503 -2.2541
 8073SOL    HW235853   2.377   4.070  10.023  0.8290 -0.4382  1.5640
 8074SOL     OW35854   4.344   2.892   4.429  0.2094  0.1674  0.2072
 8074SOL    HW135855   4.301   2.947   4.363 -1.7798 -1.7285 -0.0465
 8074SOL    HW235856   4.278   2.825   4.447  2.6683 -2.0491  1.0298
 8075SOL     OW35857   3.227   0.757   0.801 -0.2862 -0.3856  0.4553
 8075SOL    HW135858   3.208   0.842   0.840 -0.5550 -0.1828 -0.1141
 8075SOL    HW235859   3.320   0.743   0.820  0.0313  1.2292  0.0721
 8076SOL     OW35860   1.313   0.255   8.805 -0.4974  0.6403  0.1805
 8076SOL    HW135861   1.275   0.324   8.860 -0.8190  0.6463 -0.0513
 8076SOL    HW235862   1.254   0.240   8.731  1.2028 -3.0170 -0.4440
 8077SOL     OW35863   3.118   3.376  10.528  0.4203 -0.0127 -0.1660
 8077SOL    HW135864   3.129   3.348  10.619 -1.0215  0.8743  0.2930
 8077SOL    HW235865   3.073   3.298  10.495 -0.5999  0.7566 -0.5810
 8078SOL     OW35866   2.073   4.430   2.526 -0.3016 -0.0251 -0.0103
 8078SOL    HW135867   1.997   4.387   2.566 -0.0347  0.2796  0.8140
 8078SOL    HW235868   2.097   4.496   2.590 -0.9844 -0.6197  0.8583
 8079SOL     OW35869   2.042   0.774   1.800  0.5750  0.0049  0.0788
 8079SOL    HW135870   2.136   0.768   1.786  0.2024  0.7336 -2.8284
 8079SOL    HW235871   2.019   0.686   1.772  0.8384 -0.8425  2.5050
 8080SOL     OW35872   0.060   3.251   7.657  0.6384  0.1211 -0.2915
 8080SOL    HW135873   0.091   3.325   7.605 -3.4383  1.9495 -0.1424
 8080SOL    HW235874   4.706   3.279   7.690  1.9990  3.1815  0.7256
 8081SOL     OW35875   3.025   3.526   7.028  0.1295 -0.3436  0.3312
 8081SOL    HW135876   3.031   3.431   7.020 -0.1193 -0.4932  2.0704
 8081SOL    HW235877   2.952   3.537   6.967  0.2387  0.1711  0.2899
 8082SOL     OW35878   2.875   0.971   9.703  0.2852 -0.6251  0.5983
 8082SOL    HW135879   2.836   1.048   9.663 -0.6604 -1.3018  0.2235
 8082SOL    HW235880   2.877   0.911   9.629  0.3035  0.1018  0.0144
 8083SOL     OW35881   2.333   1.049  14.725  0.0981 -0.0514  0.1409
 8083SOL    HW135882   2.262   0.993  14.694 -0.0587 -0.5443  1.3725
 8083SOL    HW235883   2.277   1.123  14.747 -1.8509 -0.9705 -1.7084
 8084SOL     OW35884   2.663   1.882   7.286  0.2074  0.8912  0.1680
 8084SOL    HW135885   2.666   1.945   7.214 -1.8964  0.9411  0.1273
 8084SOL    HW235886   2.754   1.889   7.315  0.1420  1.3272  0.2609
 8085SOL     OW35887   2.820   2.465  11.003 -0.1625  0.3690 -0.5237
 8085SOL    HW135888   2.802   2.467  10.909  0.5833 -2.1589 -0.7054
 8085SOL    HW235889   2.914   2.448  11.003  0.1780  2.2037 -2.5462
 8086SOL     OW35890   1.254   0.724   2.337 -0.1065  0.0563 -0.2161
 8086SOL    HW135891   1.292   0.703   2.422  0.2143 -2.0749 -0.8650
 8086SOL    HW235892   1.194   0.650   2.323  1.0909 -0.7970 -0.8505
 8087SOL     OW35893   4.220   3.197   9.389 -0.2035  0.2549 -0.5794
 8087SOL    HW135894   4.127   3.174   9.380 -0.2608  0.7404 -1.1898
 8087SOL    HW235895   4.255   3.133   9.451  0.8099  0.4751 -0.9203
 8088SOL     OW35896   1.453   4.011  14.497 -0.2822  0.3446 -0.4893
 8088SOL    HW135897   1.429   4.097  14.533 -0.4431  1.1926 -2.6430
 8088SOL    HW235898   1.364   3.976  14.496  0.4489 -1.4847 -1.0247
 8089SOL     OW35899   3.893   3.897   7.300  0.0891  0.7999 -0.0400
 8089SOL    HW135900   3.852   3.821   7.343  0.0036  0.0956 -1.3853
 8089SOL    HW235901   3.966   3.908   7.361 -0.1850 -0.8394  0.5992
 8090SOL     OW35902   1.731   1.993   7.311  0.1965  0.0485 -0.1802
 8090SOL    HW135903   1.740   2.086   7.331 -1.8103  0.5669 -1.6758
 8090SOL    HW235904   1.820   1.959   7.299  0.7355  0.6830  1.9275
 8091SOL     OW35905   1.292   0.805   6.648  0.0617  0.5313 -0.0745
 8091SOL    HW135906   1.209   0.791   6.694 -0.7254  1.2167 -1.2868
 8091SOL    HW235907   1.298   0.897   6.673  1.3659  0.2564  0.6272
 8092SOL     OW35908   4.261   2.208   3.944  0.0152 -0.2230  0.1288
 8092SOL    HW135909   4.234   2.284   3.996 -0.6974 -0.3683 -0.0302
 8092SOL    HW235910   4.278   2.145   4.014 -0.3964 -1.2295 -0.6827
 8093SOL     OW35911   4.479   2.227   7.776  0.5218  0.1101  0.0329
 8093SOL    HW135912   4.487   2.270   7.691  0.7539  1.5914  0.8004
 8093SOL    HW235913   4.550   2.164   7.786  0.7939  0.0395 -2.3673
 8094SOL     OW35914   1.713   0.040   1.823 -0.0796  0.2002 -0.0350
 8094SOL    HW135915   1.700   4.681   1.796  0.0795 -0.3217  1.6537
 8094SOL    HW235916   1.806   0.048   1.841 -0.0270  0.7932 -0.5451
 8095SOL     OW35917   3.649   2.404   8.923 -0.1509 -0.1425  0.0068
 8095SOL    HW135918   3.620   2.336   8.985 -0.9935  0.4425  0.2482
 8095SOL    HW235919   3.627   2.488   8.964 -1.7307 -0.5771  0.0578
 8096SOL     OW35920   1.916   1.736  13.875 -0.0712  0.0515  0.5939
 8096SOL    HW135921   1.870   1.742  13.959  0.0893  1.6689  0.5762
 8096SOL    HW235922   2.006   1.767  13.887  0.8938 -2.9730  1.2606
 8097SOL     OW35923   3.020   3.649   8.960 -0.1488  0.7112 -0.0983
 8097SOL    HW135924   3.056   3.702   9.031  0.4684 -0.7622  0.6795
 8097SOL    HW235925   3.076   3.680   8.888 -2.5045 -1.0649 -2.7035
 8098SOL     OW35926   3.138   0.927  10.767  0.1301 -0.1936 -0.2644
 8098SOL    HW135927   3.110   0.980  10.841  0.2766 -2.8033  1.6725
 8098SOL    HW235928   3.121   0.841  10.805  2.8936 -0.7772 -0.3257
 8099SOL     OW35929   4.159   1.569   2.466 -0.1068 -0.6190 -0.0042
 8099SOL    HW135930   4.064   1.554   2.472 -0.3136  0.9375  0.7043
 8099SOL    HW235931   4.170   1.643   2.406 -0.6148 -0.3665  0.2095
 8100SOL     OW35932   0.441   4.291   5.631 -0.1216  0.1783 -0.1531
 8100SOL    HW135933   0.515   4.282   5.571 -0.5151 -0.5335 -0.5327
 8100SOL    HW235934   0.389   4.212   5.613  0.5006 -0.0746 -0.8173
 8101SOL     OW35935   1.795   2.616   8.428 -0.5007  0.1685  0.0172
 8101SOL    HW135936   1.832   2.691   8.474 -1.4016  0.9867 -0.6161
 8101SOL    HW235937   1.878   2.580   8.397 -1.0731 -1.3531  0.2305
 8102SOL     OW35938   0.369   4.475   9.112  0.6242 -0.5002  0.1584
 8102SOL    HW135939   0.399   4.527   9.186  0.4940  0.7816 -0.6790
 8102SOL    HW235940   0.344   4.396   9.160 -2.6530  1.2230  1.2907
 8103SOL     OW35941   2.580   0.687  17.359 -0.5139 -0.1772  0.3379
 8103SOL    HW135942   2.592   0.631  17.436 -1.7911 -2.5680 -1.2058
 8103SOL    HW235943   2.587   0.771  17.404 -0.7162 -1.4608  2.7662
 8104SOL     OW35944   0.071   4.203   2.670 -0.4381 -0.1464 -0.0012
 8104SOL    HW135945   0.158   4.173   2.642 -1.0653 -0.5147 -1.5674
 8104SOL    HW235946   0.035   4.223   2.584 -0.8304 -0.0403  0.1885
 8105SOL     OW35947   2.374   3.445   0.559  0.1219 -0.2440 -0.0610
 8105SOL    HW135948   2.422   3.365   0.582 -0.9774 -0.5831  1.0853
 8105SOL    HW235949   2.294   3.415   0.515  1.0008  0.3900 -2.0793
 8106SOL     OW35950   2.707   0.878   2.280  0.4750 -0.2380 -0.0079
 8106SOL    HW135951   2.729   0.941   2.211 -1.2758  0.2227 -0.1458
 8106SOL    HW235952   2.795   0.857   2.310  0.8720  2.1024  0.4224
 8107SOL     OW35953   2.986   2.713  10.838 -0.2501  0.5307  0.2191
 8107SOL    HW135954   2.905   2.680  10.799 -0.1030 -2.0567  2.1415
 8107SOL    HW235955   3.057   2.669  10.793  0.1829  0.5169  0.9149
 8108SOL     OW35956   3.366   0.549   1.915  0.1067  0.3722  0.2057
 8108SOL    HW135957   3.435   0.535   1.850 -0.6646  1.1229 -0.7853
 8108SOL    HW235958   3.326   0.462   1.908 -0.4114  0.9653 -3.9914
 8109SOL     OW35959   3.465   3.746   6.972  0.1549  0.0613 -0.7048
 8109SOL    HW135960   3.389   3.728   6.916  2.5707 -0.0191 -3.9461
 8109SOL    HW235961   3.430   3.701   7.049  1.6718  1.5229  0.8610
 8110SOL     OW35962   4.065   1.259  11.282 -0.6378  0.4162  0.3059
 8110SOL    HW135963   4.059   1.166  11.303  1.4843  1.0903  3.8438
 8110SOL    HW235964   3.983   1.268  11.234  0.0844 -1.2373 -1.2221
 8111SOL     OW35965   3.351   2.537  11.016 -0.0580  0.0627 -0.1159
 8111SOL    HW135966   3.335   2.631  11.023 -1.3916 -0.0030 -2.2411
 8111SOL    HW235967   3.368   2.528  10.922 -1.8963  0.5735 -0.5140
 8112SOL     OW35968   2.655   1.679  16.628  0.2967 -0.5600 -0.2977
 8112SOL    HW135969   2.751   1.674  16.637  0.1393  1.9061  2.6443
 8112SOL    HW235970   2.652   1.698  16.534  2.3749 -3.8161 -1.0185
 8113SOL     OW35971   2.415   2.670   1.412  0.2148  0.0488  0.0516
 8113SOL    HW135972   2.477   2.702   1.346  1.6472 -2.5475  0.1313
 8113SOL    HW235973   2.472   2.660   1.488 -1.2053 -2.5903  0.7393
 8114SOL     OW35974   3.341   4.378   3.557 -0.2913 -0.2425 -0.1441
 8114SOL    HW135975   3.340   4.314   3.627 -2.5347  2.4938  2.3223
 8114SOL    HW235976   3.366   4.319   3.486 -0.2402  0.4426 -0.7047
 8115SOL     OW35977   1.409   4.053  17.674 -0.6318  0.0476  0.6470
 8115SOL    HW135978   1.470   4.115  17.635 -3.3838  1.8694 -0.7719
 8115SOL    HW235979   1.373   4.004  17.600 -1.6434 -0.2382  1.3280
 8116SOL     OW35980   3.380   3.764  11.104  0.1224 -0.9453  0.0725
 8116SOL    HW135981   3.419   3.740  11.188  1.6774  1.1802 -0.0445
 8116SOL    HW235982   3.359   3.680  11.063 -0.8338 -1.3581  1.3978
 8117SOL     OW35983   4.367   2.312   8.503 -0.4600 -0.0438  0.1316
 8117SOL    HW135984   4.422   2.236   8.522  0.4182  0.5721  0.0986
 8117SOL    HW235985   4.289   2.292   8.554 -1.4721  0.4215 -1.2334
 8118SOL     OW35986   4.607   2.245   1.359 -0.3052  0.4210  0.3732
 8118SOL    HW135987   4.658   2.314   1.316  0.9230 -2.0974 -2.2056
 8118SOL    HW235988   4.635   2.259   1.449  1.0096 -1.0738  0.1831
 8119SOL     OW35989   4.578   1.340   3.164 -0.2749  0.0596 -0.4810
 8119SOL    HW135990   4.566   1.413   3.103  1.2572  1.5172  0.9717
 8119SOL    HW235991   4.550   1.271   3.105 -3.8828  1.8068 -0.8359
 8120SOL     OW35992   4.148   3.770   2.319 -0.0895  0.1082  0.0722
 8120SOL    HW135993   4.239   3.771   2.289 -0.7932  0.9702 -2.0345
 8120SOL    HW235994   4.155   3.718   2.399 -0.0730  0.5448  0.3536
 8121SOL     OW35995   4.539   2.564  10.726  0.5844  0.6411  0.0389
 8121SOL    HW135996   4.511   2.643  10.680  1.7102  1.0405  0.0447
 8121SOL    HW235997   4.556   2.595  10.814  0.1020 -1.0972  0.7407
 8122SOL     OW35998   1.921   1.325  16.215  0.8905  0.1029 -0.3702
 8122SOL    HW135999   1.935   1.275  16.135 -2.5498 -0.4751 -0.5735
 8122SOL    HW236000   1.827   1.339  16.206  0.9093 -0.6016 -1.6032
 8123SOL     OW36001   1.974   2.337   8.852 -1.1380  0.1461 -0.0539
 8123SOL    HW136002   1.971   2.345   8.756  0.5015 -1.5770 -0.2405
 8123SOL    HW236003   2.023   2.256   8.862  1.2847  1.2305 -3.1944
 8124SOL     OW36004   0.453   2.293  16.218  0.0342 -0.4156 -0.3059
 8124SOL    HW136005   0.547   2.282  16.203 -0.0857 -1.4783 -0.2796
 8124SOL    HW236006   0.436   2.385  16.196 -0.6963 -1.2400 -3.1389
 8125SOL     OW36007   0.690   1.356  12.233  0.0114 -0.4443  0.3779
 8125SOL    HW136008   0.627   1.405  12.286  1.6174  1.8018  0.2273
 8125SOL    HW236009   0.661   1.266  12.244 -1.2187 -0.0124  0.6382
 8126SOL     OW36010   2.731   1.141   4.067 -0.0164  0.4088  0.4145
 8126SOL    HW136011   2.658   1.159   4.008  1.7444  0.2760 -1.7898
 8126SOL    HW236012   2.685   1.148   4.151 -2.1525  1.0646 -0.8067
 8127SOL     OW36013   2.058   4.618   7.581  0.2806  0.3595 -0.1674
 8127SOL    HW136014   1.975   4.570   7.592  1.0721 -1.1530 -0.7274
 8127SOL    HW236015   2.029   4.672   7.507 -0.4580 -1.1681 -1.0090
 8128SOL     OW36016   4.144   2.819   9.137 -0.0671 -0.0458  0.0301
 8128SOL    HW136017   4.207   2.809   9.208 -0.5224 -0.0696  0.4316
 8128SOL    HW236018   4.209   2.830   9.067 -1.2699 -0.9157 -1.2133
 8129SOL     OW36019   1.796   2.484  16.513 -0.6772  0.1261 -0.2493
 8129SOL    HW136020   1.849   2.407  16.495 -1.6158 -1.1607  2.4465
 8129SOL    HW236021   1.823   2.553  16.452  1.6698 -0.7457 -0.1992
 8130SOL     OW36022   3.085   0.594   3.030 -0.0390  0.1415 -0.1403
 8130SOL    HW136023   3.016   0.643   3.075  0.8856  1.5227 -0.2294
 8130SOL    HW236024   3.057   0.502   3.040 -0.3191  0.2849  0.4110
 8131SOL     OW36025   1.242   1.237   5.148 -0.5287 -0.2288  0.4436
 8131SOL    HW136026   1.219   1.229   5.240  0.3462 -2.4855  0.4625
 8131SOL    HW236027   1.286   1.322   5.149  1.6898 -1.3747  0.6075
 8132SOL     OW36028   4.046   0.359  16.118  0.3159 -0.0967  0.3435
 8132SOL    HW136029   4.070   0.450  16.105 -0.4314  0.0129 -0.2403
 8132SOL    HW236030   4.020   0.336  16.029 -1.9163 -0.8232  1.1769
 8133SOL     OW36031   0.213   1.895  13.175  0.2208 -0.1497 -0.3143
 8133SOL    HW136032   0.296   1.931  13.207 -0.8265  1.2999  0.7607
 8133SOL    HW236033   0.167   1.868  13.255 -0.9926  1.2222 -0.5495
 8134SOL     OW36034   1.502   3.886   7.879 -0.2979 -0.3132  0.0875
 8134SOL    HW136035   1.482   3.796   7.907 -3.4421 -0.3113 -2.1608
 8134SOL    HW236036   1.438   3.900   7.810 -1.7702 -1.6802  1.1595
 8135SOL     OW36037   0.459   2.899   8.882 -0.1160 -0.5500  0.3433
 8135SOL    HW136038   0.470   2.989   8.911  1.5515 -0.2067 -1.3093
 8135SOL    HW236039   0.365   2.886   8.894  0.4491 -4.7144  0.2381
 8136SOL     OW36040   0.787   3.988   7.572  0.3480 -0.2705 -0.5443
 8136SOL    HW136041   0.732   3.956   7.501 -2.8415  3.0975  0.4318
 8136SOL    HW236042   0.875   3.979   7.534  0.4532  2.7900 -1.0141
 8137SOL     OW36043   3.537   3.411   9.221  0.0408  0.3955 -0.2762
 8137SOL    HW136044   3.485   3.332   9.236  1.8446 -0.5938  0.7095
 8137SOL    HW236045   3.460   3.459   9.190 -1.0485 -1.7135 -0.8574
 8138SOL     OW36046   0.968   3.913  15.150  0.0506  0.5313  0.2427
 8138SOL    HW136047   0.918   3.881  15.074  0.4729 -0.4696  0.3891
 8138SOL    HW236048   1.046   3.948  15.107 -0.6620 -1.2922 -2.5113
 8139SOL     OW36049   3.231   3.708   5.151 -0.4249  0.3541 -0.1475
 8139SOL    HW136050   3.198   3.618   5.150  1.0556 -0.1908  0.8261
 8139SOL    HW236051   3.160   3.749   5.200  0.7358  1.8205  0.2793
 8140SOL     OW36052   1.883   1.769   7.369  0.5892 -0.0441 -0.0557
 8140SOL    HW136053   1.837   1.705   7.423 -1.0859  0.5803 -0.7637
 8140SOL    HW236054   1.963   1.718   7.352  0.5529 -0.4568  1.0218
 8141SOL     OW36055   1.478   3.437   5.726  0.1861  0.2925 -0.0320
 8141SOL    HW136056   1.402   3.381   5.741  0.8804 -0.9341 -1.1153
 8141SOL    HW236057   1.434   3.506   5.677  0.0545 -0.2027 -0.6014
 8142SOL     OW36058   4.724   3.421   6.829  0.2887 -0.2276  0.0757
 8142SOL    HW136059   0.009   3.448   6.739 -0.6063  0.1043  0.0074
 8142SOL    HW236060   0.052   3.347   6.836 -1.2194 -1.4544  0.1559
 8143SOL     OW36061   3.532   1.027   9.460 -0.0881  0.1390  0.2146
 8143SOL    HW136062   3.599   1.006   9.396 -0.6996 -1.3077  0.0476
 8143SOL    HW236063   3.492   1.106   9.423  0.4070  1.1523  1.8105
 8144SOL     OW36064   1.440   0.320   9.200  0.3700 -0.2321  0.0576
 8144SOL    HW136065   1.495   0.348   9.127 -1.9772 -0.3974 -1.7883
 8144SOL    HW236066   1.428   0.399   9.252 -0.2828 -0.2283 -0.0940
 8145SOL     OW36067   1.225   2.127  14.905 -0.7404  0.2317 -0.1369
 8145SOL    HW136068   1.181   2.190  14.847 -0.1322  1.7582  1.0596
 8145SOL    HW236069   1.197   2.152  14.993  0.6508  0.6265  0.1933
 8146SOL     OW36070   0.490   2.151  11.084 -0.1447 -0.0389  0.5849
 8146SOL    HW136071   0.489   2.231  11.032  1.0274 -0.1555  0.3726
 8146SOL    HW236072   0.566   2.171  11.138 -0.2696  0.6581  0.5049
 8147SOL     OW36073   1.701   3.857   4.277  0.1257  0.3632  0.5247
 8147SOL    HW136074   1.652   3.777   4.258  1.9463 -0.7414  0.5046
 8147SOL    HW236075   1.642   3.922   4.238  0.3767 -0.2427 -0.8476
 8148SOL     OW36076   1.101   2.082  15.327 -0.7790  0.3657  0.4824
 8148SOL    HW136077   1.132   2.148  15.265  0.2567  0.1150  0.7186
 8148SOL    HW236078   1.020   2.054  15.284 -1.2479 -0.4724  1.9416
 8149SOL     OW36079   2.071   4.351   7.783 -0.2710 -0.0171 -0.2572
 8149SOL    HW136080   2.031   4.374   7.698  1.2405  2.0611 -0.4146
 8149SOL    HW236081   2.003   4.382   7.844  0.4132  1.4033 -0.2216
 8150SOL     OW36082   3.147   3.340   8.503  0.0119  0.2650  0.8204
 8150SOL    HW136083   3.228   3.390   8.513 -0.6046  1.6942 -1.2595
 8150SOL    HW236084   3.186   3.253   8.489 -0.5234 -0.5667  4.5005
 8151SOL     OW36085   2.111   1.142   2.537 -0.4305 -0.2199  0.2034
 8151SOL    HW136086   2.050   1.184   2.477  0.2320  1.0036  0.3893
 8151SOL    HW236087   2.167   1.215   2.562 -0.6383 -0.1877  0.5867
 8152SOL     OW36088   4.667   2.053   7.829 -0.1972  0.1989  0.4625
 8152SOL    HW136089   4.659   1.960   7.806 -0.3526 -0.3346  2.6456
 8152SOL    HW236090   0.027   2.067   7.807  1.0441 -3.7082  3.2360
 8153SOL     OW36091   1.784   1.480   1.265  0.5956  0.0569 -0.0170
 8153SOL    HW136092   1.729   1.480   1.187  0.7265  0.7065 -0.1065
 8153SOL    HW236093   1.866   1.448   1.228 -0.0679 -1.5801 -0.0914
 8154SOL     OW36094   4.305   1.245   0.511  0.1060  0.5511  0.1732
 8154SOL    HW136095   4.289   1.339   0.504 -0.8044  0.2214 -2.2120
 8154SOL    HW236096   4.339   1.226   0.424 -1.3000 -0.4065 -0.1650
 8155SOL     OW36097   1.340   4.724   8.439  0.5960  0.4719  0.5436
 8155SOL    HW136098   1.251   0.006   8.407  0.3579 -2.6087 -0.1198
 8155SOL    HW236099   1.335   4.636   8.474 -1.9039  0.3172 -0.1804
 8156SOL     OW36100   3.893   3.723   5.357 -0.8720  0.2672 -0.1051
 8156SOL    HW136101   3.844   3.744   5.278  0.3878 -0.1920 -1.0019
 8156SOL    HW236102   3.813   3.707   5.408  0.2615 -1.1514  1.2396
 8157SOL     OW36103   4.034   3.730   8.416 -0.1877  0.2666  0.0332
 8157SOL    HW136104   4.115   3.696   8.377 -0.8236 -0.0780 -0.9827
 8157SOL    HW236105   4.043   3.823   8.393  0.4076 -0.2187 -1.7336
 8158SOL     OW36106   4.248   1.842  10.707 -0.2424 -0.1072 -0.0742
 8158SOL    HW136107   4.186   1.913  10.689  2.5988  1.8263 -2.1104
 8158SOL    HW236108   4.302   1.841  10.628 -0.4822 -0.0590 -0.2404
 8159SOL     OW36109   2.927   4.104   1.786  0.3358 -0.4472 -0.4517
 8159SOL    HW136110   2.978   4.024   1.796 -0.9942 -1.2758 -0.3061
 8159SOL    HW236111   2.835   4.081   1.797 -0.0375  1.0729 -0.3402
 8160SOL     OW36112   0.212   2.101  11.149 -0.5890  0.3139 -0.4849
 8160SOL    HW136113   0.301   2.125  11.124  0.1559 -1.2142  0.7279
 8160SOL    HW236114   0.234   2.009  11.163  1.5329  1.0380  0.7461
 8161SOL     OW36115   1.926   1.237  15.537 -0.0322  0.2775 -0.2524
 8161SOL    HW136116   1.879   1.300  15.592  1.4248  0.5937  0.6381
 8161SOL    HW236117   1.912   1.262  15.445  0.0402  0.5380 -0.1925
 8162SOL     OW36118   3.279   4.505  14.732  0.3932  0.1271  0.0230
 8162SOL    HW136119   3.351   4.453  14.766 -0.3299 -0.7050  0.2808
 8162SOL    HW236120   3.280   4.483  14.639 -0.7888  0.1488 -0.0002
 8163SOL     OW36121   0.108   3.324  15.949 -0.3642 -0.5955 -0.1373
 8163SOL    HW136122   0.069   3.352  15.866 -1.1245 -0.6116  0.2121
 8163SOL    HW236123   0.089   3.399  16.004  1.9060  0.3207 -0.6015
 8164SOL     OW36124   2.070   0.647   9.159 -0.3988  0.7413 -0.1491
 8164SOL    HW136125   2.106   0.728   9.195  0.0881 -1.3608  4.0160
 8164SOL    HW236126   2.148   0.592   9.170  0.2692  1.7587  0.2696
 8165SOL     OW36127   0.217   0.809   7.013  0.8441 -0.0031  0.0135
 8165SOL    HW136128   0.137   0.787   6.966  0.6970 -0.5096  0.5003
 8165SOL    HW236129   0.235   0.718   7.039 -1.3239 -0.4450 -0.0934
 8166SOL     OW36130   1.052   4.435   1.908 -0.1952  0.1412  0.1781
 8166SOL    HW136131   1.081   4.352   1.946 -1.4889  0.0416  0.9342
 8166SOL    HW236132   1.136   4.480   1.895 -1.0436  1.3540 -1.0981
 8167SOL     OW36133   1.753   1.899   4.098 -0.0938 -0.2465 -0.3061
 8167SOL    HW136134   1.684   1.966   4.100  2.2510  2.1248 -0.1016
 8167SOL    HW236135   1.707   1.833   4.150 -0.5337 -2.0758 -3.0076
 8168SOL     OW36136   0.509   2.112   5.452 -0.5023 -0.6042  0.4474
 8168SOL    HW136137   0.504   2.181   5.518 -1.4435  0.1098 -0.3601
 8168SOL    HW236138   0.598   2.117   5.418 -0.4685 -0.5365  0.5459
 8169SOL     OW36139   0.196   2.005  17.162 -0.0016 -0.4095  0.1563
 8169SOL    HW136140   0.106   2.038  17.163 -0.0794 -0.6243  0.2024
 8169SOL    HW236141   0.175   1.919  17.199  2.0817 -1.4992 -1.1690
 8170SOL     OW36142   1.014   0.280   1.302  0.0362 -0.0532 -1.1290
 8170SOL    HW136143   0.946   0.343   1.328 -0.3404 -1.1364  0.5964
 8170SOL    HW236144   1.023   0.316   1.214 -0.7374  0.0458 -1.1738
 8171SOL     OW36145   3.694   4.487  12.800  0.1205 -0.6415 -0.0805
 8171SOL    HW136146   3.650   4.456  12.880 -0.7188  1.4085  0.2616
 8171SOL    HW236147   3.766   4.425  12.799 -1.8441 -2.9818  2.0974
 8172SOL     OW36148   3.401   1.585   1.779 -0.2788 -0.8002 -0.8598
 8172SOL    HW136149   3.470   1.520   1.763  1.9003  1.4720 -0.6854
 8172SOL    HW236150   3.413   1.593   1.873 -0.9850 -0.2461 -0.8176
 8173SOL     OW36151   1.172   0.886   2.720 -0.2836  0.4586 -0.7914
 8173SOL    HW136152   1.119   0.808   2.701 -0.5555  0.2415  0.8507
 8173SOL    HW236153   1.258   0.857   2.689  0.6773  0.8318  1.5254
 8174SOL     OW36154   0.570   3.491   8.679  0.5141 -0.0986 -0.2082
 8174SOL    HW136155   0.629   3.538   8.739 -0.6858 -1.6736  2.2241
 8174SOL    HW236156   0.588   3.538   8.598  2.8067 -0.3585  0.1467
 8175SOL     OW36157   4.478   2.807   5.307 -0.0243 -0.0452  0.4736
 8175SOL    HW136158   4.560   2.769   5.275 -0.2709  1.0410 -1.4394
 8175SOL    HW236159   4.431   2.728   5.333  0.2504  0.5874  2.9013
 8176SOL     OW36160   2.011   2.312   3.464  0.5396 -0.2140  0.0939
 8176SOL    HW136161   2.051   2.276   3.385  0.0245  2.1068 -1.2506
 8176SOL    HW236162   1.932   2.359   3.436 -0.1522 -0.2040  2.0685
 8177SOL     OW36163   3.608   2.038   5.482  0.4748 -0.1534  0.5901
 8177SOL    HW136164   3.578   1.954   5.516  0.8463 -0.0840  1.0890
 8177SOL    HW236165   3.521   2.076   5.470  0.5637 -0.7292 -1.9991
 8178SOL     OW36166   0.761   4.396   5.749 -0.2409 -0.6180  0.0427
 8178SOL    HW136167   0.669   4.421   5.763  0.0693  0.5280  0.0609
 8178SOL    HW236168   0.797   4.485   5.757  0.7840 -0.8336 -2.4338
 8179SOL     OW36169   4.661   4.084   3.679 -0.3618 -0.2076  0.2079
 8179SOL    HW136170   4.617   4.000   3.663 -2.9402  1.4336 -1.5136
 8179SOL    HW236171   4.656   4.089   3.774  0.1162 -2.8813  0.3732
 8180SOL     OW36172   1.226   3.299   5.750 -0.2504  0.2386 -0.4297
 8180SOL    HW136173   1.255   3.237   5.817 -3.9368 -1.3040 -0.2568
 8180SOL    HW236174   1.141   3.316   5.792 -0.1313 -0.1040 -0.0495
 8181SOL     OW36175   2.572   4.219   8.847  0.2698 -0.4840 -0.5844
 8181SOL    HW136176   2.502   4.278   8.818 -0.1519 -0.5079  0.4063
 8181SOL    HW236177   2.527   4.156   8.903 -0.2043 -0.7048 -1.2054
 8182SOL     OW36178   2.279   4.500   3.555 -0.3802 -0.4516  0.1534
 8182SOL    HW136179   2.276   4.554   3.634 -0.1766 -2.5531  1.6052
 8182SOL    HW236180   2.346   4.444   3.594  0.5016 -0.6131 -1.5896
 8183SOL     OW36181   2.545   0.367   4.954  0.2440  0.0187 -0.2532
 8183SOL    HW136182   2.557   0.461   4.940 -0.1079  0.2817  1.2618
 8183SOL    HW236183   2.562   0.334   4.866  3.3617 -0.6318  0.5701
 8184SOL     OW36184   2.512   0.638   3.843  0.4117 -0.2526  0.3342
 8184SOL    HW136185   2.462   0.660   3.764  2.0147 -0.9247 -0.8572
 8184SOL    HW236186   2.487   0.550   3.871 -1.5990 -0.5018 -2.2066
 8185SOL     OW36187   1.093   1.823   6.119  0.3606 -0.1033 -0.5206
 8185SOL    HW136188   1.179   1.818   6.077  0.7370 -2.1616  0.4488
 8185SOL    HW236189   1.043   1.752   6.080  0.4689 -0.2619 -0.3748
 8186SOL     OW36190   3.229   0.386  16.857 -0.1203 -0.4074 -0.5723
 8186SOL    HW136191   3.229   0.298  16.817 -1.6492 -0.8649  0.4055
 8186SOL    HW236192   3.310   0.427  16.827 -1.0036  1.8960  0.2645
 8187SOL     OW36193   3.360   1.849   4.816  0.5146  0.2739  1.1118
 8187SOL    HW136194   3.321   1.887   4.737  2.6395 -1.3784 -0.7729
 8187SOL    HW236195   3.293   1.884   4.874  0.7058  0.1228  1.4242
 8188SOL     OW36196   3.173   0.359  13.839  0.6924 -0.1483 -0.1621
 8188SOL    HW136197   3.148   0.320  13.923  2.3211 -0.5144  0.1669
 8188SOL    HW236198   3.086   0.376  13.803 -0.6135  1.1602  3.5691
 8189SOL     OW36199   0.811   0.995   3.508  0.0195 -0.1436 -0.1041
 8189SOL    HW136200   0.818   1.032   3.596 -0.5348  0.5306 -0.3528
 8189SOL    HW236201   0.894   0.947   3.511  1.2292  2.0874  2.0305
 8190SOL     OW36202   1.271   3.262   7.951 -0.1317  0.1883 -0.5073
 8190SOL    HW136203   1.348   3.231   7.903 -0.3578 -0.1512 -0.6446
 8190SOL    HW236204   1.225   3.179   7.960  1.3053 -0.6813 -1.2069
 8191SOL     OW36205   1.073   3.652   4.887  0.4512 -0.1817  0.4776
 8191SOL    HW136206   0.999   3.688   4.936 -0.6533  0.1545 -1.4048
 8191SOL    HW236207   1.084   3.724   4.825  2.4218  0.2245  1.2995
 8192SOL     OW36208   0.845   0.240  12.987  0.2439  0.4614  0.1050
 8192SOL    HW136209   0.805   0.274  13.067 -1.2821 -0.6818 -0.1699
 8192SOL    HW236210   0.819   0.313  12.931 -0.8026  0.0722  0.0800
 8193SOL     OW36211   0.161   3.113   8.822  0.0742 -0.1081  0.3163
 8193SOL    HW136212   0.193   3.198   8.792  3.6437 -1.7383 -0.4601
 8193SOL    HW236213   0.112   3.136   8.902 -2.8346  0.6677 -1.6885
 8194SOL     OW36214   2.828   1.975  11.398  0.3013  0.1736 -0.7244
 8194SOL    HW136215   2.811   2.010  11.485  0.6460 -1.4208 -0.0100
 8194SOL    HW236216   2.903   1.915  11.401  0.1434  0.0018 -0.2000
 8195SOL     OW36217   3.737   3.407   1.451  0.4654 -0.2757  0.0957
 8195SOL    HW136218   3.727   3.501   1.437  0.5262 -0.0953  1.2688
 8195SOL    HW236219   3.657   3.376   1.409 -0.2649  1.1818  0.4077
 8196SOL     OW36220   4.693   2.151   2.998  0.0136  0.2398  0.0179
 8196SOL    HW136221   4.624   2.217   2.986 -1.4898 -0.6831  3.6355
 8196SOL    HW236222   4.715   2.127   2.908  1.1737 -0.1320  0.4102
 8197SOL     OW36223   2.774   0.651   5.480  0.8195  0.2288  0.0307
 8197SOL    HW136224   2.804   0.560   5.473  0.4750  0.1846 -0.7888
 8197SOL    HW236225   2.848   0.698   5.518  1.8497  0.2275 -1.9730
 8198SOL     OW36226   1.103   3.922   1.911 -0.1557  0.9444  0.0855
 8198SOL    HW136227   1.079   3.962   1.995  0.2281  0.3680  0.4717
 8198SOL    HW236228   1.032   3.953   1.856 -0.9056  1.1488  1.1633
 8199SOL     OW36229   2.872   3.178   3.723 -0.5474  0.0420  0.0401
 8199SOL    HW136230   2.823   3.101   3.750  0.1673 -0.4313 -0.0154
 8199SOL    HW236231   2.866   3.174   3.627 -0.9031  1.7697 -0.0205
 8200SOL     OW36232   0.087   1.994   7.237  0.3171  0.4128  0.5041
 8200SOL    HW136233   0.038   1.914   7.252 -0.1294  0.8127  1.1588
 8200SOL    HW236234   0.174   1.955   7.250  0.5014  0.7620  0.3427
 8201SOL     OW36235   0.115   3.090  12.828  0.8353  0.2646 -0.4310
 8201SOL    HW136236   0.168   3.169  12.818  2.1950 -0.2889  2.4320
 8201SOL    HW236237   0.065   3.100  12.747  0.2535  1.9282  0.1338
 8202SOL     OW36238   2.671   0.070   9.595 -0.0658 -0.1223 -0.5412
 8202SOL    HW136239   2.659   0.023   9.677  0.1220 -1.2969 -1.1791
 8202SOL    HW236240   2.749   0.120   9.619  0.3731 -1.4289  0.7236
 8203SOL     OW36241   4.294   2.889   2.852 -0.3783 -0.2193  0.2043
 8203SOL    HW136242   4.260   2.811   2.808  0.6668  0.6321 -2.1071
 8203SOL    HW236243   4.375   2.871   2.899  0.9469  3.4372 -0.6439
 8204SOL     OW36244   3.395   0.938   4.919 -0.3949 -0.4677 -0.5546
 8204SOL    HW136245   3.425   0.969   4.834 -0.7311 -0.5779 -0.7150
 8204SOL    HW236246   3.474   0.942   4.973  0.4876 -2.1831 -1.7327
 8205SOL     OW36247   3.668   1.750   8.057 -0.0788 -0.6078 -0.4120
 8205SOL    HW136248   3.694   1.742   7.965  0.5611 -2.3958 -0.0709
 8205SOL    HW236249   3.660   1.845   8.068  1.7928 -0.4959 -0.0513
 8206SOL     OW36250   2.079   4.188   6.550 -0.1320  0.1162 -0.1859
 8206SOL    HW136251   2.162   4.221   6.583  0.8848 -2.9786  0.3581
 8206SOL    HW236252   2.031   4.145   6.621  1.4012 -0.2922  0.6096
 8207SOL     OW36253   2.963   1.524   4.370  0.0656  0.7106 -0.2622
 8207SOL    HW136254   2.888   1.578   4.395  1.4240  1.9310  1.2061
 8207SOL    HW236255   2.924   1.438   4.355  0.7734  0.3580 -0.0991
 8208SOL     OW36256   1.180   3.237   6.150 -0.1715 -0.1195  0.1828
 8208SOL    HW136257   1.260   3.238   6.098  0.1712 -0.0173  0.7255
 8208SOL    HW236258   1.128   3.280   6.081 -0.6381 -0.9839 -0.0030
 8209SOL     OW36259   0.130   1.666   6.157  0.0806  0.2519  0.1369
 8209SOL    HW136260   0.200   1.725   6.130  0.9485 -0.5962  0.5589
 8209SOL    HW236261   0.063   1.730   6.184 -1.1935 -1.0050 -0.0211
 8210SOL     OW36262   1.056   4.492   4.618  0.1301 -0.1705  0.2511
 8210SOL    HW136263   1.143   4.478   4.582 -0.6284 -2.4225 -0.6671
 8210SOL    HW236264   1.034   4.402   4.640 -3.0820  1.1511  2.4832
 8211SOL     OW36265   1.776   0.896   0.342  0.1000 -0.2660  0.0568
 8211SOL    HW136266   1.732   0.965   0.292  2.3429 -0.2503 -1.8618
 8211SOL    HW236267   1.815   0.948   0.412  3.5852 -1.3076 -1.1339
 8212SOL     OW36268   3.749   4.335   7.713 -0.1760 -0.0490  0.2348
 8212SOL    HW136269   3.776   4.243   7.713  0.4290  0.1236  1.6201
 8212SOL    HW236270   3.749   4.349   7.808 -0.8268  1.6379 -0.0297
 8213SOL     OW36271   1.766   3.835   5.920 -0.2947  0.5388  0.0643
 8213SOL    HW136272   1.854   3.835   5.958 -1.1029 -0.4819  1.9165
 8213SOL    HW236273   1.779   3.798   5.832 -0.9098 -1.3026  0.7449
 8214SOL     OW36274   4.501   0.927   5.889  0.1635  0.4203  0.3268
 8214SOL    HW136275   4.539   1.008   5.925  3.2160 -0.6217 -0.5878
 8214SOL    HW236276   4.409   0.941   5.914 -0.0242  1.0645 -0.7098
 8215SOL     OW36277   4.429   0.764  10.808  0.3804  0.0910 -0.3058
 8215SOL    HW136278   4.468   0.717  10.735  1.6298 -3.8133  2.8353
 8215SOL    HW236279   4.513   0.787  10.847  0.5758  0.8245 -1.1738
 8216SOL     OW36280   1.870   1.532   7.803  0.2564 -0.9418  0.5314
 8216SOL    HW136281   1.936   1.545   7.871 -2.0238  2.5011  2.0657
 8216SOL    HW236282   1.889   1.440   7.781  1.1726 -0.6196 -0.0235
 8217SOL     OW36283   0.541   2.069   2.233 -0.0015  0.1595  0.5813
 8217SOL    HW136284   0.577   2.049   2.319  0.4723  0.2587  0.4062
 8217SOL    HW236285   0.616   2.099   2.181 -1.4408  0.9460 -1.0329
 8218SOL     OW36286   3.223   1.609   7.720  0.9938  0.0960 -0.4201
 8218SOL    HW136287   3.155   1.636   7.659  0.2118  0.0348  0.4349
 8218SOL    HW236288   3.185   1.534   7.766  0.5170  0.5579 -0.0801
 8219SOL     OW36289   1.872   0.636  13.557 -0.3139  0.3470  0.4263
 8219SOL    HW136290   1.801   0.671  13.504  0.9073 -0.6530 -1.8399
 8219SOL    HW236291   1.939   0.610  13.494 -1.0525 -0.0025 -0.2208
 8220SOL     OW36292   3.753   1.868  14.657 -0.1132 -0.1016  0.0884
 8220SOL    HW136293   3.848   1.879  14.658 -0.1928  0.6393 -1.2172
 8220SOL    HW236294   3.741   1.853  14.751 -0.2703  0.4791  0.1583
 8221SOL     OW36295   3.809   2.790   6.577  0.1070  0.4170 -0.2860
 8221SOL    HW136296   3.892   2.751   6.550 -1.1235 -2.7134  0.4862
 8221SOL    HW236297   3.797   2.834   6.492 -0.0246 -2.0671 -1.5533
 8222SOL     OW36298   1.628   4.241   5.335  0.4155  0.3132  0.3609
 8222SOL    HW136299   1.632   4.266   5.242 -0.7070 -1.3471 -0.1336
 8222SOL    HW236300   1.662   4.321   5.375 -2.8913  0.8583  2.0612
 8223SOL     OW36301   3.783   4.691  14.244 -0.2371  0.2897  0.0239
 8223SOL    HW136302   3.754   4.660  14.158  4.1575 -2.0476 -0.6402
 8223SOL    HW236303   3.739   0.044  14.251  1.3393  1.1882 -0.8936
 8224SOL     OW36304   1.308   0.048  11.200  0.1999  0.1842 -0.5844
 8224SOL    HW136305   1.327   0.135  11.236 -1.0785 -0.0161  0.5729
 8224SOL    HW236306   1.337   4.718  11.268  0.1896 -0.7108 -1.4004
 8225SOL     OW36307   2.302   0.367   9.786 -0.2338 -0.1310 -0.2434
 8225SOL    HW136308   2.311   0.285   9.738 -0.9144 -0.5507  0.3494
 8225SOL    HW236309   2.370   0.365   9.853  0.8426 -1.8627 -1.4098
 8226SOL     OW36310   0.920   1.044   8.273  0.2872 -0.1860  0.2209
 8226SOL    HW136311   0.928   0.961   8.227 -3.6539 -0.3787 -0.0889
 8226SOL    HW236312   0.882   1.103   8.208  1.8472  0.9002  0.3069
 8227SOL     OW36313   3.760   0.624   7.429  0.2648 -0.4629 -0.2042
 8227SOL    HW136314   3.715   0.676   7.362  1.6709  1.8170  0.6008
 8227SOL    HW236315   3.779   0.541   7.386  2.8069 -0.7409  1.4674
 8228SOL     OW36316   2.073   0.618   2.363  0.2159  0.0552 -0.0466
 8228SOL    HW136317   1.983   0.620   2.396 -0.1354 -0.7614 -0.9568
 8228SOL    HW236318   2.100   0.527   2.356 -0.6059 -0.1931  0.0760
 8229SOL     OW36319   2.034   1.849   6.573 -0.9885  0.0444  0.3223
 8229SOL    HW136320   2.031   1.780   6.639 -1.7844  0.3928  0.6473
 8229SOL    HW236321   2.128   1.862   6.563 -0.9137 -1.6432 -0.9682
 8230SOL     OW36322   1.843   3.663   7.023 -0.3319  0.1642 -0.3076
 8230SOL    HW136323   1.831   3.575   7.060  1.7049 -1.2531 -2.9945
 8230SOL    HW236324   1.879   3.707   7.100 -2.1664  0.6838  0.2517
 8231SOL     OW36325   0.818   1.137   7.970 -0.4952  0.0941  0.1414
 8231SOL    HW136326   0.773   1.160   7.889 -1.9978  0.5161  1.1051
 8231SOL    HW236327   0.798   1.044   7.985  1.1539 -0.1703  0.7565
 8232SOL     OW36328   2.776   2.980  13.057  0.7568  0.3759  0.2750
 8232SOL    HW136329   2.822   2.896  13.059 -1.1989 -0.7159  0.1807
 8232SOL    HW236330   2.760   2.994  13.151  3.4282  3.2136  0.2646
 8233SOL     OW36331   2.702   1.842   2.319  0.2786  0.2325  0.0433
 8233SOL    HW136332   2.684   1.920   2.372 -1.6452  1.0143 -1.7753
 8233SOL    HW236333   2.708   1.775   2.388 -0.2140  1.7372  1.5632
 8234SOL     OW36334   2.730   0.984  16.253 -0.9877  0.4527  0.2643
 8234SOL    HW136335   2.746   0.994  16.347  0.1770  2.8670 -0.1751
 8234SOL    HW236336   2.689   1.069  16.234 -0.6685  0.4611 -0.3647
 8235SOL     OW36337   3.747   3.064  14.647 -0.3756  0.0448  0.4028
 8235SOL    HW136338   3.839   3.049  14.623 -0.5412 -0.6513  0.2122
 8235SOL    HW236339   3.757   3.145  14.696  0.8919  1.2140 -1.7467
 8236SOL     OW36340   0.972   3.537   3.269  0.2976  0.0384  0.6284
 8236SOL    HW136341   0.967   3.611   3.207  1.2526 -0.8690 -0.5368
 8236SOL    HW236342   0.885   3.527   3.307 -0.2746  1.5851 -0.2542
 8237SOL     OW36343   0.338   1.513  12.062  0.0361 -0.4163 -0.6150
 8237SOL    HW136344   0.425   1.533  12.027 -0.3981  0.3092 -1.2849
 8237SOL    HW236345   0.358   1.465  12.142  0.7377  0.8393 -0.0293
 8238SOL     OW36346   4.606   4.577  10.006  0.2498  0.5099 -0.1978
 8238SOL    HW136347   4.545   4.535   9.945 -2.0804  2.9571  0.4190
 8238SOL    HW236348   4.673   4.509  10.006  1.1237  1.3694 -1.6391
 8239SOL     OW36349   0.123   1.291  11.845 -0.0315  0.4119 -0.6524
 8239SOL    HW136350   0.032   1.266  11.862 -0.0014  0.8171  0.1109
 8239SOL    HW236351   0.116   1.369  11.790 -0.4184 -0.1915 -1.4409
 8240SOL     OW36352   1.459   2.342   4.218 -0.6620  0.4825 -0.4078
 8240SOL    HW136353   1.416   2.294   4.289  1.1601 -0.2144  0.2337
 8240SOL    HW236354   1.392   2.406   4.195 -1.7471 -0.6353 -0.3830
 8241SOL     OW36355   4.168   0.861  15.121  0.5607 -0.0092 -0.6196
 8241SOL    HW136356   4.188   0.891  15.032  2.9556 -1.2660 -0.5135
 8241SOL    HW236357   4.096   0.801  15.102  0.5077 -0.4960  1.1298
 8242SOL     OW36358   0.075   0.655  16.042 -0.5686  0.4675 -0.2160
 8242SOL    HW136359   4.730   0.635  15.989 -0.1399  0.3870 -0.8190
 8242SOL    HW236360   0.082   0.750  16.033 -2.6383  0.6981  0.7918
 8243SOL     OW36361   4.439   0.940  15.543 -0.2920 -0.0420 -0.0362
 8243SOL    HW136362   4.428   0.882  15.467  2.1582 -0.6664  0.0979
 8243SOL    HW236363   4.439   1.030  15.510  1.1161  0.5952  1.7087
 8244SOL     OW36364   2.595   3.585  13.237  0.0327  0.5404 -0.1148
 8244SOL    HW136365   2.675   3.534  13.226 -0.5645 -0.7509  1.6270
 8244SOL    HW236366   2.552   3.558  13.156  1.5324  0.5162 -0.9087
 8245SOL     OW36367   2.068   0.183   2.475 -0.1951  0.0148 -0.2365
 8245SOL    HW136368   2.003   0.122   2.512 -2.2355  2.8228  0.8031
 8245SOL    HW236369   2.023   0.263   2.501  0.1827 -0.6683  2.4813
 8246SOL     OW36370   2.015   0.450  16.505 -0.0011  0.6686  0.5820
 8246SOL    HW136371   2.075   0.381  16.477 -0.4044  0.4051  0.3804
 8246SOL    HW236372   1.950   0.395  16.547  0.4498  1.9145  2.9063
 8247SOL     OW36373   1.265   4.055  11.754  0.2738  0.2688  0.3906
 8247SOL    HW136374   1.313   4.042  11.836 -1.6142 -3.2720  0.9147
 8247SOL    HW236375   1.331   4.035  11.687  1.6535  0.2838  1.7431
 8248SOL     OW36376   2.649   1.342  11.648 -0.6365  0.2890 -0.0132
 8248SOL    HW136377   2.602   1.260  11.666  0.0375 -0.0612  0.1464
 8248SOL    HW236378   2.606   1.375  11.569  0.5759  1.9018 -0.0039
 8249SOL     OW36379   3.782   1.438   3.677  0.0943 -0.3777 -0.6274
 8249SOL    HW136380   3.687   1.425   3.670  0.5615 -4.7079  0.8434
 8249SOL    HW236381   3.802   1.444   3.584 -1.2463 -1.2278 -0.9838
 8250SOL     OW36382   4.631   1.553   6.382  0.3708  0.0684  0.0298
 8250SOL    HW136383   4.606   1.492   6.314 -0.0329 -0.1228  0.3519
 8250SOL    HW236384   4.662   1.626   6.328  0.5183 -0.4627 -0.5969
 8251SOL     OW36385   2.766   2.693  14.520  0.2553 -0.2615 -0.0931
 8251SOL    HW136386   2.817   2.763  14.562  0.4200 -1.4295  1.6521
 8251SOL    HW236387   2.802   2.676  14.433  0.6883 -2.3379  0.4997
 8252SOL     OW36388   4.569   0.329   8.739 -0.0555  0.2030  0.3274
 8252SOL    HW136389   4.525   0.403   8.697  0.1984 -0.0053 -0.3124
 8252SOL    HW236390   4.661   0.349   8.725 -0.2175 -1.4490 -2.9845
 8253SOL     OW36391   0.552   1.507   7.175 -0.0333 -0.0869 -0.2826
 8253SOL    HW136392   0.459   1.523   7.193 -0.0903  0.2061 -0.8334
 8253SOL    HW236393   0.578   1.459   7.254 -0.9973 -0.0727  0.0436
 8254SOL     OW36394   0.092   4.420   6.994 -0.0670  0.7412  0.1220
 8254SOL    HW136395   0.085   4.428   6.899 -0.8659  0.2993  0.1439
 8254SOL    HW236396   0.014   4.369   7.017 -0.2782  0.8373 -0.3921
 8255SOL     OW36397   1.586   2.132   3.393  0.0034  0.0936 -0.4566
 8255SOL    HW136398   1.503   2.154   3.350 -0.1408 -3.2059 -1.8269
 8255SOL    HW236399   1.640   2.130   3.314  0.7551  2.9594 -0.0137
 8256SOL     OW36400   1.051   3.040  14.446 -0.2412 -0.4535  0.5402
 8256SOL    HW136401   1.038   3.126  14.487  2.2317  1.1725 -2.0523
 8256SOL    HW236402   1.024   2.983  14.518 -0.9863 -0.6645  0.0895
 8257SOL     OW36403   1.036   3.847   6.368 -0.1624  0.0598 -0.6329
 8257SOL    HW136404   1.072   3.935   6.358  0.7968 -0.3421 -0.7007
 8257SOL    HW236405   0.955   3.868   6.320  0.5391  0.2239 -1.7597
 8258SOL     OW36406   1.475   0.046   4.685  0.2840  0.1853 -0.1567
 8258SOL    HW136407   1.443   4.693   4.655 -0.0571  1.0630 -2.3005
 8258SOL    HW236408   1.570   0.037   4.689  0.0617 -2.5114 -0.8783
 8259SOL     OW36409   1.778   2.667   6.828 -0.1544 -0.0565 -0.4723
 8259SOL    HW136410   1.827   2.620   6.761  1.4942 -1.3636  1.6500
 8259SOL    HW236411   1.694   2.621   6.839 -0.4093  0.2278 -1.2061
 8260SOL     OW36412   0.854   1.616  14.924 -0.0447 -0.2096  0.4824
 8260SOL    HW136413   0.856   1.522  14.906  2.9973 -0.1004  0.2208
 8260SOL    HW236414   0.791   1.618  14.995 -0.6665  1.1094 -0.1027
 8261SOL     OW36415   3.808   2.851  11.787  0.6986 -0.4282  1.0182
 8261SOL    HW136416   3.887   2.860  11.734 -1.1465  1.1035 -1.4763
 8261SOL    HW236417   3.829   2.927  11.843 -4.2559  2.0328 -0.4500
 8262SOL     OW36418   3.882   0.608   5.630 -0.0441 -0.2074  0.8682
 8262SOL    HW136419   3.942   0.575   5.697 -2.1775 -0.6662  2.5443
 8262SOL    HW236420   3.924   0.565   5.555 -4.0708 -2.4229 -0.0892
 8263SOL     OW36421   1.071   2.384   2.854  0.5479 -0.5749 -0.8529
 8263SOL    HW136422   1.155   2.413   2.888 -1.0320  0.8362  1.8302
 8263SOL    HW236423   1.096   2.316   2.791 -0.7024 -3.2547  1.5478
 8264SOL     OW36424   3.616   2.920   7.175 -0.4365 -0.6851 -0.9527
 8264SOL    HW136425   3.567   2.838   7.169  0.3702 -1.1525 -1.2042
 8264SOL    HW236426   3.700   2.893   7.137 -1.1380 -2.3795 -1.3038
 8265SOL     OW36427   2.537   2.844  14.629  0.1845 -0.7328  0.0253
 8265SOL    HW136428   2.592   2.771  14.602  0.6238 -0.6280  0.6259
 8265SOL    HW236429   2.536   2.898  14.550 -0.2872 -2.0989 -0.8848
 8266SOL     OW36430   2.107   1.463   4.641  0.5839  0.2623  0.1167
 8266SOL    HW136431   2.076   1.432   4.726 -0.2519  2.5774  0.6496
 8266SOL    HW236432   2.029   1.506   4.607  1.4841  1.6530 -0.2041
 8267SOL     OW36433   1.577   1.065   2.786 -0.0820  0.2916 -0.0073
 8267SOL    HW136434   1.521   1.065   2.864  0.3968 -0.1667  0.3408
 8267SOL    HW236435   1.660   1.055   2.832 -1.2025  0.4954  2.0486
 8268SOL     OW36436   1.224   0.963   3.780  0.5385 -0.1123  0.1516
 8268SOL    HW136437   1.257   0.887   3.829  1.1939  0.5846  0.8083
 8268SOL    HW236438   1.300   0.990   3.729 -0.1566 -0.9162 -1.3093
 8269SOL     OW36439   0.194   1.560  17.646  0.0461  0.3276 -0.1286
 8269SOL    HW136440   0.101   1.580  17.651 -0.0790 -0.4465  0.6892
 8269SOL    HW236441   0.230   1.647  17.664  1.8997 -0.2963 -0.8639
 8270SOL     OW36442   2.599   0.405   5.594 -0.3012 -0.0369  0.1786
 8270SOL    HW136443   2.569   0.483   5.547  1.1588 -0.6807 -1.8001
 8270SOL    HW236444   2.692   0.423   5.609 -0.1110 -0.4364 -0.5632
 8271SOL     OW36445   1.922   4.319   9.451 -0.0450  0.2638 -0.1746
 8271SOL    HW136446   2.005   4.276   9.472 -0.0799  0.6682  0.7491
 8271SOL    HW236447   1.930   4.409   9.482  0.9123  0.1683 -0.1216
 8272SOL     OW36448   0.219   0.564   7.321 -0.1329 -0.7264  0.0853
 8272SOL    HW136449   0.217   0.659   7.312  1.6117 -0.8413 -1.4141
 8272SOL    HW236450   0.144   0.540   7.267 -0.6840 -0.1699  0.6030
 8273SOL     OW36451   1.318   4.313   9.090  0.1576 -0.0877  0.2080
 8273SOL    HW136452   1.278   4.356   9.014 -0.3785 -0.5332  0.2343
 8273SOL    HW236453   1.375   4.382   9.124  1.9447 -1.7249  0.5246
 8274SOL     OW36454   0.662   2.148   3.148  0.1504 -0.3138 -0.4083
 8274SOL    HW136455   0.638   2.115   3.061 -1.1014 -1.7098  0.4673
 8274SOL    HW236456   0.755   2.130   3.165  0.2025  0.2589 -0.0956
 8275SOL     OW36457   2.861   2.715   6.024  0.2829  0.0697 -0.0441
 8275SOL    HW136458   2.953   2.718   6.051  0.6396 -0.4404 -1.2115
 8275SOL    HW236459   2.871   2.684   5.934  3.6649  1.0748 -0.0108
 8276SOL     OW36460   2.759   4.228   6.439  0.1223  0.3998  0.0979
 8276SOL    HW136461   2.802   4.299   6.390 -1.4795  1.3994  0.1529
 8276SOL    HW236462   2.687   4.206   6.381 -0.0648  2.7781 -0.5870
 8277SOL     OW36463   4.730   2.285  15.194 -0.5608 -0.0743  0.3157
 8277SOL    HW136464   4.634   2.279  15.192 -0.7666  3.2292  0.4578
 8277SOL    HW236465   0.006   2.370  15.237 -0.8825  0.2809 -0.3321
 8278SOL     OW36466   2.995   1.402   2.284  0.5271 -0.0534 -0.2650
 8278SOL    HW136467   3.027   1.339   2.350 -0.2330 -0.5502 -0.3651
 8278SOL    HW236468   2.903   1.401   2.310  0.4378  3.0109 -0.5571
 8279SOL     OW36469   3.495   2.090   4.064 -0.3354  0.0670  0.1905
 8279SOL    HW136470   3.461   2.007   4.097 -0.3970  0.2582  0.5993
 8279SOL    HW236471   3.558   2.114   4.132  0.9497 -0.8590 -0.6562
 8280SOL     OW36472   2.282   0.475   3.011  0.4989  0.3052  0.5936
 8280SOL    HW136473   2.280   0.534   3.085 -1.1760 -0.9126  1.5266
 8280SOL    HW236474   2.280   0.538   2.939  0.7569 -1.5714 -1.0759
 8281SOL     OW36475   3.504   0.127   6.265 -0.1588  0.3053 -0.3781
 8281SOL    HW136476   3.446   0.055   6.241  1.2584 -1.7922  2.4507
 8281SOL    HW236477   3.559   0.082   6.329 -2.1218 -1.1269  0.3287
 8282SOL     OW36478   3.896   3.902  10.778  0.5049 -0.3868 -0.0913
 8282SOL    HW136479   3.949   3.921  10.701 -0.7960 -1.3144 -1.2330
 8282SOL    HW236480   3.960   3.912  10.848 -2.0339  1.9962  1.9043
 8283SOL     OW36481   2.006   2.850   5.543  0.4699  0.2745 -0.4417
 8283SOL    HW136482   2.052   2.782   5.592  2.5772  0.5616 -1.9931
 8283SOL    HW236483   2.071   2.921   5.540  0.4683  0.2715 -0.5525
 8284SOL     OW36484   2.128   4.566   5.941 -0.2947 -0.2000 -0.2554
 8284SOL    HW136485   2.146   4.494   5.881 -0.4726 -1.0341  0.6974
 8284SOL    HW236486   2.104   4.529   6.026  2.6966  0.1987  0.7899
 8285SOL     OW36487   3.509   4.661  14.362  0.5851 -0.6594  0.1279
 8285SOL    HW136488   3.586   4.605  14.355 -0.2574 -1.7364 -0.4950
 8285SOL    HW236489   3.557   0.010  14.343 -0.0036 -0.0832  1.0761
 8286SOL     OW36490   0.389   0.364   6.171 -0.6412 -0.4165  0.6068
 8286SOL    HW136491   0.413   0.430   6.107  0.2027 -2.4668 -1.1818
 8286SOL    HW236492   0.421   0.409   6.249  0.7321 -1.3341  0.5715
 8287SOL     OW36493   3.605   0.165  14.289  0.0707 -0.0351  0.4290
 8287SOL    HW136494   3.626   0.206  14.372  1.4868 -1.1231  0.6101
 8287SOL    HW236495   3.542   0.215  14.237 -1.9027 -3.1215 -0.1620
 8288SOL     OW36496   3.518   4.644  16.559  0.3012  0.7649 -0.5892
 8288SOL    HW136497   3.542   4.638  16.651  1.3981  2.6467 -0.7416
 8288SOL    HW236498   3.579   4.587  16.513 -1.6172 -1.7097 -0.0882
 8289SOL     OW36499   2.829   0.848   5.079  0.1730 -0.2473  0.0803
 8289SOL    HW136500   2.780   0.922   5.041  0.3343  0.3396  0.9985
 8289SOL    HW236501   2.796   0.787   5.013  0.3053  2.4917 -2.5287
 8290SOL     OW36502   1.468   1.810   9.193 -0.0254 -0.1022  0.1346
 8290SOL    HW136503   1.519   1.856   9.260  1.3565 -0.4033 -0.7006
 8290SOL    HW236504   1.400   1.877   9.190  0.5965  0.4971 -0.4583
 8291SOL     OW36505   0.049   3.081  10.954  0.2690 -0.1768 -0.1886
 8291SOL    HW136506   0.134   3.113  10.982  1.1110 -1.8139 -0.8399
 8291SOL    HW236507   0.003   3.090  11.038  3.2302 -1.1065  1.5301
 8292SOL     OW36508   4.242   2.658   5.207  0.4000 -0.6876 -0.0456
 8292SOL    HW136509   4.311   2.720   5.183 -0.0055 -0.0414  0.4604
 8292SOL    HW236510   4.176   2.694   5.147 -1.6254 -2.6160  1.0504
 8293SOL     OW36511   4.347   1.201   8.359  0.5515  0.5271 -1.0340
 8293SOL    HW136512   4.365   1.107   8.365 -0.3581  0.3696 -0.8130
 8293SOL    HW236513   4.376   1.225   8.447  0.1359 -1.0526 -0.4604
 8294SOL     OW36514   3.227   3.331   1.980 -0.1150  0.7385 -0.6598
 8294SOL    HW136515   3.310   3.285   1.989 -0.6437 -0.1893 -0.6273
 8294SOL    HW236516   3.174   3.288   1.914 -2.5847 -0.2554  1.9503
 8295SOL     OW36517   2.576   1.507   9.713  0.3033 -0.0472  0.0564
 8295SOL    HW136518   2.570   1.458   9.631  2.7565  2.1002 -1.4166
 8295SOL    HW236519   2.486   1.536   9.724  0.1866  0.3998 -1.9470
 8296SOL     OW36520   0.443   4.297  16.233  0.1349  0.0985  0.5525
 8296SOL    HW136521   0.407   4.386  16.230 -2.5686 -1.0899 -1.9672
 8296SOL    HW236522   0.360   4.251  16.218 -0.1908  0.4464  1.2732
 8297SOL     OW36523   4.024   1.831   3.316  0.2350 -0.4121  0.1745
 8297SOL    HW136524   4.017   1.926   3.325 -0.7990 -0.5485  0.7666
 8297SOL    HW236525   4.050   1.796   3.401  0.5132 -1.9603 -0.5426
 8298SOL     OW36526   3.754   1.901   7.465  0.0340 -0.3449  0.2526
 8298SOL    HW136527   3.832   1.925   7.415  2.5896 -2.5052  3.2018
 8298SOL    HW236528   3.717   1.985   7.493 -0.2920 -0.6082  0.6098
 8299SOL     OW36529   1.034   2.526   4.778 -0.4911 -1.0950  0.1281
 8299SOL    HW136530   1.036   2.468   4.854  0.3562 -2.1775 -0.7187
 8299SOL    HW236531   0.941   2.541   4.760  0.0153 -1.0093 -2.4347
 8300SOL     OW36532   2.627   3.148   5.073 -0.0568 -0.3371  0.3877
 8300SOL    HW136533   2.596   3.118   5.158  0.5670  0.8908  1.0463
 8300SOL    HW236534   2.572   3.106   5.007 -0.8144  1.2302  0.0146
 8301SOL     OW36535   1.958   0.431   6.205  0.1371 -0.1185  0.1280
 8301SOL    HW136536   1.961   0.405   6.297 -1.6730 -0.0217  0.2242
 8301SOL    HW236537   1.943   0.346   6.165  0.3205 -0.5611  0.9912
 8302SOL     OW36538   2.676   1.715   6.877 -0.3330  0.2396  0.3497
 8302SOL    HW136539   2.703   1.624   6.876 -0.2927  0.2711 -0.7105
 8302SOL    HW236540   2.580   1.716   6.889 -0.6750 -0.4664 -2.5219
 8303SOL     OW36541   3.398   0.665   7.890 -0.7082  0.2051  0.1406
 8303SOL    HW136542   3.329   0.729   7.903 -0.9594 -0.0054 -0.1699
 8303SOL    HW236543   3.394   0.621   7.975  0.9268  0.1873  0.2069
 8304SOL     OW36544   4.351   2.454  17.191 -0.1853 -0.1868 -0.4101
 8304SOL    HW136545   4.357   2.368  17.150  0.7374 -0.3895  0.1464
 8304SOL    HW236546   4.439   2.483  17.170  0.6273 -0.2291  2.8597
 8305SOL     OW36547   2.478   2.903  14.893 -0.7130 -0.0883 -0.2003
 8305SOL    HW136548   2.453   2.994  14.878 -2.2694 -0.0515  2.6124
 8305SOL    HW236549   2.491   2.872  14.803 -0.0782 -0.5361  0.0447
 8306SOL     OW36550   2.146   2.932   7.724 -0.1427  0.0113 -0.1755
 8306SOL    HW136551   2.147   2.836   7.727  4.2039  0.0959  1.4330
 8306SOL    HW236552   2.114   2.953   7.812  1.9281  0.0407  0.5606
 8307SOL     OW36553   3.708   4.160  15.746  0.1555 -0.2366 -0.3462
 8307SOL    HW136554   3.663   4.076  15.734 -0.6540 -0.0085  1.0575
 8307SOL    HW236555   3.781   4.166  15.684  0.2569  1.1256 -0.0965
 8308SOL     OW36556   1.802   1.613   3.939  0.1732 -0.6985 -0.0161
 8308SOL    HW136557   1.884   1.602   3.988 -1.3021 -1.4551  2.2680
 8308SOL    HW236558   1.744   1.640   4.010  1.7195  1.0847  0.5933
 8309SOL     OW36559   2.908   2.907   5.384 -0.3342  0.3226 -0.5176
 8309SOL    HW136560   2.978   2.944   5.438 -0.0285  1.2451 -1.5485
 8309SOL    HW236561   2.888   2.832   5.439 -1.3956  0.7969 -0.2713
 8310SOL     OW36562   0.445   3.125   3.100 -0.1701  0.0247  0.1009
 8310SOL    HW136563   0.538   3.134   3.080  0.2423 -0.8606  1.5978
 8310SOL    HW236564   0.402   3.118   3.015  2.2988 -1.4966 -1.0042
 8311SOL     OW36565   1.023   1.828  16.589 -0.2326  0.6198 -0.0223
 8311SOL    HW136566   1.058   1.875  16.665 -0.1244 -1.0587  0.9483
 8311SOL    HW236567   1.047   1.890  16.519 -1.9240  0.7440 -0.4953
 8312SOL     OW36568   0.580   3.752   3.337  0.3497 -0.1958  0.0383
 8312SOL    HW136569   0.666   3.780   3.306  0.7346  0.0760  1.3896
 8312SOL    HW236570   0.522   3.828   3.330 -0.7914 -1.1271 -0.7087
 8313SOL     OW36571   1.399   2.933   4.325  0.2550 -0.2220 -0.3744
 8313SOL    HW136572   1.426   2.956   4.236 -0.6776  0.7266 -0.4221
 8313SOL    HW236573   1.415   2.839   4.327  3.9231  0.3662 -2.4067
 8314SOL     OW36574   1.965   2.038   5.014  0.0150 -0.2163 -0.3774
 8314SOL    HW136575   1.895   1.981   4.981 -1.0409  1.8403 -1.6757
 8314SOL    HW236576   1.934   2.074   5.097 -1.0378 -1.1557 -0.3625
 8315SOL     OW36577   3.164   3.532   1.166 -0.1628  0.4358 -0.1206
 8315SOL    HW136578   3.180   3.469   1.236 -1.6549 -0.2084 -0.3652
 8315SOL    HW236579   3.184   3.479   1.089 -3.4026  0.8852 -1.2882
 8316SOL     OW36580   2.140   2.022  11.483 -0.2734 -0.0114 -0.7246
 8316SOL    HW136581   2.056   2.048  11.445 -0.1257  0.8602 -0.4525
 8316SOL    HW236582   2.107   1.951  11.538 -2.4207  2.4004  1.0963
 8317SOL     OW36583   2.259   2.737  16.171 -0.2093  0.2418 -0.0905
 8317SOL    HW136584   2.312   2.773  16.100  4.0574 -3.4031  1.2647
 8317SOL    HW236585   2.193   2.803  16.194 -0.0789 -0.4558  2.3030
 8318SOL     OW36586   0.615   4.640   6.011 -0.0467 -0.4327  0.2126
 8318SOL    HW136587   0.608   0.004   6.012 -0.0010 -0.4354  1.7300
 8318SOL    HW236588   0.699   4.632   5.966 -2.0595 -1.2888 -3.3705
 8319SOL     OW36589   4.146   4.295   4.148 -0.2677 -0.2706 -0.0367
 8319SOL    HW136590   4.146   4.357   4.221 -1.7484  0.0004 -0.2718
 8319SOL    HW236591   4.238   4.277   4.168 -0.2149  0.5101  0.4255
 8320SOL     OW36592   0.153   3.486   7.527  0.2121  0.0100  1.0383
 8320SOL    HW136593   0.239   3.457   7.496  0.3428  0.2958  1.1303
 8320SOL    HW236594   0.128   3.547   7.458  0.6396 -1.5466 -0.4829
 8321SOL     OW36595   1.252   0.698   5.101  0.2950  0.2149 -0.4008
 8321SOL    HW136596   1.208   0.652   5.030 -0.4457 -2.2176  1.6148
 8321SOL    HW236597   1.181   0.758   5.128  0.7678 -0.6866  2.8408
 8322SOL     OW36598   0.280   2.090   6.479  0.2680  0.3790 -0.8130
 8322SOL    HW136599   0.240   2.127   6.400 -2.3115 -0.2299  0.2211
 8322SOL    HW236600   0.202   2.077   6.533  0.6501 -0.0192 -0.3541
 8323SOL     OW36601   3.877   3.659   4.753 -0.4683 -0.5295 -0.1838
 8323SOL    HW136602   3.917   3.729   4.805 -1.1621 -1.5892  1.7790
 8323SOL    HW236603   3.819   3.696   4.686 -1.6849  1.9028  2.1864
 8324SOL     OW36604   4.227   0.644   5.204 -0.0514  0.3243 -0.3832
 8324SOL    HW136605   4.199   0.671   5.292 -1.5626 -0.6645 -0.5653
 8324SOL    HW236606   4.146   0.610   5.167  0.2712 -0.8832  0.0489
 8325SOL     OW36607   1.066   0.091   5.741 -0.6419 -0.3496  0.0578
 8325SOL    HW136608   1.077   4.731   5.766  1.1212 -0.7686 -2.2562
 8325SOL    HW236609   1.063   0.086   5.645 -0.7752 -1.3704  0.1133
 8326SOL     OW36610   3.140   3.855  16.911  1.0002  0.4229  0.1151
 8326SOL    HW136611   3.099   3.908  16.843 -0.9774  1.3113  2.0271
 8326SOL    HW236612   3.138   3.908  16.991  0.0384 -0.3584  0.6093
 8327SOL     OW36613   4.276   4.253   2.622 -0.3482 -0.6877  0.0657
 8327SOL    HW136614   4.298   4.185   2.686 -0.1008  1.1343  1.9003
 8327SOL    HW236615   4.191   4.278   2.657 -0.6415 -1.1750 -0.2997
 8328SOL     OW36616   2.268   3.426   4.343 -0.4248 -0.0603 -0.1095
 8328SOL    HW136617   2.240   3.391   4.428  0.5621 -0.5722  0.0081
 8328SOL    HW236618   2.222   3.377   4.274  0.7749 -1.3278 -0.0222
 8329SOL     OW36619   2.902   3.070   5.610 -0.3363  0.0371  0.0546
 8329SOL    HW136620   2.917   3.164   5.610  1.2273 -0.2088  0.5674
 8329SOL    HW236621   2.936   3.048   5.697  2.9187  0.6729 -1.0569
 8330SOL     OW36622   1.297   3.212  10.347 -0.1557 -0.0058  0.6711
 8330SOL    HW136623   1.226   3.152  10.322 -0.1272  0.0450  0.4704
 8330SOL    HW236624   1.251   3.296  10.353  1.5660  0.9300  0.5308
 8331SOL     OW36625   4.347   2.337  16.370 -0.1519  0.1321  0.1520
 8331SOL    HW136626   4.434   2.351  16.407 -0.5158  0.5752  0.8484
 8331SOL    HW236627   4.367   2.278  16.297 -0.3045 -1.7613  1.6347
 8332SOL     OW36628   0.373   2.038  16.005 -0.3485  0.5607 -0.2884
 8332SOL    HW136629   0.420   2.105  16.055 -1.2935  2.0932 -1.4405
 8332SOL    HW236630   0.351   1.964  16.061  1.2231 -0.7580 -1.3756
 8333SOL     OW36631   2.507   3.173   3.675 -0.3060  0.3269  0.1839
 8333SOL    HW136632   2.537   3.262   3.696  0.1174  1.0811 -3.5452
 8333SOL    HW236633   2.576   3.150   3.613 -1.6590  0.0571 -1.2244
 8334SOL     OW36634   4.699   1.885   3.756 -0.4412  0.0799  0.7818
 8334SOL    HW136635   0.023   1.891   3.833  2.2277  0.9219 -1.2043
 8334SOL    HW236636   4.620   1.925   3.792  0.5139  0.0968  2.8241
 8335SOL     OW36637   0.177   3.620   5.944  0.0350 -0.2722 -0.0462
 8335SOL    HW136638   0.110   3.641   5.879  0.2728  2.7664  0.6814
 8335SOL    HW236639   0.204   3.531   5.919  1.3894  0.2459 -0.4318
 8336SOL     OW36640   0.965   2.054  12.273 -0.3528 -0.1866  0.3029
 8336SOL    HW136641   0.998   2.078  12.360 -1.4233  1.1743  0.3248
 8336SOL    HW236642   0.979   1.960  12.277  0.4196 -0.0330  1.3814
 8337SOL     OW36643   0.365   2.457   4.751  0.0891  0.6233  0.0225
 8337SOL    HW136644   0.373   2.510   4.672 -1.6936  2.2886  0.9854
 8337SOL    HW236645   0.393   2.378   4.703  0.3659 -0.2432  1.6061
 8338SOL     OW36646   1.918   3.541   2.287 -0.4128  0.2963 -0.3168
 8338SOL    HW136647   1.839   3.596   2.286 -0.6196  0.0115  0.5095
 8338SOL    HW236648   1.970   3.596   2.344 -0.4562 -0.2774  0.2730
 8339SOL     OW36649   1.958   0.095  15.751 -0.0254  0.2562  0.4612
 8339SOL    HW136650   1.920   0.177  15.721 -1.4750  0.0061  1.6262
 8339SOL    HW236651   2.041   0.126  15.788  1.7914  0.6159 -3.8903
 8340SOL     OW36652   2.775   3.993   7.045  0.1230  0.0757  0.6830
 8340SOL    HW136653   2.774   3.902   7.077 -1.1692  0.2988  1.2630
 8340SOL    HW236654   2.732   4.045   7.112 -1.3593  1.5740 -1.4357
 8341SOL     OW36655   0.558   3.946  16.147  0.3314  0.0948 -0.6829
 8341SOL    HW136656   0.641   3.944  16.194  0.5575 -0.8625 -1.1197
 8341SOL    HW236657   0.588   3.994  16.069  0.5501  0.4290 -0.3892
 8342SOL     OW36658   2.019   3.711   6.001  0.5478 -0.1880 -0.5171
 8342SOL    HW136659   1.960   3.647   5.962  1.6690 -1.3333 -0.3246
 8342SOL    HW236660   2.065   3.759   5.933 -0.4737  0.4632 -0.7435
 8343SOL     OW36661   3.026   1.725   8.511  0.6769 -0.0085  0.0948
 8343SOL    HW136662   2.949   1.737   8.455 -0.3234  0.4094  1.5374
 8343SOL    HW236663   3.049   1.818   8.514  1.6889 -0.2261 -1.3888
 8344SOL     OW36664   0.457   4.375   1.188  0.4063 -0.1211  0.1182
 8344SOL    HW136665   0.373   4.417   1.205  0.0551 -1.0501  0.6580
 8344SOL    HW236666   0.507   4.450   1.155  0.2370  0.0679  0.2874
 8345SOL     OW36667   0.595   4.177   3.527  0.3398  0.2055  0.6079
 8345SOL    HW136668   0.548   4.105   3.484  0.1324  0.9862 -0.4746
 8345SOL    HW236669   0.608   4.140   3.614  2.7078 -0.9575 -0.2269
 8346SOL     OW36670   2.495   1.444   3.725 -0.3070 -0.0310 -0.1839
 8346SOL    HW136671   2.445   1.519   3.755 -1.7253 -0.1911 -2.1693
 8346SOL    HW236672   2.443   1.428   3.647 -0.5454  1.6269 -0.3487
 8347SOL     OW36673   3.029   2.849  16.107  0.0790 -0.0517  0.3448
 8347SOL    HW136674   2.939   2.875  16.128 -0.5407 -0.8224 -1.3746
 8347SOL    HW236675   3.040   2.882  16.018 -0.5535 -0.9449 -0.0676
 8348SOL     OW36676   3.687   1.261  14.517  0.4310  0.2144  0.5008
 8348SOL    HW136677   3.746   1.212  14.459  0.6309 -0.9409  1.6696
 8348SOL    HW236678   3.681   1.345  14.473  0.5688  0.7665  1.5291
 8349SOL     OW36679   2.391   3.436  10.302 -0.6737  0.2439  0.6937
 8349SOL    HW136680   2.337   3.513  10.319  0.0726  1.1457 -1.0894
 8349SOL    HW236681   2.465   3.462  10.246 -0.3474 -1.3760  0.3834
 8350SOL     OW36682   3.635   0.438   5.428 -0.4801 -0.2962  0.0929
 8350SOL    HW136683   3.637   0.409   5.519  2.5397 -0.8925 -0.1644
 8350SOL    HW236684   3.588   0.521   5.427  0.1640  0.0504 -0.7969
 8351SOL     OW36685   3.541   4.708   4.402 -0.5251  0.8136 -0.3228
 8351SOL    HW136686   3.562   4.725   4.310 -0.7729  0.8326 -0.3755
 8351SOL    HW236687   3.477   0.045   4.422 -0.3960  1.4475 -2.0553
 8352SOL     OW36688   0.489   3.817   4.626  0.2703  0.2229 -0.3606
 8352SOL    HW136689   0.463   3.733   4.663  0.4233  1.0035  1.5086
 8352SOL    HW236690   0.544   3.791   4.552 -1.6446 -1.6355 -1.1428
 8353SOL     OW36691   1.335   0.893  12.286  0.2539 -0.3605  0.1287
 8353SOL    HW136692   1.431   0.893  12.294  0.4742  0.5645 -2.8716
 8353SOL    HW236693   1.304   0.908  12.376  0.7565  0.8674  0.0900
 8354SOL     OW36694   3.556   0.250   4.918  0.1821  0.3381  0.2427
 8354SOL    HW136695   3.622   0.186   4.894 -1.4164 -0.7761 -1.2033
 8354SOL    HW236696   3.576   0.241   5.011 -1.3443  0.8292  0.6213
 8355SOL     OW36697   2.624   0.161   3.637 -0.1755  0.4199 -0.2971
 8355SOL    HW136698   2.683   0.092   3.670 -0.1519 -0.1579 -1.5540
 8355SOL    HW236699   2.662   0.239   3.677  0.5645 -0.1732  0.1684
 8356SOL     OW36700   1.163   1.312   4.212 -0.5248 -0.3938 -0.3695
 8356SOL    HW136701   1.119   1.396   4.197 -0.3961  0.3294  3.2764
 8356SOL    HW236702   1.194   1.301   4.122 -2.8519 -0.5143 -1.1713
 8357SOL     OW36703   4.720   2.381   5.726  0.1561 -0.4054 -0.4112
 8357SOL    HW136704   4.691   2.313   5.664 -2.4510  1.1496 -0.8915
 8357SOL    HW236705   4.692   2.465   5.689 -0.1198 -0.8331 -1.1729
 8358SOL     OW36706   3.002   1.168   5.441  0.3253  0.3903 -0.4904
 8358SOL    HW136707   2.950   1.094   5.410  0.1538  0.3203 -0.0425
 8358SOL    HW236708   3.055   1.176   5.361  0.4536 -1.3337 -0.5640
 8359SOL     OW36709   2.439   0.607   9.633  0.0188  0.0064  0.5035
 8359SOL    HW136710   2.434   0.545   9.705  1.4307 -1.4989 -0.6783
 8359SOL    HW236711   2.406   0.684   9.680 -1.7006 -0.5442  0.1716
 8360SOL     OW36712   4.070   3.345   6.833  0.1904 -0.4389  0.2427
 8360SOL    HW136713   4.152   3.297   6.836  2.4931  3.3394 -1.7832
 8360SOL    HW236714   4.091   3.437   6.852 -1.4250 -0.2158  0.9720
 8361SOL     OW36715   1.977   1.799  12.614  0.4138  0.5346  0.2437
 8361SOL    HW136716   2.068   1.769  12.604 -0.1157 -1.5780  1.6331
 8361SOL    HW236717   1.937   1.754  12.540 -2.3421  1.5481  1.1412
 8362SOL     OW36718   2.096   1.025   5.279 -0.0463  0.3092  0.3445
 8362SOL    HW136719   2.069   1.031   5.370  2.0491  1.0575  0.9143
 8362SOL    HW236720   2.085   0.931   5.262  0.3358  0.0977  1.2586
 8363SOL     OW36721   0.642   3.297   3.977  0.1612  0.0499  0.1204
 8363SOL    HW136722   0.734   3.323   3.984  0.8320 -1.6860 -2.2881
 8363SOL    HW236723   0.629   3.341   3.893 -2.4337 -0.4077  0.2940
 8364SOL     OW36724   3.070   0.589   5.421  0.3983 -0.0836 -0.7878
 8364SOL    HW136725   3.051   0.623   5.333  3.0615  0.7538 -1.0435
 8364SOL    HW236726   3.116   0.509   5.397 -1.8334 -1.4841 -0.3371
 8365SOL     OW36727   2.083   0.022   7.154  0.5516 -0.5346  0.0609
 8365SOL    HW136728   2.173   0.013   7.122  1.1005 -1.1823  1.7871
 8365SOL    HW236729   2.052   0.096   7.101 -1.5257 -2.1932 -1.0088
 8366SOL     OW36730   1.443   3.866   9.107 -0.3384  0.0535 -0.1476
 8366SOL    HW136731   1.380   3.836   9.042  0.1965 -0.3847 -0.4672
 8366SOL    HW236732   1.437   3.798   9.174 -0.6372 -1.8924 -2.1725
 8367SOL     OW36733   1.676   1.212  17.622  0.1028  0.4771 -0.1265
 8367SOL    HW136734   1.747   1.242  17.565  0.7082  0.6703  0.7185
 8367SOL    HW236735   1.619   1.289  17.632 -0.4394  0.1301 -0.5556
 8368SOL     OW36736   1.433   0.168   6.542  0.3776  0.5718  0.2103
 8368SOL    HW136737   1.498   0.200   6.479  0.7755 -0.4497  0.0979
 8368SOL    HW236738   1.481   0.127   6.614  0.6009 -1.1645 -0.9240
 8369SOL     OW36739   2.753   4.005  17.389  0.2956 -0.2645  0.5771
 8369SOL    HW136740   2.753   4.078  17.451 -0.0647  1.3052 -1.2599
 8369SOL    HW236741   2.683   4.039  17.333 -0.3723 -1.4601  0.7016
 8370SOL     OW36742   0.401   3.681  15.432  0.0673 -0.0199  0.0091
 8370SOL    HW136743   0.376   3.734  15.355  0.0013 -0.1863 -0.0842
 8370SOL    HW236744   0.481   3.720  15.466 -1.3183  2.0164  0.9768
 8371SOL     OW36745   1.436   1.786   1.693 -0.2568 -0.1139 -0.3849
 8371SOL    HW136746   1.401   1.853   1.633 -3.2727 -0.1620  1.3435
 8371SOL    HW236747   1.408   1.708   1.645 -0.4249  0.1355 -0.6921
 8372SOL     OW36748   0.846   0.314  10.945  0.3391 -0.5157 -0.8377
 8372SOL    HW136749   0.850   0.410  10.949 -1.1074 -0.3817 -3.1171
 8372SOL    HW236750   0.932   0.280  10.923  0.2898 -1.4686  0.4430
 8373SOL     OW36751   1.513   3.576   4.988 -0.0797 -0.0807 -0.2264
 8373SOL    HW136752   1.544   3.593   5.077 -2.3979  1.7869  0.2255
 8373SOL    HW236753   1.531   3.482   4.986 -0.1998 -0.1857  2.6036
 8374SOL     OW36754   3.546   2.935   8.973  0.5067 -0.2759 -0.2731
 8374SOL    HW136755   3.565   2.844   8.992  2.2195  0.3094  0.7995
 8374SOL    HW236756   3.563   2.980   9.056 -1.8825 -1.8472  1.0633
 8375SOL     OW36757   3.958   1.774   0.410 -0.4479 -0.1185  0.2217
 8375SOL    HW136758   3.963   1.679   0.419 -4.0895 -0.1599  1.3685
 8375SOL    HW236759   3.912   1.799   0.490  1.1634  2.3149  0.4048
 8376SOL     OW36760   0.822   0.653   6.563  0.6156  0.2394 -0.4619
 8376SOL    HW136761   0.850   0.683   6.477  0.4813 -0.7094 -0.8344
 8376SOL    HW236762   0.740   0.700   6.578  0.4384 -1.2123  3.0913
 8377SOL     OW36763   3.976   3.290   4.553 -0.4579 -0.3441 -0.0449
 8377SOL    HW136764   4.028   3.348   4.608 -3.8420  0.5423  2.2241
 8377SOL    HW236765   3.926   3.249   4.624 -1.3991  0.7587 -0.0843
 8378SOL     OW36766   2.052   4.105   5.676  0.1366  0.1380 -0.0479
 8378SOL    HW136767   2.118   4.134   5.612  0.3256  1.5639  0.7914
 8378SOL    HW236768   2.009   4.037   5.624 -0.0530 -0.9335  1.5256
 8379SOL     OW36769   2.005   0.863  12.924  0.6841  0.6608  0.1413
 8379SOL    HW136770   2.076   0.848  12.988  0.4456  2.0783  0.7361
 8379SOL    HW236771   1.999   0.776  12.885  0.9735  0.4134  0.6497
 8380SOL     OW36772   4.699   2.929   3.015  0.2926  0.2975  0.1446
 8380SOL    HW136773   0.014   2.878   3.081 -0.7408  1.5936  1.8911
 8380SOL    HW236774   4.609   2.920   3.049 -0.4480  0.8457 -1.6907
 8381SOL     OW36775   3.359   1.383   8.805  0.2260  0.2878 -0.2228
 8381SOL    HW136776   3.413   1.451   8.765  0.6270  0.2096  0.1837
 8381SOL    HW236777   3.282   1.431   8.836 -0.6477 -0.2116 -1.6109
 8382SOL     OW36778   4.108   1.885   4.568 -0.5716 -0.1916  0.0746
 8382SOL    HW136779   4.109   1.917   4.658 -1.0181 -0.0756  0.0359
 8382SOL    HW236780   4.144   1.799   4.592 -0.6473 -0.2958 -0.1769
 8383SOL     OW36781   1.578   2.597   8.251  0.1622  0.0850  0.1592
 8383SOL    HW136782   1.639   2.616   8.180 -0.2303  2.4089  0.4647
 8383SOL    HW236783   1.650   2.616   8.311  0.1554 -0.3788  0.3145
 8384SOL     OW36784   3.383   3.884   2.434 -0.2929  0.0780  0.6589
 8384SOL    HW136785   3.469   3.889   2.477  0.6140 -0.2975 -1.1339
 8384SOL    HW236786   3.355   3.976   2.439  2.6135  0.9574  0.5013
 8385SOL     OW36787   2.128   0.408   6.624  0.2237  0.2571  0.5753
 8385SOL    HW136788   2.172   0.365   6.697  0.1235  0.3928  0.7155
 8385SOL    HW236789   2.136   0.501   6.645 -1.0142  0.1304  1.6454
 8386SOL     OW36790   0.293   0.171   7.293 -0.0381 -0.3935 -0.4526
 8386SOL    HW136791   0.230   0.185   7.222 -0.9373 -0.5804  0.3124
 8386SOL    HW236792   0.245   0.098   7.333  0.7441 -0.5699  0.1646
 8387SOL     OW36793   0.844   3.077   4.360 -0.0451  0.0021  0.0413
 8387SOL    HW136794   0.935   3.077   4.329 -0.8465  0.6898 -2.2443
 8387SOL    HW236795   0.836   2.992   4.404  1.4490 -0.4217 -0.4944
 8388SOL     OW36796   3.628   2.410   1.767 -0.0461  0.0812  0.6140
 8388SOL    HW136797   3.672   2.398   1.852  0.6423  0.5351  0.3243
 8388SOL    HW236798   3.560   2.344   1.783  0.2154 -0.8617 -2.2164
 8389SOL     OW36799   2.242   1.446   8.730 -0.3847  0.3376 -0.0925
 8389SOL    HW136800   2.151   1.429   8.709 -0.6187  2.9104 -1.1839
 8389SOL    HW236801   2.235   1.491   8.815  1.0853 -0.9048  0.6827
 8390SOL     OW36802   1.645   3.486   6.422  0.3631 -0.0284  0.3378
 8390SOL    HW136803   1.635   3.561   6.364 -1.2688 -1.2705 -0.9946
 8390SOL    HW236804   1.670   3.523   6.506  1.0209 -1.5181  0.8060
 8391SOL     OW36805   3.932   4.302   8.997  0.0105 -0.2395  0.3553
 8391SOL    HW136806   3.935   4.369   9.066 -1.0030  1.2934 -1.0927
 8391SOL    HW236807   3.891   4.359   8.932  1.5066 -0.8582 -1.1338
 8392SOL     OW36808   3.694   0.973  11.226 -0.6133 -0.7768  0.5576
 8392SOL    HW136809   3.775   1.024  11.223 -0.4731 -1.0776 -1.2286
 8392SOL    HW236810   3.723   0.919  11.299  1.7198  2.7579  2.2337
 8393SOL     OW36811   2.639   2.828   3.468  0.3562  0.2980 -0.0081
 8393SOL    HW136812   2.625   2.810   3.561  0.6498  0.4053  0.0561
 8393SOL    HW236813   2.672   2.742   3.445 -1.0838  0.0501 -1.1417
 8394SOL     OW36814   3.985   2.920  12.710 -0.3369  0.1882  0.8075
 8394SOL    HW136815   3.917   2.958  12.654  1.5648 -1.6394 -2.6581
 8394SOL    HW236816   4.046   2.908  12.638 -0.6016  1.8275  0.3075
 8395SOL     OW36817   2.332   3.190   1.526  0.5426 -0.1723  0.3100
 8395SOL    HW136818   2.278   3.161   1.452 -1.4519 -0.4177  1.8441
 8395SOL    HW236819   2.382   3.116   1.558  1.3637 -0.3120 -1.3320
 8396SOL     OW36820   2.693   3.663   9.130 -0.9392  0.3221 -0.2708
 8396SOL    HW136821   2.787   3.652   9.138 -1.0570 -1.1556 -0.9414
 8396SOL    HW236822   2.663   3.588   9.181  2.8838 -0.6217  0.5493
 8397SOL     OW36823   1.748   2.796   3.242 -0.5340 -0.0694 -0.0430
 8397SOL    HW136824   1.730   2.746   3.163 -1.1278  0.7812 -0.4501
 8397SOL    HW236825   1.701   2.879   3.229  1.2896  0.4717 -3.0705
 8398SOL     OW36826   3.432   0.694   2.112 -0.6154 -0.4255 -0.3429
 8398SOL    HW136827   3.383   0.652   2.041 -1.9042  0.1173  0.2249
 8398SOL    HW236828   3.515   0.702   2.065  0.9915  0.4299  2.7029
 8399SOL     OW36829   0.572   0.838   6.992  0.1245  0.1867 -0.5668
 8399SOL    HW136830   0.592   0.770   6.927 -1.0516 -0.3313 -0.3809
 8399SOL    HW236831   0.652   0.839   7.044  0.4730  1.5412 -1.1352
 8400SOL     OW36832   3.560   0.185  16.890  0.5223  0.8200 -0.0364
 8400SOL    HW136833   3.569   0.243  16.966 -2.2011 -1.0984  1.7616
 8400SOL    HW236834   3.480   0.152  16.931  1.0433 -0.1230  0.2376
 8401SOL     OW36835   4.405   2.575  13.154  0.7734 -0.1670  0.1556
 8401SOL    HW136836   4.488   2.605  13.116  0.3262  1.7030  0.6750
 8401SOL    HW236837   4.419   2.491  13.197  2.0226 -1.1971 -2.3025
 8402SOL     OW36838   0.166   3.536   2.247  0.0654  0.0010 -0.0802
 8402SOL    HW136839   0.159   3.446   2.277 -0.2942  0.1298  0.2194
 8402SOL    HW236840   0.260   3.551   2.251  0.1565 -0.7226  0.4893
 8403SOL     OW36841   1.335   4.500  12.351 -0.1938 -0.2797 -0.2350
 8403SOL    HW136842   1.291   4.448  12.418 -1.3804 -0.3737 -1.0843
 8403SOL    HW236843   1.428   4.477  12.350  0.2555  1.4959  0.0695
 8404SOL     OW36844   0.656   2.477   8.311 -0.7675 -0.5296 -0.2945
 8404SOL    HW136845   0.655   2.381   8.305  0.4256 -0.5901  0.5011
 8404SOL    HW236846   0.734   2.485   8.366  0.6766  1.4359 -2.6157
 8405SOL     OW36847   1.287   1.758  11.517  0.0908 -0.0796  0.2835
 8405SOL    HW136848   1.337   1.805  11.584  1.3696 -3.4549  1.7121
 8405SOL    HW236849   1.349   1.685  11.509  1.6417  1.5660 -2.4418
 8406SOL     OW36850   0.106   0.647  16.306 -0.2945  0.5134 -0.1119
 8406SOL    HW136851   0.012   0.635  16.296  0.0590 -0.1136 -2.7097
 8406SOL    HW236852   0.126   0.665  16.214  3.2328 -1.1919  0.3319
 8407SOL     OW36853   4.144   2.319   0.919 -0.0438 -0.1836 -0.2252
 8407SOL    HW136854   4.126   2.413   0.929 -0.3748 -0.1577 -1.0602
 8407SOL    HW236855   4.123   2.295   1.009 -0.3109 -1.3701 -0.6096
 8408SOL     OW36856   3.079   1.021   3.227  0.5010  0.2264 -0.0780
 8408SOL    HW136857   3.131   0.956   3.180 -1.4597 -1.4856  0.1234
 8408SOL    HW236858   2.994   0.984   3.206  1.1305 -2.2675  1.8381
 8409SOL     OW36859   0.228   1.226   8.138  0.3177  0.6766 -0.1446
 8409SOL    HW136860   0.178   1.154   8.177 -0.2243 -0.3172 -2.7161
 8409SOL    HW236861   0.153   1.269   8.098  1.0528  0.3064 -1.8856
 8410SOL     OW36862   0.003   3.695   8.035 -0.3485  0.1870  0.4091
 8410SOL    HW136863   0.038   3.693   7.946  0.2393  0.1006  0.6467
 8410SOL    HW236864   0.056   3.770   8.063 -0.6329  0.6576 -0.2947
 8411SOL     OW36865   1.722   0.475   5.288 -0.1707 -0.1220  0.0107
 8411SOL    HW136866   1.737   0.408   5.354 -0.1257 -0.0781  0.0450
 8411SOL    HW236867   1.783   0.459   5.216 -2.1547 -0.0990 -1.6860
 8412SOL     OW36868   3.687   1.933   5.046 -0.3551 -0.0830 -0.0929
 8412SOL    HW136869   3.761   1.943   5.106  0.2952  0.3802 -0.9712
 8412SOL    HW236870   3.614   1.921   5.106  1.2462 -1.1899  1.6581
 8413SOL     OW36871   0.299   2.421   3.020 -0.1317 -0.0315 -0.3781
 8413SOL    HW136872   0.310   2.377   3.104 -2.7782 -1.4495 -0.7723
 8413SOL    HW236873   0.389   2.420   2.989 -0.3678 -0.3439 -1.0488
 8414SOL     OW36874   2.682   4.388   9.311  0.2914 -0.2248  0.3490
 8414SOL    HW136875   2.686   4.479   9.341 -0.8753 -0.5608  1.5006
 8414SOL    HW236876   2.703   4.337   9.389  0.8727  2.7223  2.1041
 8415SOL     OW36877   1.892   4.444   3.926  0.1916  0.8657 -0.9317
 8415SOL    HW136878   1.875   4.369   3.870  0.8101  1.0900 -1.4102
 8415SOL    HW236879   1.952   4.413   3.994 -2.8254 -3.8218 -0.3750
 8416SOL     OW36880   4.260   4.637   7.918 -0.1461  0.3819 -0.0275
 8416SOL    HW136881   4.353   4.657   7.907 -0.4049  1.6624  0.0289
 8416SOL    HW236882   4.241   4.552   7.880 -2.6987  0.4238  1.1977
 8417SOL     OW36883   2.691   1.730  12.425  0.8483  0.1567  0.0938
 8417SOL    HW136884   2.743   1.798  12.382  2.0825 -0.8349  0.0068
 8417SOL    HW236885   2.727   1.661  12.369 -1.1481 -0.8238  0.0429
 8418SOL     OW36886   1.294   4.249  16.680  0.3540 -0.3606 -0.0406
 8418SOL    HW136887   1.302   4.340  16.651 -0.7907  0.1229  1.1541
 8418SOL    HW236888   1.277   4.265  16.773  0.9048 -0.0725  0.0142
 8419SOL     OW36889   3.775   0.446   7.141 -0.0801 -0.3040  0.3113
 8419SOL    HW136890   3.867   0.433   7.119  0.7150  0.7819  3.1146
 8419SOL    HW236891   3.749   0.492   7.061  2.9412 -0.3060 -0.6591
 8420SOL     OW36892   4.631   0.296   7.944  0.1855  0.3406  0.3314
 8420SOL    HW136893   4.608   0.369   7.886 -0.8605 -0.0255  0.3005
 8420SOL    HW236894   4.703   0.263   7.890  0.5303  0.8183  0.4955
 8421SOL     OW36895   4.275   4.227   7.869 -0.3383 -0.2956 -0.3383
 8421SOL    HW136896   4.275   4.138   7.834  1.3410 -1.3508  2.4520
 8421SOL    HW236897   4.349   4.223   7.928  0.2089 -0.4146 -1.0354
 8422SOL     OW36898   0.961   1.529   5.005  0.1006 -0.4983 -0.6614
 8422SOL    HW136899   1.028   1.575   4.954  0.2590 -1.1891 -1.0669
 8422SOL    HW236900   0.973   1.441   4.971 -0.5722 -0.8514  0.0095
 8423SOL     OW36901   1.692   2.956   6.010  0.5079  0.1071 -0.0275
 8423SOL    HW136902   1.750   2.910   5.950  2.1243  0.7063  1.0608
 8423SOL    HW236903   1.733   3.040   5.991  0.4950  0.4946  1.6303
 8424SOL     OW36904   1.659   4.408   2.861 -0.1709  0.3673 -0.6322
 8424SOL    HW136905   1.646   4.416   2.955  2.0599  2.4848 -0.4792
 8424SOL    HW236906   1.588   4.355   2.825 -0.0370 -0.0205 -0.3186
 8425SOL     OW36907   1.366   0.476  12.316 -0.0083 -0.3550 -0.6184
 8425SOL    HW136908   1.307   0.464  12.242  1.7455  1.6329 -2.3642
 8425SOL    HW236909   1.442   0.515  12.271  0.7696 -0.8351  0.2668
 8426SOL     OW36910   0.850   3.999   1.770  0.0013  0.5251 -0.4390
 8426SOL    HW136911   0.791   4.074   1.782 -0.5969 -0.3372  1.8617
 8426SOL    HW236912   0.894   4.040   1.694  1.8140  0.0203  0.3362
 8427SOL     OW36913   3.024   1.879   4.137  0.4576  0.0527 -0.0613
 8427SOL    HW136914   3.109   1.836   4.132  1.7729  2.5102  0.9421
 8427SOL    HW236915   2.981   1.819   4.077 -1.2589 -0.4931  1.7196
 8428SOL     OW36916   4.315   4.211   1.675  0.0124 -0.1726  0.7150
 8428SOL    HW136917   4.355   4.296   1.658 -0.5476 -0.1228 -0.3700
 8428SOL    HW236918   4.377   4.158   1.626 -1.1338  1.1133 -2.0971
 8429SOL     OW36919   2.955   1.977   2.472  0.3423  0.6218 -0.4916
 8429SOL    HW136920   2.927   1.987   2.563 -0.1655  1.4607 -0.7384
 8429SOL    HW236921   2.961   1.882   2.462 -0.9818  0.2645  2.0656
 8430SOL     OW36922   3.646   3.235   8.312 -0.3434  0.3024  0.2760
 8430SOL    HW136923   3.665   3.158   8.258  0.4613 -0.0261  1.0214
 8430SOL    HW236924   3.552   3.255   8.303 -0.6764 -0.0714  2.9002
 8431SOL     OW36925   2.753   0.521   9.847 -0.2129  0.1210 -0.0177
 8431SOL    HW136926   2.821   0.456   9.832 -0.4242 -0.1655  0.2849
 8431SOL    HW236927   2.798   0.602   9.870 -2.8879  1.2673  1.2121
 8432SOL     OW36928   2.131   3.547   5.686 -0.3307 -0.3089 -0.0103
 8432SOL    HW136929   2.038   3.556   5.708 -0.2767  1.4415 -0.4302
 8432SOL    HW236930   2.184   3.585   5.756 -0.8634 -0.5902  0.5498
 8433SOL     OW36931   0.963   1.931   7.614  0.1201  0.4730  0.2146
 8433SOL    HW136932   0.908   1.899   7.542  0.5118 -1.5739  0.8127
 8433SOL    HW236933   1.047   1.901   7.577 -0.2582 -0.8816  0.4515
 8434SOL     OW36934   4.333   3.899   8.648  0.1732  0.5330 -0.1730
 8434SOL    HW136935   4.365   3.977   8.603 -0.4987 -0.4201 -2.3292
 8434SOL    HW236936   4.398   3.838   8.611  0.2798 -1.0191  2.5652
 8435SOL     OW36937   2.956   0.495  10.208 -0.3197  0.0234  0.4934
 8435SOL    HW136938   3.000   0.475  10.125 -1.4699 -1.3414  0.2079
 8435SOL    HW236939   2.915   0.411  10.229  1.0462 -0.8869 -0.4804
 8436SOL     OW36940   3.386   4.287   7.172 -0.0703  0.2707 -0.0914
 8436SOL    HW136941   3.389   4.210   7.116  2.4626  1.0408 -0.9827
 8436SOL    HW236942   3.417   4.248   7.254 -0.2035 -0.7575 -0.5282
 8437SOL     OW36943   3.466   1.313   6.484 -0.3211  0.2940 -0.1073
 8437SOL    HW136944   3.510   1.381   6.434  0.9594 -1.3825 -1.2690
 8437SOL    HW236945   3.387   1.297   6.431 -0.1229  0.7297 -0.5368
 8438SOL     OW36946   3.477   0.086   5.867  0.4480  0.3097  0.8212
 8438SOL    HW136947   3.557   0.090   5.919  2.5286  1.2768 -2.4727
 8438SOL    HW236948   3.455   4.726   5.858 -3.7907  1.3393  0.7519
 8439SOL     OW36949   2.038   3.037  13.632  0.8689 -0.0584  0.3706
 8439SOL    HW136950   1.976   3.092  13.584  0.3094 -0.8541  0.1769
 8439SOL    HW236951   2.090   3.106  13.673  0.2497 -0.2058  1.4086
 8440SOL     OW36952   0.849   4.185  13.367  0.4973 -0.3093  0.3846
 8440SOL    HW136953   0.819   4.267  13.406  0.6673 -0.1526  0.1818
 8440SOL    HW236954   0.823   4.195  13.275 -2.5152 -0.0319  1.2565
 8441SOL     OW36955   0.532   3.204   5.528 -0.1846  0.0133  0.2379
 8441SOL    HW136956   0.508   3.284   5.575 -1.1151  0.0190 -0.2385
 8441SOL    HW236957   0.620   3.191   5.562 -0.2521 -0.3683  0.2694
 8442SOL     OW36958   3.171   1.055  10.509  0.0011  0.1057 -0.2078
 8442SOL    HW136959   3.151   1.035  10.601 -2.5429  2.6973 -0.2272
 8442SOL    HW236960   3.151   0.969  10.470 -0.2367 -0.5106  1.2765
 8443SOL     OW36961   1.643   2.439  16.940  0.1018 -0.5128 -0.4569
 8443SOL    HW136962   1.603   2.366  16.986  0.1708 -1.2357 -1.5424
 8443SOL    HW236963   1.560   2.470  16.904 -1.2458  1.4769  4.3714
 8444SOL     OW36964   0.485   2.037   7.048 -0.2619  0.2741  0.0671
 8444SOL    HW136965   0.444   2.124   7.041 -0.2596  0.2952  0.3066
 8444SOL    HW236966   0.579   2.054   7.056 -0.5132  1.3143  0.8031
 8445SOL     OW36967   2.473   0.557  13.117  0.3430 -0.4177  0.0872
 8445SOL    HW136968   2.552   0.600  13.085  0.0334  2.0274  2.5796
 8445SOL    HW236969   2.429   0.523  13.040  0.3731 -1.1288  0.3796
 8446SOL     OW36970   4.481   4.636   0.491  0.3773 -0.1502  0.8404
 8446SOL    HW136971   4.452   4.717   0.449  0.0342 -0.0241  1.3298
 8446SOL    HW236972   4.479   4.665   0.582 -0.7798  1.6832  0.2164
 8447SOL     OW36973   0.185   2.831  14.922  0.7133 -0.3005  0.0260
 8447SOL    HW136974   0.160   2.924  14.921  1.6711 -0.0354  0.6194
 8447SOL    HW236975   0.102   2.785  14.936  1.2161 -1.1961  0.0522
 8448SOL     OW36976   3.361   1.436   7.483 -0.2305  0.4351 -0.4724
 8448SOL    HW136977   3.331   1.486   7.559  3.0555 -0.1771  1.2200
 8448SOL    HW236978   3.293   1.369   7.484  1.0988 -0.8985  1.4135
 8449SOL     OW36979   0.823   1.387   1.835 -0.0947 -0.3380 -0.3388
 8449SOL    HW136980   0.843   1.457   1.897  0.8906 -1.7486  0.9233
 8449SOL    HW236981   0.818   1.426   1.748  0.1398 -1.3261 -0.7996
 8450SOL     OW36982   4.610   0.488   2.844 -0.0973  0.5123  0.2437
 8450SOL    HW136983   4.638   0.549   2.912  1.2291  1.4693 -1.1596
 8450SOL    HW236984   4.616   0.532   2.759 -0.6256 -1.4830 -0.8341
 8451SOL     OW36985   2.546   1.419   0.929  0.0258  0.9158 -0.4236
 8451SOL    HW136986   2.604   1.491   0.904  1.4072 -0.1027 -0.1435
 8451SOL    HW236987   2.518   1.446   1.016  0.0329  0.9588 -0.4347
 8452SOL     OW36988   3.204   0.607   7.547 -0.6086 -0.3380 -0.2596
 8452SOL    HW136989   3.286   0.561   7.565 -0.4917 -0.3643 -0.8422
 8452SOL    HW236990   3.188   0.595   7.453 -0.2966  0.9260 -0.4747
 8453SOL     OW36991   2.912   0.532  13.935  0.2978  0.1706  0.5023
 8453SOL    HW136992   2.908   0.573  13.848  0.0087 -1.7135 -0.3674
 8453SOL    HW236993   2.875   0.445  13.923 -0.2059  0.2320  1.5995
 8454SOL     OW36994   3.340   0.563   6.306  0.3583 -0.2188 -0.2634
 8454SOL    HW136995   3.413   0.510   6.337 -0.8899 -0.8660  1.5163
 8454SOL    HW236996   3.370   0.653   6.322  0.0067  0.1529 -1.6739
 8455SOL     OW36997   0.667   3.784  11.141 -0.6506  0.5188  0.4930
 8455SOL    HW136998   0.720   3.833  11.203  0.1212 -2.0704  1.9130
 8455SOL    HW236999   0.725   3.714  11.112  0.3130  1.3979  0.3283
 8456SOL     OW37000   3.555   1.205  11.131 -0.4955  0.1353 -0.1504
 8456SOL    HW137001   3.504   1.175  11.056  0.9390 -2.5705 -0.0122
 8456SOL    HW237002   3.586   1.120  11.163 -1.3447 -0.2868 -0.4537
 8457SOL     OW37003   2.116   0.692   3.868  0.4218  0.2721 -0.3904
 8457SOL    HW137004   2.116   0.640   3.788 -0.2440  0.2158 -0.3538
 8457SOL    HW237005   2.023   0.694   3.890  0.4457  1.2916 -0.3651
 8458SOL     OW37006   3.478   3.297   8.770 -0.1107  0.4947  0.1036
 8458SOL    HW137007   3.429   3.289   8.852 -1.5469  1.0680 -0.6933
 8458SOL    HW237008   3.404   3.330   8.719  0.5523  0.6319 -0.7768
 8459SOL     OW37009   4.442   1.749   6.473  0.1010 -0.1135 -0.0524
 8459SOL    HW137010   4.358   1.702   6.478 -0.5457  1.1501  1.2062
 8459SOL    HW237011   4.499   1.673   6.467 -1.3721 -1.5070  3.1044
 8460SOL     OW37012   2.515   2.388   0.035 -0.3309 -0.1505  0.6765
 8460SOL    HW137013   2.601   2.390   0.078  0.2542 -0.8591 -0.4617
 8460SOL    HW237014   2.519   2.297   0.006 -0.0002  0.7859 -2.2036
 8461SOL     OW37015   1.948   3.661   7.399 -0.1371 -0.5158 -0.3191
 8461SOL    HW137016   1.900   3.737   7.433  1.1110 -1.0839  2.6359
 8461SOL    HW237017   1.874   3.600   7.402  0.5835 -1.3925 -0.4338
 8462SOL     OW37018   4.295   0.566   5.932  0.0169  1.0582  0.3737
 8462SOL    HW137019   4.351   0.492   5.909 -0.9459  0.1960  0.7687
 8462SOL    HW237020   4.209   0.526   5.917  0.7117 -1.7315  3.5829
 8463SOL     OW37021   0.945   0.441   4.518  0.1305 -0.9460 -0.1533
 8463SOL    HW137022   1.035   0.467   4.538 -1.0328  2.3293  0.9505
 8463SOL    HW237023   0.963   0.350   4.496  1.8494 -0.5283 -0.4802
 8464SOL     OW37024   0.429   3.931   5.050  0.2683  0.4201 -0.0101
 8464SOL    HW137025   0.339   3.899   5.045 -0.0392  1.1672  0.6457
 8464SOL    HW237026   0.467   3.857   5.097 -0.9389  0.8797  1.7019
 8465SOL     OW37027   3.405   0.343   4.424  0.2176  0.2794  0.1685
 8465SOL    HW137028   3.377   0.317   4.511  0.8532  0.4280  0.4172
 8465SOL    HW237029   3.384   0.265   4.373  0.2040  0.9894 -0.9343
 8466SOL     OW37030   3.474   3.726  17.726 -0.1448  0.5082 -0.2302
 8466SOL    HW137031   3.527   3.710   0.077  0.7994 -0.4009 -1.0625
 8466SOL    HW237032   3.507   3.655  17.671  1.0906  1.3611 -0.5892
 8467SOL     OW37033   2.701   4.080   1.957  0.0834  0.4334  0.7988
 8467SOL    HW137034   2.755   4.073   2.036  1.2151 -2.5006 -0.2614
 8467SOL    HW237035   2.688   4.172   1.933  2.5130  0.3552 -0.7598
 8468SOL     OW37036   3.551   1.345   4.446  0.4160  0.0999 -0.6150
 8468SOL    HW137037   3.470   1.358   4.396 -0.0725 -1.1749 -0.1655
 8468SOL    HW237038   3.516   1.331   4.534  1.4493 -1.8920 -0.5065
 8469SOL     OW37039   1.045   3.663   5.208 -0.0778  0.5763  0.3126
 8469SOL    HW137040   0.977   3.600   5.232 -1.1813  1.7040  0.1692
 8469SOL    HW237041   1.121   3.605   5.212 -1.6136 -1.6699 -2.4701
 8470SOL     OW37042   3.951   1.867  11.474 -0.2980 -0.4127 -0.4119
 8470SOL    HW137043   3.875   1.920  11.496 -0.3037 -0.2782 -0.7504
 8470SOL    HW237044   3.988   1.911  11.398 -0.4837  0.3087 -0.0793
 8471SOL     OW37045   0.842   0.521   2.480 -0.3595  0.8181  0.1219
 8471SOL    HW137046   0.820   0.480   2.396 -3.7959  2.0626  0.3956
 8471SOL    HW237047   0.765   0.488   2.526  0.6811 -1.0524  0.4958
 8472SOL     OW37048   4.674   2.021   9.257 -0.5519 -0.1720  0.0352
 8472SOL    HW137049   4.644   1.944   9.207 -0.2500 -1.7508  2.2677
 8472SOL    HW237050   4.672   2.095   9.197 -0.2288 -2.8254 -3.2699
 8473SOL     OW37051   1.796   1.160   8.162  0.0067  0.1452 -0.2163
 8473SOL    HW137052   1.772   1.106   8.237 -0.9401 -0.5925 -1.0537
 8473SOL    HW237053   1.891   1.163   8.172 -0.3269  1.8893  2.3338
 8474SOL     OW37054   0.668   0.644   2.070  0.1218 -0.5316 -0.3374
 8474SOL    HW137055   0.643   0.640   1.978 -1.5059  0.3372  0.0828
 8474SOL    HW237056   0.737   0.577   2.075 -1.3640 -1.9917  0.6084
 8475SOL     OW37057   0.191   1.795  16.765 -0.3257 -0.1853 -0.3634
 8475SOL    HW137058   0.140   1.815  16.843  1.0188  0.5469  0.3335
 8475SOL    HW237059   0.161   1.705  16.751 -0.5811 -0.4352  1.8807
 8476SOL     OW37060   3.361   3.547  10.326 -0.1742  0.3220  0.1086
 8476SOL    HW137061   3.310   3.627  10.319 -0.2729  0.2230 -0.2855
 8476SOL    HW237062   3.372   3.538  10.421  1.3788 -0.9207 -0.1807
 8477SOL     OW37063   2.587   3.060   2.183  0.5333  0.1624  0.3079
 8477SOL    HW137064   2.571   3.148   2.150  3.0701  0.3064 -0.5215
 8477SOL    HW237065   2.518   3.042   2.248  1.6274 -1.0129  1.1333
 8478SOL     OW37066   2.550   1.669  16.888  0.1699  0.5313 -0.4387
 8478SOL    HW137067   2.575   1.639  16.801  0.3615 -1.0286  0.1386
 8478SOL    HW237068   2.589   1.755  16.901 -1.3358  1.3309 -1.1295
 8479SOL     OW37069   1.180   0.380   7.063 -0.5925  0.0100  0.0702
 8479SOL    HW137070   1.133   0.329   7.129  1.7752 -1.1447  0.8767
 8479SOL    HW237071   1.263   0.334   7.062 -0.7594 -0.2974  0.4266
 8480SOL     OW37072   0.159   1.285   5.824  0.0328  0.2382  0.2546
 8480SOL    HW137073   0.138   1.376   5.844  0.2301  0.2861  0.2491
 8480SOL    HW237074   0.114   1.278   5.740  2.0128  0.4994 -0.8480
 8481SOL     OW37075   3.351   2.217   2.176 -0.1158 -0.1728 -0.5555
 8481SOL    HW137076   3.379   2.193   2.264  0.8857  0.8732 -0.5875
 8481SOL    HW237077   3.297   2.141   2.156 -1.2608  0.1601  1.2110
 8482SOL     OW37078   0.688   0.891  11.431 -0.1225 -0.1764 -0.5524
 8482SOL    HW137079   0.747   0.963  11.410  0.0104 -0.1339 -0.0327
 8482SOL    HW237080   0.643   0.894  11.347 -0.8283 -0.8119 -0.1965
 8483SOL     OW37081   2.314   4.648   5.728 -0.1813 -0.5445 -0.8419
 8483SOL    HW137082   2.375   4.591   5.775 -0.5828 -2.2647 -2.4157
 8483SOL    HW237083   2.318   4.606   5.642 -2.2823 -1.1232 -0.6583
 8484SOL     OW37084   3.565   1.064   6.487  0.5256 -0.0257 -0.2027
 8484SOL    HW137085   3.631   1.082   6.420  1.5354 -2.4845  0.1276
 8484SOL    HW237086   3.521   1.146   6.508  1.1495 -0.2689  2.0212
 8485SOL     OW37087   2.012   1.928   7.029 -0.4848 -0.0531 -0.1860
 8485SOL    HW137088   1.998   1.834   7.022  2.2391 -0.3133 -1.8552
 8485SOL    HW237089   2.082   1.940   7.093 -0.3647  2.9828 -0.8760
 8486SOL     OW37090   3.100   4.671   2.578 -0.7843 -0.5145  0.0944
 8486SOL    HW137091   3.081   4.620   2.657 -2.1323 -0.8037 -0.4152
 8486SOL    HW237092   3.018   4.718   2.565  1.1478  2.8405 -0.1077
 8487SOL     OW37093   4.223   3.710   2.599 -0.3258  0.3786  0.9073
 8487SOL    HW137094   4.256   3.795   2.570 -2.8766  1.2214  0.4250
 8487SOL    HW237095   4.273   3.699   2.680  1.4226 -1.2299 -0.3919
 8488SOL     OW37096   4.590   3.745   1.383 -0.2011  0.6166  0.0926
 8488SOL    HW137097   4.498   3.763   1.403 -0.5326 -0.0393 -0.8569
 8488SOL    HW237098   4.601   3.669   1.440  1.0061 -1.8755 -3.4816
 8489SOL     OW37099   3.303   1.133   7.920 -0.6295  0.1505  0.4397
 8489SOL    HW137100   3.329   1.141   8.012 -0.0148 -0.6000  0.3275
 8489SOL    HW237101   3.259   1.049   7.932  0.3187 -0.2401  1.2142
 8490SOL     OW37102   3.844   0.491  17.229  0.3148 -0.1794  0.8642
 8490SOL    HW137103   3.879   0.441  17.303  0.8918 -1.0845 -0.0333
 8490SOL    HW237104   3.788   0.431  17.182  0.8839 -1.3510  1.6844
 8491SOL     OW37105   2.234   2.033   3.495 -0.3913 -0.3690 -0.0048
 8491SOL    HW137106   2.225   1.997   3.407 -1.8890  0.3051 -0.1246
 8491SOL    HW237107   2.279   2.117   3.483  0.3190 -0.7406  0.0531
 8492SOL     OW37108   0.927   3.271  13.665  0.1537  0.3539 -0.7215
 8492SOL    HW137109   0.896   3.315  13.744  1.4499  2.1878 -1.2287
 8492SOL    HW237110   0.867   3.295  13.595  1.2832 -0.4281 -1.9632
 8493SOL     OW37111   1.621   2.889   7.763  0.1167  0.4160 -0.5477
 8493SOL    HW137112   1.567   2.926   7.833 -0.1791 -0.1612 -0.4668
 8493SOL    HW237113   1.596   2.797   7.773  1.3597  0.3082  1.4623
 8494SOL     OW37114   0.354   4.152   3.957 -0.4350 -1.1670  0.7973
 8494SOL    HW137115   0.389   4.157   3.867 -1.1297  1.9184  0.6862
 8494SOL    HW237116   0.382   4.236   3.993 -1.1867 -1.0915  1.1891
 8495SOL     OW37117   2.493   1.703   9.117 -0.5931 -0.1076  0.2711
 8495SOL    HW137118   2.442   1.629   9.149 -1.7765  0.7178  0.2627
 8495SOL    HW237119   2.579   1.688   9.156 -0.6952 -1.0055  0.1494
 8496SOL     OW37120   3.636   2.831   7.940  0.0000  0.4751  0.0009
 8496SOL    HW137121   3.541   2.822   7.948 -0.1556  0.2813 -2.2628
 8496SOL    HW237122   3.671   2.886   8.010  1.8601  1.4585 -1.7403
 8497SOL     OW37123   4.479   2.986   6.769  0.3559 -0.2589  0.1276
 8497SOL    HW137124   4.532   3.044   6.714 -1.9823 -0.7340 -2.6317
 8497SOL    HW237125   4.504   3.023   6.854  0.8204  0.4648 -0.3228
 8498SOL     OW37126   0.920   4.698   1.951 -0.2421 -0.0358 -0.4928
 8498SOL    HW137127   0.825   4.694   1.938 -0.1202 -0.9048 -1.1538
 8498SOL    HW237128   0.950   4.613   1.918 -0.7992 -0.6112  0.4808
 8499SOL     OW37129   1.390   3.840   3.536 -0.3737  0.1753 -0.9557
 8499SOL    HW137130   1.302   3.878   3.544  1.2248  3.6014  0.4702
 8499SOL    HW237131   1.406   3.805   3.624 -1.6094  0.2343 -0.7046
 8500SOL     OW37132   0.158   1.183   6.945 -0.1386  0.0127  0.2068
 8500SOL    HW137133   0.205   1.263   6.971 -1.1490  0.7118 -0.1145
 8500SOL    HW237134   0.229   1.118   6.946  0.1762  0.3225 -1.9950
 8501SOL     OW37135   2.688   1.598  15.977  0.5828 -0.0486 -0.5757
 8501SOL    HW137136   2.758   1.534  15.985  1.2221  0.8750  1.1342
 8501SOL    HW237137   2.620   1.539  15.944 -0.1222  1.9611 -2.7673
 8502SOL     OW37138   0.890   2.381   6.731 -0.6752  0.0986 -0.1328
 8502SOL    HW137139   0.976   2.396   6.770  0.0778 -0.6918 -1.5146
 8502SOL    HW237140   0.837   2.393   6.811 -0.6487 -1.2482  0.0861
 8503SOL     OW37141   3.558   0.042   4.150 -0.4295 -0.0970  0.1809
 8503SOL    HW137142   3.553   0.136   4.130  0.4702 -0.0159  0.3620
 8503SOL    HW237143   3.548   0.012   4.059 -3.2021  1.3142 -0.0020
 8504SOL     OW37144   3.747   1.673   5.787 -0.3007  0.5770  0.6767
 8504SOL    HW137145   3.692   1.746   5.818 -2.0092 -1.1666  1.7399
 8504SOL    HW237146   3.750   1.619   5.866  0.2858 -0.5224 -0.1122
 8505SOL     OW37147   2.670   4.376   3.345  0.0256  0.1181 -0.3870
 8505SOL    HW137148   2.676   4.313   3.417 -0.1266 -0.0990 -0.5623
 8505SOL    HW237149   2.745   4.341   3.296  0.1301  0.1735 -0.2674
 8506SOL     OW37150   2.417   3.539   3.689 -0.7789  0.0517  0.7220
 8506SOL    HW137151   2.482   3.506   3.751  1.3289  2.1363 -0.3929
 8506SOL    HW237152   2.340   3.513   3.739 -1.3272 -0.1565 -0.2344
 8507SOL     OW37153   4.064   0.547   7.132  0.0718  0.0561 -0.0159
 8507SOL    HW137154   4.128   0.615   7.112  0.7208 -0.9596 -1.3509
 8507SOL    HW237155   4.072   0.548   7.228  0.7020 -2.4066 -0.0343
 8508SOL     OW37156   2.398   4.350   3.345  0.1053 -0.1736  1.1665
 8508SOL    HW137157   2.362   4.429   3.386  0.8872  0.3836  0.7741
 8508SOL    HW237158   2.488   4.378   3.331 -0.0748 -0.4051 -0.4883
 8509SOL     OW37159   3.237   4.390  14.227 -0.2200 -0.5767  0.1658
 8509SOL    HW137160   3.208   4.384  14.136  1.3514 -1.0755 -0.3041
 8509SOL    HW237161   3.203   4.305  14.255 -0.1017 -0.6265  0.1597
 8510SOL     OW37162   1.806   4.066   2.322 -0.0520  0.1372 -0.5167
 8510SOL    HW137163   1.883   4.117   2.297 -0.5410  1.1119 -0.0110
 8510SOL    HW237164   1.831   4.000   2.258  3.6145  0.2773  0.7835
 8511SOL     OW37165   2.282   0.001   2.496 -0.0856  0.0440 -0.5768
 8511SOL    HW137166   2.190   0.007   2.523  0.1809  0.6917  0.1628
 8511SOL    HW237167   2.299   0.088   2.461  0.0767  1.0094  1.9705
 8512SOL     OW37168   2.712   2.484   3.744 -0.2766  0.0293 -0.0270
 8512SOL    HW137169   2.806   2.489   3.757 -0.0520 -2.2035 -0.7318
 8512SOL    HW237170   2.692   2.406   3.796  1.0272  1.6743  2.9067
 8513SOL     OW37171   1.797   3.254   5.184 -0.6643  0.5138  0.2022
 8513SOL    HW137172   1.863   3.287   5.124  0.1898 -1.7414 -0.0963
 8513SOL    HW237173   1.824   3.163   5.172 -0.8544  0.6795 -1.5377
 8514SOL     OW37174   3.139   3.560   7.775  0.2411 -0.3618 -0.3280
 8514SOL    HW137175   3.057   3.600   7.804  0.4416 -2.2835  2.9023
 8514SOL    HW237176   3.108   3.497   7.711 -2.0559 -0.0443  0.4600
 8515SOL     OW37177   2.940   0.444   4.574 -0.4786 -0.1933 -0.1171
 8515SOL    HW137178   2.868   0.507   4.573 -0.4607 -0.1547  4.7943
 8515SOL    HW237179   2.999   0.482   4.509 -1.2433  0.8180 -0.2266
 8516SOL     OW37180   2.034   4.276   8.486 -0.4602 -0.7284 -0.4608
 8516SOL    HW137181   2.094   4.215   8.529 -0.9634  1.0242  2.7086
 8516SOL    HW237182   2.069   4.282   8.397  1.2436 -0.4516  0.2182
 8517SOL     OW37183   3.853   2.902   3.835 -0.5636  0.3850 -0.3183
 8517SOL    HW137184   3.808   2.828   3.875  0.2261  0.8339  1.3937
 8517SOL    HW237185   3.859   2.870   3.745 -1.5917 -0.5107 -0.0631
 8518SOL     OW37186   3.945   0.063   6.812  0.3438 -0.1301 -0.2646
 8518SOL    HW137187   3.921   0.002   6.882 -2.5187  1.3582  0.0678
 8518SOL    HW237188   3.873   0.124   6.825  0.1919 -0.5898  1.0080
 8519SOL     OW37189   4.466   2.118  17.405  0.6021 -0.5646 -0.6584
 8519SOL    HW137190   4.412   2.049  17.444 -1.5348  2.0135  0.8992
 8519SOL    HW237191   4.431   2.197  17.444  2.1244 -0.4931  0.5539
 8520SOL     OW37192   2.368   2.085   6.282 -0.3400  0.1806 -0.1470
 8520SOL    HW137193   2.325   2.001   6.299 -3.6780  2.1539  1.1434
 8520SOL    HW237194   2.424   2.053   6.211  2.2140  1.7573  1.1798
 8521SOL     OW37195   1.196   1.683   4.917 -0.2302  0.5329 -0.3650
 8521SOL    HW137196   1.180   1.778   4.914 -0.8498  0.4978  1.8566
 8521SOL    HW237197   1.291   1.689   4.931 -0.5290  1.9524  1.0774
 8522SOL     OW37198   0.376   2.489   3.748  0.7856 -0.2869 -0.2744
 8522SOL    HW137199   0.319   2.414   3.766 -0.5951  1.2605  1.8286
 8522SOL    HW237200   0.328   2.557   3.796  3.0363  0.1833  1.3047
 8523SOL     OW37201   1.479   1.639  11.053 -0.2879 -0.5324  0.1954
 8523SOL    HW137202   1.437   1.581  10.989 -1.3622  0.2913  0.1462
 8523SOL    HW237203   1.467   1.588  11.133  0.3057 -1.0353 -0.0391
 8524SOL     OW37204   1.668   3.518   4.758 -0.1255 -0.0560  0.7483
 8524SOL    HW137205   1.585   3.534   4.803 -0.7549 -1.8234  0.2267
 8524SOL    HW237206   1.643   3.448   4.698 -1.2594  1.6076 -0.7012
 8525SOL     OW37207   2.242   3.037   8.660 -0.2595 -0.4705  0.5730
 8525SOL    HW137208   2.311   3.103   8.662 -0.8213  0.0614  2.4222
 8525SOL    HW237209   2.172   3.089   8.699  0.1548  0.0514  0.6248
 8526SOL     OW37210   1.286   0.158   0.979  0.3559  0.0580  0.6222
 8526SOL    HW137211   1.237   0.235   1.006  0.9431 -0.1415  2.2616
 8526SOL    HW237212   1.363   0.178   1.033  0.6941  0.5563 -0.0387
 8527SOL     OW37213   1.222   3.728   2.100 -0.2044  0.4276 -0.1137
 8527SOL    HW137214   1.149   3.668   2.085 -0.0822 -0.2358  2.0476
 8527SOL    HW237215   1.190   3.814   2.073  1.1026  1.2069  0.7816
 8528SOL     OW37216   1.259   3.422   7.279  0.4804 -0.0976  0.6663
 8528SOL    HW137217   1.266   3.396   7.187  1.8145 -2.8413  1.5500
 8528SOL    HW237218   1.224   3.354   7.335 -3.1259  0.5982 -0.7430
 8529SOL     OW37219   1.481   0.632   9.004  0.4567  0.1969 -0.2174
 8529SOL    HW137220   1.416   0.678   8.951  0.2974  0.4492  0.1884
 8529SOL    HW237221   1.436   0.639   9.089  0.1029  1.3943 -0.5005
 8530SOL     OW37222   0.134   1.485   7.673  0.1302  0.0389  0.4989
 8530SOL    HW137223   0.127   1.480   7.769 -0.7270 -0.5542  0.4067
 8530SOL    HW237224   0.203   1.420   7.655 -0.0527 -0.5144  1.7423
 8531SOL     OW37225   0.507   3.537  10.939  0.6065  0.1293  0.6937
 8531SOL    HW137226   0.556   3.485  11.003 -1.8868 -0.6438  1.9621
 8531SOL    HW237227   0.570   3.545  10.868 -0.7460 -2.3131 -0.7792
 8532SOL     OW37228   3.459   2.146   2.428  0.0456 -0.3961 -0.2835
 8532SOL    HW137229   3.548   2.112   2.438  0.3014 -0.2755 -2.0524
 8532SOL    HW237230   3.410   2.091   2.489 -1.0740  0.7410 -0.1463
 8533SOL     OW37231   1.318   2.449  17.196  0.1359  0.2978 -0.0185
 8533SOL    HW137232   1.343   2.428  17.106 -0.0880  0.5290 -0.1336
 8533SOL    HW237233   1.360   2.380  17.247 -0.0554 -0.2107 -0.5444
 8534SOL     OW37234   3.941   2.156   8.711  0.0641  0.1991  0.4618
 8534SOL    HW137235   3.956   2.062   8.718 -0.7882  0.0994  1.0330
 8534SOL    HW237236   4.031   2.185   8.703 -0.3766  1.2590 -0.5277
 8535SOL     OW37237   4.136   4.337  12.414 -0.2836 -0.0949  0.2732
 8535SOL    HW137238   4.096   4.300  12.492 -0.0226 -2.4805 -0.7176
 8535SOL    HW237239   4.194   4.265  12.390  0.1942  0.0746  0.9067
 8536SOL     OW37240   3.958   0.921   3.236  0.2092  0.0721  0.6600
 8536SOL    HW137241   3.963   0.928   3.332  0.0663 -0.2555  0.6892
 8536SOL    HW237242   4.052   0.937   3.224  0.3771 -2.0515 -0.7362
 8537SOL     OW37243   3.313   1.988  14.446  0.8940 -0.0907 -0.4567
 8537SOL    HW137244   3.372   2.047  14.493  1.5159 -0.2151 -1.0711
 8537SOL    HW237245   3.367   1.954  14.374 -0.2274 -2.2237 -0.2958
 8538SOL     OW37246   2.121   0.688   2.907  0.4364 -0.6573  0.5196
 8538SOL    HW137247   2.174   0.763   2.878 -1.8140  0.4437 -0.7380
 8538SOL    HW237248   2.099   0.714   2.996  2.1839  1.2483  0.4137
 8539SOL     OW37249   4.569   1.284   0.681 -0.3957 -0.4667 -0.3803
 8539SOL    HW137250   4.578   1.367   0.727 -0.2549 -0.5727 -0.2128
 8539SOL    HW237251   4.477   1.262   0.697 -0.4559 -1.0661 -1.5318
 8540SOL     OW37252   1.021   4.614   4.937 -0.0565 -0.5557 -0.2836
 8540SOL    HW137253   1.108   4.577   4.953  0.1769 -0.2865 -0.9421
 8540SOL    HW237254   1.035   4.622   4.843  2.1756  0.0529  0.1043
 8541SOL     OW37255   3.099   4.599   6.498  0.1471 -0.0165  0.0391
 8541SOL    HW137256   3.092   4.643   6.413 -0.3568  0.0004  0.0906
 8541SOL    HW237257   3.016   4.626   6.538  0.5060 -2.4146  2.4618
 8542SOL     OW37258   3.578   2.244   2.042  0.0461 -0.8252 -0.2843
 8542SOL    HW137259   3.583   2.149   2.027  2.1078 -0.7091 -0.2774
 8542SOL    HW237260   3.496   2.245   2.091  1.3874 -1.3569  1.9879
 8543SOL     OW37261   3.546   3.265   0.869 -0.3453  0.3621 -0.0412
 8543SOL    HW137262   3.507   3.339   0.916 -0.8134 -0.3674  0.6979
 8543SOL    HW237263   3.639   3.282   0.884 -0.0366 -0.6616 -0.8055
 8544SOL     OW37264   3.434   3.110   0.665  0.7275 -0.3267  0.1122
 8544SOL    HW137265   3.477   3.161   0.735  2.5624 -1.0781 -0.4754
 8544SOL    HW237266   3.507   3.060   0.629  2.1050  1.3520  0.5641
 8545SOL     OW37267   2.226   3.530  17.215  0.4842  0.5889  0.3455
 8545SOL    HW137268   2.275   3.531  17.133 -0.2398 -0.6881 -0.1081
 8545SOL    HW237269   2.149   3.481  17.185  1.1835 -0.6928  0.6354
 8546SOL     OW37270   2.280   1.780  15.385 -0.3140  0.1743  0.1421
 8546SOL    HW137271   2.231   1.698  15.380 -2.2861  1.4458 -1.2480
 8546SOL    HW237272   2.206   1.834  15.359 -0.7045 -0.6381 -0.4292
 8547SOL     OW37273   3.557   1.823   9.454 -0.1105 -0.2840  0.6556
 8547SOL    HW137274   3.525   1.758   9.392  0.9388  0.0880 -0.2789
 8547SOL    HW237275   3.631   1.860   9.406 -1.4739  2.2353  0.4382
 8548SOL     OW37276   2.874   4.570   7.877 -0.1332 -0.4444 -0.0955
 8548SOL    HW137277   2.835   4.657   7.873  0.7648 -0.0178  0.4026
 8548SOL    HW237278   2.837   4.524   7.952 -2.2891 -1.2382 -1.6558
 8549SOL     OW37279   1.793   2.360   8.250 -0.0908  0.2894 -0.2810
 8549SOL    HW137280   1.747   2.430   8.204 -0.3297 -0.6010 -1.3777
 8549SOL    HW237281   1.740   2.284   8.225  0.6986 -0.3111 -0.1362
 8550SOL     OW37282   4.303   2.753   6.098  0.2504 -0.2271 -0.1121
 8550SOL    HW137283   4.273   2.671   6.136  0.9128 -1.2853 -1.8554
 8550SOL    HW237284   4.270   2.816   6.162  1.2311  0.5312 -0.3431
 8551SOL     OW37285   0.231   4.629  14.953 -0.7083  0.5397  0.8210
 8551SOL    HW137286   0.315   4.674  14.949 -0.4085 -0.2179 -1.4518
 8551SOL    HW237287   0.213   4.613  15.046 -1.5085  1.3916  0.8118
 8552SOL     OW37288   1.733   2.160   3.651 -0.5690  0.4858 -0.8101
 8552SOL    HW137289   1.821   2.126   3.638 -0.1057  1.0681  0.7141
 8552SOL    HW237290   1.683   2.140   3.573 -3.7001 -0.1385  1.3536
 8553SOL     OW37291   0.799   1.352   7.436 -0.4336 -0.0353  0.1443
 8553SOL    HW137292   0.779   1.441   7.465  1.4523  0.5510 -0.4014
 8553SOL    HW237293   0.891   1.369   7.416 -1.2778  0.5532 -3.3353
 8554SOL     OW37294   1.193   0.978  10.414 -0.1538  0.2519  0.0660
 8554SOL    HW137295   1.197   0.913  10.484  0.1311  1.7474  1.4232
 8554SOL    HW237296   1.208   0.932  10.331 -1.1312 -0.9529  0.5559
 8555SOL     OW37297   1.198   0.692   6.109  0.0929 -0.5200 -0.0637
 8555SOL    HW137298   1.173   0.624   6.046  0.5541 -2.3651  1.7273
 8555SOL    HW237299   1.207   0.761   6.044  1.3278 -0.5275  0.1151
 8556SOL     OW37300   1.659   2.994   8.433  0.2523  0.4013  0.1117
 8556SOL    HW137301   1.700   2.935   8.370 -1.2912 -2.3793  1.6797
 8556SOL    HW237302   1.659   2.938   8.512 -1.9130 -0.5530 -0.5706
 8557SOL     OW37303   4.588   4.473   2.808  0.0712  0.1239  0.3857
 8557SOL    HW137304   4.557   4.478   2.898 -0.1937 -1.7216  0.4116
 8557SOL    HW237305   4.681   4.447   2.809  0.6865  2.4039  1.5688
 8558SOL     OW37306   1.872   3.041   7.623 -0.2582  0.3348 -0.7146
 8558SOL    HW137307   1.933   3.060   7.695 -1.0777 -2.0230  0.6060
 8558SOL    HW237308   1.804   3.000   7.676  0.0189  1.7731  0.7756
 8559SOL     OW37309   2.579   1.610   3.416 -0.2989  0.1512 -0.1334
 8559SOL    HW137310   2.500   1.618   3.468 -0.9689 -0.1882 -1.1024
 8559SOL    HW237311   2.636   1.563   3.477  2.8639  1.0781 -2.3197
 8560SOL     OW37312   4.718   0.503  11.321  0.0823 -0.2961  0.1564
 8560SOL    HW137313   4.714   0.452  11.401 -0.1285 -1.7449 -0.7825
 8560SOL    HW237314   0.030   0.584  11.347 -0.8910  0.2904  0.0095
 8561SOL     OW37315   1.416   4.641   0.991 -0.0540  0.3961  0.2748
 8561SOL    HW137316   1.333   4.628   1.037  0.8826 -1.3132  1.4531
 8561SOL    HW237317   1.389   4.721   0.946  1.1960  1.8155  2.0810
 8562SOL     OW37318   0.356   0.843  12.692 -0.4746 -0.0126 -0.1345
 8562SOL    HW137319   0.441   0.810  12.720 -1.2565 -0.8024  1.2682
 8562SOL    HW237320   0.381   0.889  12.611  0.5160  0.6397  0.5403
 8563SOL     OW37321   3.792   3.227   6.935  0.2263  0.5498  0.0540
 8563SOL    HW137322   3.773   3.139   6.904  0.4184  0.0996  1.2182
 8563SOL    HW237323   3.881   3.249   6.908 -0.2248  0.8812 -1.1495
 8564SOL     OW37324   3.715   2.342   1.456 -0.0914  0.0922 -0.2023
 8564SOL    HW137325   3.778   2.357   1.386 -0.5330  0.9531 -0.4234
 8564SOL    HW237326   3.719   2.422   1.508 -0.2223  1.1791 -1.8704
 8565SOL     OW37327   3.311   2.307   5.917  0.1390 -0.2215 -0.2206
 8565SOL    HW137328   3.336   2.376   5.978 -1.4044  0.2865 -0.1566
 8565SOL    HW237329   3.316   2.232   5.976 -0.1562 -0.6081 -0.6839
 8566SOL     OW37330   4.428   3.708   1.928  0.1174 -0.2394  1.0705
 8566SOL    HW137331   4.414   3.614   1.920  0.6820 -0.1920 -0.4265
 8566SOL    HW237332   4.490   3.716   1.855 -0.8036 -1.0190  0.2043
 8567SOL     OW37333   2.816   0.714   2.988  0.3909 -0.3676  0.4940
 8567SOL    HW137334   2.825   0.776   2.915  0.3886  0.9567  1.6356
 8567SOL    HW237335   2.813   0.631   2.941  0.4171 -1.3963  2.3213
 8568SOL     OW37336   3.488   1.547   3.258  0.7052  0.5094  0.1149
 8568SOL    HW137337   3.464   1.603   3.332 -0.0389 -0.5852  0.6891
 8568SOL    HW237338   3.414   1.557   3.198  1.3095  0.2573 -0.6747
 8569SOL     OW37339   0.904   3.878   5.320  0.8209 -0.0887 -0.4371
 8569SOL    HW137340   0.957   3.806   5.286  1.2586 -0.0256  0.1150
 8569SOL    HW237341   0.950   3.898   5.401 -0.4642 -2.2467  0.8358
 8570SOL     OW37342   0.027   3.943  15.357 -0.1486  0.5600  0.1327
 8570SOL    HW137343   4.719   4.030  15.349  1.8611  1.4399 -0.2431
 8570SOL    HW237344   4.683   3.886  15.371 -0.3116  1.1085  1.4256
 8571SOL     OW37345   0.848   3.401   4.253 -0.0386 -0.4118  0.1770
 8571SOL    HW137346   0.809   3.488   4.264  3.6429  1.9093 -4.8226
 8571SOL    HW237347   0.859   3.401   4.158  0.6130 -0.0376  0.2475
 8572SOL     OW37348   0.003   1.714   4.198  0.0728 -0.4456  0.2742
 8572SOL    HW137349   0.011   1.619   4.186  1.6666 -0.4098  1.0757
 8572SOL    HW237350   4.643   1.726   4.173  0.1705 -2.1282 -0.9046
 8573SOL     OW37351   1.079   0.603   2.672 -0.1547 -0.0312  0.0231
 8573SOL    HW137352   1.060   0.558   2.590 -1.8648 -2.9836  1.9967
 8573SOL    HW237353   1.095   0.527   2.728 -1.9146 -0.1852  0.3328
 8574SOL     OW37354   1.194   3.768  13.345  0.0557 -0.5565 -0.0618
 8574SOL    HW137355   1.227   3.759  13.255  1.1025  0.7458  0.1905
 8574SOL    HW237356   1.272   3.728  13.384 -0.9137 -0.5502  1.8654
 8575SOL     OW37357   2.433   3.455   9.232 -0.4117  0.1335 -0.0166
 8575SOL    HW137358   2.425   3.362   9.209 -1.4317 -0.0325  1.0677
 8575SOL    HW237359   2.390   3.493   9.156 -2.7210 -1.0386  0.7124
 8576SOL     OW37360   3.699   3.251  10.428  0.2549  0.8349 -0.4232
 8576SOL    HW137361   3.666   3.329  10.472 -1.0206 -0.4085  0.8139
 8576SOL    HW237362   3.645   3.180  10.462  0.5741  0.9854  0.3852
 8577SOL     OW37363   0.853   4.225  14.282 -0.1801  0.0575 -0.4841
 8577SOL    HW137364   0.856   4.321  14.278 -2.0349  0.0976 -1.0859
 8577SOL    HW237365   0.758   4.213  14.273 -0.0520 -2.6993  1.9426
 8578SOL     OW37366   3.908   1.782   3.690  0.2391  0.2217 -0.1317
 8578SOL    HW137367   3.940   1.855   3.637 -2.3976 -0.3676 -2.5269
 8578SOL    HW237368   3.972   1.721   3.653 -0.9901 -1.8083  1.0802
 8579SOL     OW37369   3.368   2.059   9.742  0.3809 -0.2523 -0.4173
 8579SOL    HW137370   3.273   2.058   9.749  0.3626  0.0293 -0.6744
 8579SOL    HW237371   3.377   2.144   9.785 -1.4063  0.7919 -2.1514
 8580SOL     OW37372   0.863   2.656   6.180 -0.5342 -0.4848 -0.2888
 8580SOL    HW137373   0.797   2.586   6.178 -0.8199 -0.2397  0.3139
 8580SOL    HW237374   0.839   2.695   6.264 -0.7008 -0.5880 -0.2880
 8581SOL     OW37375   0.397   4.549  15.327 -0.6851  0.5243  0.0916
 8581SOL    HW137376   0.481   4.506  15.337  0.2944  2.4104  0.0893
 8581SOL    HW237377   0.364   4.486  15.264 -0.7502  1.6796 -1.0170
 8582SOL     OW37378   3.512   0.372   3.275 -0.6790  0.9819  0.1035
 8582SOL    HW137379   3.515   0.302   3.210  0.1752 -0.5907  1.8216
 8582SOL    HW237380   3.546   0.327   3.353 -0.0189  0.3912 -0.5200
 8583SOL     OW37381   2.797   4.322   3.984 -0.3418 -0.8423  0.2714
 8583SOL    HW137382   2.810   4.411   3.950 -0.9303 -0.0888  2.0103
 8583SOL    HW237383   2.704   4.308   3.969 -0.6124  1.5791 -0.3183
 8584SOL     OW37384   3.665   3.027   9.199  1.0801 -0.2217  0.0230
 8584SOL    HW137385   3.757   3.003   9.187  0.3453 -2.9049 -0.3553
 8584SOL    HW237386   3.666   3.071   9.284 -0.0793 -0.6771  0.2732
 8585SOL     OW37387   4.694   2.746   0.180 -0.2354  0.1027 -0.2359
 8585SOL    HW137388   4.694   2.751   0.276  1.7252  0.9680 -0.2849
 8585SOL    HW237389   4.710   2.836   0.151  0.3578  0.2488  0.5512
 8586SOL     OW37390   3.564   2.618   3.547  0.3081 -0.5092  0.1477
 8586SOL    HW137391   3.538   2.700   3.589  2.3889  1.0053 -1.5918
 8586SOL    HW237392   3.622   2.579   3.613 -0.2220  1.4833  1.8020
 8587SOL     OW37393   4.369   0.624   2.143 -0.0493 -0.4054  0.4489
 8587SOL    HW137394   4.365   0.642   2.049  0.4437  0.1136  0.5331
 8587SOL    HW237395   4.455   0.582   2.143  0.5098  0.7155 -3.7647
 8588SOL     OW37396   3.881   1.988   6.265  0.2128 -0.0948  0.2659
 8588SOL    HW137397   3.957   2.044   6.283  1.4968 -1.9123  0.4816
 8588SOL    HW237398   3.891   1.977   6.170 -1.9432 -1.8450  0.2401
 8589SOL     OW37399   3.866   4.169   6.047 -0.0680 -0.2209  0.1154
 8589SOL    HW137400   3.779   4.130   6.053  0.0907 -0.4769  0.8056
 8589SOL    HW237401   3.882   4.177   6.141 -1.4526  2.2677  0.1264
 8590SOL     OW37402   2.964   1.584   7.610  0.0617 -0.0203  0.4596
 8590SOL    HW137403   2.876   1.550   7.628  0.2329 -2.8304 -4.2537
 8590SOL    HW237404   2.947   1.671   7.648  1.7575  0.3542  0.3508
 8591SOL     OW37405   0.064   4.350   2.427 -0.0382 -0.1915 -0.2773
 8591SOL    HW137406   4.709   4.379   2.400 -0.4603 -1.5034 -0.2943
 8591SOL    HW237407   0.098   4.435   2.455 -1.1095 -0.4384  1.7143
 8592SOL     OW37408   3.136   0.517  13.577  0.3885  0.2059 -0.2964
 8592SOL    HW137409   3.060   0.461  13.597 -0.0557  0.2846 -1.8223
 8592SOL    HW237410   3.115   0.597  13.624  0.9821  0.7774 -1.0131
 8593SOL     OW37411   2.358   2.608  11.480 -0.1221 -0.4314 -0.5545
 8593SOL    HW137412   2.287   2.606  11.416  0.6252 -3.2525 -1.2978
 8593SOL    HW237413   2.413   2.679  11.448  0.9165 -1.1043 -0.2698
 8594SOL     OW37414   3.578   1.252  10.805  0.3562 -0.1298  0.0483
 8594SOL    HW137415   3.517   1.321  10.777 -0.2617 -1.1219 -1.0207
 8594SOL    HW237416   3.657   1.305  10.817 -0.3022  0.8208  0.1779
 8595SOL     OW37417   1.313   1.538   0.521 -0.0666 -0.2476 -0.1254
 8595SOL    HW137418   1.227   1.556   0.560 -0.1914  0.9350 -0.9528
 8595SOL    HW237419   1.354   1.624   0.523 -1.2533  0.2588  2.3371
 8596SOL     OW37420   4.350   2.436   0.321  0.0281  0.3048  0.0586
 8596SOL    HW137421   4.354   2.379   0.244  2.0160 -0.9231  1.0671
 8596SOL    HW237422   4.344   2.523   0.280  2.1106  0.2950 -0.2655
 8597SOL     OW37423   0.715   1.631  16.746  0.0140 -0.2947 -0.0230
 8597SOL    HW137424   0.794   1.675  16.716 -0.3698  1.3975  1.4194
 8597SOL    HW237425   0.724   1.652  16.839  0.7335  1.8705 -0.5967
 8598SOL     OW37426   0.153   3.333   5.403  0.3376 -0.3225  0.1256
 8598SOL    HW137427   0.194   3.305   5.485 -1.3880 -2.3476  0.3135
 8598SOL    HW237428   0.217   3.310   5.336  0.1193 -0.8746  0.1066
 8599SOL     OW37429   0.087   0.003   9.499 -0.1346 -0.3255  0.2763
 8599SOL    HW137430   0.101   4.641   9.486 -0.6248 -0.0692 -1.9452
 8599SOL    HW237431   0.040   0.032   9.421  0.7741 -0.1652 -0.2004
 8600SOL     OW37432   0.059   3.398  10.289  0.2914 -0.1349 -0.1032
 8600SOL    HW137433   4.718   3.338  10.275 -0.9629  0.9409  1.7005
 8600SOL    HW237434   0.137   3.345  10.302  1.1917  1.1634 -0.1441
 8601SOL     OW37435   3.342   1.097  12.494 -0.0402  0.2898 -0.2917
 8601SOL    HW137436   3.418   1.148  12.523  2.0256 -1.1456 -3.0817
 8601SOL    HW237437   3.342   1.115  12.400  3.7632 -1.1508 -0.6105
 8602SOL     OW37438   0.227   1.391   6.284  0.2681  0.4065 -0.1100
 8602SOL    HW137439   0.162   1.332   6.322  1.6275 -1.1233 -0.1597
 8602SOL    HW237440   0.163   1.439   6.232  1.7769  1.1286 -1.3204
 8603SOL     OW37441   4.647   1.260  15.326 -0.0939 -0.5265  0.3897
 8603SOL    HW137442   4.715   1.293  15.385  0.6698 -0.7072 -0.3772
 8603SOL    HW237443   4.699   1.230  15.251 -0.6712 -0.4333 -0.0491
 8604SOL     OW37444   1.439   2.667   4.254  0.7943 -0.1873 -0.0420
 8604SOL    HW137445   1.532   2.660   4.233  1.2552  1.9202  1.3329
 8604SOL    HW237446   1.406   2.620   4.177 -0.4753 -0.1389  0.4645
 8605SOL     OW37447   3.356   3.495   8.584 -0.4838 -0.6211  0.2515
 8605SOL    HW137448   3.291   3.555   8.620 -1.0186 -1.1971  0.2456
 8605SOL    HW237449   3.429   3.538   8.629 -1.8217  1.9369 -0.0290
 8606SOL     OW37450   4.623   4.085  16.688  0.4600  0.2030 -0.6925
 8606SOL    HW137451   4.706   4.038  16.691 -1.0091 -2.4151 -1.8010
 8606SOL    HW237452   4.586   4.048  16.608  0.4406  1.3737 -1.2243
 8607SOL     OW37453   4.252   0.765   7.120  0.6662  0.2830  0.3772
 8607SOL    HW137454   4.346   0.748   7.113  0.3224 -1.4857  0.0095
 8607SOL    HW237455   4.239   0.818   7.042 -0.2435  1.5763  1.4093
 8608SOL     OW37456   0.663   0.287   5.546  0.3982  0.2012 -0.0698
 8608SOL    HW137457   0.705   0.262   5.628  1.2109  2.0808  0.0893
 8608SOL    HW237458   0.733   0.343   5.512 -1.4857  2.2397 -0.5481
 8609SOL     OW37459   3.192   4.059   9.399  0.3113  0.3265 -0.0156
 8609SOL    HW137460   3.130   3.987   9.405 -0.2357  0.7344 -0.7820
 8609SOL    HW237461   3.270   4.006   9.418  0.7373  0.7686 -0.5347
 8610SOL     OW37462   1.606   0.867   2.329 -0.3084 -0.4776 -0.2921
 8610SOL    HW137463   1.515   0.860   2.300 -0.5932 -1.0027  0.7156
 8610SOL    HW237464   1.601   0.863   2.425  0.8396  0.6931 -0.1901
 8611SOL     OW37465   1.753   3.877   8.221 -0.0372 -0.4314  0.2241
 8611SOL    HW137466   1.805   3.948   8.260  1.9814 -0.6961 -2.0186
 8611SOL    HW237467   1.726   3.907   8.134  1.8525 -1.6516 -0.7787
 8612SOL     OW37468   2.310   4.651   1.991  0.1375  0.4381  0.0723
 8612SOL    HW137469   2.345   4.566   1.965  0.7027  0.3947  0.9803
 8612SOL    HW237470   2.261   4.632   2.071  0.9475  2.2265  1.0005
 8613SOL     OW37471   4.060   0.100   4.853 -0.2006 -1.1460  0.2870
 8613SOL    HW137472   4.016   0.017   4.833 -1.0469 -0.5372 -0.3922
 8613SOL    HW237473   4.083   0.127   4.764  1.3157  0.5391  1.1898
 8614SOL     OW37474   2.212   4.714   4.057  0.6149 -0.0437  0.6128
 8614SOL    HW137475   2.126   4.674   4.044  1.1034 -0.3943 -1.5373
 8614SOL    HW237476   2.211   4.723   4.153  0.1242 -1.5089  0.7422
 8615SOL     OW37477   1.059   1.540  17.145 -0.0073  0.2236  0.1808
 8615SOL    HW137478   1.138   1.491  17.119  1.5354  2.6191  0.3719
 8615SOL    HW237479   1.081   1.583  17.227 -0.1414 -3.0164  1.9300
 8616SOL     OW37480   0.484   3.148   8.967  0.0176 -0.2718 -0.4390
 8616SOL    HW137481   0.462   3.195   8.887 -2.3936 -0.0978  0.2976
 8616SOL    HW237482   0.414   3.188   9.019 -2.7057 -1.9842 -2.7715
 8617SOL     OW37483   3.497   3.806  10.599  0.8478 -0.7690 -0.3008
 8617SOL    HW137484   3.445   3.726  10.591 -0.0499 -0.2898  0.7355
 8617SOL    HW237485   3.547   3.801  10.680 -1.4654 -0.5512  1.1455
 8618SOL     OW37486   2.102   0.691   4.637 -0.6923 -0.5237 -0.0400
 8618SOL    HW137487   2.084   0.625   4.704  1.2327  0.1353  1.1368
 8618SOL    HW237488   2.132   0.623   4.576  0.3757 -0.4982  0.4410
 8619SOL     OW37489   0.911   4.485   6.418  0.2619 -0.3585  0.1625
 8619SOL    HW137490   0.889   4.552   6.354 -1.1827  0.0135  1.0603
 8619SOL    HW237491   0.838   4.424   6.422 -0.1290  0.0932 -0.1006
 8620SOL     OW37492   1.022   3.955  13.711  0.3511  0.1356  0.5991
 8620SOL    HW137493   1.021   3.926  13.802  1.6699  0.1967  0.6286
 8620SOL    HW237494   0.993   4.045  13.728  2.1563  0.9946 -0.9214
 8621SOL     OW37495   3.577   3.026   4.485 -0.2510  0.5277 -0.3004
 8621SOL    HW137496   3.537   3.095   4.432 -1.5076  0.1619  0.1806
 8621SOL    HW237497   3.663   3.024   4.443  0.4694 -1.6129  1.2519
 8622SOL     OW37498   3.413   3.876   9.421  0.5962 -0.5209  0.3087
 8622SOL    HW137499   3.368   3.794   9.403 -2.9718  1.3815  0.5257
 8622SOL    HW237500   3.464   3.857   9.500  4.0445 -1.4657 -2.1731
 8623SOL     OW37501   4.690   3.543   4.101  0.0168  0.0807  0.1568
 8623SOL    HW137502   4.698   3.454   4.067  1.4987 -0.4446  1.9039
 8623SOL    HW237503   4.648   3.525   4.185  0.8224 -1.6333  0.1799
 8624SOL     OW37504   4.354   1.249   3.884 -0.1776 -0.3452  0.0703
 8624SOL    HW137505   4.322   1.226   3.797 -0.3034  0.6203 -0.1440
 8624SOL    HW237506   4.308   1.190   3.945 -1.0584  0.8587  0.5844
 8625SOL     OW37507   0.927   1.572   3.580  0.1884 -0.1336 -0.2835
 8625SOL    HW137508   0.931   1.477   3.575  0.8586 -0.1486  0.4874
 8625SOL    HW237509   0.896   1.596   3.493 -1.3628  3.0205  1.1225
 8626SOL     OW37510   2.130   2.354   3.968 -0.1750 -0.2543  0.0517
 8626SOL    HW137511   2.044   2.381   3.936 -0.3856  1.2662  1.8474
 8626SOL    HW237512   2.107   2.266   3.997  0.4267 -0.5138 -0.2474
 8627SOL     OW37513   0.926   3.336   3.997  0.0767  0.6161  0.5069
 8627SOL    HW137514   0.924   3.246   4.029  2.8481  0.4180  0.0521
 8627SOL    HW237515   1.006   3.329   3.945 -0.6088 -0.9966 -0.3293
 8628SOL     OW37516   3.147   4.364  12.318 -0.1262  0.0098  1.2525
 8628SOL    HW137517   3.225   4.415  12.297  0.1963 -0.9444  0.1070
 8628SOL    HW237518   3.135   4.391  12.409  0.2249  0.4598  1.1611
 8629SOL     OW37519   0.964   2.475   4.091  0.7031  0.0811 -0.3330
 8629SOL    HW137520   0.898   2.440   4.032  0.1331  0.7686 -0.1051
 8629SOL    HW237521   0.927   2.563   4.099 -1.9068 -0.9457 -1.1891
 8630SOL     OW37522   0.676   0.723  15.779 -0.4683  0.0433 -0.0933
 8630SOL    HW137523   0.644   0.633  15.784  2.0873 -0.8130  0.8068
 8630SOL    HW237524   0.664   0.754  15.869  0.3277  0.2971 -0.0795
 8631SOL     OW37525   3.387   2.523   3.318  0.1287  0.4118 -0.3496
 8631SOL    HW137526   3.478   2.495   3.334 -0.3806  0.1872  2.2512
 8631SOL    HW237527   3.372   2.600   3.374 -0.1301 -0.0126  0.1704
 8632SOL     OW37528   0.058   4.044   8.562 -0.4925 -0.2566  0.2150
 8632SOL    HW137529   0.054   3.972   8.625  0.7715  0.4463  1.0950
 8632SOL    HW237530   0.148   4.031   8.533 -0.2679 -0.3973  0.9901
 8633SOL     OW37531   3.904   4.422   2.496 -0.3504  0.0689  0.0607
 8633SOL    HW137532   3.950   4.504   2.481 -1.7311  0.8611  0.1937
 8633SOL    HW237533   3.813   4.435   2.524 -1.1331 -0.8796 -1.9824
 8634SOL     OW37534   0.736   3.627  12.315  0.0534  0.3460  0.3565
 8634SOL    HW137535   0.809   3.630  12.252  0.2860 -0.3100  0.5935
 8634SOL    HW237536   0.719   3.534  12.325  1.2637  0.1506  0.6241
 8635SOL     OW37537   2.388   3.032   3.926 -0.3187  0.3723  1.3832
 8635SOL    HW137538   2.461   3.068   3.877  0.4383 -1.3450  1.2595
 8635SOL    HW237539   2.367   2.954   3.876  2.1935  1.1261 -0.8131
 8636SOL     OW37540   0.445   1.961  10.882  0.3492  0.0788  0.5642
 8636SOL    HW137541   0.455   2.013  10.962 -2.1432 -0.3933  1.1620
 8636SOL    HW237542   0.533   1.978  10.848 -0.0105 -2.3432 -1.5945
 8637SOL     OW37543   4.193   1.647   6.510 -0.9131 -0.5389  0.0429
 8637SOL    HW137544   4.115   1.593   6.518 -0.1641 -1.2155  2.5648
 8637SOL    HW237545   4.185   1.709   6.582 -3.2729 -0.5983 -0.1617
 8638SOL     OW37546   4.370   1.910   2.145  0.3622 -0.4992 -0.6309
 8638SOL    HW137547   4.433   1.921   2.075  0.6581  3.3065  0.2519
 8638SOL    HW237548   4.419   1.863   2.213 -0.0679  0.5153  0.3930
 8639SOL     OW37549   4.105   4.430   2.098 -0.0811  0.0722 -0.0022
 8639SOL    HW137550   4.047   4.382   2.157 -1.8892  2.2999 -0.0046
 8639SOL    HW237551   4.064   4.420   2.012  0.9408  0.6204 -0.5490
 8640SOL     OW37552   2.702   1.737   0.661 -0.4187 -0.0388  0.4788
 8640SOL    HW137553   2.718   1.786   0.580 -0.8990  0.4053  0.6542
 8640SOL    HW237554   2.790   1.699   0.672  0.4034  2.0880  1.2406
 8641SOL     OW37555   1.251   2.481   5.872  0.0426  0.2509  0.1672
 8641SOL    HW137556   1.236   2.510   5.783  0.8392 -0.3802 -0.1745
 8641SOL    HW237557   1.217   2.392   5.884  0.3132  0.1485  0.1683
 8642SOL     OW37558   3.514   1.166   7.666 -0.2902  0.1861  0.9716
 8642SOL    HW137559   3.533   1.194   7.756 -0.4034 -1.2871  1.4505
 8642SOL    HW237560   3.509   1.256   7.633  0.3947 -0.2889 -0.4213
 8643SOL     OW37561   2.551   3.487   7.846  0.3282  0.1539  0.0094
 8643SOL    HW137562   2.558   3.445   7.760 -2.6349  2.8451 -1.5741
 8643SOL    HW237563   2.459   3.482   7.871  1.2499  0.1021  3.3749
 8644SOL     OW37564   2.880   2.174   5.840 -0.1355 -0.1900  0.1248
 8644SOL    HW137565   2.936   2.236   5.886 -0.9746  1.5486 -1.1936
 8644SOL    HW237566   2.809   2.227   5.804 -0.4637 -0.6539  0.0893
 8645SOL     OW37567   0.806   1.772   8.230 -0.7477  0.2728 -0.0213
 8645SOL    HW137568   0.833   1.803   8.317  0.7687  3.0843 -1.4788
 8645SOL    HW237569   0.858   1.691   8.228 -1.6618 -0.2898 -0.8496
 8646SOL     OW37570   0.517   3.002   6.545  0.0277 -0.1642  0.0191
 8646SOL    HW137571   0.520   2.937   6.474  0.4750  0.3222 -0.4009
 8646SOL    HW237572   0.492   2.939   6.613  0.7663 -0.3461  0.1231
 8647SOL     OW37573   2.750   4.720   6.894 -0.4232  0.5205 -0.2875
 8647SOL    HW137574   2.775   4.638   6.851 -2.9158 -0.1871 -0.3725
 8647SOL    HW237575   2.685   0.026   6.836 -0.5989  0.4373 -0.1431
 8648SOL     OW37576   3.017   3.266   2.207 -0.5117  0.2510  0.1281
 8648SOL    HW137577   2.975   3.264   2.121 -0.7200  0.2983  0.2287
 8648SOL    HW237578   3.054   3.354   2.199  1.5821 -0.6665 -0.3151
 8649SOL     OW37579   4.004   1.230   7.473 -0.3866 -0.3674  0.3706
 8649SOL    HW137580   3.935   1.227   7.540  0.7031  0.5248  1.5290
 8649SOL    HW237581   4.072   1.184   7.522  1.0253 -0.2071 -1.4262
 8650SOL     OW37582   3.918   0.333   4.853 -0.3287  0.4426  0.0214
 8650SOL    HW137583   3.933   0.239   4.861  1.4103  0.6357 -1.0035
 8650SOL    HW237584   3.902   0.355   4.945  2.4448  1.6347  0.2027
 8651SOL     OW37585   0.860   1.931  14.956  0.3267  0.5104  0.0509
 8651SOL    HW137586   0.868   2.005  14.896  2.0947 -0.5146 -0.9709
 8651SOL    HW237587   0.876   1.852  14.905 -2.1402 -0.1095  0.2356
 8652SOL     OW37588   2.575   1.021   3.253  0.7470 -0.0299  0.0616
 8652SOL    HW137589   2.663   1.045   3.223 -0.5870  0.6856 -3.2603
 8652SOL    HW237590   2.598   1.041   3.344  1.0070  0.9621 -0.2202
 8653SOL     OW37591   2.078   4.176  10.713  0.4652  0.4509 -0.1566
 8653SOL    HW137592   1.984   4.187  10.702  0.3722 -0.9994 -0.8316
 8653SOL    HW237593   2.108   4.259  10.750 -1.6138  0.4419  1.4570
 8654SOL     OW37594   2.192   0.160   9.222 -0.0103  0.0027  0.0072
 8654SOL    HW137595   2.157   0.223   9.285  0.6470 -0.7837  1.1823
 8654SOL    HW237596   2.168   0.205   9.141  1.4128  2.3745  0.8980
 8655SOL     OW37597   1.824   2.849   1.862 -0.3841 -0.2552 -0.3879
 8655SOL    HW137598   1.795   2.842   1.953  0.4888  0.9599 -0.0236
 8655SOL    HW237599   1.742   2.864   1.814 -0.2688 -2.8506 -1.3705
 8656SOL     OW37600   1.949   3.140   0.837 -0.1520  0.3043  0.3127
 8656SOL    HW137601   1.876   3.149   0.775  1.2720  1.1543 -1.2772
 8656SOL    HW237602   2.020   3.178   0.784 -0.6168 -2.1336 -2.0562
 8657SOL     OW37603   3.751   3.865   8.685 -0.2367  0.0845 -0.1448
 8657SOL    HW137604   3.835   3.821   8.695 -2.0439 -3.1021  0.8500
 8657SOL    HW237605   3.727   3.893   8.774  0.8045 -1.1209  0.5155
 8658SOL     OW37606   0.377   1.710   1.702  0.8021  0.5974 -0.0642
 8658SOL    HW137607   0.334   1.642   1.649  0.6985  0.8392 -0.2909
 8658SOL    HW237608   0.467   1.709   1.671  0.9633  2.5813  0.3341
 8659SOL     OW37609   2.099   2.259   7.233  0.1175  0.5792  0.0850
 8659SOL    HW137610   2.053   2.281   7.314 -0.1543 -0.7553  0.2899
 8659SOL    HW237611   2.117   2.166   7.230  1.4583  0.8922 -1.7303
 8660SOL     OW37612   1.639   2.593  13.477  0.4109  0.3836 -0.0685
 8660SOL    HW137613   1.581   2.526  13.513  0.0969  0.7494  0.0966
 8660SOL    HW237614   1.718   2.577  13.528  1.2675 -0.3290 -1.6043
 8661SOL     OW37615   3.008   4.530  13.962  0.0244 -0.3675  0.4482
 8661SOL    HW137616   3.068   4.457  13.951  1.3398  0.9964 -1.5064
 8661SOL    HW237617   2.932   4.497  14.009  0.0140  0.0761  0.7495
 8662SOL     OW37618   1.026   0.709   9.256  0.1740 -0.3682  0.0402
 8662SOL    HW137619   1.091   0.683   9.321 -0.1814 -3.0125 -0.6539
 8662SOL    HW237620   1.084   0.719   9.180  0.4234  1.2870  0.4509
 8663SOL     OW37621   4.092   1.774  17.310  0.4539 -0.7524  0.1747
 8663SOL    HW137622   4.095   1.810  17.221 -2.5037  0.0765  0.4070
 8663SOL    HW237623   4.121   1.852  17.358  3.5524 -1.1666 -1.0557
 8664SOL     OW37624   4.060   3.504  12.500  0.5358 -0.1299 -0.3083
 8664SOL    HW137625   4.007   3.530  12.425 -0.8012  1.7807  1.2819
 8664SOL    HW237626   4.053   3.591  12.541 -2.8241 -0.8593  0.6839
 8665SOL     OW37627   4.151   4.447  12.169  0.2522 -0.2875 -0.1997
 8665SOL    HW137628   4.135   4.360  12.133  3.4252 -1.4898  1.3398
 8665SOL    HW237629   4.147   4.432  12.264  2.7531  1.8807  0.2290
 8666SOL     OW37630   4.285   2.461   6.116 -0.3780 -0.4381  0.2230
 8666SOL    HW137631   4.308   2.403   6.043 -1.1330  0.9726 -1.1435
 8666SOL    HW237632   4.309   2.410   6.194 -0.1984  0.7875  0.9683
 8667SOL     OW37633   1.933   2.090   0.608 -0.4867 -0.3517  0.1052
 8667SOL    HW137634   1.965   2.006   0.577 -0.5128 -0.1280 -0.5321
 8667SOL    HW237635   1.974   2.158   0.555 -0.9204  2.2284  3.0244
 8668SOL     OW37636   3.866   4.014   4.412 -0.4288 -0.1286  0.7117
 8668SOL    HW137637   3.821   4.007   4.328  1.2323  0.0108 -0.1818
 8668SOL    HW237638   3.823   4.086   4.460  0.0371  0.4121  0.3148
 8669SOL     OW37639   0.851   4.487   7.901 -0.0440  0.2936 -0.4855
 8669SOL    HW137640   0.909   4.436   7.844  0.6336  2.1805 -1.4634
 8669SOL    HW237641   0.909   4.563   7.906  0.1478  0.0956  0.3165
 8670SOL     OW37642   1.929   4.508  15.199  0.1919  0.1152 -0.1816
 8670SOL    HW137643   1.971   4.578  15.149  0.7131 -0.3822 -0.4376
 8670SOL    HW237644   2.007   4.453  15.196 -0.4948 -0.7955 -1.1541
 8671SOL     OW37645   1.855   3.623  11.635  0.2831  0.2584  0.2223
 8671SOL    HW137646   1.891   3.635  11.547 -1.8024 -5.7432 -1.4943
 8671SOL    HW237647   1.891   3.704  11.671 -0.1698 -0.0455  1.3748
 8672SOL     OW37648   1.746   2.553  15.858  0.0001 -0.1833  0.3864
 8672SOL    HW137649   1.770   2.475  15.908 -0.9255  0.7207  2.2557
 8672SOL    HW237650   1.693   2.599  15.923 -4.5973 -1.0283 -2.7848
 8673SOL     OW37651   0.444   4.149  13.472 -0.1358 -0.2617 -0.5019
 8673SOL    HW137652   0.389   4.078  13.505  0.5915 -0.1927  0.8482
 8673SOL    HW237653   0.519   4.144  13.531  0.5926 -0.9949 -1.4707
 8674SOL     OW37654   1.553   2.351   5.799  0.1318  0.1143 -0.0675
 8674SOL    HW137655   1.463   2.346   5.768 -0.3605  0.9249  1.1984
 8674SOL    HW237656   1.597   2.267   5.788  3.3936  2.0319 -1.7639
 8675SOL     OW37657   2.951   1.416  12.467 -0.6324  0.2382  0.4765
 8675SOL    HW137658   2.995   1.499  12.483 -0.1269  0.2450 -0.9022
 8675SOL    HW237659   2.883   1.452  12.409  0.6937 -0.7024 -1.6775
 8676SOL     OW37660   3.080   2.609   3.373  0.1582  0.2327  0.4940
 8676SOL    HW137661   3.168   2.635   3.400 -0.0192  0.9825  0.3487
 8676SOL    HW237662   3.078   2.657   3.291 -0.2753  2.1724  1.6510
 8677SOL     OW37663   2.790   2.930   7.614  0.4404  0.3859 -0.7730
 8677SOL    HW137664   2.729   2.872   7.569  0.3963 -2.3679  2.9401
 8677SOL    HW237665   2.788   2.903   7.706  1.0922  0.2740 -0.7899
 8678SOL     OW37666   2.800   2.432  11.334 -0.7453  0.4340  0.0283
 8678SOL    HW137667   2.800   2.502  11.268 -0.9468 -0.5512 -1.0090
 8678SOL    HW237668   2.820   2.357  11.278 -0.8051  1.5852 -1.5323
 8679SOL     OW37669   3.861   3.372   2.318 -0.0500 -0.0153 -0.0860
 8679SOL    HW137670   3.901   3.308   2.258  2.1729  0.7913  0.5505
 8679SOL    HW237671   3.914   3.449   2.301 -1.0047  0.2930 -1.6707
 8680SOL     OW37672   4.238   1.104  10.861  0.0107 -0.2784 -0.0269
 8680SOL    HW137673   4.278   1.130  10.944 -1.5562 -0.2313  0.7135
 8680SOL    HW237674   4.181   1.180  10.857 -0.0895 -0.1707  3.9031
 8681SOL     OW37675   3.024   4.710  16.108  0.2928 -0.1037 -0.5199
 8681SOL    HW137676   3.046   0.022  16.026  1.9506 -1.8045 -0.9966
 8681SOL    HW237677   2.984   0.045  16.164  1.0902  0.7008 -0.9286
 8682SOL     OW37678   3.449   3.240   6.511  0.1133  0.4246  0.1433
 8682SOL    HW137679   3.538   3.206   6.498 -0.2227 -1.0115  1.5542
 8682SOL    HW237680   3.459   3.335   6.506 -0.4426  0.4432 -0.7817
 8683SOL     OW37681   0.990   3.074   8.814 -0.0394 -0.0416  0.5963
 8683SOL    HW137682   0.921   3.140   8.819  1.8975  2.1024 -0.8797
 8683SOL    HW237683   1.066   3.132   8.817  2.2259 -2.9277 -1.0856
 8684SOL     OW37684   0.019   1.029   8.833 -0.2588 -0.5366 -0.5964
 8684SOL    HW137685   4.710   1.054   8.750 -2.0851  0.1876  0.5323
 8684SOL    HW237686   0.087   1.096   8.826 -0.4440 -0.3837 -0.9320
 8685SOL     OW37687   1.298   3.756  13.082  0.2044  0.2898  0.0617
 8685SOL    HW137688   1.221   3.800  13.045  1.4208  0.5674 -2.1178
 8685SOL    HW237689   1.368   3.821  13.083  1.2864 -0.8723  0.3050
 8686SOL     OW37690   4.254   1.231  16.822 -0.1374  0.1391  0.1638
 8686SOL    HW137691   4.176   1.178  16.809  0.2627  0.1586 -2.3182
 8686SOL    HW237692   4.278   1.219  16.914  0.8718  2.0387  0.1586
 8687SOL     OW37693   2.778   4.326  14.555 -0.3086  0.0938 -0.2800
 8687SOL    HW137694   2.701   4.273  14.535  0.2074 -0.7300 -0.1256
 8687SOL    HW237695   2.849   4.276  14.514  0.4901  0.4533  0.6744
 8688SOL     OW37696   3.010   3.675   4.480  0.1645 -0.5271  0.1558
 8688SOL    HW137697   3.044   3.650   4.566  1.4727 -0.1111 -0.2352
 8688SOL    HW237698   2.921   3.687   4.512  0.1740 -1.8706  0.6838
 8689SOL     OW37699   2.179   1.102   8.452  0.2899 -0.6382  0.1378
 8689SOL    HW137700   2.197   1.110   8.546  3.8430 -0.5018 -0.5796
 8689SOL    HW237701   2.266   1.094   8.413  0.1055 -1.2741 -0.1347
 8690SOL     OW37702   2.287   2.699   1.764  0.0957  0.3458  0.0118
 8690SOL    HW137703   2.359   2.763   1.769 -2.0579  2.8827 -1.2508
 8690SOL    HW237704   2.239   2.724   1.843 -1.2161 -1.3265 -0.2637
 8691SOL     OW37705   3.378   0.982   1.022  0.5713 -0.1421 -0.0566
 8691SOL    HW137706   3.403   0.893   1.047  0.4208  0.0391  0.7235
 8691SOL    HW237707   3.320   1.001   1.096  1.0117  0.7673  0.0569
 8692SOL     OW37708   4.286   3.751   4.482 -0.4984 -0.5334  1.0506
 8692SOL    HW137709   4.249   3.677   4.530 -0.9108 -1.1631 -0.2265
 8692SOL    HW237710   4.350   3.708   4.424  0.4181  1.2334  0.7788
 8693SOL     OW37711   4.533   1.994   2.482  0.5546 -0.4134  0.2863
 8693SOL    HW137712   4.529   1.915   2.536 -0.2754 -0.7286 -0.2498
 8693SOL    HW237713   4.494   2.057   2.543 -1.6779 -0.1534 -1.4019
 8694SOL     OW37714   2.439   2.896  11.727  0.1451 -0.8999  0.1783
 8694SOL    HW137715   2.441   2.992  11.723  2.2406 -1.0351 -2.4823
 8694SOL    HW237716   2.465   2.881  11.817 -0.3804  0.7702  0.6169
 8695SOL     OW37717   1.993   2.229   9.307  0.4084  1.3917 -0.1121
 8695SOL    HW137718   1.905   2.207   9.277  0.2558  2.0804 -0.1602
 8695SOL    HW237719   2.014   2.314   9.269 -0.1617  1.8466  0.5867
 8696SOL     OW37720   3.944   3.353   7.182 -0.5830  0.0315  0.1003
 8696SOL    HW137721   3.970   3.438   7.149 -0.7917 -0.6657 -1.8716
 8696SOL    HW237722   3.910   3.312   7.102  2.1350 -1.5196 -0.2477
 8697SOL     OW37723   0.176   1.536   2.051  0.4427 -0.3115 -0.7535
 8697SOL    HW137724   0.171   1.623   2.011 -2.7629 -0.5513 -0.8481
 8697SOL    HW237725   0.085   1.526   2.077  0.3347  0.1548 -0.9519
 8698SOL     OW37726   2.932   2.783  13.132  0.3054 -0.2484 -0.5052
 8698SOL    HW137727   3.013   2.825  13.163 -0.1817  0.3353 -0.0251
 8698SOL    HW237728   2.891   2.767  13.217 -1.7464 -1.3794 -1.7254
 8699SOL     OW37729   3.505   3.008  12.938  0.1272  0.0281 -0.2794
 8699SOL    HW137730   3.471   3.083  12.987 -2.8093 -0.5815 -1.4095
 8699SOL    HW237731   3.448   2.944  12.981 -1.3995  1.8134  0.3335
 8700SOL     OW37732   1.386   2.274   9.500 -0.5079 -0.2678 -0.3938
 8700SOL    HW137733   1.353   2.337   9.437  0.8330  1.0369  0.1999
 8700SOL    HW237734   1.397   2.327   9.579 -2.3859 -0.4180 -0.0185
 8701SOL     OW37735   2.105   1.776   1.083  0.2281  0.1452  0.5859
 8701SOL    HW137736   2.188   1.785   1.130  0.0770 -4.9931  1.8714
 8701SOL    HW237737   2.051   1.748   1.157 -0.5128  1.7934  0.6683
 8702SOL     OW37738   3.532   1.849   7.088 -0.6317 -0.4435 -0.0219
 8702SOL    HW137739   3.619   1.814   7.110 -0.3843 -1.2229 -2.2085
 8702SOL    HW237740   3.503   1.905   7.160  0.2107 -2.0103  1.5418
 8703SOL     OW37741   1.627   1.248   3.003 -0.0610  0.4050  0.0061
 8703SOL    HW137742   1.653   1.320   3.060  1.3869 -1.9511  2.3445
 8703SOL    HW237743   1.698   1.184   2.993  0.8735  1.4858 -0.2393
 8704SOL     OW37744   4.242   4.280   9.307  0.0261 -0.1345  1.0566
 8704SOL    HW137745   4.288   4.357   9.275  0.7456 -0.5961  0.9767
 8704SOL    HW237746   4.203   4.245   9.227 -1.1963  0.0196  1.5909
 8705SOL     OW37747   3.890   4.365  17.057  0.3326  0.4774 -0.4030
 8705SOL    HW137748   3.860   4.412  17.135 -0.0923  0.0376 -0.2936
 8705SOL    HW237749   3.973   4.329  17.087 -0.0246 -0.5636 -0.6442
 8706SOL     OW37750   2.416   2.326   6.822 -0.2898 -0.0706  0.0733
 8706SOL    HW137751   2.421   2.243   6.774 -2.6778 -0.7474  0.9940
 8706SOL    HW237752   2.465   2.300   6.899 -0.4036 -1.9747 -0.5007
 8707SOL     OW37753   2.010   1.467   0.729 -0.4254  0.6529  0.0415
 8707SOL    HW137754   1.921   1.442   0.752 -0.1691 -0.5484 -0.2610
 8707SOL    HW237755   2.043   1.484   0.817 -1.4805  3.0292 -0.0310
 8708SOL     OW37756   1.695   0.282   8.364 -0.2436 -0.4017  0.2340
 8708SOL    HW137757   1.678   0.207   8.421 -1.3520 -1.1881 -1.1197
 8708SOL    HW237758   1.651   0.350   8.414  1.5714  1.7820 -1.1659
 8709SOL     OW37759   1.920   2.836   5.891 -0.7813  0.1472  0.6043
 8709SOL    HW137760   1.854   2.783   5.848 -0.7311 -0.3930  1.1962
 8709SOL    HW237761   1.994   2.776   5.898 -0.3583  0.7661  1.5401
 8710SOL     OW37762   0.763   4.244   4.267 -0.4018 -0.0925  0.0864
 8710SOL    HW137763   0.849   4.252   4.310 -0.1691 -1.4550 -0.1216
 8710SOL    HW237764   0.709   4.233   4.345 -0.9257  0.0365 -0.2630
 8711SOL     OW37765   1.200   0.598   4.352  0.3412 -0.3480 -1.0187
 8711SOL    HW137766   1.140   0.673   4.348  0.6038 -0.1762 -1.8269
 8711SOL    HW237767   1.185   0.579   4.445  0.7201  0.7131 -0.7367
 8712SOL     OW37768   4.638   4.363   7.511  0.0490 -0.3454 -0.2628
 8712SOL    HW137769   4.684   4.352   7.594 -1.5954  3.7462  1.1812
 8712SOL    HW237770   4.624   4.457   7.497  1.1914 -0.0530  0.5837
 8713SOL     OW37771   0.902   1.190  10.435  0.4067  0.2782 -0.2789
 8713SOL    HW137772   0.821   1.141  10.420  0.8055 -0.1647 -0.9516
 8713SOL    HW237773   0.862   1.271  10.467  0.9486 -0.4650  2.2423
 8714SOL     OW37774   0.706   3.270  15.621  0.1056 -0.5979  0.4077
 8714SOL    HW137775   0.760   3.314  15.686 -0.3764  1.0870 -0.3440
 8714SOL    HW237776   0.632   3.331  15.618  0.1328 -0.6506 -1.2765
 8715SOL     OW37777   1.832   2.127  16.813  0.3164  0.0319  0.1640
 8715SOL    HW137778   1.823   2.201  16.753  0.6617  1.3690  1.7837
 8715SOL    HW237779   1.743   2.120  16.847 -0.5016  0.0347 -1.9445
 8716SOL     OW37780   1.310   4.108   2.692 -1.0296  0.0926  0.2278
 8716SOL    HW137781   1.336   4.140   2.605 -0.4294  0.1745  0.4382
 8716SOL    HW237782   1.225   4.072   2.669 -1.4263 -0.1525  2.1466
 8717SOL     OW37783   3.287   4.032   1.912  0.0896  0.5487 -0.6567
 8717SOL    HW137784   3.206   3.983   1.898  0.0888 -0.0157  1.3701
 8717SOL    HW237785   3.295   4.031   2.007 -2.4863 -0.6027 -0.4518
 8718SOL     OW37786   3.262   4.118   6.258  0.6352 -0.1272 -0.6375
 8718SOL    HW137787   3.349   4.078   6.257  1.3756  1.4063  1.6794
 8718SOL    HW237788   3.209   4.043   6.286 -0.3136  0.2288 -1.4752
 8719SOL     OW37789   2.502   1.928   5.309 -0.1689  0.5424 -0.4862
 8719SOL    HW137790   2.554   1.894   5.237  2.7349  1.2441  1.2806
 8719SOL    HW237791   2.447   1.853   5.331  0.6604  0.6231  1.9042
 8720SOL     OW37792   1.599   4.371  12.893 -0.1791  0.2012  0.3192
 8720SOL    HW137793   1.559   4.372  12.806  0.0135 -1.7056  0.2194
 8720SOL    HW237794   1.683   4.406  12.865 -0.7901  1.2325 -0.2452
 8721SOL     OW37795   4.130   2.726   6.730  0.0333 -0.1777 -0.3854
 8721SOL    HW137796   4.209   2.686   6.766  1.4661  3.2812  0.2922
 8721SOL    HW237797   4.156   2.816   6.711  0.7019  0.0628  1.7081
 8722SOL     OW37798   1.429   3.107   8.327 -0.0634  0.0834  0.1860
 8722SOL    HW137799   1.483   3.095   8.249 -1.2567 -1.0973 -0.4502
 8722SOL    HW237800   1.507   3.100   8.383  0.2766 -0.4134 -0.3534
 8723SOL     OW37801   0.371   3.851   8.796  0.3493 -0.0643 -0.1500
 8723SOL    HW137802   0.288   3.824   8.834  1.7864 -1.4222  2.0483
 8723SOL    HW237803   0.420   3.885   8.871  1.1491 -2.5129  0.4365
 8724SOL     OW37804   0.873   0.551  13.037  0.5527 -0.1722 -0.4486
 8724SOL    HW137805   0.845   0.475  13.088  0.0811 -0.4805 -1.1723
 8724SOL    HW237806   0.930   0.601  13.096  0.4573  1.1055 -1.4421
 8725SOL     OW37807   0.789   4.689  12.724 -0.1861  0.3317  0.1772
 8725SOL    HW137808   0.817   4.611  12.675 -0.7101  0.0691  0.2885
 8725SOL    HW237809   0.828   4.668  12.809 -0.4090  3.7335  1.1033
 8726SOL     OW37810   2.195   2.695   9.028  0.8661  0.1278 -0.6611
 8726SOL    HW137811   2.180   2.789   9.019  2.0421  0.5305  1.5527
 8726SOL    HW237812   2.175   2.664   8.940  0.8514 -0.2702 -0.5188
 8727SOL     OW37813   0.542   3.552   2.946 -0.0179 -0.4051  0.0155
 8727SOL    HW137814   0.629   3.585   2.972 -1.2592  1.9747  1.1170
 8727SOL    HW237815   0.512   3.549   3.037  2.1237  0.2828  0.7610
 8728SOL     OW37816   0.293   0.749   0.670  0.4109  0.2380  0.0501
 8728SOL    HW137817   0.331   0.668   0.636 -2.5941 -0.7833 -0.8165
 8728SOL    HW237818   0.200   0.742   0.649 -0.1351 -1.1636  2.9372
 8729SOL     OW37819   1.492   0.564   4.003  0.0036 -0.1111 -0.5117
 8729SOL    HW137820   1.482   0.558   4.097 -0.5889  0.3947 -0.5393
 8729SOL    HW237821   1.565   0.626   3.994 -0.4100  0.3225 -0.9251
 8730SOL     OW37822   4.710   1.141   5.969 -0.4065  0.3313  0.1535
 8730SOL    HW137823   0.038   1.193   5.916 -0.5326  1.7364  1.3764
 8730SOL    HW237824   4.688   1.199   6.042 -2.1515 -0.6142  0.3907
 8731SOL     OW37825   1.491   0.364   5.156 -0.3575 -0.5061  0.1111
 8731SOL    HW137826   1.439   0.313   5.218 -1.6428  0.6233 -0.0180
 8731SOL    HW237827   1.547   0.419   5.211 -2.5777  4.3376 -2.4224
 8732SOL     OW37828   2.064   0.826   9.733 -0.1939  0.5796  0.1942
 8732SOL    HW137829   2.151   0.830   9.772 -0.7478  2.3050  1.2505
 8732SOL    HW237830   2.074   0.890   9.662 -1.3218  0.7053  0.1420
 8733SOL     OW37831   1.668   2.289   5.458  0.1067 -0.2503  0.5087
 8733SOL    HW137832   1.627   2.278   5.372 -1.6350  0.2991  1.2688
 8733SOL    HW237833   1.661   2.383   5.475 -0.3405 -0.2897  0.5494
 8734SOL     OW37834   1.449   1.373   4.269  0.1665  0.6211  0.2921
 8734SOL    HW137835   1.495   1.423   4.337  1.5055  0.7238 -0.6900
 8734SOL    HW237836   1.360   1.407   4.260 -0.0309 -0.7216 -2.6467
 8735SOL     OW37837   1.413   1.437  15.750 -0.1712 -0.5406 -0.0386
 8735SOL    HW137838   1.419   1.486  15.669 -2.2094 -0.9022 -0.4186
 8735SOL    HW237839   1.490   1.465  15.800 -1.6488  0.1613  1.8806
 8736SOL     OW37840   4.125   3.371  15.261  0.0549 -0.0655 -0.1286
 8736SOL    HW137841   4.115   3.322  15.179 -0.1938  3.2278 -2.0559
 8736SOL    HW237842   4.220   3.365  15.262  0.0603 -0.4694 -2.6086
 8737SOL     OW37843   1.856   0.895  14.407 -0.3194 -0.0866  0.0735
 8737SOL    HW137844   1.849   0.990  14.403 -1.3501 -0.1566  0.1989
 8737SOL    HW237845   1.892   0.876  14.321  0.9250  1.3766  0.2813
 8738SOL     OW37846   0.727   0.208   3.043 -0.0506  0.3398 -0.5978
 8738SOL    HW137847   0.715   0.124   2.998  3.2209  0.4743 -1.6900
 8738SOL    HW237848   0.730   0.186   3.136  0.6235 -2.8294 -1.3534
 8739SOL     OW37849   1.352   0.376   2.662  0.1017  0.3195 -0.4728
 8739SOL    HW137850   1.272   0.333   2.690  1.0880  1.0307  3.3692
 8739SOL    HW237851   1.386   0.313   2.598 -0.2448  1.7655 -2.0849
 8740SOL     OW37852   2.582   4.515   0.299 -0.1594  0.6302  0.5204
 8740SOL    HW137853   2.499   4.558   0.321 -0.0421  1.1160  0.0093
 8740SOL    HW237854   2.637   4.545   0.372  0.0842  2.1658 -0.2951
 8741SOL     OW37855   3.123   3.634  12.982 -0.5028 -0.2077  0.1779
 8741SOL    HW137856   3.147   3.691  12.909  0.6687  0.1684  0.8625
 8741SOL    HW237857   3.028   3.633  12.976 -0.4257  0.4304 -1.1422
 8742SOL     OW37858   1.906   2.915   9.160 -0.5972  0.0590  0.1462
 8742SOL    HW137859   1.814   2.933   9.178 -1.3898  0.0282 -3.7257
 8742SOL    HW237860   1.907   2.830   9.204 -2.6894  1.3125  2.5502
 8743SOL     OW37861   3.160   4.468   1.154  0.4316 -0.1867 -0.1797
 8743SOL    HW137862   3.236   4.519   1.127  0.8045  0.5248  2.2224
 8743SOL    HW237863   3.160   4.489   1.248 -0.6458 -1.1759  0.0410
 8744SOL     OW37864   2.053   1.386   1.170  0.1773  0.0567  0.1059
 8744SOL    HW137865   2.070   1.427   1.085  0.4462  1.3147  0.7628
 8744SOL    HW237866   2.092   1.299   1.162 -1.6719 -0.8039  0.5311
 8745SOL     OW37867   1.344   0.849   8.091 -0.0304  0.4998  0.4752
 8745SOL    HW137868   1.252   0.826   8.086  0.2394 -0.2408 -1.0727
 8745SOL    HW237869   1.354   0.903   8.013  0.9089 -0.9065 -0.3756
 8746SOL     OW37870   3.987   2.253   6.406 -0.4104  0.0445 -0.2426
 8746SOL    HW137871   3.960   2.272   6.495 -0.5687 -0.3732 -0.2002
 8746SOL    HW237872   4.046   2.327   6.393  0.9802 -0.8122  1.2704
 8747SOL     OW37873   2.440   1.953   7.398  0.1938  0.2401  0.3646
 8747SOL    HW137874   2.456   2.043   7.423 -1.2758  0.9328 -1.1769
 8747SOL    HW237875   2.519   1.934   7.347 -1.0807  0.9055 -1.8595
 8748SOL     OW37876   0.009   2.321   5.409 -0.3897  0.7032  0.3000
 8748SOL    HW137877   0.084   2.271   5.441  0.2611  1.4351 -0.0842
 8748SOL    HW237878   4.671   2.255   5.400 -0.0620  0.5706 -1.2663
 8749SOL     OW37879   2.215   0.701  10.895 -0.2572 -0.5706 -0.4093
 8749SOL    HW137880   2.292   0.663  10.937  0.0788  1.4419  0.8008
 8749SOL    HW237881   2.166   0.703  10.978 -0.5867 -2.7428 -0.5457
 8750SOL     OW37882   4.060   3.266   0.225  0.3190  0.4553 -0.1785
 8750SOL    HW137883   3.973   3.246   0.259  0.1696 -0.9849 -1.3440
 8750SOL    HW237884   4.115   3.306   0.291  2.6001 -0.8326 -1.3046
 8751SOL     OW37885   1.030   4.578   3.878 -0.5041  0.0682  0.5955
 8751SOL    HW137886   1.075   4.556   3.797  0.3085 -2.1937  1.6632
 8751SOL    HW237887   0.995   4.492   3.901 -3.5187  1.2098  0.2472
 8752SOL     OW37888   1.441   1.044   7.427 -0.5640 -0.4457 -0.0940
 8752SOL    HW137889   1.372   1.026   7.363 -0.1631  0.6619 -0.8365
 8752SOL    HW237890   1.510   1.053   7.361 -1.3953  0.4157 -0.8432
 8753SOL     OW37891   3.727   1.096   7.359  0.5992  0.5335  0.1011
 8753SOL    HW137892   3.685   1.022   7.403  0.6286 -0.4740 -1.5526
 8753SOL    HW237893   3.813   1.112   7.398  0.6590 -0.3463  0.3320
 8754SOL     OW37894   0.108   0.505  14.229  0.6274  0.1301  0.1763
 8754SOL    HW137895   0.091   0.574  14.165  2.0225  1.1991  0.9513
 8754SOL    HW237896   0.064   0.537  14.308  1.8258  0.3117  0.7786
 8755SOL     OW37897   3.540   1.414   4.933 -0.4710  0.1454 -0.0148
 8755SOL    HW137898   3.535   1.508   4.918 -0.0113  0.0390 -0.8165
 8755SOL    HW237899   3.477   1.400   5.004  0.5981 -1.8319  0.5453
 8756SOL     OW37900   1.606   4.190   7.712  0.1604 -0.3290 -0.0562
 8756SOL    HW137901   1.639   4.174   7.624  0.2959 -1.0938  0.1279
 8756SOL    HW237902   1.515   4.203   7.686  0.9598 -1.0214 -3.2344
 8757SOL     OW37903   2.123   3.101   0.589 -0.2311 -0.5956 -0.1485
 8757SOL    HW137904   2.122   3.179   0.533  1.9901  0.8475  1.8452
 8757SOL    HW237905   2.207   3.102   0.635  0.1773 -0.0117 -0.9069
 8758SOL     OW37906   2.325   1.870   6.573 -0.0888 -0.3932 -0.4068
 8758SOL    HW137907   2.310   1.821   6.492 -1.4859  0.5701 -0.7493
 8758SOL    HW237908   2.360   1.800   6.628  1.3821  1.3330  0.8208
 8759SOL     OW37909   4.215   4.577  16.394  0.0947 -0.4639 -0.5553
 8759SOL    HW137910   4.279   4.555  16.326  0.6939 -3.0326  0.8281
 8759SOL    HW237911   4.253   4.661  16.423  1.3301 -1.9750  2.2895
 8760SOL     OW37912   2.474   3.412   2.729 -0.2736  0.6108 -0.1914
 8760SOL    HW137913   2.494   3.320   2.745 -1.0912  0.3765 -0.5013
 8760SOL    HW237914   2.529   3.433   2.653 -0.1225  4.3181  0.9524
 8761SOL     OW37915   0.677   0.539  15.008 -0.2152  0.9628  0.1051
 8761SOL    HW137916   0.722   0.463  15.045 -1.4164  1.8948  3.4507
 8761SOL    HW237917   0.617   0.502  14.943  0.7779  0.7828 -0.7108
 8762SOL     OW37918   3.940   4.064  11.454 -0.4143 -0.0914 -0.0576
 8762SOL    HW137919   4.034   4.052  11.450 -0.5490 -1.5051  1.1479
 8762SOL    HW237920   3.923   4.023  11.539 -1.3026 -0.6853 -0.5195
 8763SOL     OW37921   3.137   1.925  12.858 -0.3659 -0.1608 -0.2912
 8763SOL    HW137922   3.148   1.947  12.766 -1.1304 -0.9791 -0.5696
 8763SOL    HW237923   3.229   1.925  12.887 -0.3747 -0.1746 -0.2630
 8764SOL     OW37924   1.419   2.090   9.140  0.1323  0.3532  0.2757
 8764SOL    HW137925   1.390   2.181   9.141  0.6444  0.5206 -0.1080
 8764SOL    HW237926   1.417   2.047   9.054  0.8268 -1.1113  0.9744
 8765SOL     OW37927   0.462   1.361   9.148  0.6826  0.0193 -0.9624
 8765SOL    HW137928   0.467   1.322   9.236  0.4680 -1.5419 -1.6391
 8765SOL    HW237929   0.393   1.427   9.153  0.4285 -0.4387  1.8800
 8766SOL     OW37930   2.018   1.854   5.681 -0.4101  0.3113  0.3123
 8766SOL    HW137931   1.986   1.854   5.771 -1.5208 -0.9860 -0.0876
 8766SOL    HW237932   1.940   1.886   5.635 -1.6084 -1.1555  1.3497
 8767SOL     OW37933   4.050   2.902   8.827  0.2271 -0.7813 -0.2175
 8767SOL    HW137934   3.971   2.848   8.833  0.1497 -0.6248  0.1756
 8767SOL    HW237935   4.018   2.971   8.885  0.4249  0.2159 -1.2744
 8768SOL     OW37936   3.773   3.013   6.069  0.6748 -0.0441  0.0881
 8768SOL    HW137937   3.862   2.979   6.064  0.7361  0.2184 -0.7145
 8768SOL    HW237938   3.794   3.102   6.097 -0.9501  0.0963  0.8780
 8769SOL     OW37939   3.559   0.145   3.112  0.0388 -0.1151  0.0482
 8769SOL    HW137940   3.549   0.086   3.186 -0.0273  0.2833  0.3579
 8769SOL    HW237941   3.479   0.128   3.062  0.7525  1.6236 -1.7064
 8770SOL     OW37942   2.316   1.624   2.949  0.1847 -0.0171  0.1706
 8770SOL    HW137943   2.363   1.658   3.025  1.8284 -1.7411 -0.0732
 8770SOL    HW237944   2.291   1.702   2.901 -2.1728  0.9665  3.0154
 8771SOL     OW37945   2.482   1.440   2.353 -0.1296  0.2117 -0.1722
 8771SOL    HW137946   2.474   1.346   2.340  1.8154 -0.1564  1.3338
 8771SOL    HW237947   2.443   1.451   2.439  0.3538 -0.7275  0.1603
 8772SOL     OW37948   1.814   0.770   3.326  0.3141  0.1556  0.4147
 8772SOL    HW137949   1.784   0.734   3.242 -2.0001 -0.5877  1.5662
 8772SOL    HW237950   1.807   0.692   3.381  1.0727 -0.6382 -0.6094
 8773SOL     OW37951   0.050   0.907   3.079 -0.1241 -0.4391 -0.1052
 8773SOL    HW137952   0.106   0.919   3.002  1.2451  0.2669  1.0251
 8773SOL    HW237953   0.096   0.967   3.137 -1.2338  2.2221 -1.9535
 8774SOL     OW37954   4.190   1.573   6.241 -0.1002 -0.1313 -0.4202
 8774SOL    HW137955   4.221   1.482   6.243  1.4300  0.4014  0.4696
 8774SOL    HW237956   4.202   1.600   6.332  1.9234 -2.6320  0.0582
 8775SOL     OW37957   4.364   2.354   1.386  0.1928  0.9171  0.4079
 8775SOL    HW137958   4.439   2.318   1.339 -0.4272  1.9302 -1.3631
 8775SOL    HW237959   4.394   2.343   1.476 -1.5273  3.2539  1.2738
 8776SOL     OW37960   3.423   4.396   0.901 -0.7613 -0.2745 -0.1523
 8776SOL    HW137961   3.480   4.371   0.973  0.0922  0.3824 -0.5986
 8776SOL    HW237962   3.378   4.315   0.877  2.1198 -1.3580 -1.8860
 8777SOL     OW37963   3.072   1.827  12.233 -0.4836  0.3582 -0.0550
 8777SOL    HW137964   3.123   1.905  12.215  1.0930 -0.3230  1.5217
 8777SOL    HW237965   3.143   1.764  12.224 -0.9965 -0.3862  1.1143
 8778SOL     OW37966   4.454   4.277  10.048 -0.0507 -0.3863  0.2075
 8778SOL    HW137967   4.416   4.333   9.980 -0.7610 -1.0253  0.0820
 8778SOL    HW237968   4.537   4.242  10.015  0.5503 -0.4844  1.8266
 8779SOL     OW37969   2.835   0.470   7.306  0.0802  0.6161 -0.1877
 8779SOL    HW137970   2.913   0.459   7.251 -0.5987 -2.9022 -0.4153
 8779SOL    HW237971   2.836   0.384   7.347  3.4957  0.8708  0.2384
 8780SOL     OW37972   3.865   1.245   8.640 -0.0758  0.4543  0.3051
 8780SOL    HW137973   3.960   1.236   8.653 -0.5653 -2.3107  1.9767
 8780SOL    HW237974   3.864   1.289   8.555 -0.8703  1.4707  0.8482
 8781SOL     OW37975   0.144   3.910  14.241  0.7619 -0.1529 -0.3078
 8781SOL    HW137976   0.077   3.948  14.299  1.9489  0.6018  0.5544
 8781SOL    HW237977   0.220   3.907  14.298  1.2445  1.8425 -0.8521
 8782SOL     OW37978   1.450   2.845   1.986  0.2266  0.5086  0.3546
 8782SOL    HW137979   1.533   2.845   2.034 -0.4088  0.5683  1.4450
 8782SOL    HW237980   1.464   2.765   1.935 -3.4680  0.3593 -0.4455
 8783SOL     OW37981   1.033   1.996   7.281  0.0289 -0.2170 -0.5343
 8783SOL    HW137982   0.959   1.942   7.309 -0.1068  0.8225  1.1041
 8783SOL    HW237983   1.019   2.072   7.338 -0.7013 -0.2566 -0.6586
 8784SOL     OW37984   2.535   3.555   5.748 -0.0667 -0.1269  0.1301
 8784SOL    HW137985   2.461   3.589   5.800  0.4171  1.0305  0.0625
 8784SOL    HW237986   2.579   3.516   5.823 -1.7949 -0.5486  0.9407
 8785SOL     OW37987   0.525   2.270   7.937 -0.4009 -0.0972 -0.5227
 8785SOL    HW137988   0.545   2.327   7.863 -2.5842  0.7436 -0.4640
 8785SOL    HW237989   0.478   2.328   7.997  1.2642 -0.8548  1.4844
 8786SOL     OW37990   1.574   0.204   3.299  0.3923  0.0649  0.0535
 8786SOL    HW137991   1.558   0.281   3.354 -1.2694  0.3215 -0.8039
 8786SOL    HW237992   1.543   0.226   3.211 -0.4274 -1.0131  0.0740
 8787SOL     OW37993   1.306   4.114   1.228 -0.3022  0.5406  0.5092
 8787SOL    HW137994   1.223   4.115   1.181 -0.0808 -1.8353  0.1018
 8787SOL    HW237995   1.329   4.025   1.204 -1.7240  0.1788  0.4954
 8788SOL     OW37996   1.687   4.058  16.161 -0.4822  0.6332  0.4553
 8788SOL    HW137997   1.676   3.969  16.129 -0.1158  0.9160 -0.4651
 8788SOL    HW237998   1.762   4.058  16.221  1.9027 -0.0831 -2.5079
 8789SOL     OW37999   4.071   2.907   5.587  0.1765 -0.1890 -0.2264
 8789SOL    HW138000   3.994   2.916   5.644 -0.5578 -0.8925 -1.1157
 8789SOL    HW238001   4.063   2.821   5.547  0.7107 -0.8149  1.0301
 8790SOL     OW38002   3.614   2.648   6.756 -0.5498 -0.6039  0.4146
 8790SOL    HW138003   3.676   2.586   6.794  0.3415  0.6406  0.9875
 8790SOL    HW238004   3.670   2.694   6.694 -2.4097  1.1037  0.0306
 8791SOL     OW38005   1.020   0.300   0.540 -0.4814  0.3789  0.0366
 8791SOL    HW138006   1.099   0.299   0.486 -0.1936  1.5284  0.4247
 8791SOL    HW238007   0.957   0.263   0.478  1.5281 -0.8572 -1.2555
 8792SOL     OW38008   4.158   1.796   1.485 -0.1684  0.0293  0.1134
 8792SOL    HW138009   4.102   1.859   1.532  0.3095  0.5701 -0.0362
 8792SOL    HW238010   4.124   1.803   1.396  1.0811 -0.8475 -0.4416
 8793SOL     OW38011   2.331   1.938   8.488 -0.3222  0.3500  0.1198
 8793SOL    HW138012   2.238   1.950   8.468  0.0025  1.5171 -0.6604
 8793SOL    HW238013   2.325   1.924   8.582 -2.0709  2.2304  0.2814
 8794SOL     OW38014   2.594   0.905   9.312 -0.0897 -1.0429 -0.0480
 8794SOL    HW138015   2.660   0.902   9.381 -0.4213  0.8691  0.3582
 8794SOL    HW238016   2.540   0.829   9.334 -0.7911 -0.4597  0.2085
 8795SOL     OW38017   0.318   1.984  16.452 -0.0826 -0.4303 -0.4520
 8795SOL    HW138018   0.394   1.928  16.465  1.1347  1.6651  1.4685
 8795SOL    HW238019   0.331   2.037  16.530 -3.4710 -0.3726  0.0524
 8796SOL     OW38020   0.233   0.650   1.082 -0.2848 -0.0855 -0.4281
 8796SOL    HW138021   0.144   0.657   1.047 -0.2670  2.2527  0.0005
 8796SOL    HW238022   0.216   0.635   1.175 -1.8141  2.1360 -0.3603
 8797SOL     OW38023   3.992   0.559  11.969 -0.3438  0.2059  0.8290
 8797SOL    HW138024   4.019   0.468  11.982  1.3011  0.7517  1.2831
 8797SOL    HW238025   3.917   0.553  11.909 -0.5686 -0.8924  1.2209
 8798SOL     OW38026   1.091   3.988  17.103  0.2020 -0.5109  0.0135
 8798SOL    HW138027   1.152   4.054  17.071 -2.7464  1.3503 -1.7553
 8798SOL    HW238028   1.012   4.006  17.051  0.4574  3.0986  0.8750
 8799SOL     OW38029   3.259   0.601   3.272  0.7683  0.0672 -0.1556
 8799SOL    HW138030   3.285   0.693   3.284 -1.4856  0.4966  1.5192
 8799SOL    HW238031   3.317   0.577   3.200  1.7148 -0.1682  0.6913
 8800SOL     OW38032   3.299   2.412  10.366  0.4409 -0.0200  0.0338
 8800SOL    HW138033   3.327   2.464  10.443 -0.0904  1.1042 -0.5317
 8800SOL    HW238034   3.338   2.327  10.388 -0.6268  0.2102  2.8662
 8801SOL     OW38035   0.578   2.864   6.084 -0.3936  0.0542 -0.3978
 8801SOL    HW138036   0.586   2.859   6.179  0.4437 -0.1536 -0.4737
 8801SOL    HW238037   0.670   2.851   6.058 -1.2073 -2.8947 -1.7533
 8802SOL     OW38038   1.823   1.774   6.407 -0.0053 -0.7451 -0.0597
 8802SOL    HW138039   1.795   1.793   6.497  0.0985 -1.4577  0.1245
 8802SOL    HW238040   1.886   1.703   6.420  1.2037  0.6598  1.7086
 8803SOL     OW38041   2.496   4.419   3.650  0.3657  0.4058 -0.5034
 8803SOL    HW138042   2.551   4.454   3.580  0.4871 -1.9325 -1.5627
 8803SOL    HW238043   2.533   4.332   3.662  1.8287  1.0609 -0.2962
 8804SOL     OW38044   1.736   2.018   6.146  0.0288  0.7822  0.4203
 8804SOL    HW138045   1.746   2.113   6.135 -0.5262  0.8822  0.7818
 8804SOL    HW238046   1.652   2.011   6.192 -0.3590  2.1130 -0.0534
 8805SOL     OW38047   4.217   3.763  13.476  0.3131  0.6130  0.0004
 8805SOL    HW138048   4.256   3.760  13.563 -0.8719 -1.8527  0.4689
 8805SOL    HW238049   4.253   3.683  13.435  1.3143  1.3005 -0.4650
 8806SOL     OW38050   2.148   2.536   6.211  0.1073 -0.2923  0.1891
 8806SOL    HW138051   2.187   2.463   6.258 -0.3473 -0.7802 -0.2027
 8806SOL    HW238052   2.057   2.509   6.219 -0.0549  0.3378  0.5262
 8807SOL     OW38053   3.748   3.480   8.404 -0.2381  0.4076 -0.3033
 8807SOL    HW138054   3.805   3.476   8.481  0.1179 -3.4097 -0.7957
 8807SOL    HW238055   3.733   3.386   8.393 -0.7996  0.4766 -0.1580
 8808SOL     OW38056   4.157   1.202   5.220  0.1169 -0.0204 -0.2607
 8808SOL    HW138057   4.087   1.259   5.188  0.9657  0.0926 -1.9159
 8808SOL    HW238058   4.104   1.131   5.258  0.5668 -0.1234  0.1756
 8809SOL     OW38059   3.866   2.690   9.953  0.3525 -0.4466  0.1345
 8809SOL    HW138060   3.821   2.612   9.986  1.3222  0.0380  2.6242
 8809SOL    HW238061   3.789   2.742   9.929 -0.3989 -0.1587  3.0926
 8810SOL     OW38062   2.676   2.713   4.099  0.0009 -0.2635 -0.1916
 8810SOL    HW138063   2.669   2.809   4.108 -1.5315 -0.1616 -2.5906
 8810SOL    HW238064   2.770   2.696   4.104  0.3913  1.9586  0.0532
 8811SOL     OW38065   4.117   2.319   4.796 -0.0832  0.1313 -0.2773
 8811SOL    HW138066   4.036   2.330   4.846 -0.1365 -0.1331 -0.3030
 8811SOL    HW238067   4.093   2.311   4.704  2.5212 -1.0873 -0.8644
 8812SOL     OW38068   1.836   1.365   7.436  0.2034  0.4263 -0.6129
 8812SOL    HW138069   1.927   1.375   7.410  0.7958  0.9460  1.7208
 8812SOL    HW238070   1.856   1.303   7.506  0.4007 -1.1978 -2.1195
 8813SOL     OW38071   1.768   4.304   9.708  0.1492 -0.1139 -0.4258
 8813SOL    HW138072   1.843   4.288   9.650  1.0876  0.1299  0.7092
 8813SOL    HW238073   1.763   4.398   9.725 -2.0090 -0.1741 -0.7729
 8814SOL     OW38074   1.576   0.451   6.231 -0.2535  0.2235 -0.9263
 8814SOL    HW138075   1.487   0.417   6.223 -0.2228 -0.2742  0.7953
 8814SOL    HW238076   1.624   0.378   6.269 -2.1881  0.2460  1.5411
 8815SOL     OW38077   0.463   3.655   2.556 -0.2066 -0.3345 -0.3349
 8815SOL    HW138078   0.449   3.745   2.527 -2.5796 -0.4766  0.4250
 8815SOL    HW238079   0.374   3.646   2.591  0.0800 -0.4495  0.3795
 8816SOL     OW38080   4.137   4.237   8.574 -0.2838  0.4169 -0.1019
 8816SOL    HW138081   4.137   4.309   8.637  0.2197 -0.2413  0.6583
 8816SOL    HW238082   4.053   4.203   8.603  0.1104  0.2874  0.9101
 8817SOL     OW38083   2.168   2.646  12.543  0.0347 -0.3765  0.4162
 8817SOL    HW138084   2.075   2.649  12.568  0.2761  0.2625  1.2410
 8817SOL    HW238085   2.207   2.634  12.630 -0.7378 -0.2961  0.7801
 8818SOL     OW38086   4.105   2.567  14.266 -0.3494 -0.1852  0.2354
 8818SOL    HW138087   4.145   2.483  14.242 -3.0244 -1.8194  1.4320
 8818SOL    HW238088   4.182   2.622  14.284  1.3295 -2.1846 -0.8264
 8819SOL     OW38089   1.802   3.067  12.002  0.3624  0.0452 -0.6421
 8819SOL    HW138090   1.803   3.153  12.045  2.1915 -0.6653  0.6983
 8819SOL    HW238091   1.810   3.097  11.911  0.7176  0.5160 -0.4595
 8820SOL     OW38092   0.468   4.389   2.659  0.2679 -0.0857  0.1047
 8820SOL    HW138093   0.385   4.341   2.652  1.0234 -0.8861 -3.6195
 8820SOL    HW238094   0.459   4.475   2.617 -2.0340  0.2377  1.2454
 8821SOL     OW38095   3.028   2.252   6.440 -0.4503  0.6308 -0.2409
 8821SOL    HW138096   2.938   2.237   6.467 -0.0087 -1.4334  0.0434
 8821SOL    HW238097   3.027   2.348   6.432  3.2228  0.9738  3.4522
 8822SOL     OW38098   3.160   4.631   3.065 -0.5932  0.0687 -0.0315
 8822SOL    HW138099   3.186   4.694   2.998 -3.7100  1.3162 -0.0675
 8822SOL    HW238100   3.205   4.669   3.141 -0.0944 -1.3785  0.3832
 8823SOL     OW38101   0.995   1.978  17.145  0.4001  0.8128 -0.6953
 8823SOL    HW138102   1.046   1.952  17.222  2.1233  1.0343 -1.7554
 8823SOL    HW238103   0.919   1.922  17.157  1.9429 -0.7825  1.6807
 8824SOL     OW38104   3.908   2.812  15.885 -0.6410 -0.2459  0.3758
 8824SOL    HW138105   3.981   2.804  15.824 -0.2412  1.0566  0.6940
 8824SOL    HW238106   3.929   2.763  15.964  0.2989  0.2324  0.4130
 8825SOL     OW38107   3.687   0.096   2.797  0.4488  0.8099  0.4230
 8825SOL    HW138108   3.679   0.091   2.702 -2.5669  1.1551  0.6468
 8825SOL    HW238109   3.717   0.010   2.827 -1.5658  0.5090  1.6039
 8826SOL     OW38110   4.146   4.272   4.598 -0.7769  0.1877  0.7381
 8826SOL    HW138111   4.188   4.263   4.683  0.6206  0.2033  0.0365
 8826SOL    HW238112   4.204   4.217   4.546 -1.3861  0.3570 -0.1390
 8827SOL     OW38113   0.446   3.539  12.495 -0.3181  0.1614 -0.1345
 8827SOL    HW138114   0.537   3.520  12.518 -0.9558 -2.4331  0.2439
 8827SOL    HW238115   0.416   3.451  12.475  0.4051  0.1793 -1.2560
 8828SOL     OW38116   0.252   2.042  13.989 -0.1274  0.2785  0.3906
 8828SOL    HW138117   0.287   2.021  13.903  0.2222  1.5248  0.2344
 8828SOL    HW238118   0.255   2.138  13.991 -0.1797  0.3506 -3.0582
 8829SOL     OW38119   0.644   1.810  15.657  0.9964  0.8040  0.0394
 8829SOL    HW138120   0.616   1.835  15.745  0.2634  4.8356 -1.3338
 8829SOL    HW238121   0.663   1.717  15.669  0.6970  0.8278  0.7105
 8830SOL     OW38122   2.972   3.813   6.015 -0.2092 -0.4863  0.3031
 8830SOL    HW138123   2.953   3.843   6.104 -0.3532  1.1110 -0.2632
 8830SOL    HW238124   2.890   3.837   5.973  0.1093  1.0483  0.5682
 8831SOL     OW38125   0.475   2.404  10.979  0.5262 -0.0003  0.0609
 8831SOL    HW138126   0.513   2.492  10.983 -0.4903  0.4487  0.1065
 8831SOL    HW238127   0.419   2.401  10.901 -0.4744 -0.9046  0.8085
 8832SOL     OW38128   4.198   3.556   0.908 -0.4638 -0.1067 -0.0911
 8832SOL    HW138129   4.216   3.618   0.837 -1.7304  1.1617  0.6954
 8832SOL    HW238130   4.258   3.579   0.979 -0.4881 -1.0197  0.2266
 8833SOL     OW38131   4.422   1.977   6.640  0.0523 -0.3183  0.6473
 8833SOL    HW138132   4.424   1.897   6.588 -1.8838 -1.2708  2.0703
 8833SOL    HW238133   4.365   1.955   6.713 -0.4704  4.1882  1.5960
 8834SOL     OW38134   0.646   1.133   7.140  0.3850  0.3704  0.4537
 8834SOL    HW138135   0.612   1.044   7.152  0.3726  0.4223  0.7861
 8834SOL    HW238136   0.717   1.136   7.076  0.6336  1.5163  0.7842
 8835SOL     OW38137   3.850   0.356   5.115 -0.0180  0.1780 -0.2980
 8835SOL    HW138138   3.764   0.352   5.158  0.9667  1.5504  1.7626
 8835SOL    HW238139   3.883   0.283   5.168  0.1575  0.5821  0.1456
 8836SOL     OW38140   3.399   4.559  17.292 -0.1442  0.3073  0.0091
 8836SOL    HW138141   3.400   4.485  17.232 -0.1843 -1.1506  1.8166
 8836SOL    HW238142   3.318   4.605  17.269 -0.7472  0.3165  2.2142
 8837SOL     OW38143   0.710   4.392  16.059  0.2682  0.4813 -0.3280
 8837SOL    HW138144   0.618   4.415  16.068 -0.0137 -1.7083  2.4172
 8837SOL    HW238145   0.717   4.312  16.113  2.6562  0.6426 -0.3858
 8838SOL     OW38146   1.285   4.422   4.486  0.0004  0.6470 -0.0720
 8838SOL    HW138147   1.310   4.332   4.467  0.3665  0.2365  2.3806
 8838SOL    HW238148   1.362   4.459   4.530 -0.2935  1.8919 -0.5918
 8839SOL     OW38149   0.652   0.717   2.327 -0.4869 -0.5106 -0.0258
 8839SOL    HW138150   0.646   0.724   2.232  0.6441 -0.2132 -0.0805
 8839SOL    HW238151   0.606   0.635   2.343  1.8604 -1.6314  1.0712
 8840SOL     OW38152   3.370   0.222  13.055  0.6104 -0.6044 -0.2626
 8840SOL    HW138153   3.439   0.288  13.048  1.7769 -1.6482  1.5047
 8840SOL    HW238154   3.302   0.288  13.069  1.9466  1.0660 -1.6870
 8841SOL     OW38155   0.335   0.471   4.722 -0.3172  0.0049  0.1596
 8841SOL    HW138156   0.350   0.495   4.631 -2.1514 -1.7245 -0.6000
 8841SOL    HW238157   0.319   0.558   4.758 -0.1592  0.9423 -2.0771
 8842SOL     OW38158   4.622   0.206   4.060 -0.4670  0.6169  0.4591
 8842SOL    HW138159   4.540   0.221   4.014 -0.4214  0.9432  0.4812
 8842SOL    HW238160   4.672   0.287   4.052  0.3293 -0.1591 -2.4158
 8843SOL     OW38161   2.957   2.611   5.237 -0.2778 -0.9033  0.0299
 8843SOL    HW138162   3.050   2.604   5.256 -0.2837  1.5165  1.0014
 8843SOL    HW238163   2.950   2.696   5.194  0.1532 -1.5334 -1.2735
 8844SOL     OW38164   4.366   4.030   2.141 -0.6629  0.2096  0.2615
 8844SOL    HW138165   4.363   4.051   2.234  0.8273  3.0091 -0.3156
 8844SOL    HW238166   4.364   3.935   2.151  2.3287 -0.2545 -3.6655
 8845SOL     OW38167   2.399   0.363   6.413  0.5738 -0.1935 -0.0677
 8845SOL    HW138168   2.334   0.392   6.350 -0.8607  1.2116  2.0897
 8845SOL    HW238169   2.401   0.441   6.469 -3.7283 -0.3186  0.2396
 8846SOL     OW38170   0.920   1.336   3.403 -0.1488  0.0051  0.1653
 8846SOL    HW138171   0.936   1.273   3.332  2.2462  1.5231 -0.6619
 8846SOL    HW238172   0.919   1.418   3.354  3.9630  0.2498  0.4184
 8847SOL     OW38173   4.728   1.199   4.541  0.0052 -0.6430  0.0485
 8847SOL    HW138174   0.075   1.194   4.595  0.5879 -0.7929 -0.8303
 8847SOL    HW238175   0.031   1.197   4.452  1.1649 -0.0752  0.4930
 8848SOL     OW38176   0.264   0.918   8.046  0.0898  0.2839 -0.1407
 8848SOL    HW138177   0.228   0.839   8.006  1.9095 -0.4462 -0.3489
 8848SOL    HW238178   0.309   0.885   8.124 -1.6213 -0.8918  0.3371
 8849SOL     OW38179   2.287   3.574  16.741  0.2631 -0.3856 -0.0335
 8849SOL    HW138180   2.317   3.547  16.655  0.6135 -0.6610  0.1783
 8849SOL    HW238181   2.326   3.511  16.801  2.0642  1.2659  0.5199
 8850SOL     OW38182   3.006   2.070   8.250 -0.3597 -0.4501  0.4051
 8850SOL    HW138183   2.995   2.131   8.177 -2.0693 -0.4910  0.6387
 8850SOL    HW238184   2.911   2.069   8.262 -0.6150  0.8783 -1.5283
 8851SOL     OW38185   2.317   2.511  17.445 -0.0378  0.6053 -0.7044
 8851SOL    HW138186   2.409   2.504  17.419  0.5376  0.0233  1.5366
 8851SOL    HW238187   2.262   2.489  17.370 -2.0745  2.8651  0.1131
 8852SOL     OW38188   3.312   3.653   5.845  0.1552  0.5015  0.1347
 8852SOL    HW138189   3.304   3.713   5.919 -2.9827  0.3222 -0.0684
 8852SOL    HW238190   3.317   3.572   5.896 -0.3735 -0.1740 -0.8907
 8853SOL     OW38191   2.315   2.467   0.256 -0.1352 -0.1838 -0.6352
 8853SOL    HW138192   2.366   2.547   0.240 -1.9450  0.8267 -1.4130
 8853SOL    HW238193   2.327   2.425   0.171  2.2696  1.5792 -1.1826
 8854SOL     OW38194   3.045   4.251   2.181  0.2287 -0.1257 -0.0812
 8854SOL    HW138195   2.975   4.186   2.181  1.3725 -1.3393  0.9840
 8854SOL    HW238196   2.994   4.317   2.228 -0.9110 -2.5034  2.0254
 8855SOL     OW38197   2.390   2.828   7.036 -0.4810 -0.5130 -0.3641
 8855SOL    HW138198   2.485   2.826   7.048 -0.6074 -1.6567  0.3942
 8855SOL    HW238199   2.365   2.748   6.991 -0.9574  0.9856 -2.7937
 8856SOL     OW38200   2.110   3.311   4.579  0.0103  0.0848 -0.0100
 8856SOL    HW138201   2.099   3.384   4.641  1.3343  0.0297  0.2915
 8856SOL    HW238202   2.021   3.310   4.543 -0.0693 -2.2110  0.2811
 8857SOL     OW38203   3.671   1.825   8.742 -0.5004  0.4991  0.2420
 8857SOL    HW138204   3.599   1.825   8.680  0.0604 -1.2333 -0.4315
 8857SOL    HW238205   3.733   1.773   8.690  0.0185  0.0154  1.3533
 8858SOL     OW38206   2.237   0.260   3.675 -0.0276  0.2574 -0.2547
 8858SOL    HW138207   2.301   0.189   3.669 -1.1199 -0.6623 -0.8320
 8858SOL    HW238208   2.157   0.213   3.652 -0.2547  2.5101 -3.9623
 8859SOL     OW38209   0.940   3.069   8.449  0.4854  0.3184  0.1292
 8859SOL    HW138210   0.935   3.118   8.366  1.1023  0.7879  0.3704
 8859SOL    HW238211   0.892   2.990   8.424  0.3920  0.0819  1.0862
 8860SOL     OW38212   4.575   2.115  17.677  0.0879 -0.0786  0.0951
 8860SOL    HW138213   4.650   2.174  17.673 -0.1855  0.2341 -0.4713
 8860SOL    HW238214   4.570   2.086  17.586  0.0283 -0.7472  0.3086
 8861SOL     OW38215   1.548   1.754   8.427  0.3699 -0.0930 -0.5577
 8861SOL    HW138216   1.501   1.671   8.427  0.9738 -0.4350  0.4830
 8861SOL    HW238217   1.485   1.808   8.476  1.5453  1.1945 -0.4704
 8862SOL     OW38218   0.078   0.317   7.459  0.1061 -0.2708 -0.2720
 8862SOL    HW138219   0.151   0.354   7.408  1.3910 -0.2674  1.5813
 8862SOL    HW238220   0.028   0.398   7.471 -1.4310 -0.8899 -2.5337
 8863SOL     OW38221   2.579   1.470   6.707 -0.5734 -0.1646  0.4531
 8863SOL    HW138222   2.638   1.481   6.632 -1.0810  1.7934  0.3491
 8863SOL    HW238223   2.501   1.518   6.677 -1.1578 -0.8365  0.9019
 8864SOL     OW38224   3.193   0.331   3.313 -0.6613 -0.3250  0.0104
 8864SOL    HW138225   3.225   0.311   3.401  1.6768 -0.3978 -0.8503
 8864SOL    HW238226   3.201   0.427   3.319 -1.1493 -0.4132  1.8998
 8865SOL     OW38227   1.314   4.179   4.334  0.0607  0.3568 -0.2320
 8865SOL    HW138228   1.363   4.104   4.370  0.5238  1.0940  0.6852
 8865SOL    HW238229   1.324   4.169   4.240 -0.5318  0.7693 -0.3399
 8866SOL     OW38230   2.623   3.304  13.185 -0.1708 -0.3848 -0.0611
 8866SOL    HW138231   2.539   3.288  13.227 -1.3737 -0.1806 -2.4048
 8866SOL    HW238232   2.668   3.224  13.212 -0.2008 -0.4451 -0.1915
 8867SOL     OW38233   0.827   3.478   7.113  0.2107 -0.0741  0.4655
 8867SOL    HW138234   0.737   3.503   7.094 -0.5590 -3.6112 -0.5545
 8867SOL    HW238235   0.861   3.495   7.025  1.9454 -1.5785  0.8335
 8868SOL     OW38236   1.943   1.994  11.692  0.6537  0.5908  0.2933
 8868SOL    HW138237   1.963   2.066  11.752  1.0311  0.4627  0.3162
 8868SOL    HW238238   1.902   2.041  11.618  0.9592  1.5755  0.7452
 8869SOL     OW38239   0.637   3.041  14.186  0.0125 -0.0664  0.0579
 8869SOL    HW138240   0.635   3.128  14.225  3.2217  1.3825 -3.0438
 8869SOL    HW238241   0.732   3.037  14.186  0.0867  1.6824 -0.2218
 8870SOL     OW38242   1.725   1.034   3.976  0.4048  0.1569  0.0877
 8870SOL    HW138243   1.743   1.027   3.883 -1.7688  4.3667 -0.6795
 8870SOL    HW238244   1.685   1.121   3.987  1.6703  0.5186  2.0006
 8871SOL     OW38245   1.114   2.648   1.762 -0.2226  0.2136  0.0237
 8871SOL    HW138246   1.153   2.670   1.846 -0.8942 -2.0081  0.9391
 8871SOL    HW238247   1.020   2.666   1.769 -0.2498 -0.0711  0.4072
 8872SOL     OW38248   0.103   4.033   3.907  0.3922 -0.4566  0.3624
 8872SOL    HW138249   0.184   4.066   3.947  0.0661 -0.9264  1.3855
 8872SOL    HW238250   0.124   3.943   3.883 -0.6717  0.1300 -2.8583
 8873SOL     OW38251   2.192   3.985   8.571 -0.1555 -0.1920  0.2154
 8873SOL    HW138252   2.144   4.009   8.650  1.0420  1.0269  0.5754
 8873SOL    HW238253   2.257   4.056   8.566 -0.8537  0.4026 -0.4930
 8874SOL     OW38254   2.876   4.588   8.529  0.1341  0.1455 -0.0711
 8874SOL    HW138255   2.917   4.515   8.575 -1.1708 -1.7829 -1.9886
 8874SOL    HW238256   2.822   4.528   8.477  0.9420 -0.1856 -0.5186
 8875SOL     OW38257   4.252   4.530  11.861 -0.0215  0.8198 -0.3400
 8875SOL    HW138258   4.174   4.574  11.827 -0.8676 -0.4623 -0.0841
 8875SOL    HW238259   4.247   4.442  11.822 -0.6276  0.1002  1.3488
 8876SOL     OW38260   2.741   2.980   8.482  0.2017  0.3962  0.0629
 8876SOL    HW138261   2.794   3.024   8.416 -1.2267  2.1287  0.0790
 8876SOL    HW238262   2.747   3.040   8.556  1.8650  0.3114  0.0034
 8877SOL     OW38263   2.105   3.422  10.713 -0.3918  0.2700 -0.0608
 8877SOL    HW138264   2.113   3.326  10.710 -2.8087  0.1607 -2.5119
 8877SOL    HW238265   2.189   3.448  10.674  0.4311 -2.1429  0.0565
 8878SOL     OW38266   2.749   0.260  15.053  0.4927 -0.4832  0.2095
 8878SOL    HW138267   2.768   0.353  15.045 -0.7129 -0.4966 -2.7820
 8878SOL    HW238268   2.812   0.237  15.122 -0.0519 -0.1719  0.8161
 8879SOL     OW38269   0.741   3.207   9.052 -0.5600  0.3285 -0.2655
 8879SOL    HW138270   0.648   3.192   9.035 -0.6012 -0.5635  0.7291
 8879SOL    HW238271   0.764   3.252   8.971  0.1715  1.4387  0.5496
 8880SOL     OW38272   4.593   0.884   9.143 -0.3238  0.2546 -0.4184
 8880SOL    HW138273   4.640   0.804   9.120 -0.4921 -0.2706  1.1234
 8880SOL    HW238274   4.562   0.914   9.057 -2.4795  1.0079  0.6184
 8881SOL     OW38275   3.917   3.172   1.829 -0.0009  0.1127  0.1382
 8881SOL    HW138276   3.841   3.186   1.772  1.3540  1.3740 -1.3744
 8881SOL    HW238277   3.888   3.221   1.906  3.4556  1.4499  0.5879
 8882SOL     OW38278   4.021   1.739   5.840  0.0670  0.7064  0.1476
 8882SOL    HW138279   3.936   1.714   5.805  0.4187 -0.1810 -0.0657
 8882SOL    HW238280   4.035   1.686   5.918  0.6909  2.4086  1.1946
 8883SOL     OW38281   2.911   2.364  17.632  0.2189 -0.7666 -0.7351
 8883SOL    HW138282   2.840   2.364  17.567 -0.8907  2.9033  0.4819
 8883SOL    HW238283   2.875   2.395  17.715 -0.5240 -1.2452 -0.8822
 8884SOL     OW38284   0.967   4.469   7.331  0.3336 -0.1234 -0.2463
 8884SOL    HW138285   0.946   4.526   7.405 -0.1338 -0.5468 -0.0515
 8884SOL    HW238286   0.886   4.478   7.281  0.0548 -0.1743  0.1972
 8885SOL     OW38287   4.282   1.284  10.043 -0.2657 -0.0306 -0.0985
 8885SOL    HW138288   4.364   1.273  10.091 -0.7022  0.8280  0.8384
 8885SOL    HW238289   4.235   1.321  10.118  1.7426  1.4225  0.4165
 8886SOL     OW38290   1.095   4.415  13.772  0.1085 -0.2736  0.7441
 8886SOL    HW138291   1.151   4.424  13.695  0.9754  0.9214  1.5158
 8886SOL    HW238292   1.080   4.506  13.796 -0.3240 -0.2475  0.3606
 8887SOL     OW38293   0.140   3.181  11.272 -0.1165 -0.1480 -0.2303
 8887SOL    HW138294   0.200   3.163  11.200  2.2017 -0.0543  1.6718
 8887SOL    HW238295   0.084   3.236  11.217 -0.4062 -1.0289 -0.8124
 8888SOL     OW38296   2.769   3.706   4.576 -0.0717 -0.5413  0.0142
 8888SOL    HW138297   2.778   3.642   4.646  1.8836  0.3883  0.6161
 8888SOL    HW238298   2.711   3.770   4.615  0.9892  1.0069 -0.9132
 8889SOL     OW38299   3.902   1.368  11.662 -0.0666 -0.2105  0.0484
 8889SOL    HW138300   3.893   1.395  11.754 -0.5368  0.5168 -0.2161
 8889SOL    HW238301   3.915   1.452  11.618 -1.4717 -1.1686 -2.1878
 8890SOL     OW38302   4.389   0.678   1.879  0.0072 -0.0737 -0.1996
 8890SOL    HW138303   4.447   0.670   1.804  1.7152  0.0718  1.1021
 8890SOL    HW238304   4.347   0.761   1.855 -2.5876 -1.4312 -0.3682
 8891SOL     OW38305   3.452   1.699   3.662 -0.0407  0.5115 -0.4724
 8891SOL    HW138306   3.522   1.762   3.677 -0.1121  0.4844 -0.0416
 8891SOL    HW238307   3.377   1.727   3.715  2.2790  1.5293  2.2334
 8892SOL     OW38308   1.819   0.767   2.743 -0.0109 -0.2788  0.0917
 8892SOL    HW138309   1.869   0.759   2.823 -0.4805 -2.4040  0.1665
 8892SOL    HW238310   1.870   0.826   2.687 -1.7364  1.0620 -0.0711
 8893SOL     OW38311   3.077   3.492   6.239 -0.0147  0.5353  0.4049
 8893SOL    HW138312   2.993   3.449   6.258 -0.8980  1.3351 -1.6415
 8893SOL    HW238313   3.092   3.523   6.328  1.3285  1.1695 -0.0448
 8894SOL     OW38314   3.113   4.257   5.744 -0.1689  0.9772 -0.1557
 8894SOL    HW138315   3.118   4.179   5.799  3.4604 -0.3799 -2.4400
 8894SOL    HW238316   3.056   4.220   5.677  2.1873 -0.0041 -1.6010
 8895SOL     OW38317   3.046   4.126   0.224  0.1517 -0.3434  0.2037
 8895SOL    HW138318   3.072   4.039   0.195  0.3593 -0.6017  1.1787
 8895SOL    HW238319   3.118   4.174   0.183  2.6662 -3.0504  1.4856
 8896SOL     OW38320   1.264   0.155  11.974  0.0521  0.4332 -0.0458
 8896SOL    HW138321   1.201   0.112  12.031  1.5757 -0.2432  1.1359
 8896SOL    HW238322   1.205   0.173  11.901  0.0907  3.0012  0.5356
 8897SOL     OW38323   4.554   0.570   2.554  0.3734 -0.8249  0.0588
 8897SOL    HW138324   4.604   0.515   2.495  3.4886  2.1343 -0.0739
 8897SOL    HW238325   4.495   0.618   2.495  2.0863 -1.9568 -2.5378
 8898SOL     OW38326   4.018   1.907  14.610 -0.0902  0.4651 -0.5498
 8898SOL    HW138327   4.110   1.897  14.585  0.0893 -2.2249  1.2725
 8898SOL    HW238328   4.032   1.957  14.691  0.9573 -2.6621  1.2009
 8899SOL     OW38329   4.440   3.645  13.393 -0.2957  0.2704 -0.2300
 8899SOL    HW138330   4.533   3.623  13.386 -0.2094  0.3970  0.4970
 8899SOL    HW238331   4.421   3.706  13.322 -1.8888  0.2154  0.1497
 8900SOL     OW38332   4.093   2.118   0.542 -0.4989 -0.5513  0.2654
 8900SOL    HW138333   4.014   2.105   0.594 -1.2585  0.6759 -0.5741
 8900SOL    HW238334   4.165   2.144   0.600  0.6922 -0.8764 -1.0534
 8901SOL     OW38335   2.920   2.959   7.299  0.3231 -0.0669 -0.3341
 8901SOL    HW138336   2.849   3.017   7.274  1.2588  0.8857 -0.7671
 8901SOL    HW238337   2.866   2.890   7.337 -1.3327  1.4336  0.0166
 8902SOL     OW38338   4.397   3.626   2.851  0.8560 -0.0132  0.7440
 8902SOL    HW138339   4.398   3.685   2.926 -2.5722  1.1537 -0.1199
 8902SOL    HW238340   4.478   3.658   2.809  0.2915  0.0917 -0.2688
 8903SOL     OW38341   0.599   3.169   2.349 -0.5596  0.0240 -0.5312
 8903SOL    HW138342   0.572   3.151   2.439 -0.5911  2.0680 -0.1264
 8903SOL    HW238343   0.601   3.081   2.312 -0.4485 -0.3281  0.3140
 8904SOL     OW38344   4.694   0.234   2.787 -0.1624  0.5025  0.3142
 8904SOL    HW138345   4.688   0.324   2.817  0.5553  0.3947  0.7774
 8904SOL    HW238346   0.022   0.213   2.858 -0.2148 -0.4585  0.0820
 8905SOL     OW38347   1.442   1.420   5.729 -0.3638  0.3300  0.1245
 8905SOL    HW138348   1.426   1.451   5.640 -0.8098 -2.5039 -0.7963
 8905SOL    HW238349   1.521   1.470   5.750 -0.7506  0.0332  2.3501
 8906SOL     OW38350   2.074   1.614   7.250  0.3073  0.0854 -0.2389
 8906SOL    HW138351   2.081   1.524   7.280  3.5923  0.2433 -0.5643
 8906SOL    HW238352   2.165   1.637   7.266  0.1284  0.7200 -0.1366
 8907SOL     OW38353   0.996   1.635   0.479 -0.2962 -0.7991 -0.3152
 8907SOL    HW138354   0.908   1.670   0.488  0.6179  1.5900 -0.8367
 8907SOL    HW238355   1.044   1.685   0.544  0.4288 -1.6864 -0.1767
 8908SOL     OW38356   0.709   0.016  10.759 -0.3192 -0.1363  0.1279
 8908SOL    HW138357   0.628   4.712  10.721 -0.9569 -0.0494  1.4051
 8908SOL    HW238358   0.680   0.079  10.825 -3.1035  0.2481 -1.4427
 8909SOL     OW38359   1.573   4.001   6.940 -0.5317  0.0148 -0.5303
 8909SOL    HW138360   1.616   4.069   6.992 -1.0953  0.3800 -0.5509
 8909SOL    HW238361   1.548   4.064   6.872 -1.0583  1.1589  0.7140
 8910SOL     OW38362   4.631   3.406  13.912 -0.2590 -0.1112 -0.0795
 8910SOL    HW138363   4.565   3.375  13.849 -0.6017  2.0625 -0.7931
 8910SOL    HW238364   4.618   3.500  13.899 -1.5597 -0.1073  1.2571
 8911SOL     OW38365   3.392   1.051  10.125 -0.1492 -0.4789 -0.0018
 8911SOL    HW138366   3.442   1.123  10.087  0.1547 -0.7146 -0.0454
 8911SOL    HW238367   3.369   1.095  10.207  1.0818 -2.2829  1.3024
 8912SOL     OW38368   0.841   1.338  17.400 -0.0224  0.5537  0.1362
 8912SOL    HW138369   0.750   1.329  17.428  0.2430 -1.4968  0.3528
 8912SOL    HW238370   0.839   1.262  17.343  0.3699  0.1975  0.5988
 8913SOL     OW38371   4.404   4.376   0.444  0.0384 -0.0269  0.2332
 8913SOL    HW138372   4.329   4.395   0.387 -0.7969 -0.1895  1.2833
 8913SOL    HW238373   4.452   4.458   0.451 -0.0124  0.0026  0.2339
 8914SOL     OW38374   3.210   0.633  12.932  0.3510  0.1905  0.2402
 8914SOL    HW138375   3.286   0.629  12.990  0.8559  1.0450 -0.3629
 8914SOL    HW238376   3.198   0.539  12.920  0.1806  0.0473  1.5527
 8915SOL     OW38377   2.754   2.591   8.874 -0.3326  0.2857 -0.4198
 8915SOL    HW138378   2.769   2.532   8.948 -1.9069 -0.3312 -0.6002
 8915SOL    HW238379   2.839   2.582   8.831 -0.1037 -2.3496  0.6107
 8916SOL     OW38380   2.388   1.930   7.845  0.2302  0.1674  0.0211
 8916SOL    HW138381   2.422   1.884   7.769  2.4405 -0.9698  1.7249
 8916SOL    HW238382   2.418   2.019   7.825 -0.9638  0.0298 -2.4334
 8917SOL     OW38383   0.163   3.166   0.898 -0.0270 -0.4616  0.2784
 8917SOL    HW138384   0.128   3.249   0.864 -1.6701 -1.4517 -0.4070
 8917SOL    HW238385   0.099   3.108   0.857 -0.3775  0.1578 -0.0599
 8918SOL     OW38386   3.035   4.262   3.681  0.3997  0.3097 -0.0191
 8918SOL    HW138387   3.026   4.219   3.596 -3.1676  0.3144  0.3583
 8918SOL    HW238388   3.130   4.275   3.680  0.5842 -0.9416  0.8424
 8919SOL     OW38389   1.648   3.356  16.976  0.0094 -0.2792  0.2006
 8919SOL    HW138390   1.698   3.274  16.979 -1.8731 -1.3921  1.4989
 8919SOL    HW238391   1.705   3.418  17.022 -0.2573  1.2919 -1.6143
 8920SOL     OW38392   1.395   2.025   7.570 -0.1708  0.1665  0.3088
 8920SOL    HW138393   1.472   1.996   7.620 -2.8368 -1.1347  3.6493
 8920SOL    HW238394   1.427   2.103   7.524 -0.0063 -0.5696 -0.8233
 8921SOL     OW38395   0.949   3.773  13.482  0.2686 -0.1519 -0.7984
 8921SOL    HW138396   1.012   3.789  13.412  0.3376 -0.2553 -0.7609
 8921SOL    HW238397   0.990   3.818  13.556  0.9155  0.5800 -1.6047
 8922SOL     OW38398   3.563   3.229   7.294 -0.1330 -0.0012 -0.0254
 8922SOL    HW138399   3.595   3.140   7.307 -1.7860 -0.9775 -2.7623
 8922SOL    HW238400   3.522   3.247   7.379  0.6887  0.8598  0.1828
 8923SOL     OW38401   3.437   4.086  16.209  0.7234  0.4374 -0.1502
 8923SOL    HW138402   3.525   4.113  16.235  0.6370  1.6058 -1.0823
 8923SOL    HW238403   3.413   4.140  16.134  0.1507  2.6086  1.5864
 8924SOL     OW38404   4.670   1.627   0.022  0.2272 -0.0703  0.2085
 8924SOL    HW138405   4.685   1.718   0.047 -1.8098  0.8449 -1.9574
 8924SOL    HW238406   4.639   1.593   0.107  1.0695 -0.3878  0.3912
 8925SOL     OW38407   1.842   0.027   4.715 -0.1917  0.1026  0.3842
 8925SOL    HW138408   1.812   0.110   4.751 -0.1729 -0.7141  2.2390
 8925SOL    HW238409   1.923   0.017   4.765 -0.5445  2.7547  1.4498
 8926SOL     OW38410   4.485   0.791   2.765  1.1072 -0.5580  0.2358
 8926SOL    HW138411   4.492   0.716   2.706  1.7462  0.8178 -1.4305
 8926SOL    HW238412   4.576   0.811   2.789  1.0707  1.3723 -1.3001
 8927SOL     OW38413   2.330   4.014  11.534  0.7145 -0.1519  0.4682
 8927SOL    HW138414   2.263   4.021  11.602  0.8532 -2.1481  0.8192
 8927SOL    HW238415   2.373   4.098  11.549  0.7957  0.0845 -1.1473
 8928SOL     OW38416   2.694   2.993  15.854  0.7171  1.2796  0.4226
 8928SOL    HW138417   2.672   2.967  15.944  0.5301  1.8397  0.5454
 8928SOL    HW238418   2.623   2.957  15.801 -0.5379  3.8932  0.3351
 8929SOL     OW38419   2.912   0.643  12.801 -0.1269 -0.5557 -0.4273
 8929SOL    HW138420   2.995   0.690  12.811 -0.6279  0.3343 -0.4397
 8929SOL    HW238421   2.850   0.711  12.773 -1.2238 -0.8317  1.2777
 8930SOL     OW38422   3.312   3.644   6.764  1.0381  0.1783  0.1880
 8930SOL    HW138423   3.244   3.583   6.737  1.0878  0.5109 -0.6770
 8930SOL    HW238424   3.360   3.653   6.681 -1.5445  1.9045 -1.1200
 8931SOL     OW38425   0.758   0.215   4.131  0.0927 -0.7318  0.3667
 8931SOL    HW138426   0.777   0.141   4.190  1.1180 -1.6783 -1.1407
 8931SOL    HW238427   0.755   0.286   4.194 -1.1656 -1.8216  1.5399
 8932SOL     OW38428   4.527   3.370   5.639 -0.0289  0.2700  0.2344
 8932SOL    HW138429   4.599   3.427   5.613 -0.0122 -1.4212 -3.3859
 8932SOL    HW238430   4.461   3.396   5.575  0.1600  0.1188 -0.0228
 8933SOL     OW38431   0.590   1.340  16.105  0.6185  0.1534  0.2967
 8933SOL    HW138432   0.499   1.365  16.090  0.9034  1.0448  0.0558
 8933SOL    HW238433   0.631   1.426  16.100  1.1713 -0.0820  0.7485
 8934SOL     OW38434   2.613   0.567   7.187 -0.2129  0.2595 -0.2945
 8934SOL    HW138435   2.559   0.569   7.267 -0.5089  0.9454 -0.5158
 8934SOL    HW238436   2.687   0.522   7.227 -0.2342  1.1555  0.7412
 8935SOL     OW38437   3.094   4.350   6.824 -0.1965  0.1318 -0.1452
 8935SOL    HW138438   3.005   4.319   6.841 -0.3973  0.0626 -1.3477
 8935SOL    HW238439   3.138   4.274   6.863 -1.1287 -0.1132  0.4290
 8936SOL     OW38440   3.396   1.013  16.184 -0.5049 -0.0602  0.0223
 8936SOL    HW138441   3.366   0.950  16.118  3.1379 -1.5930 -0.1547
 8936SOL    HW238442   3.353   0.976  16.261  0.2425 -0.0872  0.4227
 8937SOL     OW38443   3.414   4.444  12.310 -0.3078  0.5799 -0.0134
 8937SOL    HW138444   3.418   4.530  12.352  1.0014 -0.3872  1.8875
 8937SOL    HW238445   3.507   4.427  12.297 -0.8154 -1.5385 -0.8770
 8938SOL     OW38446   2.808   4.357   4.913  0.5378 -0.7819 -0.5227
 8938SOL    HW138447   2.855   4.327   4.991 -0.7702 -3.0442 -0.6352
 8938SOL    HW238448   2.853   4.307   4.845  1.2439 -2.5192  1.2111
 8939SOL     OW38449   1.229   2.371   5.381  0.3698  0.0424  0.0772
 8939SOL    HW138450   1.224   2.451   5.328 -2.0368  0.5356  1.0667
 8939SOL    HW238451   1.141   2.362   5.417  0.4754  1.7000  0.7426
 8940SOL     OW38452   4.447   2.648   0.166 -0.1863  0.1656  0.2114
 8940SOL    HW138453   4.418   2.649   0.074 -2.2204 -0.5723  0.8599
 8940SOL    HW238454   4.528   2.700   0.162  0.2737 -0.4583  1.6433
 8941SOL     OW38455   4.446   2.582   0.662 -0.4302  0.2177  0.0170
 8941SOL    HW138456   4.490   2.522   0.722  1.3677  1.4435 -0.0405
 8941SOL    HW238457   4.358   2.545   0.666  0.3458 -1.2421  3.1902
 8942SOL     OW38458   3.774   2.385  10.257 -0.6068 -0.2254  0.0685
 8942SOL    HW138459   3.845   2.321  10.259  1.3657  1.9528  0.2947
 8942SOL    HW238460   3.758   2.395  10.351  0.2460 -0.1857  0.2110
 8943SOL     OW38461   1.582   3.958  13.845  0.2146 -0.0094 -0.7659
 8943SOL    HW138462   1.616   3.980  13.758  0.7888 -0.5324 -0.6694
 8943SOL    HW238463   1.516   3.893  13.822 -0.6695  0.6382 -0.0929
 8944SOL     OW38464   2.655   4.139  14.858 -0.2459 -0.3838  0.0745
 8944SOL    HW138465   2.683   4.226  14.832 -0.9890  0.2175  1.2757
 8944SOL    HW238466   2.634   4.088  14.780  2.1619  1.4167 -1.7521
 8945SOL     OW38467   1.733   3.428  14.019 -0.1546 -0.1919  0.8203
 8945SOL    HW138468   1.644   3.421  13.984  0.3930  0.1173 -0.6500
 8945SOL    HW238469   1.715   3.507  14.069 -0.4879 -0.8659  1.7629
 8946SOL     OW38470   0.374   3.386   7.420 -0.0474  0.6089 -0.4893
 8946SOL    HW138471   0.360   3.382   7.326 -0.2763  2.3450 -0.5355
 8946SOL    HW238472   0.469   3.378   7.427 -0.1596 -0.3194  0.0493
 8947SOL     OW38473   2.310   1.405  16.525  0.0412  0.6068 -0.1605
 8947SOL    HW138474   2.306   1.453  16.608  2.3757  2.1967 -0.9625
 8947SOL    HW238475   2.355   1.479  16.484 -1.4808  1.1813 -0.8244
 8948SOL     OW38476   2.960   3.362   8.172  0.7532  0.0676 -0.2997
 8948SOL    HW138477   2.914   3.287   8.208  0.2006  1.0306  0.9708
 8948SOL    HW238478   3.011   3.323   8.101 -0.7750  1.0377 -1.9484
 8949SOL     OW38479   3.760   3.024  11.321  0.6403  0.3536  0.3928
 8949SOL    HW138480   3.841   3.075  11.323  0.4590  0.6301  0.8785
 8949SOL    HW238481   3.701   3.091  11.356  2.6399  1.3337  1.9028
 8950SOL     OW38482   2.389   3.510  14.517  0.3367  0.2818  0.4976
 8950SOL    HW138483   2.422   3.460  14.442 -0.5275 -0.3133  0.5189
 8950SOL    HW238484   2.297   3.485  14.511  0.7603 -1.1282 -0.2425
 8951SOL     OW38485   3.825   2.609   6.206  0.1058  0.1651 -0.1645
 8951SOL    HW138486   3.868   2.578   6.126 -0.1352  1.2551 -0.7236
 8951SOL    HW238487   3.891   2.578   6.268 -0.8991  0.4016  1.0225
 8952SOL     OW38488   0.161   1.098  13.306 -0.1063 -0.2671  0.6316
 8952SOL    HW138489   0.154   1.016  13.257  2.7005 -0.3008  0.2986
 8952SOL    HW238490   0.069   1.122  13.308 -0.6902 -2.4677  0.1112
 8953SOL     OW38491   0.482   3.185   6.025  0.1181  0.7038 -0.8213
 8953SOL    HW138492   0.521   3.145   5.947  1.4984 -2.3544  1.4735
 8953SOL    HW238493   0.482   3.114   6.088  0.4393  2.7843  1.5255
 8954SOL     OW38494   3.728   0.059   4.882  0.4343  0.2351 -0.0562
 8954SOL    HW138495   3.739   0.021   4.969 -1.3454 -0.2417 -0.0488
 8954SOL    HW238496   3.745   4.716   4.824 -1.3242 -0.7756  0.7513
 8955SOL     OW38497   2.781   2.894   6.730 -0.0657 -0.1475 -0.1127
 8955SOL    HW138498   2.869   2.920   6.758 -0.3014  1.7852 -1.2002
 8955SOL    HW238499   2.801   2.883   6.637 -2.4115 -1.3407 -0.4653
 8956SOL     OW38500   1.557   3.278   6.064 -0.2194  0.7787  0.2248
 8956SOL    HW138501   1.631   3.248   6.011 -1.3889  0.7846 -1.4358
 8956SOL    HW238502   1.591   3.253   6.149 -0.4074 -0.1088  0.0453
 8957SOL     OW38503   3.431   1.680   5.074  0.2341 -0.4438  0.0617
 8957SOL    HW138504   3.399   1.750   5.017 -0.6027  0.2399  1.3817
 8957SOL    HW238505   3.444   1.735   5.151  1.3708  0.0600 -0.4742
 8958SOL     OW38506   2.522   4.373   1.374 -0.2680  0.2549  0.2065
 8958SOL    HW138507   2.528   4.395   1.281 -2.2511  0.1173  0.0478
 8958SOL    HW238508   2.614   4.357   1.395 -0.5330  0.7492  1.7294
 8959SOL     OW38509   0.076   2.276   0.012 -0.0052 -0.0392 -0.0524
 8959SOL    HW138510   0.021   2.355   0.012 -0.6916 -0.5113  2.2514
 8959SOL    HW238511   0.154   2.314   0.052 -1.4221  1.4713  1.2703
 8960SOL     OW38512   0.220   4.326   1.936 -0.6841  0.7737 -0.2955
 8960SOL    HW138513   0.177   4.245   1.962  0.0479 -0.0405 -1.6721
 8960SOL    HW238514   0.309   4.292   1.936 -1.0076 -0.0524 -1.0749
 8961SOL     OW38515   1.289   1.584   5.545 -0.7368 -0.1518 -0.9189
 8961SOL    HW138516   1.357   1.528   5.509  0.1596  0.2997  0.0625
 8961SOL    HW238517   1.325   1.671   5.528 -0.0717 -0.4119 -0.8407
 8962SOL     OW38518   3.080   0.152  15.913 -0.0380  0.3330 -0.1153
 8962SOL    HW138519   3.149   0.209  15.946  1.2845 -1.0986 -0.4203
 8962SOL    HW238520   3.055   0.210  15.842 -0.3202  0.7546  0.3215
 8963SOL     OW38521   0.034   0.916   5.056 -0.3837  0.4816 -0.1878
 8963SOL    HW138522   4.683   0.961   5.043 -0.4749  0.5389  0.6030
 8963SOL    HW238523   0.035   0.845   4.991  0.3777  0.3311 -0.0127
 8964SOL     OW38524   2.772   2.843  17.623 -0.6082 -0.5076 -0.3243
 8964SOL    HW138525   2.845   2.861  17.682  0.0197 -1.5464 -0.7867
 8964SOL    HW238526   2.716   2.919  17.638 -1.0178 -0.6917 -0.9012
 8965SOL     OW38527   3.661   4.348   7.043 -0.4672 -0.0021  0.9361
 8965SOL    HW138528   3.685   4.410   7.111 -1.8849  0.9990  0.5154
 8965SOL    HW238529   3.651   4.270   7.098 -1.6528 -0.7731 -0.3465
 8966SOL     OW38530   0.937   3.952   3.487 -0.5235  0.2596  0.2174
 8966SOL    HW138531   1.030   3.969   3.472 -1.1965  1.5484 -2.5609
 8966SOL    HW238532   0.899   3.963   3.400 -1.2995  2.4287  0.8570
 8967SOL     OW38533   1.923   2.288  14.686 -0.1690 -0.1116  0.6106
 8967SOL    HW138534   1.951   2.272  14.776  1.1870 -0.4139  0.1334
 8967SOL    HW238535   2.010   2.299  14.647 -0.3790 -2.4262 -0.4544
 8968SOL     OW38536   4.272   4.165   0.539 -0.3762  0.1582 -0.1529
 8968SOL    HW138537   4.320   4.084   0.523 -2.7261 -1.0110 -1.2924
 8968SOL    HW238538   4.330   4.221   0.486 -0.8160  1.7082  1.0123
 8969SOL     OW38539   3.080   0.342   5.777  0.3335  0.6437  0.3066
 8969SOL    HW138540   3.134   0.314   5.850 -0.9458  1.1189  1.4308
 8969SOL    HW238541   3.146   0.357   5.709  0.8229  1.6030  0.9918
 8970SOL     OW38542   1.121   1.338  13.991  0.3298  0.6152 -0.4640
 8970SOL    HW138543   1.039   1.372  13.957 -1.6255 -1.8563  1.7218
 8970SOL    HW238544   1.102   1.246  13.971  5.2103 -0.9596  1.9099
 8971SOL     OW38545   1.173   2.269  15.139  0.0037  0.2949  0.8669
 8971SOL    HW138546   1.249   2.326  15.150  1.3177 -1.3473  0.2957
 8971SOL    HW238547   1.096   2.326  15.133  0.8774  1.2936 -0.6916
 8972SOL     OW38548   3.999   4.621  11.806  0.4454 -0.4478  0.4509
 8972SOL    HW138549   3.913   4.614  11.848  0.8158  1.4630  1.5164
 8972SOL    HW238550   3.995   4.693  11.743  1.0144 -2.6481 -2.0562
 8973SOL     OW38551   1.352   1.405  17.404 -0.2590 -0.2765  0.0555
 8973SOL    HW138552   1.259   1.428  17.397  0.1186  1.8586  2.2260
 8973SOL    HW238553   1.369   1.339  17.337  0.5824  0.9141 -0.8874
 8974SOL     OW38554   1.645   2.137   7.889 -0.7298  0.3828 -0.0641
 8974SOL    HW138555   1.681   2.167   7.806 -2.2954 -0.9864 -1.2439
 8974SOL    HW238556   1.614   2.051   7.861 -0.4222  0.1800  0.2167
 8975SOL     OW38557   1.432   2.521   4.479 -0.3739  0.6103 -0.0422
 8975SOL    HW138558   1.419   2.575   4.401  0.2733  0.1802 -0.4551
 8975SOL    HW238559   1.340   2.511   4.504 -0.5451  3.7107  0.5115
 8976SOL     OW38560   1.615   1.325   7.915  0.0195 -0.7693 -0.3437
 8976SOL    HW138561   1.655   1.240   7.901 -1.2267 -1.1895 -1.4315
 8976SOL    HW238562   1.599   1.355   7.825 -0.7844 -3.2755 -1.0289
 8977SOL     OW38563   3.810   0.087   5.777 -0.5540  0.2143  0.4329
 8977SOL    HW138564   3.743   0.117   5.715  0.8821  1.3181 -0.5950
 8977SOL    HW238565   3.775   0.112   5.863 -0.4941 -1.1191  0.8553
 8978SOL     OW38566   4.050   3.792   3.875 -0.0573 -0.5693  0.6732
 8978SOL    HW138567   4.097   3.833   3.949  0.0575  1.0009 -0.2762
 8978SOL    HW238568   4.102   3.831   3.805  0.7619 -1.6769  0.6668
 8979SOL     OW38569   1.827   3.011   4.088  0.2896 -0.2521  0.1587
 8979SOL    HW138570   1.918   3.038   4.080 -0.3241  1.2191 -1.8295
 8979SOL    HW238571   1.789   3.091   4.052  0.6738  0.4143  1.2688
 8980SOL     OW38572   0.091   3.298   2.441  0.8085  0.0807 -0.0620
 8980SOL    HW138573   0.181   3.307   2.474  1.2892  1.0695 -1.6538
 8980SOL    HW238574   0.069   3.224   2.498  2.5332 -0.6460 -0.3309
 8981SOL     OW38575   0.364   4.521   7.016  0.4136 -0.0623  0.0222
 8981SOL    HW138576   0.369   4.549   6.925 -1.0463 -0.0819 -0.0651
 8981SOL    HW238577   0.270   4.533   7.026  0.7884  1.6616  1.3738
 8982SOL     OW38578   4.193   3.466   2.433 -0.4570  0.1149 -0.1998
 8982SOL    HW138579   4.240   3.546   2.459 -1.2657  0.7031 -0.5672
 8982SOL    HW238580   4.168   3.436   2.521 -0.2459  1.0032  0.1713
 8983SOL     OW38581   0.822   1.503  10.792  0.3260 -0.1818 -0.2087
 8983SOL    HW138582   0.747   1.509  10.851  0.2443  2.3298 -0.5470
 8983SOL    HW238583   0.868   1.585  10.810  0.0369 -0.3414  1.2992
 8984SOL     OW38584   2.590   3.579   9.437 -0.3210  0.4012  0.0601
 8984SOL    HW138585   2.537   3.532   9.373 -1.3651  1.4981  0.1087
 8984SOL    HW238586   2.521   3.633   9.475 -0.3009 -0.0986  0.7885
 8985SOL     OW38587   0.872   3.762   2.743  0.2342 -0.0847  0.7354
 8985SOL    HW138588   0.907   3.696   2.683 -1.3291 -0.1968 -0.0588
 8985SOL    HW238589   0.802   3.795   2.686  2.0621  1.3860 -0.7012
 8986SOL     OW38590   0.489   0.049   7.880  0.2780  0.1797 -0.4595
 8986SOL    HW138591   0.449   0.058   7.966  0.4202 -1.1557 -0.2492
 8986SOL    HW238592   0.563   0.110   7.888 -0.7919  1.6349 -1.5860
 8987SOL     OW38593   0.959   3.056  13.432  0.2896  0.0108 -0.2899
 8987SOL    HW138594   0.993   3.138  13.468 -0.2601 -0.5943  1.6138
 8987SOL    HW238595   0.908   3.091  13.358  2.4036  1.1701 -1.1968
 8988SOL     OW38596   1.163   0.404   5.090  0.1149 -0.0882  0.5892
 8988SOL    HW138597   1.172   0.387   4.996 -1.4973  0.9556  0.2422
 8988SOL    HW238598   1.255   0.425   5.108 -0.1493  1.3543  0.2937
 8989SOL     OW38599   3.403   1.460  10.783  0.4488  0.0839 -0.5931
 8989SOL    HW138600   3.439   1.507  10.707 -1.4082  0.5442 -1.1967
 8989SOL    HW238601   3.310   1.460  10.762 -0.0951 -2.2750  1.8945
 8990SOL     OW38602   2.915   3.597   5.445  0.0801 -0.1690 -0.0190
 8990SOL    HW138603   2.936   3.538   5.517 -0.2348  2.6258  2.3822
 8990SOL    HW238604   2.898   3.535   5.374 -0.8900 -1.3301  1.2376
 8991SOL     OW38605   0.476   4.633   7.641 -0.3423 -0.2677 -0.3933
 8991SOL    HW138606   0.533   4.559   7.664 -1.4174 -1.5865 -1.9454
 8991SOL    HW238607   0.467   4.678   7.725  0.4578 -0.8696  0.0119
 8992SOL     OW38608   2.489   3.915   2.958  0.1286  0.1175 -0.2868
 8992SOL    HW138609   2.505   3.951   3.045 -0.5355 -3.0356  1.1393
 8992SOL    HW238610   2.416   3.855   2.976 -0.3368  0.5460 -0.7468
 8993SOL     OW38611   0.067   3.067  15.234 -0.0907 -0.0955 -0.4746
 8993SOL    HW138612   0.075   3.045  15.141 -0.0163 -2.5905  0.1174
 8993SOL    HW238613   0.157   3.080  15.264  0.2012 -1.1223 -0.8755
 8994SOL     OW38614   1.356   0.764   8.368 -0.0088 -0.1233  0.4696
 8994SOL    HW138615   1.361   0.812   8.285  1.4780  0.9510  1.1712
 8994SOL    HW238616   1.344   0.828   8.438 -0.0501  0.0691  0.2860
 8995SOL     OW38617   1.912   4.580   9.567 -0.0674  0.5099 -0.2525
 8995SOL    HW138618   1.837   4.568   9.508 -0.7000 -1.7046  1.0204
 8995SOL    HW238619   1.934   4.672   9.550  1.1444  0.4229  0.8777
 8996SOL     OW38620   1.208   1.965   4.867  0.0988 -0.6691 -0.4609
 8996SOL    HW138621   1.257   2.032   4.913 -1.6642  0.4666 -0.2067
 8996SOL    HW238622   1.117   1.993   4.882 -0.1657 -0.3374 -2.6343
 8997SOL     OW38623   4.653   0.197   5.841  0.2737 -0.6365 -0.3544
 8997SOL    HW138624   4.699   0.266   5.793 -0.0640  0.2018  0.5265
 8997SOL    HW238625   4.591   0.170   5.774  1.9715 -1.9448 -1.4263
 8998SOL     OW38626   0.959   1.430   1.353 -0.3805  0.2145 -0.3849
 8998SOL    HW138627   0.997   1.350   1.317  1.6396  1.0387 -0.1297
 8998SOL    HW238628   0.881   1.452   1.302  0.0843  1.9016 -0.3710
 8999SOL     OW38629   0.701   1.907  15.421  0.1571  0.2363 -0.3554
 8999SOL    HW138630   0.653   1.862  15.490  0.0755  1.2057  0.2203
 8999SOL    HW238631   0.649   1.986  15.404 -0.3677 -0.2481 -1.0276
 9000SOL     OW38632   4.047   0.627  11.629  0.2729  0.0169 -0.8166
 9000SOL    HW138633   4.117   0.607  11.691  0.8813  0.0494 -1.4922
 9000SOL    HW238634   3.965   0.602  11.671  0.2647  1.2348 -0.0970
 9001SOL     OW38635   4.689   1.631   3.300  0.1349 -0.1005  0.9517
 9001SOL    HW138636   0.033   1.672   3.258  0.1842  0.3189  1.4416
 9001SOL    HW238637   4.661   1.712   3.344 -1.1963  0.0365 -0.1467
 9002SOL     OW38638   0.757   0.561   6.921 -0.2643 -0.9179  0.6804
 9002SOL    HW138639   0.811   0.497   6.873  2.4990  0.3831  2.1055
 9002SOL    HW238640   0.711   0.506   6.985 -1.4334  1.1911  1.6419
 9003SOL     OW38641   2.828   4.321   5.960 -0.3013 -0.0196 -0.4437
 9003SOL    HW138642   2.790   4.278   5.884 -0.7762  0.2225 -0.3455
 9003SOL    HW238643   2.842   4.248   6.021 -0.8437 -0.1463 -0.4718
 9004SOL     OW38644   0.324   3.391   2.860  0.0889  0.2863  0.2272
 9004SOL    HW138645   0.395   3.456   2.854  1.4578 -1.3532 -1.1907
 9004SOL    HW238646   0.336   3.360   2.949  0.1873  2.0675  0.8496
 9005SOL     OW38647   2.546   2.181   6.993 -0.4225 -0.5544 -0.3003
 9005SOL    HW138648   2.615   2.116   6.975 -0.2613 -0.2437 -0.7780
 9005SOL    HW238649   2.561   2.203   7.085 -0.2153 -1.5769 -0.0877
 9006SOL     OW38650   4.236   3.846   3.013 -0.2959 -0.4195 -0.1893
 9006SOL    HW138651   4.164   3.812   2.960  1.0323 -1.5485 -1.2676
 9006SOL    HW238652   4.242   3.787   3.088  0.7014 -0.4770 -0.3129
 9007SOL     OW38653   1.928   0.956  17.468 -0.3012  0.7544 -0.3868
 9007SOL    HW138654   1.871   0.894  17.422 -1.8202  0.9574  1.1912
 9007SOL    HW238655   1.924   0.926  17.559  1.5744 -1.8093 -1.1437
 9008SOL     OW38656   2.029   1.113   2.814  0.5267 -0.3335 -0.0736
 9008SOL    HW138657   2.123   1.119   2.832  0.4747  1.5504 -0.4483
 9008SOL    HW238658   2.026   1.126   2.719  2.1210 -1.2250 -0.2619
 9009SOL     OW38659   1.156   3.017   3.731  0.0540  0.1677  0.6088
 9009SOL    HW138660   1.065   2.996   3.713 -0.0620 -0.7514  2.2980
 9009SOL    HW238661   1.212   2.966   3.672 -1.7951 -1.3545  0.1884
 9010SOL     OW38662   4.305   0.312   4.424  0.6802 -0.3548 -0.3226
 9010SOL    HW138663   4.231   0.345   4.372  0.9081  1.8531  0.7525
 9010SOL    HW238664   4.356   0.393   4.432 -0.5017  0.0193  3.4482
 9011SOL     OW38665   1.888   3.731   9.561  0.2355  0.3935  0.2875
 9011SOL    HW138666   1.879   3.712   9.468  0.1159  1.1132  0.1508
 9011SOL    HW238667   1.982   3.723   9.575  0.0059 -0.3521  1.4254
 9012SOL     OW38668   1.841   0.964   9.963 -0.5637  0.0554 -0.2311
 9012SOL    HW138669   1.917   0.960  10.020 -0.3294 -1.1716 -0.6301
 9012SOL    HW238670   1.769   0.981  10.024 -1.1456  0.1426 -0.9420
 9013SOL     OW38671   0.840   0.075  11.317 -0.4471  0.4418 -0.7542
 9013SOL    HW138672   0.797   0.127  11.384  0.4646  0.1946  0.0308
 9013SOL    HW238673   0.769   0.063  11.254 -1.2354 -0.1637  0.2489
 9014SOL     OW38674   2.003   4.495   3.471 -0.1115  0.2219  0.4785
 9014SOL    HW138675   1.995   4.436   3.546 -1.2885 -2.0098 -1.4317
 9014SOL    HW238676   2.096   4.518   3.476 -0.0444 -0.1285  0.8456
 9015SOL     OW38677   1.972   2.746  10.886  0.6865  0.3287 -0.0380
 9015SOL    HW138678   2.023   2.827  10.879 -0.0523  0.6935 -1.1421
 9015SOL    HW238679   2.018   2.687  10.826  1.1708  0.8807 -0.2122
 9016SOL     OW38680   0.575   1.583  10.523  0.0260  0.1312  0.3158
 9016SOL    HW138681   0.579   1.679  10.524 -4.1850  0.2711  1.7137
 9016SOL    HW238682   0.565   1.566  10.430  1.4867  1.4687 -0.0932
 9017SOL     OW38683   1.994   3.662  11.398  0.8150  0.6207  0.5656
 9017SOL    HW138684   2.081   3.633  11.427  0.7375 -0.1266  0.0436
 9017SOL    HW238685   2.008   3.700  11.312 -1.9652  0.7184  0.1576
 9018SOL     OW38686   2.918   1.284   5.657  0.8071  0.4371  0.6634
 9018SOL    HW138687   2.952   1.235   5.582 -2.7936 -1.9200  0.5788
 9018SOL    HW238688   2.925   1.215   5.723  0.5516  0.6301  0.8899
 9019SOL     OW38689   4.705   3.557   9.157  0.5515  0.9238 -0.2611
 9019SOL    HW138690   4.613   3.542   9.182  1.1454  0.7257  1.7810
 9019SOL    HW238691   0.017   3.473   9.166 -1.3206 -0.0211 -0.0037
 9020SOL     OW38692   2.693   1.364   2.143 -0.1168  0.3037  0.3682
 9020SOL    HW138693   2.614   1.310   2.137 -0.1054  0.4703 -1.2807
 9020SOL    HW238694   2.662   1.452   2.124 -0.5462  0.2307  0.7235
 9021SOL     OW38695   1.189   2.545   9.537 -0.2594 -0.0615 -0.4408
 9021SOL    HW138696   1.210   2.548   9.630 -0.3438 -2.4013 -0.3593
 9021SOL    HW238697   1.094   2.559   9.538 -0.2561 -0.1736  1.0941
 9022SOL     OW38698   3.089   4.106   7.627 -0.0021 -0.0940 -0.2275
 9022SOL    HW138699   3.105   4.114   7.721 -0.1142  1.0071 -0.3008
 9022SOL    HW238700   3.064   4.016   7.607  1.4253 -0.2086 -1.4825
 9023SOL     OW38701   1.971   3.573   5.446  0.1794  0.0974 -0.2231
 9023SOL    HW138702   2.037   3.555   5.513 -1.9086 -2.0919  1.2524
 9023SOL    HW238703   1.895   3.537   5.491 -0.6236  2.0232 -0.0497
 9024SOL     OW38704   1.936   0.308   5.147  0.1461  0.1371 -0.0911
 9024SOL    HW138705   1.977   0.335   5.065 -1.2767 -0.4882 -1.0130
 9024SOL    HW238706   1.868   0.247   5.117 -0.1199  0.4221 -0.0641
 9025SOL     OW38707   2.445   1.225   3.899 -0.0408 -0.4039 -0.0391
 9025SOL    HW138708   2.474   1.305   3.856 -0.0731  1.0563  2.7060
 9025SOL    HW238709   2.403   1.180   3.825  0.5515 -1.1065  0.0555
 9026SOL     OW38710   1.492   4.419   6.290 -0.0199  0.5621 -0.2397
 9026SOL    HW138711   1.586   4.402   6.291 -0.2581 -0.7788  0.0934
 9026SOL    HW238712   1.468   4.340   6.240 -1.8673  2.7592 -2.8327
 9027SOL     OW38713   2.155   1.233   5.617  0.2566 -0.3622 -0.5859
 9027SOL    HW138714   2.094   1.161   5.604 -1.3777  1.0111 -0.6734
 9027SOL    HW238715   2.123   1.300   5.557 -0.9482 -1.7795 -1.5213
 9028SOL     OW38716   1.592   4.728  12.838  0.2285  0.1911  0.2544
 9028SOL    HW138717   1.638   4.650  12.806  0.2340  0.5661 -0.6315
 9028SOL    HW238718   1.652   0.018  12.910 -2.2511  1.8947  1.8212
 9029SOL     OW38719   2.585   3.529   7.297  0.3883 -0.8011 -0.6582
 9029SOL    HW138720   2.618   3.453   7.250 -3.8110 -0.9497 -3.4191
 9029SOL    HW238721   2.543   3.580   7.227 -2.4362 -1.0044  0.8911
 9030SOL     OW38722   1.343   0.458   7.941 -0.0390  0.4735  0.2351
 9030SOL    HW138723   1.302   0.476   8.026  0.2065 -2.9424  1.1005
 9030SOL    HW238724   1.420   0.514   7.946  0.7869 -0.6521  0.2417
 9031SOL     OW38725   1.449   3.092   2.244 -0.0861  0.4728 -0.2285
 9031SOL    HW138726   1.386   3.165   2.246  0.0553  0.6160 -1.0850
 9031SOL    HW238727   1.389   3.027   2.208  0.5455 -0.3308  0.1759
 9032SOL     OW38728   4.004   1.776   1.201  0.1567 -0.1543  0.1579
 9032SOL    HW138729   3.964   1.688   1.199 -0.1086  0.0001 -1.3248
 9032SOL    HW238730   3.939   1.837   1.166  0.5651 -0.1931 -0.6687
 9033SOL     OW38731   2.346   0.087  11.928  0.3916 -0.5819 -0.1435
 9033SOL    HW138732   2.401   0.070  11.851  2.6262 -0.1160  1.3659
 9033SOL    HW238733   2.268   0.043  11.895  0.9099 -0.9099 -0.9627
 9034SOL     OW38734   1.254   4.372  17.676 -0.1856  0.3895  0.0220
 9034SOL    HW138735   1.223   4.296  17.725  2.9823 -0.1008  1.2457
 9034SOL    HW238736   1.339   4.391  17.715 -2.7403  1.8619  4.7929
 9035SOL     OW38737   2.379   1.801   8.102  0.4618  0.8421  0.0416
 9035SOL    HW138738   2.460   1.751   8.108 -0.2061 -0.6456 -3.4433
 9035SOL    HW238739   2.373   1.826   8.010  2.9611  0.9391 -0.0855
 9036SOL     OW38740   2.403   4.546   5.492  0.1505 -0.0921 -0.0957
 9036SOL    HW138741   2.485   4.595   5.484  0.4950 -0.2784  2.0683
 9036SOL    HW238742   2.427   4.468   5.442 -1.5209 -1.9449  1.9989
 9037SOL     OW38743   2.240   3.828   4.059 -0.6412 -0.3230 -0.0657
 9037SOL    HW138744   2.216   3.770   4.131  0.0711 -3.1427 -2.0913
 9037SOL    HW238745   2.328   3.798   4.033 -1.8035 -4.3606  0.6220
 9038SOL     OW38746   4.623   1.375   8.727  0.3140  0.3749  0.0724
 9038SOL    HW138747   4.712   1.411   8.729 -0.1193  1.5002 -0.7598
 9038SOL    HW238748   4.606   1.373   8.633  0.7196 -1.6286  0.0534
 9039SOL     OW38749   4.043   0.022  11.584  0.2631  0.0164  0.4434
 9039SOL    HW138750   4.131   4.721  11.567  0.4656  0.5516  0.4681
 9039SOL    HW238751   4.018   0.051  11.497  0.7464  0.3339  0.4150
 9040SOL     OW38752   0.942   0.729   4.368 -0.3427 -0.7644 -0.5837
 9040SOL    HW138753   0.884   0.685   4.430  0.7241 -3.3492 -1.3744
 9040SOL    HW238754   0.884   0.731   4.292  0.2072 -0.9493 -1.0128
 9041SOL     OW38755   2.402   1.492  13.516 -0.3979 -0.1818  0.0410
 9041SOL    HW138756   2.359   1.566  13.559 -1.7522 -1.2246  0.4588
 9041SOL    HW238757   2.489   1.495  13.557  0.7072 -1.9944 -2.1329
 9042SOL     OW38758   2.446   2.096   6.685  0.4475  0.6526  0.0057
 9042SOL    HW138759   2.534   2.057   6.690 -0.3356 -1.3937 -2.3425
 9042SOL    HW238760   2.388   2.027   6.655  0.7573  0.1240  0.6032
 9043SOL     OW38761   3.250   0.216   1.380  0.0386  0.1970 -0.0027
 9043SOL    HW138762   3.163   0.256   1.383 -0.6179 -1.1572 -1.1417
 9043SOL    HW238763   3.263   0.197   1.287  1.7362  0.0263  0.2732
 9044SOL     OW38764   2.659   1.120   6.139 -0.4039  0.4774 -0.6740
 9044SOL    HW138765   2.742   1.094   6.179 -0.8186 -0.1491 -0.2184
 9044SOL    HW238766   2.681   1.120   6.046  1.0542 -0.2373 -0.3297
 9045SOL     OW38767   3.824   0.672   3.275  0.3448  0.7596 -0.3562
 9045SOL    HW138768   3.735   0.672   3.240  0.8107 -0.6363 -1.5365
 9045SOL    HW238769   3.845   0.766   3.278 -1.3260  1.1192  0.1140
 9046SOL     OW38770   3.025   1.298   8.074 -0.5204 -0.0573 -0.3404
 9046SOL    HW138771   3.001   1.227   8.015 -1.5723  0.1727 -0.1851
 9046SOL    HW238772   3.083   1.354   8.021 -1.2879 -2.6226 -3.8524
 9047SOL     OW38773   1.754   1.073   7.915 -0.1844 -0.3456  0.1607
 9047SOL    HW138774   1.775   1.131   7.988 -2.4839 -1.1679  1.4783
 9047SOL    HW238775   1.804   0.994   7.938  0.2542 -0.1506 -0.1300
 9048SOL     OW38776   0.909   2.877   3.346  0.2575 -0.0071  0.3433
 9048SOL    HW138777   0.907   2.825   3.426 -1.0984 -1.5870 -0.7179
 9048SOL    HW238778   0.979   2.941   3.363  1.1572 -1.8459  3.5369
 9049SOL     OW38779   2.227   0.111   1.815  0.3076 -0.5931 -0.5592
 9049SOL    HW138780   2.268   0.081   1.734  2.8860 -1.1700  0.9745
 9049SOL    HW238781   2.242   0.041   1.879 -1.7551  1.8707  2.6289
 9050SOL     OW38782   4.335   3.461  12.439 -0.4386 -0.9968 -0.3931
 9050SOL    HW138783   4.347   3.555  12.454  1.6221 -1.2074 -0.8239
 9050SOL    HW238784   4.265   3.441  12.502 -0.8022 -0.1113 -0.5145
 9051SOL     OW38785   1.778   0.286   5.479 -0.3674 -0.0481  0.2169
 9051SOL    HW138786   1.738   0.284   5.566  0.7483 -0.9225  0.7102
 9051SOL    HW238787   1.851   0.224   5.480  0.2644  0.6963  0.2634
 9052SOL     OW38788   2.966   2.120  12.980  0.4988  0.2219 -0.7983
 9052SOL    HW138789   2.888   2.068  12.961 -0.6393  1.9954 -0.9467
 9052SOL    HW238790   3.024   2.114  12.904 -0.0519  0.2539 -1.2166
 9053SOL     OW38791   4.556   0.138   3.060  0.3891 -0.7587  0.1572
 9053SOL    HW138792   4.522   0.116   2.973 -1.5790  0.7984  0.5274
 9053SOL    HW238793   4.629   0.193   3.033 -0.6648  0.8289  0.5141
 9054SOL     OW38794   4.704   4.475   5.086 -0.5144 -0.0958  0.4518
 9054SOL    HW138795   4.671   4.386   5.090 -1.0797  0.2727  4.0231
 9054SOL    HW238796   4.687   4.497   4.994 -1.0349 -0.4363  0.4693
 9055SOL     OW38797   2.568   1.811   4.175  0.0324 -0.1262 -0.2970
 9055SOL    HW138798   2.516   1.811   4.255 -0.4662 -2.3256 -0.6120
 9055SOL    HW238799   2.527   1.740   4.125 -1.2854  0.6870 -0.3723
 9056SOL     OW38800   1.276   2.684   8.980 -0.2903  0.0352 -0.2850
 9056SOL    HW138801   1.210   2.623   9.014 -1.4834  0.3004 -2.1894
 9056SOL    HW238802   1.234   2.769   8.994  0.5058  0.5236 -0.8938
 9057SOL     OW38803   3.406   0.023  14.789  0.6062 -0.3524 -0.6460
 9057SOL    HW138804   3.392   4.661  14.793 -0.9885 -0.1915 -2.0814
 9057SOL    HW238805   3.480   0.036  14.729  0.8331 -1.1698 -0.5431
 9058SOL     OW38806   3.721   3.467   7.371 -0.6211  0.7383 -0.2566
 9058SOL    HW138807   3.783   3.438   7.304  0.2371  0.0937  0.8142
 9058SOL    HW238808   3.646   3.411   7.355  0.0071 -0.5072  1.1491
 9059SOL     OW38809   1.914   4.043   4.806  0.1527 -0.4464 -0.3770
 9059SOL    HW138810   1.889   4.076   4.720 -2.1130  1.1599  0.8896
 9059SOL    HW238811   1.955   3.963   4.774 -0.5994  0.1686 -2.8733
 9060SOL     OW38812   0.475   3.579  10.314 -0.4637  0.2571 -0.1982
 9060SOL    HW138813   0.451   3.662  10.355  1.4517  0.9559 -0.4899
 9060SOL    HW238814   0.460   3.515  10.383 -1.1257  1.7564  1.0525
 9061SOL     OW38815   3.067   3.372   8.887 -0.6231  0.2091 -0.4212
 9061SOL    HW138816   3.008   3.369   8.811  1.9910  2.9745 -2.5293
 9061SOL    HW238817   3.041   3.460   8.913 -0.4580  0.0995  0.1032
 9062SOL     OW38818   1.346   4.440  11.208 -0.5328 -0.2731 -0.2208
 9062SOL    HW138819   1.349   4.498  11.285 -2.0874 -2.0088  1.1406
 9062SOL    HW238820   1.256   4.409  11.212 -1.0962  1.6024  1.9706
 9063SOL     OW38821   3.924   0.595   2.546 -0.3240 -0.5024  0.7357
 9063SOL    HW138822   3.837   0.558   2.562  0.7531 -2.8640  1.0974
 9063SOL    HW238823   3.966   0.589   2.632 -0.4301  1.5313  0.9227
 9064SOL     OW38824   2.507   1.378   2.981  0.6360  0.0722 -0.0330
 9064SOL    HW138825   2.500   1.330   3.063  2.6334 -0.2456 -0.0412
 9064SOL    HW238826   2.418   1.414   2.980  1.0472  1.1148  0.5183
 9065SOL     OW38827   0.214   0.115   7.741  0.6705  0.0667  0.2075
 9065SOL    HW138828   0.124   0.112   7.711  1.0698  1.4615 -1.1293
 9065SOL    HW238829   0.238   0.025   7.718  0.0363 -0.1505  0.3949
 9066SOL     OW38830   1.593   1.106   6.158 -0.0963 -0.4954  0.6803
 9066SOL    HW138831   1.526   1.069   6.100 -2.8789 -0.4016  3.8293
 9066SOL    HW238832   1.541   1.171   6.205  0.4818 -0.0431  0.6910
 9067SOL     OW38833   4.645   1.071   6.989 -0.4891  0.1551 -0.3082
 9067SOL    HW138834   4.574   1.133   6.969 -1.9418 -1.0998  0.9710
 9067SOL    HW238835   4.721   1.124   6.963 -0.9502  0.1471 -1.6819
 9068SOL     OW38836   1.296   3.334   7.014  0.1676 -0.1801  0.1828
 9068SOL    HW138837   1.365   3.276   7.046  0.5535 -0.1252 -0.5556
 9068SOL    HW238838   1.252   3.276   6.952  0.8378 -0.2053 -0.2597
 9069SOL     OW38839   4.069   4.395   2.737 -0.1544  0.0726 -0.6206
 9069SOL    HW138840   4.139   4.451   2.704  1.0640 -0.5334  0.8876
 9069SOL    HW238841   3.996   4.436   2.690  0.0119  0.2317 -0.7397
 9070SOL     OW38842   1.927   2.209   0.222 -0.5346 -0.2943 -0.2919
 9070SOL    HW138843   1.983   2.218   0.299 -0.1601 -1.4955 -0.4184
 9070SOL    HW238844   1.852   2.159   0.253 -0.1695  0.1206  1.2526
 9071SOL     OW38845   0.671   3.701   8.842  0.5252  0.2157 -0.3705
 9071SOL    HW138846   0.764   3.721   8.842  0.0309  2.4588  0.0693
 9071SOL    HW238847   0.652   3.762   8.771 -0.6170  1.2621  0.8427
 9072SOL     OW38848   3.629   0.152   5.584  0.8613 -0.0298 -0.4548
 9072SOL    HW138849   3.614   0.170   5.491  0.8660 -0.2613 -0.4998
 9072SOL    HW238850   3.584   0.068   5.589 -1.4891  1.2307  0.0296
 9073SOL     OW38851   1.236   4.131   5.716 -0.2148 -0.3167 -0.0127
 9073SOL    HW138852   1.294   4.056   5.728  1.8642  1.0767 -1.4468
 9073SOL    HW238853   1.266   4.160   5.630 -0.9999 -0.4859 -0.3496
 9074SOL     OW38854   4.407   0.427   7.160  0.4361 -0.1887 -0.3188
 9074SOL    HW138855   4.378   0.439   7.070 -0.9982  0.8362  0.2754
 9074SOL    HW238856   4.384   0.335   7.162 -2.2388  0.5262  1.1708
 9075SOL     OW38857   2.856   2.243   6.964 -0.5545 -0.2312 -0.5471
 9075SOL    HW138858   2.939   2.202   6.990 -0.2726  0.7290  0.1028
 9075SOL    HW238859   2.827   2.180   6.899 -0.7213 -0.2217 -0.4819
 9076SOL     OW38860   0.220   4.171  10.836  0.5666  1.0201 -0.5844
 9076SOL    HW138861   0.257   4.094  10.793 -0.4360  0.1946  0.0324
 9076SOL    HW238862   0.175   4.221  10.768 -2.4559 -0.8393  0.0629
 9077SOL     OW38863   2.811   3.945   2.468  0.4670 -0.2762  0.2548
 9077SOL    HW138864   2.897   3.908   2.451  0.0080 -1.1075 -0.2704
 9077SOL    HW238865   2.803   3.939   2.563  1.2079  1.3635  0.4125
 9078SOL     OW38866   0.359   3.085   3.470  0.1169  0.0992 -0.1060
 9078SOL    HW138867   0.303   3.148   3.423 -0.2786 -1.3757 -1.5935
 9078SOL    HW238868   0.344   3.018   3.403 -2.6771 -0.3130  0.9026
 9079SOL     OW38869   4.540   1.257   7.818 -0.2760  0.6539 -0.1360
 9079SOL    HW138870   4.619   1.221   7.778  0.8430  1.2726  1.5060
 9079SOL    HW238871   4.477   1.185   7.814 -0.0386  0.3182  2.4296
 9080SOL     OW38872   1.145   4.106   8.499 -0.0033 -0.4677  0.3827
 9080SOL    HW138873   1.174   4.112   8.408  2.3728 -1.5918  1.0616
 9080SOL    HW238874   1.217   4.134   8.556  0.0822  0.8239 -0.3662
 9081SOL     OW38875   0.944   1.088  16.583 -0.0488 -0.3843  0.1223
 9081SOL    HW138876   1.040   1.094  16.574 -0.3754 -0.0835 -3.3649
 9081SOL    HW238877   0.922   1.181  16.583 -3.7413 -1.2751 -1.9075
 9082SOL     OW38878   1.174   4.064   3.422  0.1092  0.2536 -0.6363
 9082SOL    HW138879   1.121   4.142   3.408 -0.3676 -0.2851 -1.8039
 9082SOL    HW238880   1.254   4.100   3.384  0.4012 -0.1011 -0.3662
 9083SOL     OW38881   4.533   3.272   4.035 -0.0717 -0.4352  0.6301
 9083SOL    HW138882   4.606   3.268   4.097  0.3803  0.2552  0.1293
 9083SOL    HW238883   4.477   3.325   4.092 -0.1188  0.3261 -0.1314
 9084SOL     OW38884   4.122   4.537   8.280 -0.8500  0.0343  0.0667
 9084SOL    HW138885   4.154   4.514   8.367 -1.8892  1.8632  0.9199
 9084SOL    HW238886   4.199   4.588   8.255 -0.9729 -0.4519 -1.3092
 9085SOL     OW38887   3.271   3.806  12.053 -0.2364 -0.0247  0.2317
 9085SOL    HW138888   3.272   3.712  12.034  0.0591 -0.2570  1.4108
 9085SOL    HW238889   3.212   3.832  11.982  2.2583  1.5235 -1.2804
 9086SOL     OW38890   0.288   3.285   3.277 -0.5011  0.0116  0.5349
 9086SOL    HW138891   0.346   3.244   3.213  0.1811  0.6480  0.7493
 9086SOL    HW238892   0.344   3.360   3.295 -0.4685  0.1503 -0.1370
 9087SOL     OW38893   3.535   3.279   2.124 -0.8521 -0.3530  0.1069
 9087SOL    HW138894   3.451   3.233   2.131 -1.3303  0.7571  1.6328
 9087SOL    HW238895   3.510   3.347   2.061 -2.7686  0.7366  2.0232
 9088SOL     OW38896   3.264   1.056   0.132  0.2365 -0.1258 -0.4521
 9088SOL    HW138897   3.294   1.076   0.220 -1.6775 -2.3304  0.7213
 9088SOL    HW238898   3.192   1.119   0.124  0.7584  0.6252  0.7289
 9089SOL     OW38899   2.853   4.241   6.908 -0.0514 -0.1179 -0.1527
 9089SOL    HW138900   2.849   4.261   7.001  2.8510 -1.8668  0.3502
 9089SOL    HW238901   2.838   4.146   6.914 -0.4280 -0.0016  0.7148
 9090SOL     OW38902   0.592   1.351   5.954  0.0579  0.5537  0.0689
 9090SOL    HW138903   0.525   1.387   6.011  0.4632  1.2379  0.1127
 9090SOL    HW238904   0.540   1.332   5.876 -1.2047  0.8956  0.8241
 9091SOL     OW38905   0.336   0.791   8.290  0.3380 -0.5436  0.9123
 9091SOL    HW138906   0.321   0.697   8.296  0.7613 -0.6255  0.6726
 9091SOL    HW238907   0.259   0.820   8.340 -0.6482  0.8762 -1.3912
 9092SOL     OW38908   2.542   3.611   3.045  0.1995  0.5508 -0.5468
 9092SOL    HW138909   2.578   3.525   3.027  0.0760  0.2436  0.7147
 9092SOL    HW238910   2.447   3.601   3.035  0.2187  0.0303 -0.1700
 9093SOL     OW38911   3.583   3.574   5.231 -0.3461 -0.3462 -0.7718
 9093SOL    HW138912   3.606   3.586   5.139  0.4873  0.5739 -0.4457
 9093SOL    HW238913   3.614   3.484   5.238  1.6947  0.2882 -1.5857
 9094SOL     OW38914   4.275   1.910  17.533 -0.5132 -0.1444 -0.1069
 9094SOL    HW138915   4.210   1.918  17.603  0.4845  0.9494  0.6919
 9094SOL    HW238916   4.336   1.846  17.570 -1.5104 -0.2507  1.3743
 9095SOL     OW38917   3.639   0.154  11.730 -0.2405 -0.3669 -0.5918
 9095SOL    HW138918   3.658   0.196  11.814 -0.1648 -2.5426  0.4597
 9095SOL    HW238919   3.677   0.067  11.743  0.2629  0.1948  1.6313
 9096SOL     OW38920   1.007   3.053  12.930 -0.0379  0.4348  0.2234
 9096SOL    HW138921   0.994   3.067  13.023 -0.4309 -1.2162  0.4189
 9096SOL    HW238922   0.921   3.056  12.889  0.4339 -1.5361 -0.9173
 9097SOL     OW38923   0.762   0.013  14.312  0.4621 -0.0608 -0.3115
 9097SOL    HW138924   0.672   4.727  14.284  0.4137 -0.9219  0.4032
 9097SOL    HW238925   0.776   0.098  14.270 -0.1294  0.7415  1.1306
 9098SOL     OW38926   1.410   4.593   2.216 -0.1489  0.7289 -0.6060
 9098SOL    HW138927   1.344   4.575   2.282  1.1628 -0.1717  0.4634
 9098SOL    HW238928   1.394   4.515   2.162  1.4168  0.4334 -0.6705
 9099SOL     OW38929   1.908   4.674   2.490 -0.6100 -0.7439  0.8921
 9099SOL    HW138930   1.873   4.612   2.553 -1.8121  0.7010  1.6406
 9099SOL    HW238931   1.829   4.711   2.450 -0.2030 -0.6790  0.1359
 9100SOL     OW38932   2.761   1.966  16.553  0.3064 -0.3258  0.0488
 9100SOL    HW138933   2.737   1.933  16.640 -1.3403  1.6734  0.3359
 9100SOL    HW238934   2.719   1.897  16.502  0.4767 -1.3389  1.2632
 9101SOL     OW38935   1.761   2.010   0.308 -0.5668 -0.3132 -0.2960
 9101SOL    HW138936   1.738   1.928   0.264 -0.5709  0.3416 -1.5319
 9101SOL    HW238937   1.680   2.041   0.348 -0.1308 -0.0285  0.3654
 9102SOL     OW38938   4.690   0.313   6.232 -0.3468  0.7715  0.4494
 9102SOL    HW138939   4.617   0.312   6.295 -0.2026  0.2868  0.6124
 9102SOL    HW238940   0.031   0.342   6.286 -0.8837 -1.0272  2.1723
 9103SOL     OW38941   2.699   3.252   8.576 -0.5435  0.1318 -0.4071
 9103SOL    HW138942   2.610   3.223   8.595 -0.1479 -0.4544  0.5640
 9103SOL    HW238943   2.693   3.295   8.491  3.5395 -1.5273 -1.5260
 9104SOL     OW38944   1.035   2.974   6.121 -0.4729  0.3551  0.2395
 9104SOL    HW138945   1.097   3.027   6.171 -1.4064  2.0411 -0.3950
 9104SOL    HW238946   1.037   2.892   6.170 -0.1627 -0.3999 -1.0196
 9105SOL     OW38947   1.748   1.582  15.183  0.3255  0.3299 -0.2624
 9105SOL    HW138948   1.707   1.593  15.269 -2.1381 -0.5909 -1.3261
 9105SOL    HW238949   1.682   1.619  15.126 -0.0417  1.2867  0.7796
 9106SOL     OW38950   3.973   2.956   4.085 -0.2283  0.2576 -0.1615
 9106SOL    HW138951   3.949   2.986   3.997  2.1137 -0.0402 -0.8916
 9106SOL    HW238952   4.039   3.021   4.112  1.4472 -1.6331  0.2584
 9107SOL     OW38953   3.068   0.578  11.642  0.1239 -0.0262  0.1746
 9107SOL    HW138954   3.065   0.559  11.736 -1.1239 -0.9204 -0.0456
 9107SOL    HW238955   3.077   0.673  11.641 -1.0121  0.0468 -1.8521
 9108SOL     OW38956   1.407   1.483   8.412 -0.2758  0.2793 -0.3522
 9108SOL    HW138957   1.436   1.486   8.503 -1.7999  1.3972  0.0763
 9108SOL    HW238958   1.332   1.426   8.429  0.1000 -0.7896 -2.2119
 9109SOL     OW38959   4.620   0.977   2.375  0.9307 -0.0964  0.0886
 9109SOL    HW138960   4.696   0.972   2.317  1.5122  1.2978  0.7252
 9109SOL    HW238961   4.547   0.941   2.323  0.3086 -0.3163  1.1200
 9110SOL     OW38962   4.039   3.738   2.864 -0.5189 -0.0486  0.1224
 9110SOL    HW138963   3.958   3.759   2.818  0.7397  2.2207 -1.0641
 9110SOL    HW238964   4.023   3.644   2.877  1.2311 -0.2452  0.8720
 9111SOL     OW38965   4.714   0.793  17.301 -0.3959  0.3788  0.6143
 9111SOL    HW138966   4.640   0.740  17.273  1.4239 -1.3959 -0.8114
 9111SOL    HW238967   4.661   0.867  17.331 -0.2474  0.9006 -0.4176
 9112SOL     OW38968   0.776   4.196   2.058 -0.4448  0.5016  0.5785
 9112SOL    HW138969   0.696   4.182   2.107 -0.0304  0.9153  1.3670
 9112SOL    HW238970   0.743   4.193   1.968  0.9228 -0.4331  0.0972
 9113SOL     OW38971   0.503   3.023  14.433 -0.6777 -0.6249 -0.0297
 9113SOL    HW138972   0.490   2.939  14.476  0.0025 -1.0952 -0.7247
 9113SOL    HW238973   0.582   2.996  14.386 -0.6568 -2.8715  1.3114
 9114SOL     OW38974   2.279   0.154  13.435  0.2495 -0.9324  0.2190
 9114SOL    HW138975   2.192   0.171  13.471 -0.1036 -2.9013  0.2935
 9114SOL    HW238976   2.266   0.064  13.403  0.6094 -0.7394 -0.4733
 9115SOL     OW38977   2.965   3.155   1.930  0.3940  0.3299 -0.2102
 9115SOL    HW138978   2.949   3.151   1.835 -0.6733  0.4034 -0.0363
 9115SOL    HW238979   3.045   3.104   1.937 -0.8050 -1.1831  2.2574
 9116SOL     OW38980   1.050   4.198   9.088  0.3563 -0.4431 -0.0742
 9116SOL    HW138981   1.088   4.136   9.149 -0.3055 -0.5217  0.2620
 9116SOL    HW238982   1.122   4.260   9.074  0.9276 -0.8649  1.0350
 9117SOL     OW38983   1.480   3.739   5.702 -0.5852  0.1914 -0.3972
 9117SOL    HW138984   1.572   3.713   5.698 -0.5196  0.3797 -0.0029
 9117SOL    HW238985   1.476   3.807   5.769  2.3638 -0.6377  0.6239
 9118SOL     OW38986   0.048   2.707   1.570 -0.2817  0.5844  1.1856
 9118SOL    HW138987   0.035   2.657   1.651  0.1325 -0.8553  0.3669
 9118SOL    HW238988   4.699   2.751   1.545 -1.4591 -1.2304  1.8009
 9119SOL     OW38989   3.260   2.166  15.688  0.0245  0.0383  0.7804
 9119SOL    HW138990   3.327   2.124  15.742  0.9980  0.1941 -0.3062
 9119SOL    HW238991   3.251   2.254  15.725 -2.5227 -0.4830  1.3444
 9120SOL     OW38992   2.832   1.987   8.584  0.5260 -0.2222  0.0920
 9120SOL    HW138993   2.746   1.947   8.571  0.8402 -0.5882 -0.9089
 9120SOL    HW238994   2.835   1.989   8.680 -0.3970 -1.7373  0.1600
 9121SOL     OW38995   2.766   1.807   0.099 -0.1342  0.0574 -1.1236
 9121SOL    HW138996   2.684   1.807   0.149  1.5619 -0.9009  1.6641
 9121SOL    HW238997   2.734   1.807   0.009 -0.7899  0.0667 -0.8967
 9122SOL     OW38998   2.964   3.799   3.721 -0.1058  0.2584 -0.8088
 9122SOL    HW138999   2.876   3.833   3.741 -0.1105  0.4474 -1.1640
 9122SOL    HW239000   2.946   3.751   3.641  0.9938 -0.3425 -0.6973
 9123SOL     OW39001   0.453   0.665   9.006 -0.0943 -0.0716 -0.2604
 9123SOL    HW139002   0.370   0.712   8.996 -0.8975 -1.2504  0.8664
 9123SOL    HW239003   0.505   0.729   8.958 -1.5713  0.4058 -1.2213
 9124SOL     OW39004   0.036   2.637   2.665  0.7846  0.5138  0.2927
 9124SOL    HW139005   0.003   2.550   2.684 -0.8118  1.4204  1.6193
 9124SOL    HW239006   0.019   2.647   2.571 -0.7628  0.7953  0.6133
 9125SOL     OW39007   3.480   4.465   8.294 -0.3988 -0.2822  0.2070
 9125SOL    HW139008   3.534   4.430   8.365  1.3696  0.5139 -0.7706
 9125SOL    HW239009   3.396   4.474   8.340 -0.7630  0.4768 -0.6108
 9126SOL     OW39010   0.498   2.901  17.070 -0.4616  0.2243 -0.2778
 9126SOL    HW139011   0.523   2.943  17.152 -1.7507 -2.0915  1.3113
 9126SOL    HW239012   0.583   2.864  17.048 -0.9170 -0.2916 -1.1982
 9127SOL     OW39013   1.119   3.798   7.175  0.6552  0.0705 -0.4003
 9127SOL    HW139014   1.141   3.747   7.097  2.6089 -0.8624  0.7755
 9127SOL    HW239015   1.184   3.868   7.177  1.3375 -0.5283 -1.9672
 9128SOL     OW39016   2.505   2.510   8.608  0.5909  0.4608 -0.0632
 9128SOL    HW139017   2.505   2.450   8.683  0.0602  0.6738  0.1028
 9128SOL    HW239018   2.433   2.570   8.629 -0.2111 -0.9246  1.0751
 9129SOL     OW39019   2.362   3.680   0.405 -0.3026 -0.0686  0.1731
 9129SOL    HW139020   2.450   3.718   0.400 -0.1944 -0.2426  0.7807
 9129SOL    HW239021   2.383   3.598   0.450 -0.8776  0.1410  0.8117
 9130SOL     OW39022   4.373   0.785  15.297 -0.1058  0.0908 -0.3233
 9130SOL    HW139023   4.303   0.824  15.246 -1.0170  1.0561  1.6607
 9130SOL    HW239024   4.351   0.692  15.303  0.7916  0.0402  2.0365
 9131SOL     OW39025   4.732   3.529   5.527  0.2857 -0.1254  0.7333
 9131SOL    HW139026   4.679   3.588   5.472 -1.0904 -2.8913 -0.9020
 9131SOL    HW239027   0.037   3.463   5.469  1.7266  0.1711  1.3294
 9132SOL     OW39028   0.766   1.812  10.286 -0.1832  0.0628  0.3425
 9132SOL    HW139029   0.679   1.846  10.306 -0.4981  0.0964 -1.0527
 9132SOL    HW239030   0.752   1.718  10.293  0.6136 -0.0250  0.6939
 9133SOL     OW39031   2.419   3.357   6.605 -0.5824  0.2001  0.2691
 9133SOL    HW139032   2.441   3.270   6.638 -0.3022 -0.1969 -0.9695
 9133SOL    HW239033   2.459   3.353   6.518  0.4377  1.1906  0.6782
 9134SOL     OW39034   2.613   1.673   7.987  0.5797 -0.2135  0.0605
 9134SOL    HW139035   2.694   1.644   8.028  1.6610  1.9061 -0.6180
 9134SOL    HW239036   2.578   1.592   7.948  0.7642 -0.2920  0.0561
 9135SOL     OW39037   2.163   3.719  12.292 -0.3905 -0.1320 -0.0574
 9135SOL    HW139038   2.243   3.690  12.249 -0.7305 -2.5700  0.9677
 9135SOL    HW239039   2.107   3.688  12.220  1.1125 -0.3423 -1.1413
 9136SOL     OW39040   1.176   4.287   4.792  0.3874  0.3593 -0.4647
 9136SOL    HW139041   1.254   4.233   4.806 -0.7036 -1.6602 -2.1780
 9136SOL    HW239042   1.214   4.366   4.832  1.2629 -0.5725  0.5157
 9137SOL     OW39043   0.692   0.316   9.062  0.3877  0.9073  0.0827
 9137SOL    HW139044   0.627   0.271   9.008 -1.0896 -0.1809  2.7288
 9137SOL    HW239045   0.637   0.379   9.109 -0.5191  0.3548 -0.2353
 9138SOL     OW39046   0.050   3.821  11.000 -0.0713  0.0278 -0.1426
 9138SOL    HW139047   0.009   3.742  11.036 -1.5216  0.2586 -1.2978
 9138SOL    HW239048   0.122   3.777  10.954  0.0394  2.1523 -1.9766
 9139SOL     OW39049   3.103   4.455  16.063  0.1576  0.1407  0.1205
 9139SOL    HW139050   3.045   4.430  16.135  1.5331  1.1731  1.6000
 9139SOL    HW239051   3.111   4.550  16.071  0.6377 -0.0350  1.6876
 9140SOL     OW39052   2.202   4.175   3.438 -0.0781  0.1480 -0.3000
 9140SOL    HW139053   2.139   4.183   3.367  1.6747  0.5117 -1.8062
 9140SOL    HW239054   2.281   4.219   3.407 -0.4367  1.6455  0.9223
 9141SOL     OW39055   4.559   1.413   3.831  0.5862  0.6531 -0.1301
 9141SOL    HW139056   4.514   1.348   3.885  2.5512 -1.5122 -1.0854
 9141SOL    HW239057   4.539   1.380   3.743  1.9769 -1.0429  0.1771
 9142SOL     OW39058   0.124   0.500   8.797 -0.4086  0.4357  0.6914
 9142SOL    HW139059   0.116   0.454   8.881 -1.6003 -0.1146  0.2883
 9142SOL    HW239060   0.106   0.591   8.821 -0.9863  0.2632  0.9182
 9143SOL     OW39061   3.247   1.799   9.631  0.5591 -0.0334 -0.0166
 9143SOL    HW139062   3.172   1.819   9.574 -0.7437 -3.1798  0.6067
 9143SOL    HW239063   3.272   1.712   9.599 -0.6933  0.2499 -1.7760
 9144SOL     OW39064   2.919   3.052  14.281  0.3934  0.1106 -0.3840
 9144SOL    HW139065   3.013   3.065  14.265  0.2401  1.3348 -0.2697
 9144SOL    HW239066   2.922   2.957  14.268 -1.3696  0.1798 -1.2813
 9145SOL     OW39067   4.229   0.963   2.047  0.6123 -0.0069  0.0312
 9145SOL    HW139068   4.292   0.974   1.976  0.4391  0.3201 -0.0720
 9145SOL    HW239069   4.278   0.946   2.128  1.0825  1.2986  0.0225
 9146SOL     OW39070   2.652   2.184   2.034  0.1160  0.0782  0.2436
 9146SOL    HW139071   2.700   2.129   1.972 -0.5364 -0.8748  0.5838
 9146SOL    HW239072   2.581   2.124   2.056  0.7174 -0.8979 -0.4496
 9147SOL     OW39073   1.530   0.553   8.307 -0.2694  0.2003 -0.3432
 9147SOL    HW139074   1.461   0.609   8.342 -0.1443  0.0027  0.2220
 9147SOL    HW239075   1.493   0.521   8.224  1.6543  2.7305 -2.1850
 9148SOL     OW39076   3.862   2.375   3.942 -0.3107  0.3938  0.3412
 9148SOL    HW139077   3.954   2.388   3.965  0.1608 -0.5055 -1.0746
 9148SOL    HW239078   3.815   2.371   4.026 -0.9395 -1.7439 -0.1259
 9149SOL     OW39079   3.813   3.896  16.275  0.2837 -0.7236 -0.2730
 9149SOL    HW139080   3.783   3.910  16.186 -1.4644  0.8095  0.5651
 9149SOL    HW239081   3.754   3.823  16.293  0.7020 -0.8229  0.6922
 9150SOL     OW39082   2.403   1.570   1.422 -0.5051  0.6287  0.1677
 9150SOL    HW139083   2.454   1.585   1.342  1.7640 -0.9315  1.2935
 9150SOL    HW239084   2.371   1.481   1.405 -0.4036  0.4844  0.7229
 9151SOL     OW39085   1.036   0.900   4.555 -1.0044 -0.0703  0.2419
 9151SOL    HW139086   1.006   0.839   4.488 -0.6794 -0.0421  0.0733
 9151SOL    HW239087   0.954   0.948   4.570 -1.0016 -0.4308  1.5039
 9152SOL     OW39088   3.159   0.563   7.286  0.5750 -0.0126 -0.1636
 9152SOL    HW139089   3.135   0.471   7.278 -1.9461  0.7340 -1.2334
 9152SOL    HW239090   3.175   0.592   7.196  0.4714  0.9147  0.1153
 9153SOL     OW39091   1.302   3.700   3.125  0.0806  0.9936  0.5263
 9153SOL    HW139092   1.338   3.777   3.169 -3.2069  2.2506  1.0290
 9153SOL    HW239093   1.223   3.738   3.086 -0.4023  1.4362  1.9528
 9154SOL     OW39094   2.786   0.373  11.694  0.1264 -0.0005 -0.3244
 9154SOL    HW139095   2.827   0.297  11.735  1.0456 -0.7851 -2.7111
 9154SOL    HW239096   2.840   0.441  11.735 -1.3041  1.6025 -1.1076
 9155SOL     OW39097   2.270   0.802   7.520  0.8415 -0.1447 -0.1061
 9155SOL    HW139098   2.313   0.859   7.457 -0.3272  0.3970 -0.4247
 9155SOL    HW239099   2.335   0.784   7.588  1.8923 -0.1931 -1.1305
 9156SOL     OW39100   0.709   1.117   8.804  0.0540  0.1000 -0.0018
 9156SOL    HW139101   0.654   1.188   8.835 -1.5377  0.6559 -4.0585
 9156SOL    HW239102   0.736   1.138   8.715 -0.0673 -1.1696 -0.3423
 9157SOL     OW39103   0.121   4.636   3.295 -0.1344  0.5557 -0.5790
 9157SOL    HW139104   0.149   4.724   3.269 -1.1660  0.6890 -1.2255
 9157SOL    HW239105   0.094   4.655   3.385 -1.2328 -2.3016 -0.3081
 9158SOL     OW39106   1.029   1.055   7.076  0.0270 -0.1771 -0.6710
 9158SOL    HW139107   0.939   1.054   7.042 -0.7184  0.7184  1.2387
 9158SOL    HW239108   1.040   0.961   7.061 -0.2118 -0.3135  0.0038
 9159SOL     OW39109   1.146   0.803   9.039  0.3967 -0.0236  0.1695
 9159SOL    HW139110   1.131   0.829   8.948 -1.2134 -0.0278  0.4209
 9159SOL    HW239111   1.204   0.871   9.072 -0.3378  0.5082  0.3650
 9160SOL     OW39112   4.081   0.589   4.190  0.3568  0.2760  0.2007
 9160SOL    HW139113   4.010   0.644   4.224  0.1553  0.9110 -1.2409
 9160SOL    HW239114   4.152   0.616   4.248  0.4372 -2.1817  1.2471
 9161SOL     OW39115   1.764   3.853   8.651 -0.5292 -0.4073 -0.4821
 9161SOL    HW139116   1.766   3.797   8.573 -1.7623 -1.1856  0.0357
 9161SOL    HW239117   1.741   3.936   8.609  1.8577 -0.3345 -1.6184
 9162SOL     OW39118   1.104   4.554   5.743  0.4978  0.4710  0.8556
 9162SOL    HW139119   1.092   4.459   5.746 -3.4971  0.9606  0.0120
 9162SOL    HW239120   1.173   4.546   5.677 -0.6779 -2.1167 -0.0553
 9163SOL     OW39121   2.023   4.132  16.794  0.8740 -0.3449  0.8220
 9163SOL    HW139122   2.022   4.107  16.886 -3.1407  2.4726  1.5415
 9163SOL    HW239123   1.929   4.136  16.775  0.8291  1.1054  1.3443
 9164SOL     OW39124   4.504   0.077   0.279 -0.0169  0.3089  0.2608
 9164SOL    HW139125   4.484   4.728   0.233  0.2102 -1.0027  2.4505
 9164SOL    HW239126   4.501   0.146   0.213  0.1202  1.9848  1.9910
 9165SOL     OW39127   3.746   4.545   3.473 -0.2454  0.0751  0.3756
 9165SOL    HW139128   3.791   4.497   3.543  1.3338  0.9335 -0.0608
 9165SOL    HW239129   3.722   4.478   3.409  2.5770 -1.8052  1.3004
 9166SOL     OW39130   1.953   3.469   3.721 -0.3838 -0.3666  0.3096
 9166SOL    HW139131   2.005   3.463   3.641 -2.2779 -1.4759 -0.8469
 9166SOL    HW239132   2.026   3.454   3.782  0.6732  1.7299 -0.4379
 9167SOL     OW39133   1.683   1.175   3.515  0.2487 -0.0452  0.3281
 9167SOL    HW139134   1.739   1.183   3.439 -0.5737 -1.4667 -0.4258
 9167SOL    HW239135   1.713   1.242   3.577 -1.1966  0.9826 -0.0634
 9168SOL     OW39136   0.883   4.625   5.940  0.0483 -0.4026  0.0299
 9168SOL    HW139137   0.929   4.652   6.019 -0.3510 -2.3090  0.9290
 9168SOL    HW239138   0.959   4.595   5.891  0.1433 -1.4620  0.8294
 9169SOL     OW39139   2.778   0.292  10.258 -0.2915 -0.8103 -0.3704
 9169SOL    HW139140   2.733   0.211  10.233 -0.4941 -1.0250  0.7056
 9169SOL    HW239141   2.720   0.324  10.328  0.1417 -0.3500 -0.2211
 9170SOL     OW39142   3.906   4.556   5.755 -0.6090  0.4017 -0.0048
 9170SOL    HW139143   3.856   4.635   5.734 -1.0361  0.8293  2.6574
 9170SOL    HW239144   3.905   4.554   5.851  0.5282  2.7129  0.0343
 9171SOL     OW39145   2.115   2.221  16.912  0.2434  0.6706 -0.2120
 9171SOL    HW139146   2.042   2.173  16.875  1.6992 -1.2705 -0.5708
 9171SOL    HW239147   2.166   2.227  16.830 -2.2559  0.2899 -1.7940
 9172SOL     OW39148   2.298   3.285  16.775  0.3378 -0.8832 -0.0376
 9172SOL    HW139149   2.247   3.291  16.695  0.2760 -0.7236  0.0129
 9172SOL    HW239150   2.346   3.206  16.751  2.5958 -0.4356  3.0360
 9173SOL     OW39151   2.579   2.622   3.136 -0.1298 -0.1842 -0.4440
 9173SOL    HW139152   2.492   2.648   3.107 -0.4183 -0.6257  0.0273
 9173SOL    HW239153   2.574   2.526   3.128 -0.7187 -0.2830  1.2302
 9174SOL     OW39154   0.372   1.024   6.966 -0.0627  0.2361  0.3004
 9174SOL    HW139155   0.309   0.953   6.971 -0.0044  0.1628  0.0058
 9174SOL    HW239156   0.452   0.972   6.969  1.1187  2.0988  1.1783
 9175SOL     OW39157   0.554   1.010   2.948  0.1009  0.2681  0.0843
 9175SOL    HW139158   0.629   0.977   2.998 -1.4209 -2.2220  0.7002
 9175SOL    HW239159   0.537   0.932   2.895  3.1780  0.6440 -1.4607
 9176SOL     OW39160   1.796   1.016   2.945 -0.0620 -0.0796  0.1232
 9176SOL    HW139161   1.817   0.951   3.013 -1.0692  0.2196  0.7120
 9176SOL    HW239162   1.882   1.012   2.902 -0.4731  0.3926 -0.7464
 9177SOL     OW39163   0.461   2.664   8.741 -0.5302  0.1939 -0.0262
 9177SOL    HW139164   0.483   2.736   8.800  1.0382  0.6042 -1.1174
 9177SOL    HW239165   0.537   2.680   8.685  0.0755  0.3127  0.8207
 9178SOL     OW39166   1.178   0.114   6.418 -0.2290  0.1849 -0.7038
 9178SOL    HW139167   1.262   0.093   6.461  0.3878  1.4978 -1.2725
 9178SOL    HW239168   1.177   0.209   6.428 -2.4653  0.0006  0.6430
 9179SOL     OW39169   1.275   0.416   6.685 -0.2938 -0.0719  0.2315
 9179SOL    HW139170   1.242   0.438   6.598  1.1798 -2.1851 -0.8642
 9179SOL    HW239171   1.370   0.411   6.672 -0.5574 -4.4656 -0.0812
 9180SOL     OW39172   0.674   3.373   7.368 -0.4955  0.3652 -0.6509
 9180SOL    HW139173   0.717   3.292   7.394  1.2095  2.1080  1.9071
 9180SOL    HW239174   0.744   3.438   7.375 -1.3679  1.0835  1.2513
 9181SOL     OW39175   3.291   0.129   4.273 -0.2510  0.4658 -0.0307
 9181SOL    HW139176   3.296   0.056   4.212 -0.7416  1.0946 -0.8278
 9181SOL    HW239177   3.234   0.095   4.343  1.0652 -3.6047 -0.9382
 9182SOL     OW39178   3.605   1.354   7.864  0.5180  0.1538  0.4704
 9182SOL    HW139179   3.682   1.298   7.857 -2.6864 -4.2964  1.1275
 9182SOL    HW239180   3.647   1.439   7.873  1.3386 -0.3022  0.8782
 9183SOL     OW39181   1.008   1.185   7.306 -0.1920  0.3833 -0.1078
 9183SOL    HW139182   1.020   1.146   7.220 -2.5291 -0.9933  0.2000
 9183SOL    HW239183   0.944   1.133   7.355  2.2532 -0.3405  2.3771
 9184SOL     OW39184   1.753   3.805   6.813 -0.1351  0.0115 -0.0145
 9184SOL    HW139185   1.791   3.759   6.887 -0.2389  0.4833  0.3312
 9184SOL    HW239186   1.717   3.879   6.862  2.7503  0.3862  1.5193
 9185SOL     OW39187   1.509   4.564   1.914  0.1370  0.1858 -0.3077
 9185SOL    HW139188   1.422   4.600   1.896  0.1299  0.5482  0.4393
 9185SOL    HW239189   1.494   4.474   1.884 -1.9019  0.1360  0.8766
 9186SOL     OW39190   1.555   1.636  11.787 -0.1654  0.7106 -0.7747
 9186SOL    HW139191   1.641   1.677  11.797 -0.1093 -0.3690  3.0934
 9186SOL    HW239192   1.504   1.691  11.847  1.7390  0.0882  1.4033
 9187SOL     OW39193   1.893   2.813   8.568 -0.2198 -0.4741  0.1017
 9187SOL    HW139194   1.953   2.857   8.509  4.0030  2.0865  6.2385
 9187SOL    HW239195   1.887   2.876   8.640  0.3987 -2.7079  2.1281
 9188SOL     OW39196   1.996   2.432   5.547 -0.1865 -0.3053 -0.6408
 9188SOL    HW139197   1.903   2.457   5.544 -0.2852 -0.7545 -1.4849
 9188SOL    HW239198   1.979   2.342   5.576 -1.4455  0.3221  0.5245
 9189SOL     OW39199   2.289   1.190   4.727 -0.4017  0.7026  0.0431
 9189SOL    HW139200   2.302   1.235   4.643 -0.7123  0.9396  0.1237
 9189SOL    HW239201   2.270   1.104   4.690  1.3774 -0.9841  3.0244
 9190SOL     OW39202   1.841   3.000   7.334  0.5196  0.5261  0.3554
 9190SOL    HW139203   1.755   2.963   7.357  1.8951 -2.7846  0.0992
 9190SOL    HW239204   1.879   3.003   7.422 -0.7878  2.6790  0.8724
 9191SOL     OW39205   3.870   1.554   8.089  0.1557  0.0671  0.5248
 9191SOL    HW139206   3.808   1.582   8.022  1.5673 -3.4127 -2.2192
 9191SOL    HW239207   3.885   1.634   8.139  0.8002  0.7787 -0.8164
 9192SOL     OW39208   2.535   4.296   4.920 -0.0991  0.6434  0.0282
 9192SOL    HW139209   2.627   4.316   4.905  0.4347 -2.0832 -0.3029
 9192SOL    HW239210   2.518   4.232   4.850  0.0715 -1.6868  2.1199
 9193SOL     OW39211   0.777   2.385   5.490 -0.1437 -0.3905  0.4045
 9193SOL    HW139212   0.849   2.370   5.551  0.5154 -1.3322 -0.5986
 9193SOL    HW239213   0.781   2.301   5.444  1.5147 -0.6359  1.0148
 9194SOL     OW39214   3.138   4.137  13.749  0.0214  0.3051 -0.9317
 9194SOL    HW139215   3.112   4.045  13.750 -1.7659  0.8389  0.6514
 9194SOL    HW239216   3.056   4.168  13.711 -2.2740 -0.1497  3.6077
 9195SOL     OW39217   4.281   3.479   7.907  0.4002 -0.9786  0.0219
 9195SOL    HW139218   4.228   3.399   7.902 -1.1285  0.0848 -0.7654
 9195SOL    HW239219   4.360   3.450   7.953  0.9621  2.0145  0.9909
 9196SOL     OW39220   1.085   2.226   3.085 -0.3929  0.0368  0.8056
 9196SOL    HW139221   1.163   2.280   3.069 -1.3519  1.1453 -0.1067
 9196SOL    HW239222   1.015   2.269   3.035 -0.3227  0.2683  0.9026
 9197SOL     OW39223   2.830   1.424   8.851  0.3519  0.0708 -0.2011
 9197SOL    HW139224   2.837   1.516   8.823  0.2236  0.6964  1.8504
 9197SOL    HW239225   2.919   1.413   8.884  0.4454 -3.3432 -1.5798
 9198SOL     OW39226   1.235   3.362   4.645 -0.7243  0.4571  0.4772
 9198SOL    HW139227   1.281   3.393   4.723  1.9200  0.3845 -1.0450
 9198SOL    HW239228   1.265   3.420   4.576  0.5630 -1.4118 -0.5409
 9199SOL     OW39229   0.771   0.250  13.827  0.1048 -1.0284  0.6811
 9199SOL    HW139230   0.729   0.298  13.756 -1.6066 -0.9177  1.7710
 9199SOL    HW239231   0.693   0.204  13.859  0.3873 -2.3615 -0.5047
 9200SOL     OW39232   3.411   3.763  12.999  0.3613  0.8164  0.6637
 9200SOL    HW139233   3.502   3.732  12.999 -0.1247 -0.5987 -0.1663
 9200SOL    HW239234   3.382   3.737  12.911 -0.1283 -2.9029  1.9420
 9201SOL     OW39235   4.257   0.201   6.561 -0.3237 -0.0464  0.0617
 9201SOL    HW139236   4.228   0.169   6.475  0.6176 -4.3815  1.3238
 9201SOL    HW239237   4.191   0.265   6.587 -0.3006  0.8946 -2.2378
 9202SOL     OW39238   2.792   2.584   3.358 -0.8550  0.4141  0.0523
 9202SOL    HW139239   2.765   2.581   3.266  0.8468  1.1651 -0.4799
 9202SOL    HW239240   2.886   2.603   3.349 -1.0775  0.8387 -1.4605
 9203SOL     OW39241   1.436   0.639   8.647 -0.2199 -0.4596  0.0746
 9203SOL    HW139242   1.404   0.591   8.571  1.7486 -1.9425  0.1733
 9203SOL    HW239243   1.452   0.727   8.614  0.4226 -0.4266  0.4759
 9204SOL     OW39244   2.849   1.159   0.819  0.2969 -0.0787  0.0076
 9204SOL    HW139245   2.905   1.178   0.895  1.4691 -0.7070 -0.7221
 9204SOL    HW239246   2.815   1.248   0.804  0.6798 -0.3261 -2.2949
 9205SOL     OW39247   2.832   1.003   4.326 -0.9031  0.4078  0.4587
 9205SOL    HW139248   2.869   0.941   4.263 -2.2760  0.8722 -0.8030
 9205SOL    HW239249   2.745   0.964   4.332  1.0038 -3.7976  1.2385
 9206SOL     OW39250   3.409   4.173  13.717 -0.7762 -0.0465 -0.5758
 9206SOL    HW139251   3.439   4.179  13.808  0.7941  0.3349 -1.1358
 9206SOL    HW239252   3.314   4.163  13.723 -1.0213  2.5921 -0.3719
 9207SOL     OW39253   2.385   2.205   7.817  0.3556  0.2830  0.0485
 9207SOL    HW139254   2.341   2.231   7.736  2.3606  0.8762 -0.8542
 9207SOL    HW239255   2.434   2.281   7.850 -1.2751  1.0351  0.7181
 9208SOL     OW39256   0.343   2.147   8.926  0.1145  0.4620  0.0117
 9208SOL    HW139257   0.266   2.182   8.880 -0.0963 -0.6921 -0.5132
 9208SOL    HW239258   0.305   2.132   9.013 -1.5000  0.4849 -0.6894
 9209SOL     OW39259   0.845   3.837   7.228  0.9390  0.1585 -0.1633
 9209SOL    HW139260   0.925   3.849   7.176  1.7027  0.0399  0.9940
 9209SOL    HW239261   0.837   3.742   7.239 -4.5879  0.7727  1.0093
 9210SOL     OW39262   4.459   3.434   3.308 -0.2451 -0.1301  0.8792
 9210SOL    HW139263   4.441   3.344   3.284  3.2349 -0.3577 -0.9658
 9210SOL    HW239264   4.451   3.420   3.402  2.4445 -1.0901  0.9878
 9211SOL     OW39265   4.457   2.777   2.588  0.6974  1.1280 -0.2349
 9211SOL    HW139266   4.497   2.789   2.674  1.1253 -1.5442 -0.0557
 9211SOL    HW239267   4.526   2.798   2.524 -0.9691  1.4664 -1.9117
 9212SOL     OW39268   0.699   3.574   9.653  0.5841  0.2342  1.0090
 9212SOL    HW139269   0.775   3.599   9.707  1.2640 -0.3734  0.3194
 9212SOL    HW239270   0.752   3.532   9.586 -1.8068 -0.9629 -0.0864
 9213SOL     OW39271   3.166   2.893  16.414  0.3513  0.4986 -0.0417
 9213SOL    HW139272   3.250   2.915  16.375 -0.1131  0.9730 -0.7817
 9213SOL    HW239273   3.119   2.975  16.430 -2.6085 -0.8885 -1.5110
 9214SOL     OW39274   0.775   0.130   5.762 -0.1673  0.0871 -0.2029
 9214SOL    HW139275   0.867   0.108   5.777 -0.4138 -0.2706  0.8228
 9214SOL    HW239276   0.737   0.045   5.741 -0.9904  0.4940 -0.3672
 9215SOL     OW39277   3.835   1.462  11.896 -0.6212 -0.3521  0.0319
 9215SOL    HW139278   3.773   1.517  11.944 -2.9307 -1.7779 -1.2915
 9215SOL    HW239279   3.902   1.443  11.961  1.3588  0.2605 -1.8308
 9216SOL     OW39280   2.455   1.352  11.959  0.2873  0.6313  0.2349
 9216SOL    HW139281   2.420   1.334  11.871 -0.2154 -0.3544  0.6452
 9216SOL    HW239282   2.373   1.338  12.006  0.5309 -0.0003  0.4702
 9217SOL     OW39283   4.479   3.038   4.646 -0.0972  0.9237 -0.4909
 9217SOL    HW139284   4.498   3.008   4.735 -1.4075 -0.6593 -0.7618
 9217SOL    HW239285   4.423   2.968   4.613  0.0519 -0.0607  1.3133
 9218SOL     OW39286   4.233   0.928   8.019 -0.4789  0.3313 -0.4327
 9218SOL    HW139287   4.191   0.906   8.102  1.0279  0.7764  0.4487
 9218SOL    HW239288   4.238   0.844   7.975 -0.4016 -0.7467  1.6564
 9219SOL     OW39289   3.606   2.774   1.764 -0.0425  0.2898  0.2691
 9219SOL    HW139290   3.660   2.747   1.838 -0.2436 -1.4775 -0.2288
 9219SOL    HW239291   3.552   2.837   1.811 -0.4153 -1.7738  2.6104
 9220SOL     OW39292   0.927   0.153  16.814 -0.2748  0.7004  0.1714
 9220SOL    HW139293   1.013   0.187  16.841  0.1786  0.2382 -0.6822
 9220SOL    HW239294   0.914   0.207  16.736  1.4500 -0.5427 -0.9801
 9221SOL     OW39295   2.434   4.235  11.613  0.5088 -0.7239 -0.3729
 9221SOL    HW139296   2.409   4.317  11.569 -1.9519 -0.0662  2.2948
 9221SOL    HW239297   2.520   4.220  11.573  0.4728  0.3644 -0.8600
 9222SOL     OW39298   3.543   4.212   5.060 -0.2889 -0.3441  0.3117
 9222SOL    HW139299   3.627   4.183   5.095 -0.5098 -1.7737 -0.3497
 9222SOL    HW239300   3.574   4.290   5.015 -2.5209  1.2365  1.4846
 9223SOL     OW39301   3.128   0.936   1.538 -0.5495  0.9519 -0.2613
 9223SOL    HW139302   3.127   0.843   1.514 -0.3105  0.8889 -0.0302
 9223SOL    HW239303   3.178   0.980   1.469 -1.3454  1.1037 -0.7418
 9224SOL     OW39304   0.324   3.956   8.525  0.1580 -0.0487 -0.1367
 9224SOL    HW139305   0.360   3.888   8.468  0.4095  0.0438 -0.0895
 9224SOL    HW239306   0.376   3.943   8.604 -0.7973 -1.5856  0.2560
 9225SOL     OW39307   3.119   4.505   8.746 -0.3095 -0.4151 -0.1935
 9225SOL    HW139308   3.208   4.537   8.731 -0.5173 -0.0389 -0.6273
 9225SOL    HW239309   3.142   4.423   8.789 -0.3541 -0.0410  0.5432
 9226SOL     OW39310   4.648   0.251   0.905  0.3733 -0.1908  0.2634
 9226SOL    HW139311   4.694   0.305   0.969 -0.8741 -0.0711  1.0674
 9226SOL    HW239312   4.679   0.285   0.821  3.2635 -0.2808  1.2998
 9227SOL     OW39313   1.952   2.490  13.970 -0.0346 -0.0627 -0.0435
 9227SOL    HW139314   1.901   2.415  14.002  0.1065 -0.4324 -0.6751
 9227SOL    HW239315   2.033   2.447  13.943  1.8895  2.5042  1.6187
 9228SOL     OW39316   0.048   2.880   3.436  0.1972 -0.3159  0.0957
 9228SOL    HW139317   0.098   2.960   3.419  0.2408 -0.2733  0.4229
 9228SOL    HW239318   0.104   2.812   3.398 -1.2750 -0.0037 -2.6079
 9229SOL     OW39319   3.502   2.282   2.672  0.7041  0.3270 -0.9684
 9229SOL    HW139320   3.466   2.349   2.614  2.1393  1.3506 -0.6673
 9229SOL    HW239321   3.593   2.311   2.674  1.2420 -1.3472 -0.9209
 9230SOL     OW39322   3.017   1.131  14.156 -0.1157 -0.3740  0.3493
 9230SOL    HW139323   3.047   1.153  14.068 -0.0222  0.0495  0.4878
 9230SOL    HW239324   3.096   1.147  14.208  1.1695 -1.0938 -1.3540
 9231SOL     OW39325   0.652   1.726   1.618 -0.2885 -0.5206  0.2354
 9231SOL    HW139326   0.695   1.763   1.695 -1.3361 -2.1518  1.5955
 9231SOL    HW239327   0.706   1.650   1.596  0.9290 -0.0017  1.4344
 9232SOL     OW39328   4.087   3.439   6.368  0.5481 -0.0803 -0.6890
 9232SOL    HW139329   4.118   3.417   6.280  0.1079 -1.7081 -0.4316
 9232SOL    HW239330   4.142   3.516   6.384  2.5139 -1.4297 -1.0187
 9233SOL     OW39331   4.342   2.843   2.074  0.4437  0.2629 -0.0203
 9233SOL    HW139332   4.388   2.759   2.070 -0.9207 -0.3585 -2.5814
 9233SOL    HW239333   4.364   2.884   2.157  0.9098  0.7616 -0.3941
 9234SOL     OW39334   4.694   2.741   3.671 -0.1039  0.1617  0.1217
 9234SOL    HW139335   4.713   2.660   3.623  2.2218  0.4823  0.5138
 9234SOL    HW239336   4.685   2.815   3.611  1.9355  1.4668  1.4012
 9235SOL     OW39337   1.503   1.924  14.541 -0.0772  0.1033 -0.0639
 9235SOL    HW139338   1.549   1.872  14.607  0.9480  0.8222 -0.2183
 9235SOL    HW239339   1.571   1.935  14.475 -0.3392 -3.0378 -0.8791
 9236SOL     OW39340   4.363   1.616   3.201 -0.2564 -0.5135  0.2932
 9236SOL    HW139341   4.358   1.550   3.132 -3.2788  0.9495 -0.8883
 9236SOL    HW239342   4.432   1.574   3.253  0.1975 -0.8860 -0.6005
 9237SOL     OW39343   1.516   4.135   6.675 -0.3217 -0.4147 -1.0690
 9237SOL    HW139344   1.526   4.221   6.717  1.1101 -0.7766 -0.6757
 9237SOL    HW239345   1.421   4.130   6.664 -0.7951  0.8657  2.5884
 9238SOL     OW39346   3.227   0.356   5.353 -0.6287 -0.0750 -0.1606
 9238SOL    HW139347   3.261   0.292   5.414 -1.7711  1.2098  1.8368
 9238SOL    HW239348   3.239   0.307   5.272  0.8402 -0.7294  0.4629
 9239SOL     OW39349   1.273   1.253  12.226 -0.1413  0.1966 -0.4332
 9239SOL    HW139350   1.298   1.295  12.144 -0.6904 -0.0755 -0.7360
 9239SOL    HW239351   1.289   1.319  12.294  0.2831  0.7837 -1.1107
 9240SOL     OW39352   3.719   3.027   7.638 -0.4006 -0.2705  0.5283
 9240SOL    HW139353   3.683   2.970   7.569  0.9470 -0.5228  0.0365
 9240SOL    HW239354   3.636   3.056   7.676 -0.1135 -0.4673  1.3127
 9241SOL     OW39355   3.337   1.487  12.298  0.3166 -0.2062  0.2928
 9241SOL    HW139356   3.382   1.566  12.269  0.0686  0.4878  1.8058
 9241SOL    HW239357   3.264   1.490  12.236 -0.0994 -1.2127  0.7375
 9242SOL     OW39358   0.530   1.220   6.881  0.0827 -0.2244 -0.3594
 9242SOL    HW139359   0.472   1.147   6.902  0.3457 -0.0173  1.0948
 9242SOL    HW239360   0.556   1.247   6.969  1.0001 -0.9702 -0.4007
 9243SOL     OW39361   0.107   0.172   3.345 -0.1746  0.1485  0.2048
 9243SOL    HW139362   0.158   0.251   3.328  0.2905  0.1842  1.7719
 9243SOL    HW239363   0.036   0.202   3.401 -0.7936  0.5097 -0.7764
 9244SOL     OW39364   4.104   2.700   2.247  0.3369  0.3596 -0.4473
 9244SOL    HW139365   4.119   2.749   2.328  0.7103 -1.1888  0.4114
 9244SOL    HW239366   4.195   2.679   2.226  0.1717  0.1555 -0.9475
 9245SOL     OW39367   4.303   0.534   9.510 -0.0463 -0.2381 -0.4975
 9245SOL    HW139368   4.231   0.537   9.574  2.3364  1.3429  2.0914
 9245SOL    HW239369   4.272   0.588   9.437  2.4543 -1.1913 -2.2456
 9246SOL     OW39370   1.929   2.679  12.692 -0.5694  0.2068  0.5793
 9246SOL    HW139371   1.897   2.692  12.782 -0.4576  1.0767  0.4953
 9246SOL    HW239372   1.850   2.694  12.641 -1.6357 -1.8217  1.6177
 9247SOL     OW39373   1.279   0.765  10.186 -0.8639 -0.4746  0.1762
 9247SOL    HW139374   1.262   0.696  10.251 -0.4807 -1.4624 -0.7614
 9247SOL    HW239375   1.375   0.767  10.185 -0.9234  1.5831  0.4117
 9248SOL     OW39376   0.407   3.489  14.658 -0.5560  0.0571 -0.0169
 9248SOL    HW139377   0.415   3.574  14.615  1.8069 -0.3289 -0.3817
 9248SOL    HW239378   0.498   3.460  14.656 -0.6181 -0.1149 -0.3839
 9249SOL     OW39379   3.994   1.204   2.354  0.8704 -0.1229 -1.0444
 9249SOL    HW139380   4.008   1.111   2.333 -1.9589 -1.1603  1.6259
 9249SOL    HW239381   4.081   1.240   2.335  0.6882  0.7866 -0.1388
 9250SOL     OW39382   1.421   1.196   6.585 -0.6154 -0.8984 -0.3016
 9250SOL    HW139383   1.354   1.139   6.622 -0.5625 -0.4770  0.4500
 9250SOL    HW239384   1.390   1.275   6.630  0.8678  0.2979 -1.3873
 9251SOL     OW39385   0.429   2.021  13.308  0.0569  0.2805 -0.2457
 9251SOL    HW139386   0.491   1.971  13.361  1.3020 -0.4744 -2.4406
 9251SOL    HW239387   0.492   2.071  13.256 -2.3618  2.6151 -0.9619
 9252SOL     OW39388   2.354   4.609  15.306 -0.0467 -0.1289  0.7098
 9252SOL    HW139389   2.285   4.596  15.372  0.1280  1.0668  1.1269
 9252SOL    HW239390   2.424   4.617  15.370  0.0113  1.2384  0.4722
 9253SOL     OW39391   0.430   1.219   6.170 -0.4921 -0.3314  0.2146
 9253SOL    HW139392   0.370   1.277   6.216 -0.0988 -1.3881  2.0833
 9253SOL    HW239393   0.511   1.270   6.176 -1.7236  1.8950 -1.8501
 9254SOL     OW39394   0.692   4.484   7.678 -0.1243 -0.1202 -0.0064
 9254SOL    HW139395   0.719   4.515   7.764 -0.5460 -2.5629  1.0181
 9254SOL    HW239396   0.766   4.426   7.659 -1.8433 -2.8911  1.6631
 9255SOL     OW39397   0.365   0.051   5.278  0.1965 -0.4777  0.4376
 9255SOL    HW139398   0.402   4.697   5.257 -0.1755 -0.4518 -0.3546
 9255SOL    HW239399   0.324   0.050   5.364  1.5289 -1.1604  1.0589
 9256SOL     OW39400   0.619   1.902   2.461  0.4252  0.1797  0.2181
 9256SOL    HW139401   0.695   1.846   2.476 -0.0456 -0.7309 -0.7841
 9256SOL    HW239402   0.549   1.843   2.488  0.4846  0.6310  1.3296
 9257SOL     OW39403   1.542   0.681   2.038 -0.7457  0.2897 -0.2258
 9257SOL    HW139404   1.472   0.728   1.993  0.2075  1.4837 -0.4560
 9257SOL    HW239405   1.486   0.622   2.089 -0.2420 -0.2289 -0.2770
 9258SOL     OW39406   3.093   1.133   9.774 -0.0502  0.1999  0.2272
 9258SOL    HW139407   3.033   1.193   9.819 -2.3808 -1.5539 -0.5196
 9258SOL    HW239408   3.033   1.069   9.738 -0.6086  1.2410 -0.6976
 9259SOL     OW39409   0.982   3.845   2.257  0.4368  0.7096 -0.0431
 9259SOL    HW139410   0.977   3.755   2.225  0.8695  0.7503 -0.2192
 9259SOL    HW239411   0.895   3.863   2.293 -0.3242  0.0430 -1.5399
 9260SOL     OW39412   0.378   4.461   6.398 -0.6082 -0.1149  0.4231
 9260SOL    HW139413   0.369   4.377   6.353  0.3741  1.2839 -2.3562
 9260SOL    HW239414   0.469   4.471   6.371 -0.8866  0.6612 -0.2098
 9261SOL     OW39415   1.908   1.822   7.755 -0.2436 -0.2635 -0.3427
 9261SOL    HW139416   1.920   1.735   7.791  0.0029 -0.6755 -1.4308
 9261SOL    HW239417   1.942   1.881   7.823 -0.3199 -1.8453  1.0591
 9262SOL     OW39418   3.851   1.577   1.612  0.2216  0.0304 -0.5015
 9262SOL    HW139419   3.906   1.623   1.676  1.3718 -3.0746  0.7442
 9262SOL    HW239420   3.915   1.516   1.577 -0.8642 -0.0085 -2.3677
 9263SOL     OW39421   0.312   2.050   2.517 -0.1822  0.0743 -0.7026
 9263SOL    HW139422   0.231   2.037   2.468  0.4534 -3.3290 -0.8085
 9263SOL    HW239423   0.343   1.960   2.511  1.3387  0.4741  1.3451
 9264SOL     OW39424   1.866   3.472   9.045 -0.2494 -0.2523  0.5802
 9264SOL    HW139425   1.935   3.424   9.091  1.5297  0.2166 -1.6081
 9264SOL    HW239426   1.911   3.553   9.021  1.0633 -1.1185  0.1069
 9265SOL     OW39427   4.428   2.154   5.965  0.0972  0.5978 -0.0606
 9265SOL    HW139428   4.399   2.244   5.951 -0.4983  0.4709  0.3347
 9265SOL    HW239429   4.522   2.170   5.965  0.0627  0.6264 -3.0453
 9266SOL     OW39430   2.840   2.119   5.491  0.2813  0.6571  0.0340
 9266SOL    HW139431   2.788   2.084   5.563 -1.0172  1.5255 -0.4793
 9266SOL    HW239432   2.791   2.198   5.468  0.8811  1.2995  0.9041
 9267SOL     OW39433   2.017   1.243   6.771  0.2267 -0.1002 -0.2745
 9267SOL    HW139434   2.003   1.202   6.686 -0.4034  2.1342 -1.2302
 9267SOL    HW239435   1.925   1.241   6.798 -0.1600 -1.6522 -1.7582
 9268SOL     OW39436   2.091   3.105   3.655  0.3823 -0.1515  0.3959
 9268SOL    HW139437   2.029   3.032   3.662  0.1024  0.2228  1.9543
 9268SOL    HW239438   2.111   3.105   3.562 -0.7093 -1.7421  0.1548
 9269SOL     OW39439   2.973   4.381   9.219 -0.0766  0.0035  0.2628
 9269SOL    HW139440   3.015   4.301   9.188  1.2574  0.2885  1.2921
 9269SOL    HW239441   2.880   4.380   9.197  0.7440 -1.3862 -3.1601
 9270SOL     OW39442   3.750   2.895   5.410  0.4189 -1.0077 -0.3462
 9270SOL    HW139443   3.770   2.845   5.489  0.6546  0.2555  0.3905
 9270SOL    HW239444   3.669   2.936   5.439  0.6585  1.3251 -3.0155
 9271SOL     OW39445   0.799   3.591  11.037 -0.2573  0.1667 -0.0508
 9271SOL    HW139446   0.763   3.504  11.054 -1.2174  0.8557  1.3429
 9271SOL    HW239447   0.795   3.585  10.941 -0.0592  0.7712 -0.0997
 9272SOL     OW39448   0.838   0.178   3.663 -0.4171 -0.0123 -0.4452
 9272SOL    HW139449   0.818   0.099   3.614  0.3075 -1.4313  1.5669
 9272SOL    HW239450   0.771   0.172   3.731 -1.5890  1.0832 -1.5154
 9273SOL     OW39451   1.282   3.074   7.504 -0.2173  0.0906 -0.5124
 9273SOL    HW139452   1.252   2.984   7.512 -0.5479  0.2391 -0.0605
 9273SOL    HW239453   1.197   3.109   7.475  1.5506  3.3072 -1.8948
 9274SOL     OW39454   0.555   0.734  13.954 -0.4608  0.5311 -0.1465
 9274SOL    HW139455   0.524   0.825  13.951 -2.6549 -0.1795  0.9705
 9274SOL    HW239456   0.584   0.723  13.864 -1.3528  0.1755 -0.3808
 9275SOL     OW39457   3.637   1.631   7.333 -0.2767  0.1434 -0.3093
 9275SOL    HW139458   3.609   1.541   7.315 -0.8139  0.4530 -1.0037
 9275SOL    HW239459   3.728   1.628   7.300  0.1595  1.1127  0.8340
 9276SOL     OW39460   1.909   4.583  15.634  0.1912  0.3391 -0.6837
 9276SOL    HW139461   1.919   4.678  15.644 -0.3546  0.2075  1.0612
 9276SOL    HW239462   1.990   4.562  15.586 -0.9001  1.3400 -3.0104
 9277SOL     OW39463   3.808   1.386   2.302  0.1291 -0.2675  0.0089
 9277SOL    HW139464   3.728   1.339   2.280  0.5030  0.1007 -2.0943
 9277SOL    HW239465   3.856   1.309   2.333  1.2312 -0.4998 -2.3005
 9278SOL     OW39466   2.470   4.199   5.178  0.0031 -0.0486  1.0739
 9278SOL    HW139467   2.498   4.248   5.101 -2.3732  0.7675  0.7520
 9278SOL    HW239468   2.384   4.174   5.145  1.5453 -0.7682 -2.4252
 9279SOL     OW39469   1.013   2.543   8.770 -0.2189  0.4767  0.2325
 9279SOL    HW139470   1.035   2.626   8.727  0.3028  0.0601 -0.2981
 9279SOL    HW239471   0.957   2.579   8.839 -0.9436  1.6168 -0.9519
 9280SOL     OW39472   0.907   0.375  15.630  0.2119 -0.6034 -0.5169
 9280SOL    HW139473   0.970   0.305  15.643  3.3954  1.8616 -2.5453
 9280SOL    HW239474   0.962   0.454  15.629 -1.0398  0.3427  2.6712
 9281SOL     OW39475   3.290   1.414  12.568  0.3759  0.0009  0.4497
 9281SOL    HW139476   3.292   1.421  12.472  0.0129  1.0178  0.5217
 9281SOL    HW239477   3.379   1.383  12.583  1.1131  1.9077 -0.0232
 9282SOL     OW39478   1.302   1.411  17.095 -0.2577 -0.5474  0.0737
 9282SOL    HW139479   1.289   1.318  17.077  0.0044 -0.3052 -1.3493
 9282SOL    HW239480   1.371   1.434  17.033 -0.4194 -0.2774 -0.0045
 9283SOL     OW39481   0.305   1.651   7.155 -0.0649  0.1670 -0.0139
 9283SOL    HW139482   0.341   1.739   7.162  4.9655 -1.7290 -1.3341
 9283SOL    HW239483   0.258   1.656   7.238  1.6467 -0.9297  1.0371
 9284SOL     OW39484   2.851   4.081   4.956  0.1208 -0.0214 -0.0194
 9284SOL    HW139485   2.940   4.113   4.973 -0.2967  0.2424  1.6801
 9284SOL    HW239486   2.860   3.986   4.965  0.0164 -0.1090 -0.8041
 9285SOL     OW39487   2.972   0.462   1.622 -0.3328 -0.0328  0.1576
 9285SOL    HW139488   2.961   0.406   1.546  2.1670  1.3320 -1.2164
 9285SOL    HW239489   2.889   0.452   1.669 -0.7795  1.1863 -0.3740
 9286SOL     OW39490   2.965   2.870   2.786 -0.5132  0.5212 -0.2603
 9286SOL    HW139491   3.007   2.877   2.701  0.2394 -2.2598 -0.1351
 9286SOL    HW239492   2.910   2.791   2.781 -0.5068  0.5336 -0.5350
 9287SOL     OW39493   4.212   4.289  13.599 -0.1383  0.4297  0.2429
 9287SOL    HW139494   4.285   4.228  13.596 -1.2868 -1.0436  2.6879
 9287SOL    HW239495   4.149   4.235  13.551  0.4054 -1.5728  1.7919
 9288SOL     OW39496   3.950   0.192   5.349  0.2854  0.2494  0.1239
 9288SOL    HW139497   3.984   0.140   5.276  0.0818 -1.0387  0.9566
 9288SOL    HW239498   4.004   0.164   5.423  2.2201  0.7907 -1.0897
 9289SOL     OW39499   0.884   4.119   2.593  0.0039  0.0334  0.2877
 9289SOL    HW139500   0.808   4.082   2.548  0.2994 -0.8434  0.5134
 9289SOL    HW239501   0.844   4.156   2.672 -0.4020  1.2627 -0.4871
 9290SOL     OW39502   4.273   4.676   4.497 -0.0004  0.0703  0.1859
 9290SOL    HW139503   4.324   4.701   4.420 -2.3883 -0.8237 -1.6861
 9290SOL    HW239504   4.221   0.022   4.516  1.2581  0.8357  0.4985
 9291SOL     OW39505   0.945   1.823   1.048  0.3656  0.6032 -0.1972
 9291SOL    HW139506   0.950   1.859   0.959  0.1180 -1.3666 -1.0072
 9291SOL    HW239507   0.902   1.740   1.029  2.9682 -0.9518  0.6364
 9292SOL     OW39508   1.303   3.180   3.474 -0.2126  0.2881  0.3529
 9292SOL    HW139509   1.345   3.247   3.421 -0.2616 -1.2407 -1.6170
 9292SOL    HW239510   1.344   3.188   3.560  1.8257  0.5837 -0.6367
 9293SOL     OW39511   2.834   2.427   4.831  0.0608  0.5508  0.2273
 9293SOL    HW139512   2.742   2.445   4.848  0.2638  0.4538  1.4456
 9293SOL    HW239513   2.856   2.511   4.790 -1.9710  0.6535 -0.6203
 9294SOL     OW39514   1.285   3.799   8.879 -0.3286  0.4519  0.2423
 9294SOL    HW139515   1.236   3.882   8.876  0.9468  1.2268  0.7749
 9294SOL    HW239516   1.345   3.806   8.805 -1.9153 -0.9859 -1.1736
 9295SOL     OW39517   2.330   2.109   3.742  0.3155 -0.3111  0.1362
 9295SOL    HW139518   2.290   2.050   3.678  1.2950 -0.6076 -0.2161
 9295SOL    HW239519   2.315   2.058   3.821  0.0753 -2.7949 -1.5083
 9296SOL     OW39520   3.003   0.081   7.444  0.2809  0.1724 -0.1583
 9296SOL    HW139521   2.916   0.105   7.475  0.8679  0.9740  0.9053
 9296SOL    HW239522   3.036   0.030   7.518 -3.6848  0.3887  1.7711
 9297SOL     OW39523   3.397   1.433   8.038  0.0363  0.1348 -0.2319
 9297SOL    HW139524   3.463   1.417   7.970  1.8785  0.7271  1.4204
 9297SOL    HW239525   3.333   1.368   8.009  0.2553 -1.6218  3.1530
 9298SOL     OW39526   1.741   0.573  12.523 -0.2684 -0.1277  0.0402
 9298SOL    HW139527   1.669   0.558  12.584 -0.1179 -0.0998  0.2253
 9298SOL    HW239528   1.720   0.520  12.446 -0.7849  2.4037 -1.5797
 9299SOL     OW39529   4.535   3.798   4.048  0.6306 -0.0873  0.1237
 9299SOL    HW139530   4.567   3.708   4.051 -2.7458 -1.4267 -2.6236
 9299SOL    HW239531   4.481   3.789   3.969  0.5264  1.6909  0.0011
 9300SOL     OW39532   1.964   4.035   9.338 -0.0181 -0.0845 -0.4945
 9300SOL    HW139533   1.880   3.999   9.367  0.6297 -1.0149  0.2025
 9300SOL    HW239534   1.942   4.126   9.316 -0.7092 -0.2525 -0.5126
 9301SOL     OW39535   2.970   1.190  16.431 -0.0309 -0.5109  0.7329
 9301SOL    HW139536   3.029   1.132  16.383 -0.6402 -1.3836  1.0420
 9301SOL    HW239537   2.888   1.143  16.447 -0.3089 -0.0434  0.6811
 9302SOL     OW39538   4.283   4.249  17.399  0.3508  0.3437 -1.3129
 9302SOL    HW139539   4.281   4.292  17.485  1.5815 -1.5898 -0.3177
 9302SOL    HW239540   4.343   4.177  17.418 -0.7493  0.3175  2.1462
 9303SOL     OW39541   0.712   2.658   5.402  0.5551  0.1987 -0.5780
 9303SOL    HW139542   0.737   2.571   5.432 -2.3672  0.3854  2.3996
 9303SOL    HW239543   0.627   2.641   5.362 -0.7457  1.1858  1.7488
 9304SOL     OW39544   0.010   4.231  15.748  0.1884  0.3140 -0.5473
 9304SOL    HW139545   4.658   4.198  15.780  0.2840  0.9946  0.3912
 9304SOL    HW239546   0.048   4.151  15.713  1.1081  0.1054  0.8914
 9305SOL     OW39547   3.714   3.978  11.095 -0.6745  0.1382  0.4979
 9305SOL    HW139548   3.727   3.904  11.155 -1.3015 -1.8511 -1.8319
 9305SOL    HW239549   3.632   3.955  11.051 -0.4155  0.9681 -0.4194
 9306SOL     OW39550   0.080   4.323   3.824 -0.0484 -0.0469 -0.1930
 9306SOL    HW139551   0.158   4.377   3.813  0.6918 -1.3455 -1.2976
 9306SOL    HW239552   0.104   4.311   3.916  1.0716 -1.1268 -0.6292
 9307SOL     OW39553   1.720   0.112   5.068  0.1620  0.1083  0.0301
 9307SOL    HW139554   1.630   0.095   5.094  0.4037  0.6247  1.2503
 9307SOL    HW239555   1.760   0.063   5.140  0.6777  0.1676 -0.2180
 9308SOL     OW39556   0.075   3.482   4.998 -0.3784  0.5189  0.5682
 9308SOL    HW139557   4.728   3.434   5.024 -1.9415  2.2927 -0.9372
 9308SOL    HW239558   0.128   3.416   4.953 -0.0786  0.7883  0.5286
 9309SOL     OW39559   3.202   3.579   1.839  0.3910  0.1855 -0.4717
 9309SOL    HW139560   3.216   3.502   1.894 -0.0492 -0.5477 -1.3940
 9309SOL    HW239561   3.125   3.553   1.788  0.1845  0.7314 -0.4363
 9310SOL     OW39562   2.877   1.586  12.697  0.5834  0.4113  0.5235
 9310SOL    HW139563   2.918   1.504  12.725 -0.3588 -0.4971 -0.7708
 9310SOL    HW239564   2.935   1.617  12.627 -0.0340 -0.3797 -0.3376
 9311SOL     OW39565   3.748   3.382   2.710 -0.7307  0.0553  0.4959
 9311SOL    HW139566   3.685   3.331   2.759  0.4026 -1.3100  0.5265
 9311SOL    HW239567   3.705   3.398   2.626  2.1300  0.9979 -0.8138
 9312SOL     OW39568   0.087   2.741   4.894 -0.8905  1.1889  0.2131
 9312SOL    HW139569   0.019   2.699   4.842 -2.1056  0.7107  2.1698
 9312SOL    HW239570   0.041   2.753   4.977 -0.0717 -0.9496  0.9699
 9313SOL     OW39571   0.352   2.658  14.340 -0.2448 -0.1183  0.1034
 9313SOL    HW139572   0.423   2.668  14.404 -1.7436 -0.9828  1.8931
 9313SOL    HW239573   0.301   2.739  14.347  0.1974  0.1887 -0.2208
 9314SOL     OW39574   4.073   1.390  15.599  0.2017 -0.3687  0.2932
 9314SOL    HW139575   4.077   1.445  15.520 -1.4972 -0.5972  0.0575
 9314SOL    HW239576   4.085   1.455  15.668 -0.4025  1.6739 -1.5278
 9315SOL     OW39577   4.147   0.817   8.839 -0.1000 -0.0928  0.4754
 9315SOL    HW139578   4.081   0.855   8.897 -0.6407  0.9326 -0.8066
 9315SOL    HW239579   4.090   0.768   8.780 -0.1989  1.3215 -0.5859
 9316SOL     OW39580   4.120   4.331  16.144 -0.5106  0.4065  0.0383
 9316SOL    HW139581   4.035   4.369  16.118 -1.2273 -1.0555  0.2605
 9316SOL    HW239582   4.178   4.404  16.166  0.1250  0.1557 -0.8215
 9317SOL     OW39583   1.509   2.185   4.745 -0.4579 -0.1244 -0.8639
 9317SOL    HW139584   1.457   2.174   4.666 -2.3969  0.6852  0.3003
 9317SOL    HW239585   1.547   2.272   4.730 -1.9721  0.7683  0.3841
 9318SOL     OW39586   2.622   0.829  15.324  0.1350 -0.0301 -0.1506
 9318SOL    HW139587   2.548   0.880  15.290  1.7116  2.2854 -0.1150
 9318SOL    HW239588   2.572   0.756  15.359 -0.2208  0.9584  1.4063
 9319SOL     OW39589   2.098   3.094   6.510  0.2699  0.4116  0.2742
 9319SOL    HW139590   2.022   3.140   6.547  0.6483  1.0493  0.2549
 9319SOL    HW239591   2.091   2.999   6.524 -1.8041  0.4958 -0.1028
 9320SOL     OW39592   3.392   2.448   4.787  0.3656 -0.1426 -0.5472
 9320SOL    HW139593   3.313   2.394   4.776 -0.5292  0.4116  3.1509
 9320SOL    HW239594   3.460   2.381   4.789  1.8057  1.3216 -0.3435
 9321SOL     OW39595   2.698   0.909  13.830 -0.0314  0.4286  0.2696
 9321SOL    HW139596   2.721   0.970  13.901  1.7547  0.8482 -0.6582
 9321SOL    HW239597   2.665   0.970  13.764 -0.6551 -1.0680 -0.7886
 9322SOL     OW39598   3.823   1.575   2.107  0.0573  0.0471 -1.1665
 9322SOL    HW139599   3.797   1.503   2.050 -0.3672  0.7286 -1.8251
 9322SOL    HW239600   3.809   1.537   2.194  0.6853 -0.2756 -1.2087
 9323SOL     OW39601   0.014   0.991  11.170  0.0209  0.3352 -0.4167
 9323SOL    HW139602   0.052   1.067  11.127 -1.8378  0.6422 -1.5260
 9323SOL    HW239603   4.656   0.988  11.137  0.8399 -1.8832 -2.4540
 9324SOL     OW39604   3.602   4.651  16.813 -0.7227 -0.3119 -0.2353
 9324SOL    HW139605   3.603   0.015  16.820 -0.1562 -0.4035  0.9912
 9324SOL    HW239606   3.612   4.623  16.904 -0.4919 -1.5717 -0.6511
 9325SOL     OW39607   3.498   3.309   1.246  0.3918 -0.4281  0.1076
 9325SOL    HW139608   3.523   3.354   1.166  0.8293 -1.0389 -0.0913
 9325SOL    HW239609   3.520   3.220   1.218  0.7629 -0.0520 -0.7870
 9326SOL     OW39610   2.561   2.380   0.733  0.1501 -0.3941  0.2878
 9326SOL    HW139611   2.492   2.446   0.726 -0.6408 -1.4702 -2.0237
 9326SOL    HW239612   2.561   2.356   0.826  0.8968  0.4853  0.5145
 9327SOL     OW39613   3.197   2.206   5.670 -0.1556 -0.2421 -0.6514
 9327SOL    HW139614   3.114   2.158   5.674 -0.5308  0.6080  1.9010
 9327SOL    HW239615   3.228   2.211   5.761 -1.2674  0.3263 -0.3047
 9328SOL     OW39616   0.349   0.962   6.095 -0.3385  0.3639 -0.1170
 9328SOL    HW139617   0.256   0.949   6.078 -0.2973 -0.0089 -0.0433
 9328SOL    HW239618   0.360   1.055   6.114 -1.0436  0.7720 -1.7013
 9329SOL     OW39619   0.694   1.032   2.608 -0.4344 -0.3779 -0.1164
 9329SOL    HW139620   0.663   1.122   2.622  0.6170 -0.2752  1.5808
 9329SOL    HW239621   0.779   1.037   2.652 -1.3826 -1.1053  1.7822
 9330SOL     OW39622   1.475   3.667   8.238  0.3675  0.0728  0.1572
 9330SOL    HW139623   1.471   3.759   8.210  2.5986  0.6355  1.7130
 9330SOL    HW239624   1.396   3.643   8.287  0.5284  3.2238  1.9581
 9331SOL     OW39625   1.018   4.551  12.272 -0.1478  0.2519  0.2660
 9331SOL    HW139626   0.981   4.486  12.212 -1.0522  1.9746 -1.0587
 9331SOL    HW239627   0.988   4.509  12.353 -1.2983 -1.4382 -1.0398
 9332SOL     OW39628   3.223   1.187   9.340  0.2363  0.3755 -0.1330
 9332SOL    HW139629   3.217   1.189   9.435  0.0671  3.2851 -0.1904
 9332SOL    HW239630   3.318   1.200   9.329  0.5018 -0.9827  0.5811
 9333SOL     OW39631   3.329   0.816   9.443  0.1391  0.0468  0.0960
 9333SOL    HW139632   3.281   0.834   9.524  1.9584  0.3147  1.1160
 9333SOL    HW239633   3.412   0.864   9.456  0.4122 -0.2825 -0.4378
 9334SOL     OW39634   2.317   4.641   8.240 -0.1138  0.0356  0.2267
 9334SOL    HW139635   2.330   4.717   8.184 -0.3079  0.6086  0.9627
 9334SOL    HW239636   2.410   4.629   8.256  0.2471  1.0056 -1.1186
 9335SOL     OW39637   0.349   2.618  13.756  0.1879 -0.0306  0.2720
 9335SOL    HW139638   0.364   2.532  13.717 -1.7510 -0.8615  1.3470
 9335SOL    HW239639   0.409   2.602  13.829 -0.9932 -1.4346  0.9299
 9336SOL     OW39640   1.747   2.012  14.107 -0.4976  0.5362 -0.4593
 9336SOL    HW139641   1.754   1.973  14.195 -0.3381  0.2818 -0.5831
 9336SOL    HW239642   1.715   1.934  14.062 -0.0453 -0.3964  0.8207
 9337SOL     OW39643   1.075   0.655   4.880 -0.2798  0.1884 -0.5036
 9337SOL    HW139644   0.980   0.663   4.890 -0.3417 -0.6946 -0.4252
 9337SOL    HW239645   1.096   0.748   4.872  3.3213 -0.5629  0.3030
 9338SOL     OW39646   4.217   0.305   3.396 -0.4593  0.5231  0.1394
 9338SOL    HW139647   4.238   0.225   3.445 -1.0092  1.1835  1.4526
 9338SOL    HW239648   4.213   0.367   3.468  1.2195 -0.3869  1.0180
 9339SOL     OW39649   1.574   0.021  13.577  0.1030  0.1807 -0.6300
 9339SOL    HW139650   1.584   4.684  13.642 -0.5321  1.5116  0.8668
 9339SOL    HW239651   1.664   0.051  13.591  0.9070 -2.7769  0.6452
 9340SOL     OW39652   0.053   1.505   6.587 -0.2945 -0.3808 -0.0430
 9340SOL    HW139653   0.104   1.584   6.601  0.7924 -1.1424  0.2805
 9340SOL    HW239654   4.728   1.528   6.513 -0.7723  1.6533  0.9574
 9341SOL     OW39655   1.011   4.106   1.572  0.4112  0.6854 -0.0523
 9341SOL    HW139656   1.018   4.132   1.480  1.1297 -2.1790 -0.8079
 9341SOL    HW239657   1.105   4.112   1.589  0.7448 -1.0875 -1.3223
 9342SOL     OW39658   0.757   2.158   3.853  0.4156  0.3141  0.0856
 9342SOL    HW139659   0.748   2.122   3.941 -2.2034  0.7873  0.0155
 9342SOL    HW239660   0.735   2.251   3.866  0.7289  0.4549 -0.3707
 9343SOL     OW39661   3.748   2.688   7.726 -0.2667  0.0676  0.1462
 9343SOL    HW139662   3.807   2.743   7.675 -0.2039 -1.3157 -1.2632
 9343SOL    HW239663   3.725   2.738   7.805  1.8148  1.2222  0.0138
 9344SOL     OW39664   0.726   0.936  15.059  0.0509  0.0388 -0.3852
 9344SOL    HW139665   0.637   0.970  15.056 -0.6255 -1.8181 -1.3074
 9344SOL    HW239666   0.774   1.017  15.077  0.7366 -0.5632  0.5116
 9345SOL     OW39667   2.221   2.850  13.538  0.1896  0.1596 -0.2884
 9345SOL    HW139668   2.310   2.884  13.539 -0.0668  0.9195 -2.1240
 9345SOL    HW239669   2.168   2.928  13.552 -0.6920 -0.6829  1.0850
 9346SOL     OW39670   2.194   3.516   9.918 -0.7929 -0.4395  0.1412
 9346SOL    HW139671   2.187   3.428   9.955  0.5782 -0.5737  0.0658
 9346SOL    HW239672   2.273   3.495   9.868 -1.8133  1.1547 -2.1476
 9347SOL     OW39673   3.389   4.397   6.329 -0.0898  0.2458 -0.0957
 9347SOL    HW139674   3.343   4.430   6.406  0.1470  0.3720 -0.0067
 9347SOL    HW239675   3.396   4.303   6.348  2.6598  0.5447  0.3826
 9348SOL     OW39676   2.255   0.587   7.862  0.0619  0.3684  0.4041
 9348SOL    HW139677   2.277   0.674   7.895  0.4476 -0.3381  2.0031
 9348SOL    HW239678   2.337   0.573   7.816 -0.2058 -1.5939  0.5358
 9349SOL     OW39679   1.937   3.981   8.419 -0.0206  1.2021 -0.2803
 9349SOL    HW139680   1.878   4.045   8.459  1.4563  2.5859 -0.3432
 9349SOL    HW239681   2.018   4.001   8.466  0.8084 -1.3150 -0.6399
 9350SOL     OW39682   1.243   0.611   3.646 -0.5338  0.6732  0.2551
 9350SOL    HW139683   1.261   0.662   3.725 -1.1375 -1.0994  1.5490
 9350SOL    HW239684   1.316   0.549   3.645 -0.0785  1.2437 -1.5863
 9351SOL     OW39685   1.969   0.373   1.296  0.2156  1.3421  0.3143
 9351SOL    HW139686   1.978   0.348   1.389 -2.1455 -0.0586  0.1596
 9351SOL    HW239687   1.917   0.450   1.317 -2.3546 -1.0070  2.6490
 9352SOL     OW39688   3.598   0.314   5.200 -0.1506 -0.7227 -0.2459
 9352SOL    HW139689   3.605   0.368   5.279 -1.5082 -0.8256 -0.0597
 9352SOL    HW239690   3.548   0.239   5.232 -0.6406 -1.0019 -1.6771
 9353SOL     OW39691   3.036   2.880  11.920  0.1433  0.4959 -0.2521
 9353SOL    HW139692   3.114   2.848  11.966 -0.2842  0.3353  0.3634
 9353SOL    HW239693   2.977   2.903  11.992 -1.0914 -1.8024 -0.5447
 9354SOL     OW39694   3.545   3.217  10.196 -0.0066  0.2563  0.2549
 9354SOL    HW139695   3.471   3.246  10.249  0.2621  1.2688  0.0849
 9354SOL    HW239696   3.616   3.243  10.254 -0.2329  0.8450  0.2645
 9355SOL     OW39697   1.176   3.609   2.802  0.6990 -0.5012 -0.1617
 9355SOL    HW139698   1.146   3.576   2.887  0.3884 -1.6204 -0.7165
 9355SOL    HW239699   1.229   3.672   2.850 -0.3570 -0.8370  1.4795
 9356SOL     OW39700   2.582   4.651   6.430  0.2055 -0.7646 -0.2909
 9356SOL    HW139701   2.596   4.613   6.343 -0.3475  0.7689 -1.0462
 9356SOL    HW239702   2.601   0.012   6.426 -0.1958 -0.7250 -1.1808
 9357SOL     OW39703   1.698   4.418  16.645 -0.0574  0.2753  0.0179
 9357SOL    HW139704   1.648   4.417  16.726 -0.7020 -0.9637 -0.3984
 9357SOL    HW239705   1.781   4.458  16.669 -0.0589  2.4983 -3.6430
 9358SOL     OW39706   4.639   0.250   1.928  0.6122  0.3811 -0.9391
 9358SOL    HW139707   4.586   0.207   1.862 -0.1644  0.5253 -0.4081
 9358SOL    HW239708   4.597   0.223   2.010  2.0715 -0.2486 -0.3837
 9359SOL     OW39709   4.722   0.734   6.889  0.2609 -0.2142 -0.0999
 9359SOL    HW139710   4.680   0.655   6.855  0.1561  0.0221 -0.5243
 9359SOL    HW239711   4.658   0.802   6.909 -0.5556 -1.2189  0.6627
 9360SOL     OW39712   2.864   2.802  16.908 -0.8374 -0.4464 -0.0253
 9360SOL    HW139713   2.812   2.738  16.860  1.3959 -0.4053 -2.4657
 9360SOL    HW239714   2.793   2.854  16.946 -1.3163 -1.0312 -0.1393
 9361SOL     OW39715   0.939   0.529   1.680  0.5675  0.2280  0.2903
 9361SOL    HW139716   0.996   0.602   1.657 -2.8207  2.8501  0.1347
 9361SOL    HW239717   0.991   0.483   1.746  1.2270  0.9622  0.2787
 9362SOL     OW39718   3.271   0.662   9.101 -0.0491  0.4869 -0.4115
 9362SOL    HW139719   3.221   0.581   9.111 -0.4706  0.9887  1.5738
 9362SOL    HW239720   3.197   0.723   9.091 -0.0076  0.4232 -1.1048
 9363SOL     OW39721   4.367   4.203   5.550 -0.0515  0.3673  0.4444
 9363SOL    HW139722   4.417   4.234   5.626 -1.2481  3.7195 -0.1479
 9363SOL    HW239723   4.289   4.257   5.561 -1.2894 -0.8712 -2.3990
 9364SOL     OW39724   1.647   1.291   4.033  0.5486  0.2445 -0.4279
 9364SOL    HW139725   1.683   1.342   4.106  1.0719  0.8039 -1.0729
 9364SOL    HW239726   1.559   1.290   4.071  1.1753  2.2067  1.0699
 9365SOL     OW39727   3.934   3.270   2.997  0.1070  0.1197  0.1088
 9365SOL    HW139728   3.876   3.225   2.936 -2.1925  1.7299  1.1184
 9365SOL    HW239729   4.015   3.227   2.970  0.6882 -0.0056  2.0534
 9366SOL     OW39730   2.802   0.542   6.922 -0.3199  1.0306  0.0830
 9366SOL    HW139731   2.779   0.478   6.989 -1.4157  2.8095  1.4104
 9366SOL    HW239732   2.747   0.620   6.931 -1.0957  0.4781  0.2056
 9367SOL     OW39733   3.538   2.572   2.171  0.0156  0.2799  0.3319
 9367SOL    HW139734   3.633   2.565   2.167 -0.2122 -1.4788 -1.8465
 9367SOL    HW239735   3.528   2.648   2.113  0.5952  2.0458  2.5393
 9368SOL     OW39736   1.389   0.226   3.902  0.1669  0.3973 -0.0818
 9368SOL    HW139737   1.446   0.192   3.971  0.1241 -2.1254 -1.3112
 9368SOL    HW239738   1.405   0.165   3.831  1.1990 -0.1837  0.6477
 9369SOL     OW39739   0.079   2.530   9.121 -0.1996  0.4789  0.3949
 9369SOL    HW139740   4.729   2.546   9.075 -0.7598 -1.8612  0.5823
 9369SOL    HW239741   0.131   2.564   9.048 -0.0966 -1.3277 -0.3707
 9370SOL     OW39742   3.834   4.069   7.686 -0.2862  0.4290 -0.0723
 9370SOL    HW139743   3.902   4.005   7.709  1.0557  1.0457 -2.2948
 9370SOL    HW239744   3.763   4.007   7.675 -1.0850  1.4914 -0.9128
 9371SOL     OW39745   1.326   2.001   2.364  0.1228 -0.1110 -0.0248
 9371SOL    HW139746   1.253   1.953   2.405 -1.7821  1.0244 -2.0764
 9371SOL    HW239747   1.281   2.029   2.284  2.2002 -0.6247 -1.3797
 9372SOL     OW39748   0.632   0.065   5.395  0.1200 -0.0753 -0.7573
 9372SOL    HW139749   0.639   0.140   5.453 -0.9300 -0.8383  0.3664
 9372SOL    HW239750   0.540   0.079   5.373  0.0767  2.4392  1.0979
 9373SOL     OW39751   4.050   0.377   8.049  0.8381 -0.3416 -0.2329
 9373SOL    HW139752   3.982   0.374   7.981  1.9718 -2.2865 -1.2776
 9373SOL    HW239753   4.009   0.336   8.125  2.3790 -1.8562 -0.2047
 9374SOL     OW39754   3.393   1.821   7.809  0.3127 -0.2532 -0.4611
 9374SOL    HW139755   3.358   1.744   7.765  0.2096  1.1276 -2.7553
 9374SOL    HW239756   3.483   1.789   7.823 -0.1137 -2.1170 -2.0418
 9375SOL     OW39757   3.033   3.816   9.421  0.5356  0.0450  0.5230
 9375SOL    HW139758   2.977   3.740   9.413  2.3995 -1.1140 -1.4161
 9375SOL    HW239759   3.036   3.830   9.516  0.7111 -1.1004  0.6827
 9376SOL     OW39760   0.474   2.032   8.725  0.4757 -0.3961  0.1205
 9376SOL    HW139761   0.439   2.084   8.797 -0.6496  2.0406 -2.1544
 9376SOL    HW239762   0.490   2.101   8.660  1.4117  0.3065  1.0974
 9377SOL     OW39763   0.092   2.669   7.305 -0.1285 -0.3361  0.2174
 9377SOL    HW139764   0.030   2.718   7.251  0.3316  1.1539  1.0075
 9377SOL    HW239765   0.104   2.590   7.253 -2.1077  0.3581 -1.2666
 9378SOL     OW39766   4.571   3.135   1.718  0.1311 -0.3524  0.4256
 9378SOL    HW139767   4.495   3.170   1.671  1.3372  0.7540 -0.6961
 9378SOL    HW239768   4.618   3.218   1.711 -3.3005  1.7441  2.3144
 9379SOL     OW39769   2.904   2.911   3.061  0.1408  0.3907  0.2369
 9379SOL    HW139770   2.884   2.876   2.974 -0.7369 -0.1001  0.6307
 9379SOL    HW239771   2.989   2.871   3.080 -0.7850 -0.7691  1.9407
 9380SOL     OW39772   2.763   1.417   4.867 -0.2086 -0.6886 -0.6113
 9380SOL    HW139773   2.682   1.389   4.909 -0.1375  1.8521  1.2185
 9380SOL    HW239774   2.781   1.496   4.918 -1.6213 -0.3001 -0.7041
 9381SOL     OW39775   0.244   1.139   4.691 -0.3392  0.6579 -0.5211
 9381SOL    HW139776   0.252   1.153   4.786 -0.6522 -1.7950 -0.1377
 9381SOL    HW239777   0.302   1.066   4.672 -0.7309  0.0862  0.4544
 9382SOL     OW39778   2.579   3.333   3.023 -0.0008 -0.4200  0.1362
 9382SOL    HW139779   2.557   3.275   3.097  3.3902 -0.7458  0.8793
 9382SOL    HW239780   2.632   3.277   2.967 -0.4727  0.0819 -0.8117
 9383SOL     OW39781   1.253   0.742  13.949 -0.1091  0.0877  0.2597
 9383SOL    HW139782   1.241   0.656  13.991  0.9578 -0.9884 -1.6455
 9383SOL    HW239783   1.255   0.801  14.024 -0.0324 -0.0856  0.3939
 9384SOL     OW39784   1.067   2.074   8.317 -0.2213  0.1167  0.3319
 9384SOL    HW139785   1.058   2.107   8.227  0.6428 -1.8316 -0.4760
 9384SOL    HW239786   1.159   2.048   8.321 -0.0233  1.1950  2.3620
 9385SOL     OW39787   1.222   2.349   7.081 -0.1916 -0.6474  0.1650
 9385SOL    HW139788   1.306   2.362   7.126 -0.7040  0.3302  0.8201
 9385SOL    HW239789   1.223   2.253   7.085  0.4867 -0.6099  0.8383
 9386SOL     OW39790   4.000   3.420  16.252 -0.0351  0.6580 -0.1128
 9386SOL    HW139791   3.984   3.510  16.281 -1.5392  0.2799  0.2327
 9386SOL    HW239792   4.093   3.424  16.231 -0.3642  1.4640 -1.4079
 9387SOL     OW39793   3.258   2.729   2.604 -0.0616  0.1757 -0.0623
 9387SOL    HW139794   3.227   2.703   2.517  0.6535  1.7255 -0.7816
 9387SOL    HW239795   3.207   2.810   2.614 -1.2070 -0.4228 -1.0330
 9388SOL     OW39796   1.870   2.288   4.673 -0.9575  0.2752 -0.0724
 9388SOL    HW139797   1.840   2.357   4.614  0.2713  2.0962  1.4395
 9388SOL    HW239798   1.964   2.305   4.676 -0.8451 -0.0781 -1.6093
 9389SOL     OW39799   3.533   1.242   9.997 -0.2719 -0.0270  0.3737
 9389SOL    HW139800   3.514   1.235   9.904 -0.2108 -1.9960  0.5159
 9389SOL    HW239801   3.620   1.281   9.990 -0.3472 -0.0951 -1.0257
 9390SOL     OW39802   1.648   2.996   6.344  0.1487  0.1933 -0.2966
 9390SOL    HW139803   1.714   2.944   6.297  1.4558  0.7665  0.9105
 9390SOL    HW239804   1.678   3.085   6.325  1.9448 -0.4006 -0.2237
 9391SOL     OW39805   2.482   3.375   3.392 -0.1225  0.1876 -0.1814
 9391SOL    HW139806   2.535   3.454   3.381 -1.5429  1.1619  0.0047
 9391SOL    HW239807   2.479   3.367   3.487  3.6352 -0.8941 -0.1249
 9392SOL     OW39808   0.744   4.271   7.392 -0.0864  0.1685 -0.3470
 9392SOL    HW139809   0.654   4.295   7.415  0.5563  0.7887  1.5284
 9392SOL    HW239810   0.768   4.337   7.327  1.1579  0.5526  0.4994
 9393SOL     OW39811   0.267   0.183   9.524 -0.5601  0.2392  0.6393
 9393SOL    HW139812   0.202   0.114   9.513  1.4324 -1.5794  0.3229
 9393SOL    HW239813   0.295   0.163   9.614  2.4955 -0.2581 -0.4099
 9394SOL     OW39814   0.535   1.049   4.863 -0.3098 -0.0749  0.5008
 9394SOL    HW139815   0.516   0.960   4.894 -1.8345  0.4888  1.1404
 9394SOL    HW239816   0.467   1.098   4.908 -0.3987 -0.6359  0.9808
 9395SOL     OW39817   3.121   0.867   2.577  0.1570 -0.1705  0.2323
 9395SOL    HW139818   3.194   0.894   2.633  0.6468  0.0426 -0.5045
 9395SOL    HW239819   3.165   0.823   2.504  2.2830  0.9602  0.8197
 9396SOL     OW39820   2.028   2.118   2.007  0.2998  0.0610 -0.2264
 9396SOL    HW139821   2.039   2.107   1.912 -1.0219 -0.2079 -0.3527
 9396SOL    HW239822   2.005   2.211   2.007  1.4973  0.3541  1.5036
 9397SOL     OW39823   1.508   4.418   0.070  0.1632 -0.0088  0.3649
 9397SOL    HW139824   1.553   4.348   0.119 -0.9548 -0.5643  0.6054
 9397SOL    HW239825   1.524   4.495   0.124  1.5955  0.7543 -1.1719
 9398SOL     OW39826   1.750   1.819   3.781 -0.0743  0.3975 -0.3479
 9398SOL    HW139827   1.773   1.748   3.841  1.7728  1.8788  0.7218
 9398SOL    HW239828   1.824   1.877   3.800 -0.0624  0.2146  0.1710
 9399SOL     OW39829   0.454   1.955  17.515  0.0947 -0.1910 -0.8571
 9399SOL    HW139830   0.433   2.041  17.477 -4.9083 -0.9148  0.2669
 9399SOL    HW239831   0.455   1.900  17.436  0.1015  0.1084 -1.0667
 9400SOL     OW39832   1.821   2.326   7.974 -0.0817  0.0811  0.3167
 9400SOL    HW139833   1.875   2.298   8.048 -0.4921 -0.2546  0.4896
 9400SOL    HW239834   1.766   2.249   7.963  0.9711 -0.8971  1.8759
 9401SOL     OW39835   4.020   1.436   4.111  0.2198  0.3818 -0.1818
 9401SOL    HW139836   3.961   1.477   4.174 -3.3787 -1.1506 -2.5777
 9401SOL    HW239837   3.962   1.452   4.037 -0.9346 -0.6996  0.4921
 9402SOL     OW39838   1.751   4.010   6.200 -1.0383  0.1567 -0.2056
 9402SOL    HW139839   1.808   3.941   6.232 -0.4557  1.1250  0.8185
 9402SOL    HW239840   1.668   3.980   6.237  0.0925 -1.5721  0.9001
 9403SOL     OW39841   1.945   3.628  15.911 -0.3161 -0.3670  0.0602
 9403SOL    HW139842   1.856   3.650  15.941 -0.3655  0.4809 -0.7046
 9403SOL    HW239843   1.921   3.564  15.844 -1.7234 -0.3978  0.5803
 9404SOL     OW39844   3.217   0.014  13.112 -0.1552 -0.5757  0.0209
 9404SOL    HW139845   3.215   0.029  13.207 -0.1058  1.9391 -0.3764
 9404SOL    HW239846   3.254   0.095  13.079 -0.1953 -0.0853  1.1649
 9405SOL     OW39847   4.050   2.045   9.098 -0.2079 -0.6799 -0.1657
 9405SOL    HW139848   3.998   2.125   9.101 -1.5633 -1.5211 -1.3361
 9405SOL    HW239849   3.994   1.972   9.123  0.6170 -0.9186  0.9792
 9406SOL     OW39850   4.463   1.046   7.275 -0.2676  0.4292 -0.0521
 9406SOL    HW139851   4.497   1.097   7.349  2.5862 -2.0361  0.3148
 9406SOL    HW239852   4.376   1.086   7.274 -0.6129 -0.2901  0.9748
 9407SOL     OW39853   3.915   4.353   3.647  0.4014 -0.0836  0.2334
 9407SOL    HW139854   3.859   4.371   3.722  0.1730  1.8507 -0.3993
 9407SOL    HW239855   3.955   4.274   3.683  2.2585 -1.0440 -3.9417
 9408SOL     OW39856   2.972   2.458   0.731 -0.0937 -0.1643  0.1708
 9408SOL    HW139857   2.890   2.424   0.694 -0.1402 -1.3125  1.3435
 9408SOL    HW239858   3.012   2.383   0.775 -0.1839  0.2834  1.0036
 9409SOL     OW39859   1.488   1.887   7.261  0.7763 -0.3557 -0.3534
 9409SOL    HW139860   1.567   1.935   7.285  1.4528 -1.0183 -1.2699
 9409SOL    HW239861   1.471   1.842   7.344 -1.2026 -1.0975 -1.1607
 9410SOL     OW39862   4.049   0.564   6.361 -0.0158 -0.1792 -0.1763
 9410SOL    HW139863   4.092   0.504   6.423  1.2994 -0.6983 -1.5857
 9410SOL    HW239864   4.108   0.560   6.285  0.0153  0.6036 -0.1990
 9411SOL     OW39865   3.369   4.439   7.621 -0.4525 -0.3771 -0.0215
 9411SOL    HW139866   3.373   4.390   7.703 -0.4337  1.7594  1.2530
 9411SOL    HW239867   3.310   4.385   7.569  2.0681 -2.3224 -0.8153
 9412SOL     OW39868   3.122   0.187   0.610 -0.4771 -0.0264 -0.0673
 9412SOL    HW139869   3.068   0.255   0.651 -1.3045 -1.4948  1.2581
 9412SOL    HW239870   3.138   0.236   0.530  2.5094 -2.5705 -1.0169
 9413SOL     OW39871   2.434   0.113   9.337  0.0920 -0.0433  0.2647
 9413SOL    HW139872   2.421   0.083   9.427  2.0188  2.2562  1.3090
 9413SOL    HW239873   2.345   0.107   9.301 -0.3342  1.6800  1.0256
 9414SOL     OW39874   2.077   3.829   4.801  0.4215 -0.4068  0.3465
 9414SOL    HW139875   2.062   3.752   4.856  0.6976 -0.7656 -0.0815
 9414SOL    HW239876   2.133   3.880   4.859  1.5303 -0.3761 -0.7443
 9415SOL     OW39877   0.098   1.346  16.972  0.4508 -0.3488 -0.2302
 9415SOL    HW139878   0.148   1.414  16.927  1.0745 -1.6056 -1.4167
 9415SOL    HW239879   0.104   1.272  16.911  0.4715 -1.1558  0.7640
 9416SOL     OW39880   4.498   1.088  11.055  0.0387  0.4408 -0.0862
 9416SOL    HW139881   4.475   1.003  11.090  0.0733  0.2771 -0.4594
 9416SOL    HW239882   4.417   1.135  11.075  0.0822  0.3422  0.3135
 9417SOL     OW39883   1.534   2.569   6.742  0.1460  0.2643  0.2437
 9417SOL    HW139884   1.446   2.595   6.714  1.2022  2.1120 -1.3720
 9417SOL    HW239885   1.550   2.490   6.690 -0.6066 -0.3628  0.9690
 9418SOL     OW39886   1.046   2.055  11.563 -0.1359 -0.5055 -0.3248
 9418SOL    HW139887   1.002   2.136  11.536  1.1079 -1.1662 -4.3152
 9418SOL    HW239888   0.991   2.035  11.638 -1.8261  0.1104 -1.4080
 9419SOL     OW39889   2.177   2.902   9.319  0.4388 -0.0705 -0.3544
 9419SOL    HW139890   2.103   2.910   9.260  1.9824  1.2482 -2.0955
 9419SOL    HW239891   2.183   2.991   9.353 -3.1740 -0.7580  2.1379
 9420SOL     OW39892   1.500   1.559  14.579 -0.1610  0.0942 -0.0936
 9420SOL    HW139893   1.439   1.549  14.506 -1.9232 -2.4587  1.6734
 9420SOL    HW239894   1.442   1.595  14.646 -0.5616  0.0306 -0.4032
 9421SOL     OW39895   1.664   2.261  13.033  0.1020 -0.1362  0.3105
 9421SOL    HW139896   1.753   2.281  13.062 -0.2156  2.6028 -0.6145
 9421SOL    HW239897   1.629   2.277  13.120 -0.6955  0.3343 -0.0921
 9422SOL     OW39898   3.217   3.539  11.307 -0.1646 -0.0402  0.5172
 9422SOL    HW139899   3.257   3.456  11.331  2.5928  1.4595  1.2302
 9422SOL    HW239900   3.282   3.608  11.325 -0.9695  1.1583 -1.1533
 9423SOL     OW39901   2.103   2.322  13.320 -0.2000 -0.3394 -0.1479
 9423SOL    HW139902   2.185   2.277  13.297  0.7572  1.0758  0.4755
 9423SOL    HW239903   2.050   2.242  13.322  1.1451 -1.2202  0.4508
 9424SOL     OW39904   2.092   1.988   7.907 -0.1174  0.0434 -0.1490
 9424SOL    HW139905   2.105   2.081   7.926  1.6428  0.0316 -1.2378
 9424SOL    HW239906   2.185   1.965   7.913 -0.5547 -1.4249  0.8841
 9425SOL     OW39907   1.318   0.270   4.783 -0.8211  0.3200 -0.1251
 9425SOL    HW139908   1.379   0.211   4.738  0.8144  2.0667 -0.1642
 9425SOL    HW239909   1.286   0.328   4.715 -0.7072 -1.4526 -1.7100
 9426SOL     OW39910   2.167   4.609   7.934 -0.0947  0.0485  0.2230
 9426SOL    HW139911   2.126   4.590   8.019  1.1721 -0.6833  0.6751
 9426SOL    HW239912   2.165   4.532   7.877  0.2342 -0.2635  0.6363
 9427SOL     OW39913   0.450   2.346   1.118  0.0858 -0.2497  0.2542
 9427SOL    HW139914   0.373   2.323   1.066 -0.1020 -3.9123  2.1871
 9427SOL    HW239915   0.507   2.272   1.096 -0.4064 -0.2200 -1.1264
 9428SOL     OW39916   4.314   2.166   2.221  0.2061  0.2049 -0.0569
 9428SOL    HW139917   4.328   2.072   2.211 -1.3175 -0.0189 -0.1798
 9428SOL    HW239918   4.233   2.165   2.169  0.1508  0.3574  0.0257
 9429SOL     OW39919   1.479   3.816   4.854 -0.4184  0.0407 -0.0408
 9429SOL    HW139920   1.482   3.731   4.899  5.3391  0.1487 -0.3278
 9429SOL    HW239921   1.562   3.857   4.875 -1.5449  1.6492  1.2866
 9430SOL     OW39922   0.306   0.463   3.903 -0.1059  0.1856  0.3436
 9430SOL    HW139923   0.388   0.418   3.924 -0.9061 -1.1240  0.6476
 9430SOL    HW239924   0.266   0.468   3.989  1.5051  2.3725  0.9742
 9431SOL     OW39925   0.942   1.499   6.172 -0.6754 -0.3744  0.0070
 9431SOL    HW139926   0.871   1.562   6.161 -1.1298 -0.9417 -0.3209
 9431SOL    HW239927   0.905   1.428   6.119  0.2218  0.9822 -2.4687
 9432SOL     OW39928   4.592   2.014  10.658  0.5366 -0.1062 -0.0331
 9432SOL    HW139929   4.523   2.003  10.723 -0.6472  2.3635 -0.8618
 9432SOL    HW239930   4.666   2.028  10.717 -1.3506  1.1264  2.0180
 9433SOL     OW39931   2.325   1.739  16.477 -0.1195  0.6619  0.1623
 9433SOL    HW139932   2.342   1.674  16.545  2.2832  1.4437  0.2878
 9433SOL    HW239933   2.380   1.714  16.403  0.2971 -1.0489  1.0522
 9434SOL     OW39934   2.016   3.494   0.689  0.3551 -0.4996 -0.3326
 9434SOL    HW139935   2.022   3.442   0.609  3.4590 -1.0942  0.2572
 9434SOL    HW239936   2.055   3.575   0.656 -2.0394  1.1039  0.8307
 9435SOL     OW39937   4.296   1.344   0.903  0.1805  0.0355  0.1519
 9435SOL    HW139938   4.272   1.254   0.878 -0.7420  0.5435 -0.7744
 9435SOL    HW239939   4.243   1.386   0.836  0.4662 -0.5238 -0.4238
 9436SOL     OW39940   0.688   3.186   2.047  0.4515 -0.1700 -0.8368
 9436SOL    HW139941   0.777   3.175   2.014  0.3220  2.4336 -2.1031
 9436SOL    HW239942   0.673   3.108   2.100  0.6363  0.5026  0.2000
 9437SOL     OW39943   4.187   2.249   8.709 -0.5047 -0.1677 -0.4380
 9437SOL    HW139944   4.164   2.341   8.720 -0.7998 -0.3449  0.4292
 9437SOL    HW239945   4.228   2.216   8.788  1.0157  1.6411 -0.4844
 9438SOL     OW39946   0.344   3.837   6.022  0.2051 -0.1065 -0.5668
 9438SOL    HW139947   0.436   3.818   6.042  0.0353 -0.7082 -0.3400
 9438SOL    HW239948   0.307   3.751   6.001 -0.4593  0.5762 -2.2194
 9439SOL     OW39949   0.158   1.768   1.831 -0.0158  0.3241 -0.0632
 9439SOL    HW139950   0.098   1.729   1.767 -0.4364  0.2481  0.3765
 9439SOL    HW239951   0.242   1.753   1.789  0.0102 -0.8376  0.4186
 9440SOL     OW39952   2.242   1.403   9.498  0.3721  0.6382  0.4768
 9440SOL    HW139953   2.187   1.437   9.568 -2.3935 -0.8667 -0.9267
 9440SOL    HW239954   2.174   1.350   9.454 -0.3911  0.3500  2.0167
 9441SOL     OW39955   3.026   2.410   7.819  0.5786 -0.3896 -0.6053
 9441SOL    HW139956   2.975   2.477   7.773  0.9117  0.3238  0.0500
 9441SOL    HW239957   3.041   2.339   7.757  0.2155  0.2136 -1.3958
 9442SOL     OW39958   3.633   0.328   4.099 -0.0231 -0.1590 -1.0949
 9442SOL    HW139959   3.552   0.346   4.051 -0.1737  2.4302  0.1152
 9442SOL    HW239960   3.688   0.282   4.035  0.3696 -0.6472 -0.4042
 9443SOL     OW39961   4.607   2.331   4.002  0.1735  0.7978  0.5323
 9443SOL    HW139962   4.564   2.252   3.970  0.4582  0.7067  0.3754
 9443SOL    HW239963   4.696   2.299   4.015  0.3386  1.6542  1.5636
 9444SOL     OW39964   4.001   1.709   5.345 -0.5219  0.3206  0.4685
 9444SOL    HW139965   3.914   1.677   5.323  0.9008 -2.8463 -0.6349
 9444SOL    HW239966   4.019   1.668   5.430  1.7143 -1.1374 -0.7111
 9445SOL     OW39967   4.000   3.140  11.361 -0.4722 -0.3771  0.3099
 9445SOL    HW139968   3.998   3.189  11.443  2.0982 -3.1542  2.0508
 9445SOL    HW239969   4.039   3.202  11.299 -1.7884  0.1047 -0.0350
 9446SOL     OW39970   1.113   4.469   7.760 -0.1063  0.1177 -0.0486
 9446SOL    HW139971   1.133   4.459   7.667  1.9398 -1.6641  0.5799
 9446SOL    HW239972   1.193   4.507   7.796  0.3226 -1.5168  0.7167
 9447SOL     OW39973   4.420   0.798   4.676  0.3089 -0.0131 -0.1901
 9447SOL    HW139974   4.401   0.869   4.615  2.3332  0.5426 -0.1807
 9447SOL    HW239975   4.431   0.733   4.607 -0.2654  0.4268 -0.6869
 9448SOL     OW39976   0.308   1.337   3.794  0.4731 -0.0745 -0.2172
 9448SOL    HW139977   0.391   1.302   3.760  2.2637  1.0420  3.0188
 9448SOL    HW239978   0.273   1.388   3.720  1.5330  0.7687 -0.1361
 9449SOL     OW39979   1.853   2.368  16.018 -0.1803 -0.4502 -0.4199
 9449SOL    HW139980   1.920   2.417  16.065 -0.7593  0.4802 -0.5619
 9449SOL    HW239981   1.830   2.296  16.077  0.6456  1.3294  2.0887
 9450SOL     OW39982   2.101   3.080   7.162  0.2024  0.0438 -0.3788
 9450SOL    HW139983   2.022   3.080   7.216 -0.3028  0.7695 -1.1223
 9450SOL    HW239984   2.107   2.987   7.143  0.8857  0.0557 -0.2305
 9451SOL     OW39985   3.925   2.431   4.302  0.2727 -0.2434 -0.2026
 9451SOL    HW139986   3.910   2.522   4.276 -1.4978 -0.3169  0.5689
 9451SOL    HW239987   3.983   2.410   4.229 -1.5908 -0.1856 -1.6773
 9452SOL     OW39988   2.800   2.747   8.243  0.0482  0.7143 -0.6131
 9452SOL    HW139989   2.778   2.730   8.334  1.0958  0.4496 -0.4194
 9452SOL    HW239990   2.733   2.699   8.193  0.5648  0.6583 -1.2405
 9453SOL     OW39991   2.953   3.893   6.291  0.0144 -0.3236  0.1322
 9453SOL    HW139992   2.980   3.823   6.350  2.1696 -0.5902 -1.1389
 9453SOL    HW239993   2.858   3.899   6.289 -0.0480 -1.3217  0.3227
 9454SOL     OW39994   0.715   1.786   3.023  0.6781  0.2821  0.8377
 9454SOL    HW139995   0.620   1.798   3.020  1.0573  2.3134 -2.5584
 9454SOL    HW239996   0.758   1.862   3.063  1.6903  0.5771 -0.8230
 9455SOL     OW39997   0.815   0.097   4.615  0.8346 -0.2989 -0.1008
 9455SOL    HW139998   0.793   0.141   4.533 -1.1371 -0.8896  0.0921
 9455SOL    HW239999   0.907   0.077   4.599  0.7980  0.5089 -1.3029
 9456SOL     OW40000   4.545   4.731   2.419  0.0881  0.4577 -0.8410
 9456SOL    HW140001   4.470   0.054   2.443  0.1982  0.0864  0.3592
 9456SOL    HW240002   4.595   4.722   2.500  0.9972  0.7955 -1.3570
 9457SOL     OW40003   1.950   2.197  11.937  0.7605 -0.1868  0.6273
 9457SOL    HW140004   1.922   2.281  11.973 -1.0862  0.0288 -1.3280
 9457SOL    HW240005   2.036   2.189  11.978  0.8061 -0.7789  0.4172
 9458SOL     OW40006   1.411   4.198   8.358 -0.1636 -0.0407 -0.0848
 9458SOL    HW140007   1.373   4.269   8.411  0.4358  0.3311 -0.1579
 9458SOL    HW240008   1.481   4.240   8.309 -1.1480  1.0074 -0.5897
 9459SOL     OW40009   2.256   2.433   2.835  0.6561  0.1464  0.3271
 9459SOL    HW140010   2.188   2.368   2.855  0.7089 -0.0962 -0.2751
 9459SOL    HW240011   2.211   2.470   2.759  0.9962 -1.4218 -0.6501
 9460SOL     OW40012   0.077   2.059   0.289  0.0751 -0.3311 -0.9803
 9460SOL    HW140013   0.090   2.077   0.382 -1.3885 -0.3331 -0.7818
 9460SOL    HW240014   0.125   2.134   0.254 -0.6728  0.5988  0.0011
 9461SOL     OW40015   3.894   3.679   2.624 -0.1584  0.2520 -0.0929
 9461SOL    HW140016   3.948   3.602   2.643  0.6572  1.0738  0.8730
 9461SOL    HW240017   3.957   3.747   2.602  1.5948 -1.2583  0.2847
 9462SOL     OW40018   2.077   1.956  15.427 -0.2630  0.0177 -0.1664
 9462SOL    HW140019   2.048   1.986  15.341  1.6738  0.7466 -0.5584
 9462SOL    HW240020   2.016   1.997  15.488 -0.6501  0.4921 -0.8760
 9463SOL     OW40021   2.793   2.003  15.775 -0.0367  0.4566 -0.0662
 9463SOL    HW140022   2.854   1.936  15.744 -0.5004 -0.4517  1.0002
 9463SOL    HW240023   2.708   1.976  15.741 -0.8313  1.6513  0.9847
 9464SOL     OW40024   1.991   3.555  14.591 -0.2437  0.0795  0.2054
 9464SOL    HW140025   1.971   3.509  14.509  0.4770  1.5951 -0.8348
 9464SOL    HW240026   1.911   3.593  14.625 -0.6458 -1.4112  0.9370
 9465SOL     OW40027   0.083   4.063   7.740 -0.3773  0.2067 -0.3764
 9465SOL    HW140028   0.066   4.056   7.646  0.6025 -0.9958 -0.4564
 9465SOL    HW240029   0.177   4.049   7.748 -0.2819  0.0409 -1.8192
 9466SOL     OW40030   2.568   3.939   6.844 -0.0020 -0.1766 -0.3846
 9466SOL    HW140031   2.638   3.956   6.907 -1.5159  1.5269  0.8443
 9466SOL    HW240032   2.597   3.990   6.770  1.6203 -0.4439  0.0796
 9467SOL     OW40033   0.783   1.391  10.559  0.3984  0.3612 -0.3700
 9467SOL    HW140034   0.813   1.411  10.648 -0.9424  1.2876 -0.1198
 9467SOL    HW240035   0.709   1.453  10.560  1.1314  1.2239  0.3794
 9468SOL     OW40036   2.645   0.143   4.417 -1.0957  0.3347 -0.2522
 9468SOL    HW140037   2.728   0.114   4.379 -0.9114 -0.8856  1.1038
 9468SOL    HW240038   2.593   0.129   4.338 -2.2584 -2.4913  1.0232
 9469SOL     OW40039   3.153   1.374   7.836  1.0745  0.6735  0.1991
 9469SOL    HW140040   3.209   1.296   7.844  1.0507  0.8174  1.7968
 9469SOL    HW240041   3.112   1.353   7.752 -0.0067  0.9225  0.6759
 9470SOL     OW40042   1.053   3.487  10.069 -0.3617 -0.4001 -0.8162
 9470SOL    HW140043   1.044   3.393  10.054 -1.0720 -0.7849  2.0714
 9470SOL    HW240044   0.982   3.536  10.028 -1.6799 -0.6617  1.2128
 9471SOL     OW40045   4.010   0.458  10.885  0.8662 -0.5672  0.0496
 9471SOL    HW140046   4.100   0.487  10.867  0.4542  0.6215 -0.0329
 9471SOL    HW240047   3.994   0.465  10.979  0.6699  1.9054 -0.1804
 9472SOL     OW40048   3.076   3.175   1.465  0.3775  0.8025 -0.1884
 9472SOL    HW140049   3.121   3.228   1.399 -1.1248  2.0212 -0.2382
 9472SOL    HW240050   2.999   3.230   1.480  0.2561  0.3399  0.8667
 9473SOL     OW40051   2.560   3.169   3.247  0.0791 -0.3575  0.0450
 9473SOL    HW140052   2.535   3.229   3.317  0.6859  0.4070 -0.3860
 9473SOL    HW240053   2.510   3.092   3.273  2.3457 -1.5120  0.8894
 9474SOL     OW40054   0.633   0.379   8.260  0.7925 -0.0576 -0.5426
 9474SOL    HW140055   0.659   0.453   8.314  1.5612 -1.4490  0.9661
 9474SOL    HW240056   0.597   0.424   8.184 -3.4912 -0.1584  1.4170
 9475SOL     OW40057   4.514   1.199   6.505  0.1232 -0.0723 -0.1586
 9475SOL    HW140058   4.599   1.161   6.482 -0.4406 -1.0974 -0.5478
 9475SOL    HW240059   4.463   1.160   6.435 -1.1184 -1.7035  1.6460
 9476SOL     OW40060   0.545   2.248   4.780 -0.2707  0.0503  0.0912
 9476SOL    HW140061   0.498   2.197   4.846 -1.3744  0.2128 -0.5755
 9476SOL    HW240062   0.630   2.268   4.819 -1.3454  3.5308  0.5729
 9477SOL     OW40063   2.378   3.254   5.593 -0.5419 -0.2742  0.6844
 9477SOL    HW140064   2.370   3.305   5.674 -1.1444 -0.4510  0.7314
 9477SOL    HW240065   2.473   3.240   5.601 -0.3317 -0.1575 -1.5109
 9478SOL     OW40066   2.360   4.107   6.047 -0.1765  0.3332  0.6614
 9478SOL    HW140067   2.288   4.120   6.110 -0.0632 -0.3552  0.9384
 9478SOL    HW240068   2.341   4.165   5.974 -0.5441  1.9702  2.0533
 9479SOL     OW40069   4.598   4.047   7.893  0.3903 -0.2175  0.4541
 9479SOL    HW140070   4.557   3.979   7.840 -0.4499  0.0079  0.8188
 9479SOL    HW240071   4.682   4.058   7.848  0.4808 -1.4225  0.3219
 9480SOL     OW40072   0.445   1.604   7.854  0.1725  0.3749  0.6799
 9480SOL    HW140073   0.456   1.645   7.940 -1.5731 -0.9012  1.5137
 9480SOL    HW240074   0.486   1.519   7.871  1.6178  0.6709 -1.3764
 9481SOL     OW40075   0.612   0.968   7.550 -0.3381 -0.5611  0.1085
 9481SOL    HW140076   0.604   0.874   7.538 -3.6123 -0.5079  1.9843
 9481SOL    HW240077   0.523   0.991   7.525  0.4824 -0.3200 -2.5751
 9482SOL     OW40078   4.066   2.483   8.455 -0.5572 -0.1182  0.0839
 9482SOL    HW140079   4.031   2.550   8.396  0.2867 -0.7128 -1.0900
 9482SOL    HW240080   3.992   2.424   8.436 -1.1069  0.0425  1.6926
 9483SOL     OW40081   0.945   0.667  17.616  0.4011 -0.5655 -0.5653
 9483SOL    HW140082   1.029   0.686  17.573  1.9007 -0.2127  2.4931
 9483SOL    HW240083   0.949   0.572  17.611  0.2004 -0.5782 -0.4809
 9484SOL     OW40084   3.187   3.989   0.480 -0.2977 -0.3169 -0.5170
 9484SOL    HW140085   3.178   3.990   0.384  2.1953  0.0557 -0.7504
 9484SOL    HW240086   3.246   4.064   0.474  0.9451 -1.4518 -2.4997
 9485SOL     OW40087   2.097   0.099   5.776 -0.0048  0.9010 -0.1353
 9485SOL    HW140088   2.156   0.158   5.823  2.4566 -1.7570  0.1031
 9485SOL    HW240089   2.161   0.058   5.718 -0.5780 -0.2490  0.0424
 9486SOL     OW40090   3.929   0.552  10.159  0.0328 -0.2712  0.0298
 9486SOL    HW140091   3.935   0.459  10.184  1.5508 -0.5361 -1.3558
 9486SOL    HW240092   3.975   0.543  10.076 -2.3954  3.7420 -1.7478
 9487SOL     OW40093   2.258   3.747   6.485  0.5465  0.6120 -0.1699
 9487SOL    HW140094   2.239   3.654   6.483 -4.5072  1.7000 -1.2567
 9487SOL    HW240095   2.167   3.777   6.492 -0.3191 -2.0023 -0.2219
 9488SOL     OW40096   1.396   1.167   1.901 -0.1877 -0.1726  0.3547
 9488SOL    HW140097   1.490   1.178   1.887 -0.2776 -0.3553 -0.4222
 9488SOL    HW240098   1.390   1.117   1.982  0.8956 -0.5884  0.1717
 9489SOL     OW40099   4.633   3.029   5.594 -0.0211 -0.0781 -0.6049
 9489SOL    HW140100   4.647   3.055   5.685  0.2845 -0.3356 -0.5763
 9489SOL    HW240101   4.540   3.015   5.611  0.0763  0.3877  0.3183
 9490SOL     OW40102   0.605   2.847   5.047  0.0706 -0.2996 -0.3593
 9490SOL    HW140103   0.615   2.758   5.015  1.4718  0.3593 -1.7767
 9490SOL    HW240104   0.517   2.839   5.081  0.7641  1.0563  1.7538
 9491SOL     OW40105   0.827   1.269   6.036 -0.0850 -0.0812  0.0055
 9491SOL    HW140106   0.767   1.287   5.963 -0.9785  2.1653  1.2885
 9491SOL    HW240107   0.776   1.206   6.087  1.0950 -0.2665  0.9633
 9492SOL     OW40108   0.692   0.422   4.364 -0.4448 -0.0353  0.5190
 9492SOL    HW140109   0.663   0.377   4.444 -1.0917  1.5713  1.1938
 9492SOL    HW240110   0.779   0.444   4.398  0.8904 -0.0969 -2.8775
 9493SOL     OW40111   0.869   4.322   6.109 -0.2862 -0.0506  0.4730
 9493SOL    HW140112   0.793   4.363   6.067 -0.1795 -1.3464 -1.0173
 9493SOL    HW240113   0.938   4.388   6.110 -1.9368  1.6408  2.2411
 9494SOL     OW40114   2.111   3.345   8.407 -0.1884 -0.0331 -0.3944
 9494SOL    HW140115   2.098   3.431   8.448 -0.9499 -0.3400  0.0142
 9494SOL    HW240116   2.064   3.342   8.324  0.5039  1.1634 -0.8221
 9495SOL     OW40117   2.879   0.015   2.432 -0.9350  0.3660 -0.1535
 9495SOL    HW140118   2.837   0.068   2.500  0.9309  1.3655  0.2289
 9495SOL    HW240119   2.815   4.719   2.368  1.2286 -2.6855 -0.9894
 9496SOL     OW40120   1.596   0.269   9.846 -0.1562 -0.4631 -0.2153
 9496SOL    HW140121   1.657   0.252   9.918 -0.5210  1.1488  0.4811
 9496SOL    HW240122   1.549   0.186   9.848 -1.2604  0.1038 -2.0461
 9497SOL     OW40123   0.241   4.570  10.134 -0.5219  0.2834 -0.0134
 9497SOL    HW140124   0.325   4.604  10.103 -0.3263  0.7388  0.9960
 9497SOL    HW240125   0.254   4.476  10.139  0.3889  0.4452  0.7476
 9498SOL     OW40126   0.229   0.414   4.181  0.4204  0.9213 -0.1451
 9498SOL    HW140127   0.138   0.417   4.212 -0.2650 -0.5480 -1.9895
 9498SOL    HW240128   0.269   0.477   4.240  0.8563 -0.6277  1.2107
 9499SOL     OW40129   2.959   4.074   5.585  0.4648 -0.2839 -0.4218
 9499SOL    HW140130   2.935   3.985   5.612 -0.4374 -0.0892 -0.5934
 9499SOL    HW240131   2.985   4.066   5.493 -0.3260 -2.7816 -0.4366
 9500SOL     OW40132   2.421   3.998   8.918  0.6559 -0.3350  0.5676
 9500SOL    HW140133   2.357   4.022   8.984  0.6117 -3.6652  1.7679
 9500SOL    HW240134   2.388   3.922   8.870  2.3616 -1.1766  0.7017
 9501SOL     OW40135   4.148   4.550  16.706  0.0279 -0.0743  0.7937
 9501SOL    HW140136   4.242   4.534  16.709  0.0579  0.1805  1.2057
 9501SOL    HW240137   4.150   4.547  16.802 -1.6255 -2.7584  0.7656
 9502SOL     OW40138   2.340   0.711   2.420  0.4136  0.3010 -0.3579
 9502SOL    HW140139   2.328   0.756   2.504 -0.7194 -2.0266  0.7490
 9502SOL    HW240140   2.249   0.690   2.401 -0.1093  3.6591 -1.5160
 9503SOL     OW40141   1.296   4.079   1.889  0.3201  0.2283  0.0803
 9503SOL    HW140142   1.257   3.992   1.881 -0.1740  0.4200  0.4282
 9503SOL    HW240143   1.359   4.064   1.960  0.6084 -0.5954 -0.3389
 9504SOL     OW40144   0.087   3.802   4.107  0.3371  0.1373  0.1250
 9504SOL    HW140145   4.727   3.820   4.091  0.2413 -1.3407 -0.9732
 9504SOL    HW240146   0.098   3.719   4.060  0.9219 -0.3537  1.1196
 9505SOL     OW40147   2.824   0.379   5.716 -0.1708 -0.7155 -0.0073
 9505SOL    HW140148   2.792   0.382   5.806  1.4679  1.3268  0.5031
 9505SOL    HW240149   2.919   0.381   5.728  0.0845  0.2143 -2.0550
 9506SOL     OW40150   1.001   4.346  15.668  0.4319 -0.3184  0.0205
 9506SOL    HW140151   1.075   4.340  15.728  2.6595 -2.8371 -2.9524
 9506SOL    HW240152   0.996   4.437  15.640  1.9022  0.2067  1.4503
 9507SOL     OW40153   3.162   2.473   6.834  0.3126  0.0288  0.1317
 9507SOL    HW140154   3.120   2.549   6.793 -1.1456 -1.0465 -0.3419
 9507SOL    HW240155   3.154   2.502   6.925 -0.3013  1.7398 -0.4635
 9508SOL     OW40156   4.379   3.911   2.508  0.4367 -0.3400  0.2769
 9508SOL    HW140157   4.382   3.998   2.469  2.0428 -1.1081 -1.2961
 9508SOL    HW240158   4.472   3.891   2.501  0.3240 -0.4359 -0.8847
 9509SOL     OW40159   0.577   1.654   8.799  0.4695 -0.6708 -0.4335
 9509SOL    HW140160   0.494   1.677   8.759  1.9927  1.8669 -2.1646
 9509SOL    HW240161   0.579   1.722   8.866  0.2017 -1.3623  0.2692
 9510SOL     OW40162   2.953   0.796   2.313 -0.3474 -0.3965 -0.3833
 9510SOL    HW140163   3.048   0.799   2.323 -0.1881 -1.4068 -1.4809
 9510SOL    HW240164   2.937   0.742   2.235 -0.4983 -0.9749  0.0496
 9511SOL     OW40165   1.110   1.286   2.677 -0.2847 -0.4843 -0.9628
 9511SOL    HW140166   1.170   1.297   2.603  0.0678  2.3590 -0.2505
 9511SOL    HW240167   1.111   1.375   2.712  0.1386 -0.5626 -0.7794
 9512SOL     OW40168   4.256   1.374   6.721  0.1043  0.1353  0.3660
 9512SOL    HW140169   4.222   1.404   6.636  1.0373  1.7871  0.5739
 9512SOL    HW240170   4.346   1.407   6.714  0.4383 -0.5288  1.5949
 9513SOL     OW40171   2.311   3.914  13.325  0.0370  0.1119  0.7785
 9513SOL    HW140172   2.368   3.973  13.374  0.6481  0.2306 -0.0783
 9513SOL    HW240173   2.367   3.865  13.264 -0.8607 -0.0020  0.0505
 9514SOL     OW40174   1.606   3.727   8.875 -0.3127 -0.2601 -0.8817
 9514SOL    HW140175   1.543   3.729   8.803  0.0504 -0.6162 -1.2113
 9514SOL    HW240176   1.686   3.740   8.824  0.9928 -2.7253  0.5285
 9515SOL     OW40177   4.086   3.763  10.528 -0.0713  0.0569 -0.4590
 9515SOL    HW140178   4.088   3.817  10.449 -0.2993  1.1882  0.2943
 9515SOL    HW240179   3.993   3.738  10.527  0.4601 -1.8610 -1.2181
 9516SOL     OW40180   1.817   1.879  12.069  0.2959  0.4754  0.5229
 9516SOL    HW140181   1.797   1.959  12.019  2.6043  0.1616 -0.9330
 9516SOL    HW240182   1.845   1.819  12.000  1.1855 -0.2902  1.5547
 9517SOL     OW40183   3.307   3.808   5.454 -0.0116 -0.1178 -0.2730
 9517SOL    HW140184   3.307   3.879   5.391 -0.2100 -1.3749 -1.6742
 9517SOL    HW240185   3.257   3.843   5.528  0.2696 -1.8543  0.7507
 9518SOL     OW40186   2.999   4.374   1.824 -0.0949 -0.0147 -0.5105
 9518SOL    HW140187   2.909   4.384   1.855 -0.5789 -0.8089 -1.6798
 9518SOL    HW240188   2.994   4.280   1.811 -0.3391  0.1194 -1.3841
 9519SOL     OW40189   1.789   3.746   5.680  0.4176  0.1292 -0.0417
 9519SOL    HW140190   1.845   3.814   5.644  1.1610  0.1735  1.1931
 9519SOL    HW240191   1.815   3.677   5.619  0.1295  0.7413 -0.8496
 9520SOL     OW40192   4.216   1.147  11.631 -0.0473 -0.1137 -0.0706
 9520SOL    HW140193   4.207   1.101  11.715  2.7368  0.2797  0.4466
 9520SOL    HW240194   4.257   1.073  11.588  0.7727  0.6660 -0.6206
 9521SOL     OW40195   4.130   3.740  11.344 -0.1906 -0.3944 -0.6545
 9521SOL    HW140196   4.125   3.813  11.406  2.1976 -0.3726 -0.4974
 9521SOL    HW240197   4.223   3.732  11.323  0.1584 -1.2165  1.2779
 9522SOL     OW40198   2.828   0.834   6.048  0.4145 -0.7343 -0.6512
 9522SOL    HW140199   2.904   0.891   6.053 -1.6209  1.6697  2.0810
 9522SOL    HW240200   2.850   0.776   5.974 -1.0860 -0.5730 -1.2273
 9523SOL     OW40201   1.493   0.267   4.173  0.1158 -0.0731 -0.6933
 9523SOL    HW140202   1.467   0.352   4.208  0.5843 -1.3034  2.5753
 9523SOL    HW240203   1.580   0.281   4.137  0.1508  0.4610 -0.4016
 9524SOL     OW40204   3.388   4.625  11.502 -0.0766 -0.5198 -0.3138
 9524SOL    HW140205   3.480   4.610  11.521  0.0725  0.0054 -0.6114
 9524SOL    HW240206   3.390   4.721  11.493 -1.5763 -0.4382  0.1028
 9525SOL     OW40207   1.912   3.711   8.825 -0.2434  0.0307  0.2184
 9525SOL    HW140208   1.910   3.636   8.767  1.1966  0.7660 -0.7954
 9525SOL    HW240209   1.886   3.790   8.777 -1.1992 -1.2595 -1.3467
 9526SOL     OW40210   2.501   2.134  17.667  0.0153 -0.7658 -0.3169
 9526SOL    HW140211   2.427   2.073  17.671 -0.3309 -0.3811 -0.7883
 9526SOL    HW240212   2.576   2.074  17.660  0.7785  0.0407  0.9306
 9527SOL     OW40213   3.029   4.104   3.455  0.1775  0.2784  0.1149
 9527SOL    HW140214   3.104   4.050   3.480  0.9084  1.7603  1.1611
 9527SOL    HW240215   3.043   4.119   3.362 -1.3735  0.3440 -0.1145
 9528SOL     OW40216   1.382   2.033   5.965  0.7522 -0.6345 -0.1714
 9528SOL    HW140217   1.456   1.998   5.915  2.3454  1.2828  0.8099
 9528SOL    HW240218   1.414   2.029   6.056 -0.0610  0.2041  0.1558
 9529SOL     OW40219   0.106   0.381   8.458 -0.4648 -0.0473  0.1008
 9529SOL    HW140220   0.074   0.442   8.525  1.2303  1.6185 -0.5964
 9529SOL    HW240221   0.042   0.396   8.388  1.3391  0.4429 -1.4278
 9530SOL     OW40222   1.635   2.937  12.617  0.1292 -0.2560  0.1986
 9530SOL    HW140223   1.547   2.918  12.584 -0.9952  1.6337  2.1549
 9530SOL    HW240224   1.652   2.884  12.695 -0.6946  0.8968  1.1492
 9531SOL     OW40225   2.588   4.542  10.517  0.7497 -0.1935 -0.0458
 9531SOL    HW140226   2.532   4.570  10.590  0.0643 -0.0928 -0.6098
 9531SOL    HW240227   2.586   4.618  10.460  0.3708 -0.9651 -1.0679
 9532SOL     OW40228   0.333   1.749   1.377 -0.1897 -0.0508 -0.3257
 9532SOL    HW140229   0.422   1.783   1.385 -0.8894  0.7851  3.8977
 9532SOL    HW240230   0.352   1.658   1.355 -0.3052  0.1439 -1.2350
 9533SOL     OW40231   4.696   1.796  16.965  0.4014  0.2125  0.2561
 9533SOL    HW140232   4.651   1.712  16.977 -1.4812  1.0189 -1.1001
 9533SOL    HW240233   0.005   1.802  17.050  2.4431  1.0750 -0.8077
 9534SOL     OW40234   2.340   1.401   4.884 -0.2396 -0.3410 -0.2940
 9534SOL    HW140235   2.405   1.425   4.818  1.9902 -2.5091  1.0569
 9534SOL    HW240236   2.308   1.316   4.852 -1.1944 -0.4076  0.8369
 9535SOL     OW40237   3.915   2.693   0.776  0.3267 -0.0780 -0.1796
 9535SOL    HW140238   3.859   2.737   0.713  2.4874  2.7066 -0.1432
 9535SOL    HW240239   4.005   2.723   0.761  0.2798 -0.3173 -0.9387
 9536SOL     OW40240   2.124   3.260   7.728  0.1526 -0.0685 -0.1489
 9536SOL    HW140241   2.062   3.333   7.719 -1.4732 -1.4906 -0.5490
 9536SOL    HW240242   2.070   3.223   7.798 -0.7929  1.7645  0.0876
 9537SOL     OW40243   3.915   4.607   4.753 -0.2212  0.0736 -0.4691
 9537SOL    HW140244   4.002   4.575   4.776 -1.1482 -1.9742  0.1733
 9537SOL    HW240245   3.895   4.549   4.679 -1.1766 -0.4226  0.1722
 9538SOL     OW40246   1.058   3.763   1.228 -1.1442 -0.1269 -0.0917
 9538SOL    HW140247   1.010   3.788   1.306 -0.3945  1.8965 -0.2668
 9538SOL    HW240248   1.141   3.726   1.257 -1.9012 -0.2473  1.9151
 9539SOL     OW40249   1.645   3.754   2.947  0.2153 -0.4604  0.5046
 9539SOL    HW140250   1.577   3.705   2.993 -0.3777 -0.1789 -0.0789
 9539SOL    HW240251   1.594   3.788   2.874 -0.9120 -1.7361  0.6954
 9540SOL     OW40252   2.841   4.079   8.394  0.6190  0.3455 -0.0572
 9540SOL    HW140253   2.763   4.027   8.414  1.2412 -0.3796  0.4649
 9540SOL    HW240254   2.839   4.079   8.298  0.7869  2.6885 -0.0564
 9541SOL     OW40255   1.090   2.475  13.749  0.0743 -0.4015 -0.6793
 9541SOL    HW140256   1.067   2.474  13.842 -1.4261  2.8607 -1.0150
 9541SOL    HW240257   1.122   2.385  13.744  0.6810 -0.2296  0.0488
 9542SOL     OW40258   0.142   0.890   8.477 -0.3184 -0.1762  0.5589
 9542SOL    HW140259   0.186   0.935   8.548 -1.4112 -1.2876  1.9492
 9542SOL    HW240260   0.098   0.970   8.450 -2.7441 -0.8349  2.5045
 9543SOL     OW40261   3.715   3.198   6.561  0.1040  0.4232  0.4768
 9543SOL    HW140262   3.708   3.162   6.650 -0.6444 -2.5369 -0.7877
 9543SOL    HW240263   3.797   3.243   6.580  0.2802  1.0844 -1.8943
 9544SOL     OW40264   2.445   0.360   4.446 -0.0435 -0.6024  0.3573
 9544SOL    HW140265   2.494   0.300   4.501 -0.2121 -0.2572  0.8826
 9544SOL    HW240266   2.519   0.379   4.388  0.6353 -0.9804  1.0991
 9545SOL     OW40267   1.065   2.163   8.035  0.1399 -0.5693 -0.1415
 9545SOL    HW140268   1.147   2.135   7.995 -0.2235  0.2180 -1.4515
 9545SOL    HW240269   1.010   2.119   7.970  0.1418  0.7659 -1.0414
 9546SOL     OW40270   4.163   2.834   3.904 -0.0294  0.3263 -0.6293
 9546SOL    HW140271   4.185   2.857   3.995 -0.9956 -1.0139 -0.0500
 9546SOL    HW240272   4.172   2.919   3.861 -0.9256 -0.4118 -2.2443
 9547SOL     OW40273   1.116   2.052   9.022 -0.8385  0.5479  0.3370
 9547SOL    HW140274   1.069   2.089   9.097 -1.1459  0.5227  0.1607
 9547SOL    HW240275   1.177   2.122   9.000  0.0003 -0.4331 -0.4279
 9548SOL     OW40276   1.409   2.679  17.306 -0.1458 -0.3352 -0.3051
 9548SOL    HW140277   1.379   2.600  17.260 -1.0042 -0.3601  0.3091
 9548SOL    HW240278   1.368   2.756  17.265 -1.2480 -2.0881 -2.5125
 9549SOL     OW40279   4.217   1.265   6.230 -0.2827  0.1431  0.1271
 9549SOL    HW140280   4.277   1.238   6.160  0.4022  2.5035 -0.1952
 9549SOL    HW240281   4.249   1.210   6.302  0.9581  1.9509  0.9473
 9550SOL     OW40282   2.654   2.748   5.760 -0.0111  0.0148 -0.1957
 9550SOL    HW140283   2.606   2.681   5.711 -1.8224 -0.0780  1.6779
 9550SOL    HW240284   2.639   2.713   5.848  3.1638 -0.4323  0.1695
 9551SOL     OW40285   2.921   3.137   7.528  0.1793  0.3070 -0.1906
 9551SOL    HW140286   2.868   3.061   7.553 -1.0080 -0.0162 -3.7299
 9551SOL    HW240287   2.963   3.086   7.459 -0.5724 -1.2317  0.4862
 9552SOL     OW40288   4.434   0.543   3.370 -0.8104  0.0291  0.1073
 9552SOL    HW140289   4.452   0.455   3.336  0.0315 -0.3894  1.6169
 9552SOL    HW240290   4.386   0.518   3.449 -1.1581 -1.2192 -0.4971
 9553SOL     OW40291   2.089   3.665   4.268  0.5640 -0.0250 -0.1099
 9553SOL    HW140292   2.045   3.631   4.346 -1.1275  1.4376 -0.4482
 9553SOL    HW240293   2.096   3.587   4.213  2.4770  0.0951 -0.0592
 9554SOL     OW40294   1.359   3.730   4.254 -0.4951 -0.1100  0.0637
 9554SOL    HW140295   1.359   3.646   4.209 -0.8476 -1.2793  2.2306
 9554SOL    HW240296   1.318   3.781   4.184  2.0312 -0.4301 -1.6250
 9555SOL     OW40297   1.263   2.066   7.853 -0.2147  0.1422  0.0985
 9555SOL    HW140298   1.296   2.042   7.766  2.5192  2.2272  0.5547
 9555SOL    HW240299   1.270   1.980   7.893  1.0709 -0.9336 -2.4608
 9556SOL     OW40300   4.081   3.327  11.157  0.0528  0.0275 -0.1130
 9556SOL    HW140301   4.073   3.372  11.073 -1.3528  1.6038  0.8610
 9556SOL    HW240302   4.045   3.393  11.217 -0.6550  0.3972 -0.9403
 9557SOL     OW40303   2.161   4.126  13.508 -0.2622  0.4879  0.4445
 9557SOL    HW140304   2.194   4.167  13.428 -0.9331  0.4933  0.1726
 9557SOL    HW240305   2.245   4.103  13.548 -0.1630  0.0872 -0.0058
 9558SOL     OW40306   0.650   1.908   0.736 -0.0611 -0.4104  0.0251
 9558SOL    HW140307   0.734   1.929   0.776  0.6650 -2.2257 -0.5822
 9558SOL    HW240308   0.664   1.888   0.643 -0.4751 -1.9149  0.2898
 9559SOL     OW40309   0.956   1.945   0.804  0.0451 -0.2212 -0.4266
 9559SOL    HW140310   1.028   1.984   0.854 -0.6722 -0.3850  0.7556
 9559SOL    HW240311   1.003   1.934   0.721 -0.4304 -2.6312 -0.3705
 9560SOL     OW40312   0.548   3.066   4.279  0.1804  0.5912  0.6210
 9560SOL    HW140313   0.491   3.103   4.346  0.1402  2.3205 -0.3705
 9560SOL    HW240314   0.615   3.134   4.279  2.6783 -1.8557  2.3892
 9561SOL     OW40315   2.688   2.385  13.256 -0.5825  0.3997 -0.0045
 9561SOL    HW140316   2.774   2.360  13.290 -1.1140  1.7422  2.3494
 9561SOL    HW240317   2.718   2.405  13.168  2.1687  1.0820  1.0684
 9562SOL     OW40318   3.515   2.394  12.930 -0.2707 -0.2617 -0.0537
 9562SOL    HW140319   3.551   2.482  12.942 -0.5030  0.1469 -2.3458
 9562SOL    HW240320   3.592   2.343  12.906  0.3289  1.5053 -1.8214
 9563SOL     OW40321   3.753   3.722  15.450 -0.1053 -0.3988  0.4220
 9563SOL    HW140322   3.771   3.799  15.504 -0.4586  0.6181 -0.9105
 9563SOL    HW240323   3.813   3.653  15.480 -2.1599 -1.7950  1.2907
 9564SOL     OW40324   1.010   1.800   8.644  0.3518 -0.4497  0.3914
 9564SOL    HW140325   1.027   1.814   8.737 -3.1316  2.4037  0.6001
 9564SOL    HW240326   1.018   1.705   8.632  1.1052  0.0210 -2.8583
 9565SOL     OW40327   0.068   2.659  12.897  0.1447 -0.0650  0.2965
 9565SOL    HW140328   0.050   2.588  12.958  0.6656 -1.4801 -1.1924
 9565SOL    HW240329   4.729   2.648  12.834  0.9587 -1.4886 -0.3838
 9566SOL     OW40330   2.073   1.265   6.161  0.2186 -0.2268 -0.3644
 9566SOL    HW140331   1.985   1.227   6.153 -0.4119  1.3131 -0.8483
 9566SOL    HW240332   2.105   1.243   6.074 -0.6375  0.8196 -0.9482
 9567SOL     OW40333   1.882   2.415   6.225  0.2425  0.1732  0.1497
 9567SOL    HW140334   1.801   2.440   6.271 -0.5841  1.3764 -1.9331
 9567SOL    HW240335   1.844   2.422   6.138 -2.8629  0.5117  1.5187
 9568SOL     OW40336   1.480   2.285   5.263  0.8228 -0.4585  0.3714
 9568SOL    HW140337   1.412   2.267   5.327 -0.2507  0.0255 -0.6294
 9568SOL    HW240338   1.431   2.312   5.185 -0.9566 -1.8841  1.0112
 9569SOL     OW40339   3.412   4.606  17.566 -0.1424  0.1166 -0.1528
 9569SOL    HW140340   3.448   4.695  17.573 -2.2125  0.9185  0.1433
 9569SOL    HW240341   3.420   4.590  17.472  0.0110  0.5531 -0.2122
 9570SOL     OW40342   0.197   2.839   2.790 -0.1684 -0.0851  0.2058
 9570SOL    HW140343   0.118   2.801   2.751 -0.3665 -0.1380  0.6567
 9570SOL    HW240344   0.265   2.774   2.773  0.3868  0.8944 -1.3080
 9571SOL     OW40345   4.220   3.911  13.770 -0.2423 -0.1763 -0.4278
 9571SOL    HW140346   4.200   3.969  13.844 -2.5739  0.3255 -1.4335
 9571SOL    HW240347   4.203   3.826  13.810 -0.3640 -0.0434 -0.1970
   4.73194   4.73194  17.72743
