Membrane in water
40347
    1TMC1    C1    1   0.840   3.480  12.077 -0.2410  0.1077  0.4256
    1TMC1    C2    2   0.844   3.618  12.090 -0.0630  0.0235 -0.7060
    1TMC1    C3    3   0.942   3.693  12.017  0.1756  0.5597  0.8978
    1TMC1    C4    4   0.933   3.419  12.000  0.3270 -0.0056  0.0717
    1TMC1    C5    5   1.023   3.491  11.927 -0.4197  0.0814  0.2491
    1TMC1    C6    6   1.033   3.630  11.932  0.4215  0.3637 -0.1298
    1TMC1     C    7   0.734   3.415  12.138 -0.6810 -0.0525 -0.0609
    1TMC1     O    8   0.632   3.477  12.148 -0.3593 -0.5389  0.2310
    1TMC1     H    9   0.771   3.669  12.151  0.3700 -1.9585  1.4301
    1TMC1    H1   10   0.934   3.314  11.974 -0.1066  0.3216 -1.2552
    1TMC1    H2   11   1.093   3.691  11.866  1.1932 -1.0504 -0.7400
    1TMC1    C7   12   1.125   3.410  11.858  0.4035 -0.3667 -0.5217
    1TMC1    C8   13   0.965   3.829  12.070  0.5785 -0.4724 -0.5443
    1TMC1    O1   14   1.118   3.290  11.843  0.2529 -0.2007  0.2837
    1TMC1    O2   15   0.902   3.872  12.167 -0.0976  0.2809  0.2119
    1TMC1    O3   16   1.210   3.492  11.796 -0.8541  0.4017 -0.3931
    1TMC1    H3   17   1.195   3.589  11.798  2.2034  0.8573  0.5591
    1TMC1    O5   18   1.097   3.853  12.053  0.0738 -0.4302  0.6765
    1TMC1    H5   19   1.139   3.816  11.973 -0.1843 -1.1623  0.8726
    2MPD2     C   20   0.502   3.055  12.413 -0.2567 -0.4773 -0.2681
    2MPD2    C1   21   0.448   3.160  12.342 -0.4285 -0.1712 -0.1193
    2MPD2    C2   22   0.538   3.253  12.281  0.0312 -0.4853 -0.4172
    2MPD2    C3   23   0.668   3.207  12.254 -0.3351  0.5793 -0.3546
    2MPD2    C4   24   0.711   3.085  12.313 -0.2747  0.2492 -0.0795
    2MPD2    C5   25   0.632   3.024  12.397  0.4497 -0.0904 -0.4392
    2MPD2     H   26   0.488   3.344  12.247  1.4426 -0.0114 -1.2029
    2MPD2    H1   27   0.815   3.058  12.296 -0.4729 -1.4207  1.4472
    2MPD2    H2   28   0.445   2.991  12.480  0.3809  0.6547  1.3438
    2MPD2    H3   29   0.662   2.925  12.431  1.1230 -0.2612 -1.5332
    2MPD2     N   30   0.759   3.283  12.175  0.0701 -0.8778  0.3436
    2MPD2    H5   31   0.845   3.235  12.150 -0.0176 -1.4520  1.1271
    2MPD2    N1   32   0.305   3.185  12.332  0.0781 -0.3771 -0.4276
    2MPD2    H7   33   0.275   3.273  12.291 -0.1367  0.2698  1.1228
    3TMC1    C1   34   4.314   4.041  10.901  0.0299  0.7676 -0.1961
    3TMC1    C2   35   4.375   4.165  10.888  0.1234 -0.1784 -0.7455
    3TMC1    C3   36   4.418   4.212  10.764  0.4646 -0.3462  0.1193
    3TMC1    C4   37   4.284   3.968  10.788 -0.6071  0.1526 -0.4031
    3TMC1    C5   38   4.320   4.021  10.670 -0.1566  0.5575  0.2646
    3TMC1    C6   39   4.387   4.139  10.653 -0.0706 -0.1314 -0.0759
    3TMC1     C   40   4.219   4.023  11.006  0.2095  0.1574  0.0855
    3TMC1     O   41   4.179   3.910  11.026  0.4981 -0.6760  0.1360
    3TMC1     H   42   4.389   4.230  10.973  2.4508 -2.6103  0.7266
    3TMC1    H1   43   4.233   3.872  10.791 -0.7553  0.2156 -0.8324
    3TMC1    H2   44   4.417   4.170  10.554 -0.3319  2.2775  0.6169
    3TMC1    C7   45   4.305   3.942  10.543 -0.2933 -0.6609 -0.2063
    3TMC1    C8   46   4.412   4.357  10.748 -0.5204 -0.6150  0.3537
    3TMC1    O1   47   4.347   3.984  10.436  0.3474 -0.3034 -0.2001
    3TMC1    O2   48   4.380   4.427  10.840  0.0211  0.3308 -0.1698
    3TMC1    O3   49   4.294   3.809  10.578  0.6399  0.4261 -0.2519
    3TMC1    H3   50   4.316   3.747  10.506  1.4681 -0.8894  1.1520
    3TMC1    O5   51   4.499   4.405  10.655  0.0447  0.8278  0.3921
    3TMC1    H5   52   4.550   4.329  10.620  2.9038  2.7283  0.3984
    4MPD2     C   53   3.823   4.269  11.231  0.1755  0.3125 -0.0926
    4MPD2    C1   54   3.904   4.355  11.174 -0.1920  0.1642  0.2660
    4MPD2    C2   55   4.018   4.311  11.115 -0.2212 -0.6098  0.2026
    4MPD2    C3   56   4.050   4.179  11.108 -0.1812  0.6279  0.4567
    4MPD2    C4   57   3.963   4.082  11.157  0.5055  0.2910 -0.7530
    4MPD2    C5   58   3.849   4.136  11.218  0.2124  0.7824 -0.1292
    4MPD2     H   59   4.085   4.384  11.070  1.4765 -2.3290 -0.0886
    4MPD2    H1   60   3.982   3.975  11.154  0.1671  0.1865  1.1346
    4MPD2    H2   61   3.741   4.313  11.287  1.2009 -1.0202  2.4215
    4MPD2    H3   62   3.784   4.067  11.270  0.2624 -0.3853 -1.6126
    4MPD2     N   63   4.177   4.148  11.044 -0.4114 -0.0557  0.4783
    4MPD2    H5   64   4.232   4.222  11.002  1.0631 -0.9297  0.8724
    4MPD2    N1   65   3.892   4.500  11.190 -0.1912 -0.2224  0.1533
    4MPD2    H7   66   3.964   4.553  11.141  0.5081 -0.5114  0.8797
    5TCq1    O1   67   4.330   1.660  11.044  0.2732 -0.3168  0.1352
    5TCq1    C1   68   4.212   1.605  11.082 -0.2615  0.5926  0.3558
    5TCq1    O2   69   4.104   1.658  11.083 -0.1820 -0.4617 -1.0290
    5TCq1    C2   70   4.235   1.460  11.081 -0.6595  0.0569  0.1771
    5TCq1    C3   71   4.159   1.382  11.163 -0.2897 -0.8110 -0.1138
    5TCq1    C4   72   4.162   1.250  11.163  0.3533 -0.4464 -0.0618
    5TCq1    C5   73   4.247   1.194  11.068  0.2672  0.2225  0.4575
    5TCq1    C6   74   4.338   1.268  10.996  0.0253 -0.8041 -0.0733
    5TCq1    C7   75   4.325   1.407  10.991  1.1144 -0.5329 -0.3671
    5TCq1    C8   76   4.449   1.210  10.925 -0.5773  1.3867  0.4060
    5TCq1    O4   77   4.449   1.089  10.919 -0.6141 -0.1058 -0.7245
    5TCq1    C9   78   4.066   1.171  11.233  0.5044 -0.6351  0.4121
    5TCq1    O5   79   4.019   1.226  11.337 -0.5632 -0.1447  0.4047
    5TCq1    O6   80   4.057   1.052  11.206  0.4229  0.3632 -0.4431
    5TCq1    H1   81   4.405   1.604  11.073  1.3608 -0.1576 -2.3627
    5TCq1    H2   82   4.087   1.430  11.229  0.1610  0.3144 -0.4459
    5TCq1    H3   83   4.258   1.086  11.071  2.6400  0.4563  0.4514
    5TCq1    H4   84   4.383   1.460  10.916 -0.6879 -0.1079 -1.4692
    6MPD2     C   85   0.024   1.378  10.881  0.6653 -0.2319 -0.6477
    6MPD2    C1   86   4.679   1.272  10.879 -0.6433 -0.2315  0.5558
    6MPD2    C2   87   4.728   1.142  10.840 -0.2736  0.1394 -0.4655
    6MPD2    C3   88   0.126   1.129  10.803  0.0130  0.0088 -0.1398
    6MPD2    C4   89   0.208   1.240  10.800 -0.3317  0.5125  0.4228
    6MPD2    C5   90   0.152   1.360  10.846 -0.3421  0.0904 -0.2507
    6MPD2     H   91   4.665   1.055  10.855 -4.2169  2.9488 -0.4788
    6MPD2    H1   92   0.315   1.230  10.787 -0.4030  1.6615 -1.0215
    6MPD2    H2   93   4.728   1.473  10.924 -0.7683 -1.1192  0.2686
    6MPD2    H3   94   0.221   1.443  10.846  1.5134 -1.4413  0.0716
    6MPD2     N   95   0.169   0.995  10.776 -0.7715 -0.2343 -0.0565
    6MPD2    H5   96   0.098   0.923  10.770  0.6653 -1.7349  0.6917
    6MPD2    N1   97   4.554   1.305  10.928  0.1051  0.0568 -0.3429
    6MPD2    H7   98   4.536   1.393  10.975  0.1392  0.4966 -1.1516
    7TCq1    O1   99   2.006   1.047  12.723 -0.1696 -0.2519 -0.0318
    7TCq1    C1  100   2.077   0.933  12.708 -0.2397  0.5020 -0.1347
    7TCq1    O2  101   2.196   0.929  12.732  0.0823  0.0532  0.1265
    7TCq1    C2  102   1.982   0.828  12.720  0.1857  0.6454 -0.2483
    7TCq1    C3  103   1.854   0.835  12.678  0.2222 -0.3136 -0.1214
    7TCq1    C4  104   1.769   0.728  12.705 -0.3705  0.1925 -0.1533
    7TCq1    C5  105   1.804   0.632  12.794  0.4038  0.0475 -0.7398
    7TCq1    C6  106   1.928   0.639  12.846  0.9118  0.3335 -0.1186
    7TCq1    C7  107   2.025   0.730  12.807 -0.7203 -0.3059  0.0782
    7TCq1    C8  108   1.960   0.523  12.927  0.0850 -0.1127  0.2206
    7TCq1    O4  109   1.874   0.486  12.999  0.5523 -0.0266  0.1623
    7TCq1    C9  110   1.634   0.734  12.655 -0.2868 -0.2934 -0.2346
    7TCq1    O5  111   1.608   0.838  12.585  0.3950 -0.6324  0.5145
    7TCq1    O6  112   1.552   0.640  12.681 -0.1349  0.3702  0.3077
    7TCq1    H1  113   1.908   1.039  12.728  0.1797 -2.7913  2.4914
    7TCq1    H2  114   1.821   0.902  12.599  1.0982  1.5629  1.1002
    7TCq1    H3  115   1.734   0.556  12.827  2.8382 -1.3643  1.1418
    7TCq1    H4  116   2.124   0.747  12.846 -0.8736 -2.1011  1.2500
    8MPD2     C  117   2.291   0.175  13.121 -0.0284 -0.4781 -0.7833
    8MPD2    C1  118   2.157   0.187  13.142  0.0354 -0.5849 -0.1128
    8MPD2    C2  119   2.085   0.281  13.070  0.4670 -0.4755  0.0773
    8MPD2    C3  120   2.144   0.376  12.994 -0.0605 -0.3047 -0.1644
    8MPD2    C4  121   2.282   0.365  12.978  0.4280  0.2123 -0.1103
    8MPD2    C5  122   2.353   0.260  13.030  0.1922  0.4058  0.3200
    8MPD2     H  123   1.977   0.279  13.073  0.4351  2.3917  0.3151
    8MPD2    H1  124   2.337   0.428  12.909 -1.3154  0.4783 -1.2449
    8MPD2    H2  125   2.358   0.105  13.170  0.0722  0.9818  1.1886
    8MPD2    H3  126   2.458   0.243  13.014  0.0452  0.0885 -0.2946
    8MPD2     N  127   2.087   0.483  12.922  0.0857  0.8224  0.0981
    8MPD2    H5  128   2.154   0.532  12.864  0.8354 -0.1842  0.1135
    8MPD2    N1  129   2.103   0.094  13.227 -0.1104 -0.1345  0.1885
    8MPD2    H7  130   2.168   0.048  13.291 -2.8144 -2.6395  1.1679
    9TMC1    C1  131   0.366   4.146  10.594  0.6927  0.3398 -0.3856
    9TMC1    C2  132   0.443   4.163  10.480 -0.5106 -0.0006  0.2893
    9TMC1    C3  133   0.415   4.284  10.408 -0.0912  0.4486 -0.2027
    9TMC1    C4  134   0.252   4.225  10.616 -0.1195 -0.2437  0.6008
    9TMC1    C5  135   0.231   4.334  10.535 -0.6121 -0.0107 -0.7239
    9TMC1    C6  136   0.312   4.368  10.432  0.7917 -0.1501  0.6093
    9TMC1     C  137   0.358   4.013  10.640 -0.2219 -0.2221  0.1569
    9TMC1     O  138   0.394   3.928  10.565  0.1238 -0.1497  0.6561
    9TMC1     H  139   0.517   4.091  10.446 -1.4107 -0.2079 -1.2200
    9TMC1    H1  140   0.180   4.203  10.695 -1.1012 -1.2407 -0.5707
    9TMC1    H2  141   0.288   4.465  10.388  1.1764 -0.3665 -0.0697
    9TMC1    C7  142   0.165   4.451  10.594 -0.2765 -0.4743  0.0295
    9TMC1    C8  143   0.510   4.324  10.311  0.1063 -0.4759  0.0093
    9TMC1    O1  144   0.228   4.559  10.604 -0.5555  0.4042 -0.5226
    9TMC1    O2  145   0.622   4.268  10.304 -0.2503 -0.0705  0.1584
    9TMC1    O3  146   0.066   4.405  10.678  0.3108 -0.7602 -0.0796
    9TMC1    H3  147   0.017   4.336  10.627  0.6807 -2.6275  2.1065
    9TMC1    O5  148   0.443   4.367  10.202 -0.1021  0.3582  0.2178
    9TMC1    H5  149   0.352   4.395  10.224 -0.3307  0.6947 -1.2023
   10MPD2     C  150   0.360   3.769  10.810  0.0711  0.3690 -0.2170
   10MPD2    C1  151   0.313   3.890  10.849  0.5040 -0.1497 -0.1497
   10MPD2    C2  152   0.265   3.908  10.977  0.5236  0.4688  0.4724
   10MPD2    C3  153   0.266   3.797  11.063  0.5109 -0.5434 -0.2607
   10MPD2    C4  154   0.307   3.674  11.023  0.5997  0.0428  0.2863
   10MPD2    C5  155   0.346   3.664  10.896 -0.5026 -0.1986 -0.0655
   10MPD2     H  156   0.232   4.005  11.012 -0.7238 -0.5140  2.0272
   10MPD2    H1  157   0.308   3.589  11.091 -1.8799  0.4121  0.7735
   10MPD2    H2  158   0.399   3.760  10.710  1.4337 -0.7940  0.4214
   10MPD2    H3  159   0.382   3.567  10.864 -2.2425  0.1587 -3.0744
   10MPD2     N  160   0.224   3.807  11.196 -0.2296 -0.3525 -0.0302
   10MPD2    H5  161   0.213   3.715  11.238  0.9864 -0.4571  0.0618
   10MPD2    N1  162   0.334   4.010  10.773 -0.4543 -0.0565  0.3768
   10MPD2    H7  163   0.319   4.099  10.819 -2.2650 -1.0374  1.6892
   11TCq1    O1  164   0.808   3.447  14.394  0.2081  0.1778 -0.0451
   11TCq1    C1  165   0.745   3.524  14.487 -0.4690 -0.1671  0.0875
   11TCq1    O2  166   0.801   3.585  14.577 -0.2226 -0.2815  0.3850
   11TCq1    C2  167   0.614   3.551  14.437  0.0395 -0.2115  0.8220
   11TCq1    C3  168   0.565   3.681  14.460 -0.0479  0.1996 -0.5923
   11TCq1    C4  169   0.456   3.722  14.391  0.6186  0.5160 -0.3477
   11TCq1    C5  170   0.391   3.640  14.297 -0.5679  0.0470 -0.0597
   11TCq1    C6  171   0.436   3.512  14.289 -0.4626 -0.0636 -0.6279
   11TCq1    C7  172   0.549   3.467  14.354  0.4566  0.2522 -0.0464
   11TCq1    C8  173   0.380   3.428  14.192  0.3337 -0.2462  0.1283
   11TCq1    O4  174   0.275   3.468  14.154  0.5007  0.5543  0.2331
   11TCq1    C9  175   0.427   3.865  14.384 -0.0446  0.1731 -0.5006
   11TCq1    O5  176   0.507   3.947  14.436  0.1508 -0.1324 -0.0268
   11TCq1    O6  177   0.332   3.902  14.319 -0.2347 -0.9230  0.6427
   11TCq1    H1  178   0.747   3.401  14.332  0.2210 -0.2474  0.2558
   11TCq1    H2  179   0.615   3.751  14.526 -1.5546  1.2012 -0.5038
   11TCq1    H3  180   0.312   3.682  14.237  0.2399  0.6679 -0.6918
   11TCq1    H4  181   0.571   3.361  14.361 -0.2596  0.0976 -0.0469
   12MPD2     C  182   0.284   3.194  14.050 -0.3208 -0.0504  0.3060
   12MPD2    C1  183   0.414   3.215  14.070  0.4242 -0.0239  0.5652
   12MPD2    C2  184   0.505   3.120  14.016  0.3634 -0.6071 -0.1786
   12MPD2    C3  185   0.455   3.013  13.941  0.4046 -0.5097 -0.1604
   12MPD2    C4  186   0.319   2.995  13.933 -0.7346 -0.7057  0.2081
   12MPD2    C5  187   0.236   3.090  13.979 -0.3321 -0.4333  0.1130
   12MPD2     H  188   0.610   3.147  14.024  0.0633  0.7914 -1.0463
   12MPD2    H1  189   0.278   2.906  13.886 -1.4002 -0.6907  0.7543
   12MPD2    H2  190   0.203   3.257  14.085 -0.8503  0.3266 -1.6318
   12MPD2    H3  191   0.130   3.067  13.979 -0.8115  1.7806  1.5967
   12MPD2     N  192   0.525   2.914  13.873  0.9390 -0.0207  0.0007
   12MPD2    H5  193   0.479   2.850  13.809 -0.4731  0.9550  0.0487
   12MPD2    N1  194   0.458   3.324  14.149 -0.4503 -0.3746  0.4515
   12MPD2    H7  195   0.556   3.339  14.171 -1.2839  1.2416  3.0802
   13TCq1    O1  196   0.080   3.557  10.472 -0.2788  0.2309 -0.4760
   13TCq1    C1  197   0.120   3.679  10.427 -0.2170 -0.0438 -0.1016
   13TCq1    O2  198   0.210   3.697  10.351 -0.0701 -0.6000 -0.3392
   13TCq1    C2  199   0.063   3.778  10.516  0.1052  0.0208  0.0576
   13TCq1    C3  200   0.062   3.911  10.470  0.0192  0.0220  0.1998
   13TCq1    C4  201   4.733   4.006  10.540 -0.3061  0.2501  0.5128
   13TCq1    C5  202   4.682   3.972  10.667  0.3784 -0.2178 -0.1844
   13TCq1    C6  203   4.696   3.839  10.712  0.4267  0.2949  0.1163
   13TCq1    C7  204   0.012   3.737  10.636 -1.0885  0.0328  0.1685
   13TCq1    C8  205   4.602   3.800  10.818 -0.2802  1.0185 -0.1243
   13TCq1    O4  206   4.555   3.886  10.894  0.0263 -0.1430 -0.5270
   13TCq1    C9  207   4.706   4.136  10.485 -0.4283 -0.1210  0.4493
   13TCq1    O5  208   4.733   4.149  10.364  0.2602 -0.1524 -0.4813
   13TCq1    O6  209   4.657   4.224  10.563  0.5490  0.2321  0.8306
   13TCq1    H1  210   4.727   3.559  10.516  0.8479  0.5384  1.7843
   13TCq1    H2  211   0.095   3.926  10.368 -0.6777  0.5673  0.0512
   13TCq1    H3  212   4.617   4.040  10.719 -0.3019 -1.0154  0.0125
   13TCq1    H4  213   0.029   3.641  10.684 -0.5910 -0.4778 -1.0259
   14MPD2     C  214   4.490   3.463  10.920 -0.0678 -0.5845  0.3297
   14MPD2    C1  215   4.513   3.602  10.936  0.1197 -0.4788 -0.2135
   14MPD2    C2  216   4.450   3.663  11.042 -0.1838 -0.9434  0.3764
   14MPD2    C3  217   4.375   3.598  11.137  0.4272  0.1422  0.2283
   14MPD2    C4  218   4.368   3.463  11.118 -0.1613 -0.2252 -0.2357
   14MPD2    C5  219   4.419   3.400  11.011  0.5003  0.0059 -0.1447
   14MPD2     H  220   4.453   3.770  11.059 -2.8679 -0.7196 -0.4698
   14MPD2    H1  221   4.300   3.406  11.181  0.3540 -0.5357  0.0405
   14MPD2    H2  222   4.526   3.401  10.839 -1.8895  1.2278 -1.8887
   14MPD2    H3  223   4.408   3.294  10.992 -0.7554  0.1413 -0.1828
   14MPD2     N  224   4.305   3.669  11.244 -0.3169 -0.6517  0.1584
   14MPD2    H5  225   4.303   3.771  11.242 -0.5706 -0.6607 -0.1256
   14MPD2    N1  226   4.587   3.665  10.833 -0.7465 -0.2611 -0.7203
   14MPD2    H7  227   4.614   3.606  10.755 -1.6140 -0.4656 -0.8696
   15TCq1    O1  228   2.275   2.600   2.635  0.3509  0.0573  0.6569
   15TCq1    C1  229   2.354   2.636   2.531  0.3058  0.2999  0.1960
   15TCq1    O2  230   2.473   2.605   2.525 -0.2952  0.2364 -0.1005
   15TCq1    C2  231   2.259   2.668   2.423  0.0040  0.7855  0.1096
   15TCq1    C3  232   2.148   2.753   2.443  0.1965  0.7635 -0.0061
   15TCq1    C4  233   2.061   2.766   2.338  0.1816  0.2496  0.2351
   15TCq1    C5  234   2.090   2.701   2.222 -0.2896  0.5591 -0.3883
   15TCq1    C6  235   2.207   2.628   2.203  0.0911 -0.0100 -0.0313
   15TCq1    C7  236   2.295   2.612   2.304  0.3265  0.4236 -0.7062
   15TCq1    C8  237   2.246   2.561   2.081  0.2869 -0.2330  0.5257
   15TCq1    O4  238   2.362   2.513   2.080 -0.2490  0.1066  0.4938
   15TCq1    C9  239   1.938   2.828   2.350  0.1615 -0.2528  0.0741
   15TCq1    O5  240   1.902   2.861   2.465  0.8097  0.1765 -0.9512
   15TCq1    O6  241   1.872   2.839   2.242 -0.2126  0.0885  0.2187
   15TCq1    H1  242   2.182   2.595   2.603  0.1692  1.9694  0.8879
   15TCq1    H2  243   2.135   2.803   2.538 -0.2201 -0.2770  0.4936
   15TCq1    H3  244   2.020   2.718   2.141 -2.1453 -1.1665  0.8258
   15TCq1    H4  245   2.388   2.557   2.305  1.3697  2.1635 -2.1010
   16MPD2     C  246   2.047   2.535   1.771 -0.0686  0.4100 -0.3989
   16MPD2    C1  247   2.158   2.520   1.855 -0.2891  0.5088 -0.8690
   16MPD2    C2  248   2.260   2.441   1.806  0.1880 -0.5333  0.2283
   16MPD2    C3  249   2.274   2.392   1.677 -0.2923  0.5524 -0.2933
   16MPD2    C4  250   2.164   2.423   1.595  0.2039 -0.5318 -0.0767
   16MPD2    C5  251   2.049   2.482   1.639  0.2000 -0.8167  0.4683
   16MPD2     H  252   2.347   2.433   1.871  1.3577 -0.3854 -1.3240
   16MPD2    H1  253   2.156   2.373   1.500 -3.6234 -2.1357  1.1073
   16MPD2    H2  254   1.960   2.593   1.799 -0.4183 -0.3940  0.1704
   16MPD2    H3  255   1.955   2.491   1.586  0.7761 -1.2747 -0.6215
   16MPD2     N  256   2.398   2.339   1.635 -0.2957 -0.1462 -0.2982
   16MPD2    H5  257   2.473   2.337   1.704 -1.6208  1.2680  1.1612
   16MPD2    N1  258   2.154   2.580   1.980  0.2337 -0.0347 -0.0836
   16MPD2    H7  259   2.068   2.626   2.009  0.4897  0.7518 -0.5785
   17TMC1    C1  260   0.419   3.131  11.938 -0.3371  0.6286 -0.2640
   17TMC1    C2  261   0.292   3.085  11.920  0.6590 -0.3010 -0.1948
   17TMC1    C3  262   0.257   2.953  11.945  0.3852 -0.5698  0.4595
   17TMC1    C4  263   0.514   3.050  12.004 -0.0642 -0.4105 -0.2809
   17TMC1    C5  264   0.476   2.926  12.033 -0.5888 -0.6892  0.1304
   17TMC1    C6  265   0.355   2.877  12.008 -0.4387 -0.0193 -0.4208
   17TMC1     C  266   0.457   3.262  11.883  0.5577 -0.0541 -0.5520
   17TMC1     O  267   0.365   3.337  11.854 -0.4582 -0.6311  0.1020
   17TMC1     H  268   0.218   3.149  11.873  0.2482 -1.7189 -1.4797
   17TMC1    H1  269   0.613   3.093  12.009 -0.2900 -0.2538  3.2143
   17TMC1    H2  270   0.327   2.779  12.044  1.5480  0.0377  1.2625
   17TMC1    C7  271   0.589   2.830  12.051 -0.9272  0.3877 -0.4342
   17TMC1    C8  272   0.115   2.911  11.947 -0.3157 -0.2662  0.5080
   17TMC1    O1  273   0.692   2.865  12.107  0.4817  0.1247  0.4755
   17TMC1    O2  274   0.026   2.995  11.943  0.2246  0.2920 -0.2247
   17TMC1    O3  275   0.551   2.702  12.024 -0.4661  0.9009 -0.4111
   17TMC1    H3  276   0.469   2.699  11.970  0.8661 -0.4434 -2.3865
   17TMC1    O5  277   0.109   2.810  11.859 -0.1438 -0.8483  0.4296
   17TMC1    H5  278   0.193   2.759  11.855 -1.2893 -2.5409 -1.6760
   18MPD2     C  279   0.597   3.514  11.798 -0.6482 -0.0589 -0.2280
   18MPD2    C1  280   0.645   3.384  11.776 -0.5743  0.0149  0.9576
   18MPD2    C2  281   0.747   3.359  11.686 -0.5440 -0.0094 -0.0736
   18MPD2    C3  282   0.809   3.466  11.621 -0.2908 -0.0908  0.3131
   18MPD2    C4  283   0.765   3.590  11.646 -0.3554 -0.2083 -0.5475
   18MPD2    C5  284   0.661   3.616  11.731 -0.8444 -0.4515  0.4110
   18MPD2     H  285   0.784   3.258  11.681  1.6679  0.8011  0.1686
   18MPD2    H1  286   0.815   3.673  11.598 -0.3057  0.3971  0.5494
   18MPD2    H2  287   0.516   3.535  11.867 -0.2470  1.6409 -0.2701
   18MPD2    H3  288   0.637   3.718  11.757  0.6391 -0.0391  0.1370
   18MPD2     N  289   0.912   3.446  11.522 -0.4596 -0.4096 -0.3229
   18MPD2    H5  290   0.949   3.530  11.480  0.9159 -0.5688  0.5676
   18MPD2    N1  291   0.584   3.269  11.836  0.1208 -0.1218 -0.3308
   18MPD2    H7  292   0.639   3.184  11.831  1.6151  0.7175  1.7628
   19TMC2    C1  293   1.803   3.236  14.197 -0.1407 -0.4696  0.3452
   19TMC2    C2  294   1.730   3.342  14.159  0.2677  0.7942  0.5246
   19TMC2    C3  295   1.595   3.325  14.123  0.6152  0.0697  0.1482
   19TMC2    C4  296   1.753   3.108  14.211 -0.1442 -0.2261  0.5387
   19TMC2    C5  297   1.617   3.093  14.180 -0.4284 -0.5716  0.0932
   19TMC2    C6  298   1.542   3.198  14.135  0.4281  0.3268 -0.5645
   19TMC2     C  299   1.937   3.267  14.244 -0.0289  0.4317 -0.4943
   19TMC2     O  300   1.988   3.378  14.217  0.1082 -0.1995 -0.0081
   19TMC2     H  301   1.773   3.441  14.166 -0.7179  1.3549 -1.4882
   19TMC2    H1  302   1.817   3.027  14.243 -1.4003 -0.7760  1.6570
   19TMC2    H2  303   1.433   3.197  14.128  0.3758 -1.1885  0.5980
   19TMC2    C7  304   1.566   2.955  14.196 -0.0141 -0.0547  0.0502
   19TMC2    C8  305   1.518   3.435  14.062 -0.3144  0.3623 -0.1204
   19TMC2    O1  306   1.649   2.874  14.234 -0.4149 -0.2257  0.4651
   19TMC2    O2  307   1.561   3.542  14.092 -0.2202 -0.3002  0.7888
   19TMC2    O5  308   1.470   3.398  13.941 -0.0929 -0.0670 -0.0858
   19TMC2    H5  309   1.428   3.309  13.938 -2.3195  0.9309  1.6683
   20MPD2     C  310   2.220   3.267  14.365 -0.5895  0.5392  0.1073
   20MPD2    C1  311   2.117   3.175  14.392  1.2792 -0.4061 -0.2072
   20MPD2    C2  312   2.140   3.086  14.494 -0.4214  0.0203  0.1775
   20MPD2    C3  313   2.263   3.078  14.556 -0.4680 -0.4464  0.0633
   20MPD2    C4  314   2.367   3.165  14.522 -0.0267  0.0700 -0.1093
   20MPD2    C5  315   2.342   3.253  14.423  0.2100  0.6713  0.1042
   20MPD2     H  316   2.058   3.024  14.528 -0.1281 -0.4901 -0.0355
   20MPD2    H1  317   2.468   3.153  14.559  0.6618 -0.6217 -2.2106
   20MPD2    H2  318   2.217   3.343  14.288  0.5147 -0.3166 -0.7757
   20MPD2    H3  319   2.425   3.313  14.387 -0.4153  0.4761 -1.6608
   20MPD2     N  320   2.287   2.993  14.666 -0.3529 -0.4550  0.0413
   20MPD2    H5  321   2.359   3.022  14.733 -1.3818 -2.1756  1.8931
   20MPD2    N1  322   1.987   3.178  14.337 -0.2779 -1.0013  0.1999
   20MPD2    H7  323   1.924   3.104  14.365  0.7892 -1.7367  0.6552
   21TMC2    C1  324   3.669   3.833  14.206 -0.4896  0.0134  0.4828
   21TMC2    C2  325   3.626   3.940  14.136  0.0772 -0.6568  0.4960
   21TMC2    C3  326   3.491   3.949  14.134  0.1484 -0.0165 -0.2200
   21TMC2    C4  327   3.596   3.748  14.280  0.0399 -0.0952  0.0553
   21TMC2    C5  328   3.463   3.776  14.292 -0.2772 -0.7371 -0.0184
   21TMC2    C6  329   3.405   3.866  14.211 -0.1528 -0.4028  0.3394
   21TMC2     C  330   3.809   3.836  14.254  0.0019 -0.1308 -0.1748
   21TMC2     O  331   3.875   3.729  14.268  0.4793  0.3161  0.0120
   21TMC2     H  332   3.695   4.002  14.080 -0.4707  0.5889  1.2087
   21TMC2    H1  333   3.649   3.679  14.344  1.1311 -0.6277 -1.4193
   21TMC2    H2  334   3.300   3.894  14.208 -0.1241 -0.5612 -1.9850
   21TMC2    C7  335   3.438   3.796  14.436 -0.1487  0.2826  0.2385
   21TMC2    C8  336   3.435   4.018  14.024 -0.3951 -0.4470  0.5831
   21TMC2    O1  337   3.506   3.752  14.527  0.1814 -0.5587  0.2128
   21TMC2    O2  338   3.481   4.125  13.987  0.0552 -0.3078  0.3500
   21TMC2    O5  339   3.341   3.941  13.964  0.3752  0.2164 -0.5147
   21TMC2    H5  340   3.338   3.852  14.006 -1.9955  1.9378  2.8568
   22MPD2     C  341   4.156   4.070  14.568 -0.4137  0.5410 -0.4173
   22MPD2    C1  342   4.153   3.942  14.505  0.2754 -0.1309 -0.3020
   22MPD2    C2  343   4.046   3.903  14.424 -0.5767 -0.1173  0.4995
   22MPD2    C3  344   3.938   3.985  14.411  0.8791 -0.3233  0.4697
   22MPD2    C4  345   3.931   4.103  14.480  0.0599  0.1628  0.0033
   22MPD2    C5  346   4.043   4.141  14.556 -0.3811  0.5842 -0.2790
   22MPD2     H  347   4.057   3.812  14.366 -1.3625 -0.6154  1.1356
   22MPD2    H1  348   3.850   4.174  14.470 -1.3824 -1.2612  1.7064
   22MPD2    H2  349   4.243   4.112  14.617 -1.4514  1.8232  0.3232
   22MPD2    H3  350   4.026   4.241  14.595 -1.9071 -0.3217  1.3936
   22MPD2     N  351   3.826   3.958  14.323 -0.5173 -0.2816 -0.1770
   22MPD2    H5  352   3.757   4.031  14.327 -0.1405  0.0789 -0.2958
   22MPD2    N1  353   4.263   3.849  14.497  0.6735  0.1286  0.0862
   22MPD2    H7  354   4.255   3.759  14.452  0.5036  0.6852 -0.9869
   23TMC2    C1  355   0.616   0.586  14.661 -0.6255  0.2902 -0.7085
   23TMC2    C2  356   0.669   0.682  14.572  0.4578 -0.3626  0.1021
   23TMC2    C3  357   0.593   0.734  14.474  0.5059  0.3533 -0.1047
   23TMC2    C4  358   0.490   0.540  14.636  0.0377 -0.4586  0.7504
   23TMC2    C5  359   0.415   0.596  14.530 -0.7806  0.3975 -0.2078
   23TMC2    C6  360   0.464   0.703  14.453 -0.5055  0.6965  0.3115
   23TMC2     C  361   0.689   0.513  14.762 -0.0359 -0.1603 -0.1530
   23TMC2     O  362   0.636   0.419  14.823 -0.1458  0.0425  0.2963
   23TMC2     H  363   0.771   0.715  14.589  0.5704 -0.3460 -0.5925
   23TMC2    H1  364   0.446   0.482  14.717 -1.2048  2.1091  1.9075
   23TMC2    H2  365   0.401   0.751  14.379  0.9385  1.4421 -0.4394
   23TMC2    C7  366   0.280   0.545  14.511  0.1301 -0.4789  0.1428
   23TMC2    C8  367   0.641   0.838  14.385 -0.3982  0.6163 -0.4989
   23TMC2    O1  368   0.204   0.619  14.445  0.4154 -0.3668 -0.2445
   23TMC2    O2  369   0.577   0.880  14.292  0.2738 -0.2555  0.5903
   23TMC2    O5  370   0.773   0.851  14.390  0.3659  0.2289  0.5796
   23TMC2    H5  371   0.816   0.824  14.473  0.7919  0.6219  0.4883
   24MPD2     C  372   1.127   0.456  15.015  0.0312  0.2955  0.1464
   24MPD2    C1  373   1.025   0.367  15.002 -0.2629 -0.2453 -0.0193
   24MPD2    C2  374   0.912   0.404  14.923  0.1755 -0.1195 -0.3192
   24MPD2    C3  375   0.921   0.518  14.848  0.0574  0.2771 -0.5624
   24MPD2    C4  376   1.038   0.592  14.849 -0.5701  0.1768 -0.0246
   24MPD2    C5  377   1.137   0.564  14.938 -0.4122 -0.5278 -0.2254
   24MPD2     H  378   0.823   0.342  14.913  1.2109 -1.2485 -2.5254
   24MPD2    H1  379   1.041   0.680  14.786  1.1294 -0.6386 -1.0559
   24MPD2    H2  380   1.209   0.430  15.082 -0.0159  0.3818  0.2363
   24MPD2    H3  381   1.226   0.624  14.948 -2.3211  1.9930  1.7693
   24MPD2     N  382   0.814   0.570  14.775 -0.2474  0.2967 -0.1270
   24MPD2    H5  383   0.841   0.656  14.728 -0.2579  1.1299  1.4006
   24MPD2    N1  384   1.045   0.241  15.073 -0.8028  0.3618 -0.4949
   24MPD2    H7  385   1.129   0.231  15.130  0.2907  2.7933 -1.6676
   25TMC2    C1  386   3.823   2.894  11.700  0.5950 -0.3004  0.9202
   25TMC2    C2  387   3.949   2.841  11.707 -0.0277  0.2195 -0.4031
   25TMC2    C3  388   4.024   2.867  11.817 -0.2828 -0.5535 -0.5904
   25TMC2    C4  389   3.769   2.973  11.800 -0.5088 -0.0106 -0.0146
   25TMC2    C5  390   3.848   3.000  11.905  0.4057  0.1483 -0.4750
   25TMC2    C6  391   3.981   2.951  11.913  0.4097 -0.2621 -0.5823
   25TMC2     C  392   3.746   2.882  11.580  0.6402  0.3052 -0.2702
   25TMC2     O  393   3.680   2.979  11.559 -0.0242 -0.2918 -0.4707
   25TMC2     H  394   3.973   2.768  11.630  2.5003 -0.0304  0.6319
   25TMC2    H1  395   3.668   3.011  11.796 -0.4945 -0.2052 -2.0703
   25TMC2    H2  396   4.040   2.974  12.001  0.7356 -1.0442 -0.5979
   25TMC2    C7  397   3.794   3.046  12.040  0.8152  0.5858  0.6876
   25TMC2    C8  398   4.145   2.785  11.850 -0.0604 -0.5739 -0.5550
   25TMC2    O1  399   3.853   3.023  12.146  0.1916 -0.0512  0.7613
   25TMC2    O2  400   4.229   2.834  11.924 -0.5073 -0.7602 -0.2365
   25TMC2    O5  401   4.103   2.658  11.860 -0.0236 -0.6076 -0.4198
   25TMC2    H5  402   4.021   2.646  11.808  0.7605 -2.8656 -1.1561
   26MPD2     C  403   3.561   2.566  11.216  0.0410 -0.8219 -0.0437
   26MPD2    C1  404   3.618   2.491  11.313 -0.1280 -0.4728 -0.3970
   26MPD2    C2  405   3.676   2.557  11.420 -0.6156 -0.0127 -0.2887
   26MPD2    C3  406   3.682   2.700  11.424 -0.7044 -0.0154 -0.2252
   26MPD2    C4  407   3.619   2.774  11.334 -0.0934 -0.0415  0.3831
   26MPD2    C5  408   3.556   2.704  11.234  0.3832  0.7354 -0.1826
   26MPD2     H  409   3.709   2.499  11.505  1.8333  0.0764 -1.1896
   26MPD2    H1  410   3.600   2.880  11.339 -1.8122 -0.2571 -1.1423
   26MPD2    H2  411   3.515   2.504  11.139 -0.3123 -2.7252  1.7129
   26MPD2    H3  412   3.515   2.774  11.162  0.9773 -0.1981 -1.4299
   26MPD2     N  413   3.745   2.749  11.541 -0.1196  0.4091 -0.0657
   26MPD2    H5  414   3.787   2.678  11.600 -3.0065 -1.9266 -0.8354
   26MPD2    N1  415   3.610   2.354  11.294 -0.0000 -0.3099  0.3358
   26MPD2    H7  416   3.552   2.328  11.215  0.3732  1.3655 -0.4964
   27TMC2    C1  417   2.575   4.584  12.203 -0.1070 -0.2960  0.0782
   27TMC2    C2  418   2.654   4.552  12.096  0.4611  0.0862 -0.9007
   27TMC2    C3  419   2.790   4.514  12.124  0.4841  0.1147 -0.1098
   27TMC2    C4  420   2.624   4.602  12.330  0.7708  0.2358 -0.4376
   27TMC2    C5  421   2.749   4.556  12.358  0.4396 -0.4497 -0.1942
   27TMC2    C6  422   2.834   4.508  12.258 -0.4585 -0.0248 -0.1340
   27TMC2     C  423   2.433   4.558  12.187 -0.3237 -0.4093  0.0116
   27TMC2     O  424   2.408   4.509  12.075 -0.0643  0.3344  0.3644
   27TMC2     H  425   2.621   4.549  11.994  0.1972  0.5670 -0.8270
   27TMC2    H1  426   2.550   4.600  12.409  0.5932  1.3609 -0.5674
   27TMC2    H2  427   2.929   4.468  12.290 -0.3360  0.1464 -0.2765
   27TMC2    C7  428   2.775   4.515  12.496 -1.7223  0.3070 -0.4995
   27TMC2    C8  429   2.882   4.472  12.022  0.4808  0.2998 -1.3567
   27TMC2    O1  430   2.838   4.418  12.510  0.4359  0.3713 -0.1282
   27TMC2    O2  431   2.851   4.421  11.915 -0.1359  0.1962 -0.1233
   27TMC2    O5  432   3.001   4.530  12.038 -0.4247  0.4458  0.5296
   27TMC2    H5  433   3.000   4.594  12.113 -1.5344  0.1837  0.7287
   28MPD2     C  434   1.927   4.631  12.274  0.1689  0.0207 -0.9674
   28MPD2    C1  435   1.996   4.705  12.370  0.0028 -0.5683  0.3195
   28MPD2    C2  436   2.138   4.715  12.361 -0.6219 -0.1137 -0.2920
   28MPD2    C3  437   2.205   4.633  12.271  0.1234  0.1816 -0.3464
   28MPD2    C4  438   2.133   4.558  12.179  0.2358 -0.0743  0.3759
   28MPD2    C5  439   1.996   4.558  12.185  0.3265 -0.1916  0.6960
   28MPD2     H  440   2.203   0.037  12.426 -0.3980 -1.5091  0.7000
   28MPD2    H1  441   2.182   4.497  12.104 -0.1445  1.4811 -1.1330
   28MPD2    H2  442   1.819   4.641  12.270  0.0545 -0.3810  1.0208
   28MPD2    H3  443   1.944   4.488  12.121  0.7394  1.1328 -1.0657
   28MPD2     N  444   2.350   4.621  12.278 -0.0337 -0.0153  0.2915
   28MPD2    H5  445   2.394   4.661  12.360  1.0584 -2.5938  0.9780
   28MPD2    N1  446   1.923   0.045  12.465  0.3471 -0.1511  0.3533
   28MPD2    H7  447   1.830   0.069  12.432  0.2705 -0.8822  0.0374
   29TMC2    C1  448   2.423   1.891  14.570  0.3639 -0.2707  0.4134
   29TMC2    C2  449   2.524   1.871  14.664  0.8719 -0.1256 -0.1469
   29TMC2    C3  450   2.596   1.973  14.716  0.1334  1.2002 -0.0376
   29TMC2    C4  451   2.391   2.018  14.529 -0.5518 -0.0087  0.8033
   29TMC2    C5  452   2.472   2.119  14.573 -0.2149  0.8381  0.0682
   29TMC2    C6  453   2.571   2.099  14.671  0.4909 -0.4969 -0.2063
   29TMC2     C  454   2.405   1.780  14.476 -0.9500  0.5363 -0.1276
   29TMC2     O  455   2.448   1.673  14.516 -0.1524  0.2089 -0.8953
   29TMC2     H  456   2.552   1.770  14.692  1.5939 -0.4252 -1.9556
   29TMC2    H1  457   2.309   2.043  14.463  0.5873 -0.3675 -0.7379
   29TMC2    H2  458   2.611   2.185  14.724 -1.0922  1.5388 -2.3394
   29TMC2    C7  459   2.431   2.257  14.550 -0.2902  0.1699 -0.5306
   29TMC2    C8  460   2.695   1.942  14.813 -0.3312 -0.6277  0.0098
   29TMC2    O1  461   2.321   2.271  14.506  0.2132  0.7485  0.2549
   29TMC2    O2  462   2.695   1.832  14.865  0.4167 -0.1022  0.5410
   29TMC2    O5  463   2.796   2.031  14.795  0.2193  0.3198  0.5336
   29TMC2    H5  464   2.774   2.103  14.732 -0.0607 -0.5591 -0.3608
   30MPD2     C  465   2.289   1.516  14.063 -0.0356 -0.2959  0.4922
   30MPD2    C1  466   2.414   1.532  14.132 -0.0732 -0.1943  0.4639
   30MPD2    C2  467   2.425   1.632  14.227  0.4753  0.0575  0.2732
   30MPD2    C3  468   2.312   1.706  14.264  0.3621  0.0257 -0.6941
   30MPD2    C4  469   2.197   1.694  14.189  0.0987  0.3743  0.4375
   30MPD2    C5  470   2.187   1.590  14.100 -0.7054  0.4194  0.0971
   30MPD2     H  471   2.520   1.645  14.277  0.2963  1.6316  0.2269
   30MPD2    H1  472   2.107   1.747  14.216 -0.2449  0.1463 -0.2698
   30MPD2    H2  473   2.263   1.442  13.988 -2.6223  0.2104  0.8953
   30MPD2    H3  474   2.089   1.580  14.053 -0.4452  0.0185 -0.3665
   30MPD2     N  475   2.327   1.802  14.363  0.2305  0.7051  0.3684
   30MPD2    H5  476   2.265   1.883  14.361 -0.1576  0.4003 -0.1013
   30MPD2    N1  477   2.532   1.457  14.119 -0.3177 -0.0833  0.5664
   30MPD2    H7  478   2.616   1.492  14.163  0.1120 -1.1954  0.6292
   31TMC2    C1  479   0.070   0.850  15.113 -0.7679 -0.6793  0.0542
   31TMC2    C2  480   4.670   0.860  15.103 -0.0952  0.1896  0.2650
   31TMC2    C3  481   4.589   0.830  15.212 -0.0564  1.0473  0.7207
   31TMC2    C4  482   0.133   0.809  15.228  0.7069 -0.8738  0.0231
   31TMC2    C5  483   0.054   0.779  15.330 -0.0154 -0.3459  0.0416
   31TMC2    C6  484   4.651   0.793  15.326  0.0473 -0.3831  0.9119
   31TMC2     C  485   0.137   0.932  15.012 -0.5574  0.6920 -0.7866
   31TMC2     O  486   0.066   1.002  14.938  0.0368 -0.3713 -0.1366
   31TMC2     H  487   4.626   0.893  15.009  0.5051  0.9704  0.2584
   31TMC2    H1  488   0.239   0.822  15.248 -0.0656  2.1577  2.2132
   31TMC2    H2  489   4.590   0.764  15.411 -1.7167  1.0191  0.1387
   31TMC2    C7  490   0.117   0.761  15.460  0.1295  0.1382  0.1752
   31TMC2    C8  491   4.444   0.804  15.181 -0.0350 -0.0094 -0.3013
   31TMC2    O1  492   0.233   0.716  15.458 -0.0318 -0.0246  0.0845
   31TMC2    O2  493   4.390   0.832  15.073 -0.1995 -0.0406 -0.7634
   31TMC2    O5  494   4.385   0.838  15.295  0.8757  0.3261 -0.5803
   31TMC2    H5  495   4.433   0.814  15.376 -0.0042  2.5581  0.6212
   32MPD2     C  496   0.543   1.036  14.711  0.0979  0.2779 -0.1388
   32MPD2    C1  497   0.406   1.061  14.682 -0.0805  0.2060  0.6797
   32MPD2    C2  498   0.319   1.022  14.782  0.1079 -0.0057 -0.0049
   32MPD2    C3  499   0.361   0.963  14.904  0.4658 -0.8411  0.1649
   32MPD2    C4  500   0.502   0.938  14.921  0.3028 -0.1717 -0.0798
   32MPD2    C5  501   0.590   0.978  14.824  0.2927  0.2130 -0.2178
   32MPD2     H  502   0.213   1.030  14.759 -0.1273 -0.7553  0.8045
   32MPD2    H1  503   0.534   0.904  15.019  0.1766 -2.4225 -0.8317
   32MPD2    H2  504   0.613   1.069  14.635  0.2123 -2.1582 -1.0988
   32MPD2    H3  505   0.696   0.964  14.843  0.2579 -0.5777 -0.6128
   32MPD2     N  506   0.271   0.906  15.004  0.2544 -0.0473 -0.4518
   32MPD2    H5  507   0.312   0.834  15.063 -0.1201  0.4078  0.3541
   32MPD2    N1  508   0.367   1.113  14.556 -0.7216  0.4971  0.3083
   32MPD2    H7  509   0.434   1.127  14.481  1.7884  0.2373  2.5109
   33TMC2    C1  510   0.761   3.618  10.268 -0.5554  0.7006  0.1576
   33TMC2    C2  511   0.699   3.509  10.213 -0.4018  0.2512  0.2454
   33TMC2    C3  512   0.642   3.536  10.091  0.5582  0.1106 -0.1172
   33TMC2    C4  513   0.771   3.738  10.209  0.3253 -1.3370 -0.1938
   33TMC2    C5  514   0.722   3.753  10.081  0.3915 -0.0487  0.4996
   33TMC2    C6  515   0.643   3.646  10.026  0.1219  0.0977  0.2240
   33TMC2     C  516   0.807   3.614  10.409 -0.4644 -0.7020  0.1009
   33TMC2     O  517   0.834   3.505  10.452 -0.1162 -0.1852  0.4429
   33TMC2     H  518   0.698   3.412  10.262 -2.1976 -0.4211 -1.1446
   33TMC2    H1  519   0.824   3.818  10.260 -2.6162  0.4778  0.0785
   33TMC2    H2  520   0.601   3.652   9.926 -0.7416 -3.6841  0.3680
   33TMC2    C7  521   0.733   3.875   9.999 -0.2439 -0.5735 -0.2323
   33TMC2    C8  522   0.544   3.433  10.041  0.4724  0.1392 -0.0781
   33TMC2    O1  523   0.835   3.939  10.023  0.7386  0.0604  0.2215
   33TMC2    O2  524   0.551   3.315  10.080 -0.3311 -0.2224 -0.2456
   33TMC2    O5  525   0.461   3.483   9.946 -0.4576  0.3270  0.2071
   33TMC2    H5  526   0.453   3.578   9.924  1.3228  0.1301 -1.3235
   34MPD2     C  527   0.727   3.768  10.877  0.0461 -0.3768 -0.3052
   34MPD2    C1  528   0.805   3.667  10.832 -0.5601  0.7919  0.3838
   34MPD2    C2  529   0.847   3.678  10.693  0.4624  0.1593 -0.6966
   34MPD2    C3  530   0.777   3.756  10.604  0.2133  0.2101 -0.8551
   34MPD2    C4  531   0.687   3.851  10.649 -0.3641 -0.3509  0.6737
   34MPD2    C5  532   0.667   3.857  10.790 -0.8284 -0.1984  0.3222
   34MPD2     H  533   0.911   3.598  10.658 -1.4230 -1.3676 -0.6757
   34MPD2    H1  534   0.641   3.919  10.578 -2.3990 -2.7140 -0.2556
   34MPD2    H2  535   0.688   3.773  10.978 -1.3992 -0.3806 -0.8606
   34MPD2    H3  536   0.606   3.937  10.830  0.0517  0.4036  0.4664
   34MPD2     N  537   0.787   3.735  10.463 -0.6404 -0.5320 -0.1846
   34MPD2    H5  538   0.752   3.803  10.396 -1.8591 -0.8167  0.1620
   34MPD2    N1  539   0.863   3.571  10.919 -0.4254 -0.1900 -0.1242
   34MPD2    H7  540   0.932   3.513  10.872  2.4977  0.3931  3.4525
   35TMC2    C1  541   1.065   0.051  11.184 -0.2214 -0.3589  0.2648
   35TMC2    C2  542   1.007   0.109  11.076 -0.6444  0.5678  0.1259
   35TMC2    C3  543   0.875   0.118  11.071  0.1388 -0.1411  0.4762
   35TMC2    C4  544   0.989   4.732  11.286 -0.4374  0.0496  0.4287
   35TMC2    C5  545   0.852   0.005  11.272 -0.3145 -0.2532 -0.4873
   35TMC2    C6  546   0.791   0.078  11.171  1.3132  0.1284 -0.0233
   35TMC2     C  547   1.211   0.066  11.201  0.8201  0.3368 -0.8227
   35TMC2     O  548   1.280   0.065  11.100 -0.2034  0.5105 -0.0028
   35TMC2     H  549   1.061   0.154  10.994 -0.2467 -1.3904 -0.6876
   35TMC2    H1  550   1.030   4.664  11.360 -3.8562 -0.8024  1.5295
   35TMC2    H2  551   0.685   0.097  11.159  1.4945 -0.4429 -2.4420
   35TMC2    C7  552   0.771   4.670  11.367  0.0547 -0.0710 -0.4287
   35TMC2    C8  553   0.815   0.155  10.945  0.4895 -0.2546  0.0747
   35TMC2    O1  554   0.823   4.630  11.468  0.2629 -0.0023  0.2617
   35TMC2    O2  555   0.865   0.220  10.854  0.4326  0.1160 -1.0069
   35TMC2    O5  556   0.722   0.059  10.933  0.5647  0.0043 -0.0060
   35TMC2    H5  557   0.738   4.720  10.995  1.0690 -1.4099 -1.8343
   36MPD2     C  558   1.640   0.128  11.488 -0.2052 -0.1704 -0.4839
   36MPD2    C1  559   1.534   0.107  11.569 -0.0848 -0.5387 -0.4902
   36MPD2    C2  560   1.402   0.091  11.521 -0.3782  0.1071 -0.4761
   36MPD2    C3  561   1.382   0.102  11.384  0.3208 -0.5408 -0.0545
   36MPD2    C4  562   1.489   0.113  11.298  0.3908 -0.0848 -1.0730
   36MPD2    C5  563   1.611   0.121  11.354  0.7235 -0.7912 -0.0186
   36MPD2     H  564   1.309   0.097  11.576  0.5320 -1.2421  1.2137
   36MPD2    H1  565   1.483   0.104  11.190 -1.9223 -1.2584 -0.8439
   36MPD2    H2  566   1.740   0.146  11.524  0.2069  1.0832 -2.2298
   36MPD2    H3  567   1.697   0.130  11.288  1.8800 -3.6625  1.0736
   36MPD2     N  568   1.247   0.093  11.334 -0.2458  0.2725 -0.3641
   36MPD2    H5  569   1.182   0.104  11.411 -1.0828 -1.1262 -0.8677
   36MPD2    N1  570   1.567   0.119  11.711 -0.5797 -0.3475  0.1633
   36MPD2    H7  571   1.667   0.121  11.731 -0.8796 -0.4513  1.6862
   37TMC2    C1  572   3.260   0.644  11.705  0.5458 -0.0875 -0.0869
   37TMC2    C2  573   3.208   0.743  11.625 -0.1651 -0.0403  0.3979
   37TMC2    C3  574   3.273   0.766  11.506  0.5400  0.1517 -0.0695
   37TMC2    C4  575   3.382   0.593  11.670 -0.1261 -0.0464  0.2936
   37TMC2    C5  576   3.437   0.627  11.550 -0.4061 -0.2294 -0.0425
   37TMC2    C6  577   3.391   0.719  11.465 -0.3890 -0.2056 -0.5355
   37TMC2     C  578   3.167   0.587  11.798 -0.5644  0.6433 -0.3215
   37TMC2     O  579   3.048   0.607  11.790  0.5897 -0.2854 -0.3164
   37TMC2     H  580   3.110   0.789  11.630  0.4854  1.5158 -0.9598
   37TMC2    H1  581   3.434   0.521  11.732 -1.8641  0.2977  2.1245
   37TMC2    H2  582   3.446   0.766  11.384 -1.5181  1.3028 -0.4387
   37TMC2    C7  583   3.564   0.560  11.507  0.2204  0.2344 -0.0578
   37TMC2    C8  584   3.241   0.886  11.435 -0.5236 -1.0564  0.0264
   37TMC2    O1  585   3.620   0.499  11.598 -0.3367 -1.0882 -0.5524
   37TMC2    O2  586   3.124   0.923  11.436 -0.5013 -0.1321  0.4687
   37TMC2    O5  587   3.345   0.974  11.462  0.2123 -0.4751  0.1274
   37TMC2    H5  588   3.427   0.923  11.482  0.0168  0.0530  2.2634
   38MPD2     C  589   3.044   0.199  12.104  0.2979  0.3947  0.4320
   38MPD2    C1  590   3.181   0.207  12.096 -0.6908  0.0000 -0.4224
   38MPD2    C2  591   3.243   0.313  12.028 -0.3472 -0.0059 -0.1063
   38MPD2    C3  592   3.166   0.411  11.964 -0.4478  0.2537  0.1900
   38MPD2    C4  593   3.024   0.401  11.971  0.5808 -0.3199  0.0938
   38MPD2    C5  594   2.971   0.296  12.040  0.2201 -0.8981  0.3391
   38MPD2     H  595   3.351   0.322  12.026 -0.4297  1.2568  1.0784
   38MPD2    H1  596   2.955   0.448  11.902 -0.6783 -2.2068  0.0544
   38MPD2    H2  597   2.983   0.127  12.158  1.4603  0.7499  2.2053
   38MPD2    H3  598   2.863   0.292  12.052  0.2555 -0.2046  0.9620
   38MPD2     N  599   3.228   0.499  11.877  0.1987  0.1005  0.3760
   38MPD2    H5  600   3.329   0.510  11.882  0.4550 -1.4854 -1.4404
   38MPD2    N1  601   3.264   0.104  12.142  0.2619 -0.6973 -0.6036
   38MPD2    H7  602   3.364   0.113  12.125  0.7792 -0.7571  2.3574
   39TMC2    C1  603   2.700   2.327   2.017  0.1278 -0.2887 -0.5982
   39TMC2    C2  604   2.694   2.462   1.985 -0.4898 -0.2865  0.2339
   39TMC2    C3  605   2.774   2.555   2.047  0.8367  1.1708  0.0549
   39TMC2    C4  606   2.793   2.285   2.100 -0.5214 -0.0649  0.3303
   39TMC2    C5  607   2.881   2.377   2.151  0.0489  0.0475  0.2248
   39TMC2    C6  608   2.874   2.510   2.122  0.2981 -0.0608 -0.1451
   39TMC2     C  609   2.638   2.241   1.919  0.4661 -0.4840  0.4969
   39TMC2     O  610   2.551   2.294   1.856  0.5764 -0.8368  0.3264
   39TMC2     H  611   2.614   2.500   1.923  1.1953 -0.4900 -2.0773
   39TMC2    H1  612   2.803   2.180   2.123  1.3681  0.1002  0.2441
   39TMC2    H2  613   2.941   2.583   2.167 -0.1092  0.0112  0.3413
   39TMC2    C7  614   2.972   2.329   2.253  0.0827 -0.1715 -0.8128
   39TMC2    C8  615   2.777   2.689   1.992  0.8651 -0.3148 -0.9283
   39TMC2    O1  616   2.949   2.240   2.338 -0.1813 -0.1170  0.1694
   39TMC2    O2  617   2.813   2.787   2.057 -0.4086  0.4248  0.6636
   39TMC2    O5  618   2.817   2.669   1.863  0.0482  0.1380 -0.1161
   39TMC2    H5  619   2.816   2.576   1.832 -0.7701  0.5904 -1.4487
   40MPD2     C  620   2.741   1.925   1.761 -0.1708 -0.1584  0.0551
   40MPD2    C1  621   2.663   2.021   1.798 -0.4444  0.0173 -0.0312
   40MPD2    C2  622   2.532   2.018   1.751  0.7719 -0.3953  0.2158
   40MPD2    C3  623   2.499   1.928   1.650  0.5429 -0.0838 -0.4062
   40MPD2    C4  624   2.586   1.825   1.623  0.6554 -0.2908 -0.0831
   40MPD2    C5  625   2.709   1.826   1.675  0.2571  0.3248 -0.2160
   40MPD2     H  626   2.464   2.091   1.794  2.6267  3.1672 -2.9049
   40MPD2    H1  627   2.571   1.745   1.551  1.4239 -1.0592  0.6016
   40MPD2    H2  628   2.836   1.917   1.814 -0.2521  0.3504  0.2844
   40MPD2    H3  629   2.772   1.745   1.640 -1.2016 -0.4928 -0.9854
   40MPD2     N  630   2.375   1.930   1.575  0.4423  0.3315 -0.6108
   40MPD2    H5  631   2.386   1.871   1.493 -0.2719  0.6529 -0.9337
   40MPD2    N1  632   2.709   2.120   1.893 -0.3830 -0.6547 -0.3460
   40MPD2    H7  633   2.798   2.110   1.941 -0.1098 -0.8331 -0.8882
   41TMC2    C1  634   0.930   4.644  13.674 -0.1548 -0.0872  0.1296
   41TMC2    C2  635   0.805   4.656  13.738 -0.2352  0.2230 -0.0952
   41TMC2    C3  636   0.720   0.014  13.679 -0.3874  0.1496 -0.3045
   41TMC2    C4  637   0.953   4.706  13.553 -0.9093  0.1048 -0.1015
   41TMC2    C5  638   0.862   0.062  13.498  0.1567  0.7005  0.0989
   41TMC2    C6  639   0.741   0.081  13.563 -1.0702  0.0054 -0.2841
   41TMC2     C  640   1.030   4.551  13.720 -0.4556  0.6187  0.6274
   41TMC2     O  641   1.108   4.511  13.637  0.4687 -0.3285  0.4692
   41TMC2     H  642   0.773   4.599  13.824 -0.1911  0.5102  0.1119
   41TMC2    H1  643   1.047   4.688  13.502 -0.4268  1.7534  0.2073
   41TMC2    H2  644   0.671   0.159  13.534 -0.3567  0.5087 -0.6304
   41TMC2    C7  645   0.907   0.147  13.387 -0.7931 -0.1466  0.2499
   41TMC2    C8  646   0.609   0.054  13.763 -0.2813  0.1942 -0.3786
   41TMC2    O1  647   1.025   0.153  13.365 -0.1485  0.4803  0.1075
   41TMC2    O2  648   0.603   0.031  13.884  0.2606  0.1590 -0.5535
   41TMC2    O5  649   0.505   0.059  13.683 -0.0488 -0.2724  0.1872
   41TMC2    H5  650   0.532   0.024  13.595 -0.0052 -1.8191  0.8255
   42MPD2     C  651   1.191   4.350  13.858  0.9251  0.2173  0.2128
   42MPD2    C1  652   1.128   4.457  13.921  0.5646 -0.2857 -0.2002
   42MPD2    C2  653   1.151   4.478  14.053 -0.0286 -1.2779  0.9740
   42MPD2    C3  654   1.224   4.391  14.134 -0.1056  0.2504 -0.6438
   42MPD2    C4  655   1.281   4.280  14.073  0.0121 -0.6344 -0.4352
   42MPD2    C5  656   1.266   4.263  13.940 -0.2029  0.4663  0.6197
   42MPD2     H  657   1.101   4.563  14.099  1.0206  0.2856 -0.7450
   42MPD2    H1  658   1.340   4.215  14.136  1.8312  2.0876  0.7002
   42MPD2    H2  659   1.178   4.334  13.752  0.3455 -1.4266  0.5225
   42MPD2    H3  660   1.311   4.174  13.896 -1.8476 -0.0026 -0.1022
   42MPD2     N  661   1.243   4.401  14.275 -0.2318  0.6779 -0.1966
   42MPD2    H5  662   1.267   4.313  14.319 -3.6067  0.1027  0.5260
   42MPD2    N1  663   1.040   4.543  13.853  0.6124  0.0369  0.1564
   42MPD2    H7  664   0.994   4.615  13.909  1.0196  0.7612 -0.4366
   43TMC2    C1  665   2.809   2.873   1.244  0.0193 -0.2777  0.2595
   43TMC2    C2  666   2.684   2.914   1.279 -0.0462  0.4024 -0.4290
   43TMC2    C3  667   2.681   2.990   1.397  0.3671 -0.8639  0.3163
   43TMC2    C4  668   2.921   2.901   1.315 -0.3515  0.2141 -0.1681
   43TMC2    C5  669   2.908   2.976   1.429  0.2037 -0.0861  0.1574
   43TMC2    C6  670   2.788   3.019   1.474  0.2718 -0.5483  0.1844
   43TMC2     C  671   2.824   2.801   1.119  0.1142 -0.1749 -0.6252
   43TMC2     O  672   2.922   2.728   1.116 -0.6152  0.7389 -0.2825
   43TMC2     H  673   2.597   2.878   1.226  0.0833  2.1824 -1.8736
   43TMC2    H1  674   3.020   2.880   1.275  0.4475  1.2377  1.2880
   43TMC2    H2  675   2.781   3.094   1.552  0.1082 -1.4500  1.0335
   43TMC2    C7  676   3.020   3.008   1.513  0.7492  0.2625  0.1344
   43TMC2    C8  677   2.556   3.058   1.437 -0.2175  0.3360 -0.9860
   43TMC2    O1  678   3.126   3.025   1.456  0.0174 -0.8179  0.6176
   43TMC2    O2  679   2.470   3.078   1.355  0.0965 -0.4595  0.2529
   43TMC2    O5  680   2.557   3.072   1.568 -0.2746 -0.5822 -0.5278
   43TMC2    H5  681   2.627   3.032   1.623 -0.4803 -0.2332 -0.0144
   44MPD2     C  682   2.683   2.654   0.642  0.7717  0.1375 -0.1806
   44MPD2    C1  683   2.786   2.617   0.725  0.8336  0.3423 -0.6816
   44MPD2    C2  684   2.792   2.677   0.852 -0.2144  0.3725 -0.2557
   44MPD2    C3  685   2.731   2.790   0.887 -0.4292 -0.1675  0.4211
   44MPD2    C4  686   2.633   2.835   0.798  0.0233  0.1016 -0.0564
   44MPD2    C5  687   2.612   2.765   0.675 -0.2028  0.4458  0.1039
   44MPD2     H  688   2.858   2.620   0.917  0.7472  0.0731 -1.4876
   44MPD2    H1  689   2.580   2.928   0.811  1.0963  1.2326 -3.8158
   44MPD2    H2  690   2.673   2.605   0.546  0.1525  1.3447 -0.7469
   44MPD2    H3  691   2.524   2.790   0.617 -0.2608  0.5856  0.2525
   44MPD2     N  692   2.749   2.851   1.016  0.7535  0.4240  0.4645
   44MPD2    H5  693   2.700   2.938   1.034  1.1563  0.5075  1.1551
   44MPD2    N1  694   2.883   2.518   0.691  0.6628  0.2537 -0.6866
   44MPD2    H7  695   2.949   2.503   0.767  1.2807 -0.3955 -1.3448
   45TMC2    C1  696   3.856   0.173   9.809  0.7077  0.0624 -0.5094
   45TMC2    C2  697   3.935   0.097   9.895  0.9862  0.4525  0.1249
   45TMC2    C3  698   4.005   0.179   9.987 -0.4052 -0.5667 -0.2167
   45TMC2    C4  699   3.844   0.312   9.822  0.4403 -0.0964  0.1577
   45TMC2    C5  700   3.922   0.377   9.918 -0.5440  0.0030 -1.2833
   45TMC2    C6  701   4.011   0.316   9.992  0.2626  0.8981 -0.9326
   45TMC2     C  702   3.753   0.094   9.738  0.1494  0.0009  0.0788
   45TMC2     O  703   3.730   4.711   9.765 -0.2867 -0.2252  0.0605
   45TMC2     H  704   3.924   4.724   9.892  2.2169  0.2514  3.3299
   45TMC2    H1  705   3.753   0.361   9.791 -0.3115  0.3411  3.1348
   45TMC2    H2  706   4.060   0.365  10.075 -1.7879  2.4374 -0.6155
   45TMC2    C7  707   3.885   0.511   9.972  0.9105  0.2531 -0.4960
   45TMC2    C8  708   4.069   0.103  10.093  0.1235 -0.3352 -0.0142
   45TMC2    O1  709   3.914   0.534  10.088 -0.2311  0.6296 -0.3541
   45TMC2    O2  710   4.047   4.718  10.110  0.1412 -0.1037 -0.5394
   45TMC2    O5  711   4.187   0.165  10.104  0.2456 -0.1086 -0.1050
   45TMC2    H5  712   4.191   0.240  10.040 -0.7949 -0.8909 -1.0796
   46MPD2     C  713   3.517   0.010   9.566 -0.0279 -0.2255  0.1920
   46MPD2    C1  714   3.556   0.138   9.603 -0.0133 -0.3476 -0.2808
   46MPD2    C2  715   3.474   0.238   9.563 -0.5796  0.0450 -0.1673
   46MPD2    C3  716   3.353   0.218   9.496 -0.2166  0.0192  0.5343
   46MPD2    C4  717   3.317   0.089   9.466 -0.5896 -0.0483 -0.1589
   46MPD2    C5  718   3.398   4.719   9.502 -0.3164  0.0552  0.0044
   46MPD2     H  719   3.508   0.340   9.575 -0.8369  0.2125 -0.8734
   46MPD2    H1  720   3.230   0.071   9.404  0.2127 -0.8658 -1.0321
   46MPD2    H2  721   3.579   4.661   9.593  0.2531 -0.2236 -0.4403
   46MPD2    H3  722   3.365   4.619   9.479 -0.8538 -0.2050  1.9600
   46MPD2     N  723   3.269   0.332   9.471 -0.5762 -0.2213  0.0046
   46MPD2    H5  724   3.301   0.426   9.489  0.3458 -0.5115 -0.0867
   46MPD2    N1  725   3.673   0.174   9.658 -0.5819  0.1618  0.4613
   46MPD2    H7  726   3.685   0.275   9.656 -1.0266  0.1213 -3.4167
   47TMC2    C1  727   0.227   1.394   9.908  0.3195 -0.5414  1.5033
   47TMC2    C2  728   0.179   1.267   9.914  0.3169  0.5174 -0.5430
   47TMC2    C3  729   0.074   1.252   9.992  0.2263  0.4582  0.6041
   47TMC2    C4  730   0.152   1.499   9.955  0.0048 -0.6376 -0.3189
   47TMC2    C5  731   0.042   1.474  10.030  0.3779 -0.3369 -0.3392
   47TMC2    C6  732   4.731   1.345  10.045 -0.5072 -0.4036 -0.1585
   47TMC2     C  733   0.350   1.437   9.848 -0.5589 -0.9785  0.6709
   47TMC2     O  734   0.343   1.555   9.813 -0.0088 -0.5292 -0.4606
   47TMC2     H  735   0.234   1.179   9.882 -1.3138 -0.6396 -0.1564
   47TMC2    H1  736   0.180   1.603   9.952 -1.8587 -0.1678 -1.6823
   47TMC2    H2  737   4.661   1.305  10.117 -0.3411 -1.5793 -0.6432
   47TMC2    C7  738   4.688   1.585  10.052 -0.2418  0.1902 -0.5402
   47TMC2    C8  739   0.060   1.122  10.044 -0.0378  0.4449  0.2731
   47TMC2    O1  740   4.711   1.693  10.000 -0.3221 -0.6541 -0.9031
   47TMC2    O2  741   0.064   1.098  10.166 -0.0482 -0.4504  0.4519
   47TMC2    O5  742   4.714   1.061   9.958  0.1746 -0.1571  0.3116
   47TMC2    H5  743   4.694   1.115   9.878  2.4229  0.6347  0.2754
   48MPD2     C  744   0.635   1.511   9.799  0.5612 -0.9428  0.0516
   48MPD2    C1  745   0.589   1.380   9.807 -0.4388 -0.0959 -0.3842
   48MPD2    C2  746   0.671   1.272   9.776  0.1225  0.2915  0.1619
   48MPD2    C3  747   0.805   1.289   9.746 -0.6360  0.1429 -0.4970
   48MPD2    C4  748   0.845   1.424   9.728 -0.1529  0.3643  0.1195
   48MPD2    C5  749   0.759   1.530   9.752 -0.4431  0.5209  0.1915
   48MPD2     H  750   0.624   1.175   9.786  0.9139  0.0967  1.9291
   48MPD2    H1  751   0.942   1.460   9.694 -1.5194  1.9111 -2.1449
   48MPD2    H2  752   0.577   1.600   9.818 -3.0629 -3.4258  0.6644
   48MPD2    H3  753   0.788   1.634   9.740  2.0845 -0.0795  1.1809
   48MPD2     N  754   0.896   1.179   9.720 -0.0646  0.2295 -0.8916
   48MPD2    H5  755   0.865   1.083   9.733  0.1674  0.3179  0.2537
   48MPD2    N1  756   0.456   1.345   9.849 -0.0330 -0.1854  0.9527
   48MPD2    H7  757   0.434   1.249   9.874  0.3670 -0.9617 -1.7043
   49TMC2    C1  758   3.975   2.846  10.486 -0.0828  0.0027 -0.0602
   49TMC2    C2  759   3.891   2.817  10.385  0.5566 -0.1065  0.3673
   49TMC2    C3  760   3.846   2.688  10.375 -0.1442  0.5096  0.1996
   49TMC2    C4  761   3.999   2.757  10.591 -0.0781  0.2775  0.4438
   49TMC2    C5  762   3.938   2.628  10.581 -0.2573 -0.0172  0.0825
   49TMC2    C6  763   3.862   2.593  10.473 -0.2312 -0.3824  0.1748
   49TMC2     C  764   4.015   2.987  10.491  0.6844  0.9846  0.2236
   49TMC2     O  765   4.018   3.055  10.389  0.3635 -0.0572 -0.0715
   49TMC2     H  766   3.874   2.883  10.301 -1.3111 -0.7575  0.2411
   49TMC2    H1  767   4.087   2.772  10.654  0.9224 -0.0311 -0.8843
   49TMC2    H2  768   3.820   2.493  10.463  2.5102 -1.6368  1.1839
   49TMC2    C7  769   4.005   2.512  10.641 -0.3680 -0.3020 -0.0694
   49TMC2    C8  770   3.744   2.660  10.271 -0.1606  0.5664 -0.4891
   49TMC2    O1  771   3.952   2.410  10.610  0.1055  0.3801 -0.2069
   49TMC2    O2  772   3.761   2.568  10.197 -0.4470  0.9808 -0.2165
   49TMC2    O5  773   3.628   2.724  10.314 -0.3800 -0.2746 -0.1467
   49TMC2    H5  774   3.641   2.753  10.406 -4.1210 -2.0802  0.9622
   50MPD2     C  775   4.079   3.256  10.580 -0.1419  0.4205 -0.4823
   50MPD2    C1  776   4.048   3.156  10.666  0.1148 -0.1206  0.6563
   50MPD2    C2  777   4.050   3.179  10.803 -0.2608  0.3335 -0.2866
   50MPD2    C3  778   4.079   3.308  10.850  0.3228  0.2231  0.2801
   50MPD2    C4  779   4.091   3.416  10.766  0.1209 -0.7060  1.0166
   50MPD2    C5  780   4.095   3.388  10.629 -0.2854  0.3429 -0.6226
   50MPD2     H  781   4.020   3.102  10.873 -2.7375  0.9726 -0.6486
   50MPD2    H1  782   4.109   3.513  10.811  1.3050 -0.1895 -0.5371
   50MPD2    H2  783   4.094   3.244  10.473 -1.5063  0.5710 -0.6901
   50MPD2    H3  784   4.120   3.466  10.557  1.3963 -0.2290 -0.6724
   50MPD2     N  785   4.067   3.341  10.985 -0.7168 -0.2375 -0.6180
   50MPD2    H5  786   4.058   3.439  11.010 -1.0225 -0.2616 -0.6389
   50MPD2    N1  787   4.019   3.024  10.626  0.4302  0.1966 -0.8802
   50MPD2    H7  788   3.995   2.959  10.700  0.3676 -0.8090 -1.7680
   51TMC2    C1  789   3.959   2.554   1.733 -0.1514 -0.3707 -0.2201
   51TMC2    C2  790   3.833   2.560   1.790  0.3361  0.8614 -0.1609
   51TMC2    C3  791   3.758   2.668   1.757 -0.0338 -0.1015 -0.2513
   51TMC2    C4  792   4.005   2.652   1.642 -0.9964  0.1144  0.5565
   51TMC2    C5  793   3.919   2.756   1.617 -0.0963  0.1185  0.3406
   51TMC2    C6  794   3.802   2.767   1.677  0.7537  0.0862 -0.3384
   51TMC2     C  795   4.034   2.424   1.748  0.0523  0.3150 -0.0072
   51TMC2     O  796   3.974   2.318   1.771 -0.1057  0.1692 -0.2281
   51TMC2     H  797   3.791   2.478   1.846 -3.0430  2.1045 -0.8630
   51TMC2    H1  798   4.093   2.620   1.588 -1.9702 -2.4925  0.5095
   51TMC2    H2  799   3.753   2.863   1.659 -1.1595 -0.8157  0.0386
   51TMC2    C7  800   3.954   2.857   1.510  0.9399  0.4148 -0.0759
   51TMC2    C8  801   3.643   2.690   1.848 -0.2067  0.3474 -0.1039
   51TMC2    O1  802   3.859   2.910   1.457  0.3370  0.0515 -0.1462
   51TMC2    O2  803   3.658   2.665   1.969 -0.3782 -0.3735 -0.1890
   51TMC2    O5  804   3.561   2.793   1.798 -0.4040 -0.6613 -0.1334
   51TMC2    H5  805   3.562   2.789   1.700  0.8664 -3.6224  0.0003
   52MPD2     C  806   4.401   2.193   1.488 -0.2790  0.0907  0.1217
   52MPD2    C1  807   4.293   2.138   1.544 -0.2587  0.2708 -0.6766
   52MPD2    C2  808   4.214   2.216   1.628  0.7504 -0.3487 -0.9198
   52MPD2    C3  809   4.248   2.351   1.647  0.1393  0.0181  0.4389
   52MPD2    C4  810   4.358   2.411   1.583 -0.5138  0.5380  0.4989
   52MPD2    C5  811   4.426   2.326   1.498  0.1329  0.1124 -0.0061
   52MPD2     H  812   4.130   2.173   1.682  1.2458 -1.3237 -0.9296
   52MPD2    H1  813   4.373   2.517   1.567  0.2907  0.5227  1.1101
   52MPD2    H2  814   4.456   2.147   1.407 -0.2791 -0.2040  0.2908
   52MPD2    H3  815   4.512   2.369   1.446  0.9945 -1.1721  0.3523
   52MPD2     N  816   4.163   2.446   1.705  0.4862  0.0607 -0.1176
   52MPD2    H5  817   4.200   2.540   1.705  0.3176  0.1102  2.2695
   52MPD2    N1  818   4.262   1.998   1.526 -0.5782 -0.0127  0.4159
   52MPD2    H7  819   4.177   1.968   1.572 -0.0462  0.6888  1.8551
   53TMC2    C1  820   4.285   0.414  11.482 -0.1210  0.2040 -0.6039
   53TMC2    C2  821   4.400   0.359  11.442  1.0677  0.0724  0.9003
   53TMC2    C3  822   4.473   0.287  11.531  0.1773  0.2716  0.2503
   53TMC2    C4  823   4.241   0.384  11.608 -0.2068  0.5033 -0.2495
   53TMC2    C5  824   4.310   0.310  11.698  0.0130  0.5263 -0.5037
   53TMC2    C6  825   4.437   0.268  11.663  0.5079  0.2274 -0.0824
   53TMC2     C  826   4.202   0.467  11.376 -0.2449 -0.0647  0.0387
   53TMC2     O  827   4.258   0.482  11.269  0.1726 -0.5622 -0.2028
   53TMC2     H  828   4.433   0.368  11.340  0.7223  2.3823  0.9893
   53TMC2    H1  829   4.140   0.414  11.634  0.4874  1.6769  1.0658
   53TMC2    H2  830   4.502   0.223  11.737  0.0212 -0.4625 -0.0716
   53TMC2    C7  831   4.264   0.300  11.832 -0.2066 -0.6734 -0.0072
   53TMC2    C8  832   4.574   0.207  11.475  0.5862 -0.2292 -0.1831
   53TMC2    O1  833   4.167   0.367  11.867  0.5344 -0.5381  0.4243
   53TMC2    O2  834   4.642   0.231  11.373  0.3821  0.2793  0.0427
   53TMC2    O5  835   4.542   0.081  11.521 -0.5675 -0.4976 -0.2347
   53TMC2    H5  836   4.468   0.062  11.582 -2.6712 -1.5249 -3.0853
   54MPD2     C  837   3.981   0.549  11.204  0.1142  0.0986 -0.1018
   54MPD2    C1  838   3.964   0.522  11.336  0.2590  0.3714 -0.2780
   54MPD2    C2  839   3.841   0.525  11.390 -0.0800  0.3054  0.1726
   54MPD2    C3  840   3.725   0.563  11.323  0.2927 -0.2206  0.1227
   54MPD2    C4  841   3.739   0.583  11.186 -0.2267  0.5320  0.2831
   54MPD2    C5  842   3.866   0.569  11.124  1.0048  0.8604 -0.6107
   54MPD2     H  843   3.845   0.510  11.498  0.9038 -1.1701 -0.0712
   54MPD2    H1  844   3.650   0.622  11.137  0.3431 -1.8037 -2.5867
   54MPD2    H2  845   4.076   0.559  11.153 -0.7581  0.2349 -1.6855
   54MPD2    H3  846   3.885   0.596  11.021  0.0123 -1.0324 -1.2955
   54MPD2     N  847   3.599   0.591  11.382  0.6137 -0.3039  0.1574
   54MPD2    H5  848   3.526   0.623  11.320  1.9295 -1.2315 -1.8747
   54MPD2    N1  849   4.076   0.495  11.418 -0.4657  0.1625 -0.4601
   54MPD2    H7  850   4.050   0.489  11.516  0.5842  2.9775 -0.0190
   55TMC2    C1  851   0.868   2.358   0.039 -0.2603  0.0830 -0.0884
   55TMC2    C2  852   0.851   2.317  17.649  0.2384 -0.0205 -0.6006
   55TMC2    C3  853   0.852   2.182  17.626  0.1701 -0.5776  0.0189
   55TMC2    C4  854   0.876   2.274   0.145  0.1247  0.5478 -0.2756
   55TMC2    C5  855   0.880   2.140   0.117 -0.4267 -0.3236  0.2782
   55TMC2    C6  856   0.865   2.093  17.728 -0.5976  0.5397 -0.2286
   55TMC2     C  857   0.858   2.498   0.068 -0.4738  0.2265 -0.0644
   55TMC2     O  858   0.784   2.517   0.162  0.3094 -0.3911  1.0757
   55TMC2     H  859   0.833   2.386  17.568 -2.7241  0.0840  0.1342
   55TMC2    H1  860   0.889   2.324   0.240  1.4707 -1.4949  0.6164
   55TMC2    H2  861   0.868   1.989  17.696  0.1826  0.7865 -0.9733
   55TMC2    C7  862   0.918   2.039   0.216  0.2764  0.8685  0.6730
   55TMC2    C8  863   0.875   2.145  17.491  0.2106 -0.6013 -0.6513
   55TMC2    O1  864   0.916   1.922   0.189  0.6139 -0.3084 -0.1572
   55TMC2    O2  865   0.832   2.217  17.399 -0.1550  0.2166  0.3624
   55TMC2    O5  866   1.001   2.105  17.496 -0.0657  0.9590  0.5649
   55TMC2    H5  867   1.041   2.105  17.585  1.2578  1.4655 -0.0278
   56MPD2     C  868   0.990   2.791  17.617 -0.3524 -0.1171  0.1458
   56MPD2    C1  869   0.933   2.721  17.723 -0.4477 -0.9993 -0.3005
   56MPD2    C2  870   0.883   2.797   0.089 -0.2731  0.1953  0.2799
   56MPD2    C3  871   0.904   2.929   0.097 -0.1790 -0.8105  0.0364
   56MPD2    C4  872   0.972   3.000  17.738 -0.6175  0.1255 -0.1618
   56MPD2    C5  873   1.013   2.924  17.631  0.0283 -0.4617 -0.1695
   56MPD2     H  874   0.816   2.753   0.161  0.0342 -2.2987 -0.9320
   56MPD2    H1  875   0.991   3.106   0.002  2.3795 -0.4193  0.8914
   56MPD2    H2  876   1.023   2.740  17.527  1.3586  3.0942 -1.0719
   56MPD2    H3  877   1.057   2.978  17.548  0.7063 -0.4397  0.2039
   56MPD2     N  878   0.846   2.994   0.204  0.2061 -0.5611  0.5825
   56MPD2    H5  879   0.794   2.935   0.269  1.0110 -0.8301  0.9847
   56MPD2    N1  880   0.909   2.582  17.710 -0.2592 -0.0551 -0.0176
   56MPD2    H7  881   0.946   2.532  17.630  0.3003  0.9256 -0.3691
   57TMC2    C1  882   4.449   3.627  13.858  0.2995 -0.1416 -0.7865
   57TMC2    C2  883   4.476   3.494  13.886 -0.1419  0.7412  0.0928
   57TMC2    C3  884   4.606   3.449  13.860 -0.8493  0.0019 -0.1936
   57TMC2    C4  885   4.544   3.710  13.797  0.6813 -0.3614  0.1072
   57TMC2    C5  886   4.670   3.655  13.771 -0.6219 -0.9398  0.3203
   57TMC2    C6  887   4.703   3.529  13.809 -0.1519 -0.9241 -0.5305
   57TMC2     C  888   4.313   3.683  13.861  0.0205  0.1786  0.1484
   57TMC2     O  889   4.291   3.788  13.801 -0.3720 -0.2684  0.4308
   57TMC2     H  890   4.405   3.424  13.928 -1.5885  2.7067  0.9190
   57TMC2    H1  891   4.515   3.814  13.787 -3.2221 -1.2796  1.9577
   57TMC2    H2  892   0.070   3.494  13.815 -0.1573 -0.6726  1.0256
   57TMC2    C7  893   4.733   3.727  13.663 -0.1657  0.3211 -0.1358
   57TMC2    C8  894   4.636   3.310  13.883 -0.2007  0.2464  0.6822
   57TMC2    O1  895   4.692   3.837  13.624 -0.3193  0.5572 -0.1311
   57TMC2    O2  896   4.598   3.250  13.982 -0.1493 -0.3102 -0.2894
   57TMC2    O5  897   0.002   3.272  13.806  0.0630  0.5356  0.6881
   57TMC2    H5  898   0.009   3.327  13.725  1.3020 -0.2941  0.2264
   58MPD2     C  899   3.814   3.679  13.936 -0.5965  0.4316 -0.4180
   58MPD2    C1  900   3.892   3.756  13.858 -0.6307  0.3024 -0.6246
   58MPD2    C2  901   4.027   3.733  13.849 -0.5324 -0.0259  0.6080
   58MPD2    C3  902   4.084   3.621  13.913  0.4593  0.0996 -0.2862
   58MPD2    C4  903   3.997   3.542  13.985 -0.1334  0.2325 -0.1486
   58MPD2    C5  904   3.868   3.568  13.994 -0.3727 -0.0364  0.1924
   58MPD2     H  905   4.082   3.790  13.776 -0.7191  0.3610  0.7714
   58MPD2    H1  906   4.038   3.452  14.028  0.6773  0.4441 -0.4894
   58MPD2    H2  907   3.709   3.697  13.955  0.0261  0.4398  2.9046
   58MPD2    H3  908   3.805   3.500  14.049 -0.7155  1.9937  2.2996
   58MPD2     N  909   4.223   3.591  13.912  0.1073  0.4575 -0.0871
   58MPD2    H5  910   4.255   3.510  13.964 -0.1033  0.3482 -0.1274
   58MPD2    N1  911   3.837   3.859  13.772 -0.0753  0.4453 -0.4273
   58MPD2    H7  912   3.903   3.920  13.725  1.5581 -1.7771 -1.0241
   59TMC2    C1  913   1.868   4.369  12.948  0.0486  0.5555  0.3609
   59TMC2    C2  914   1.878   4.235  12.981  1.1785 -0.3490  0.0770
   59TMC2    C3  915   1.785   4.151  12.936  0.5315 -0.2398  0.2323
   59TMC2    C4  916   1.772   4.417  12.867 -0.2803  0.1704  0.6134
   59TMC2    C5  917   1.668   4.328  12.842 -0.0540  0.0194  0.2168
   59TMC2    C6  918   1.676   4.198  12.876  0.0879  0.0862 -0.1438
   59TMC2     C  919   1.980   4.455  12.997 -0.4423  0.5900 -0.4972
   59TMC2     O  920   1.995   4.560  12.934 -0.8645  0.2975  0.2841
   59TMC2     H  921   1.963   4.189  13.030  0.1121 -3.3089 -0.8522
   59TMC2    H1  922   1.765   4.523  12.848  2.4304  0.1179 -0.6833
   59TMC2    H2  923   1.607   4.117  12.853  0.9280 -0.3500 -1.1377
   59TMC2    C7  924   1.544   4.363  12.778 -0.3693 -0.2211  0.3776
   59TMC2    C8  925   1.793   4.010  12.959  0.2697  0.2439 -0.1022
   59TMC2    O1  926   1.442   4.292  12.786 -0.4580 -0.5444  0.2730
   59TMC2    O2  927   1.703   3.932  12.941 -0.0319 -0.6012 -0.4784
   59TMC2    O5  928   1.926   3.974  12.949 -0.1343 -0.2165  0.1896
   59TMC2    H5  929   1.980   4.055  12.937 -1.0256  0.3111 -0.2988
   60MPD2     C  930   2.260   4.539  13.053 -0.6825  0.1596 -0.2085
   60MPD2    C1  931   2.187   4.453  13.137  0.1016  0.4991 -0.0700
   60MPD2    C2  932   2.247   4.414  13.254 -1.0040  0.1031 -0.1362
   60MPD2    C3  933   2.378   4.456  13.275 -0.2503 -0.3915  0.5575
   60MPD2    C4  934   2.448   4.521  13.176  0.2832 -0.1889 -0.8941
   60MPD2    C5  935   2.389   4.570  13.061 -0.2992  0.8918 -0.0034
   60MPD2     H  936   2.195   4.351  13.325 -1.0620  0.5377  0.2086
   60MPD2    H1  937   2.554   4.541  13.178  0.0647  0.8226  0.7507
   60MPD2    H2  938   2.212   4.578  12.965 -0.5228  1.6203  0.3601
   60MPD2    H3  939   2.440   4.618  12.978  0.0664  0.0547 -0.2656
   60MPD2     N  940   2.454   4.417  13.387 -0.3888 -0.0121  0.7767
   60MPD2    H5  941   2.555   4.428  13.384 -0.1495 -1.8721  1.7827
   60MPD2    N1  942   2.068   4.400  13.093 -0.4853 -0.3711  0.0017
   60MPD2    H7  943   2.048   4.310  13.136 -2.3546  0.0067 -0.0973
   61TMC2    C1  944   1.611   4.586  14.853 -0.2641  0.1286  0.6243
   61TMC2    C2  945   1.543   4.496  14.930  0.4384  0.1913  0.1160
   61TMC2    C3  946   1.538   4.524  15.064 -0.2229  0.5620  0.5675
   61TMC2    C4  947   1.666   4.702  14.901 -0.0237  0.9032  0.0356
   61TMC2    C5  948   1.657   4.720  15.034 -0.0744  0.0524 -0.0083
   61TMC2    C6  949   1.593   4.635  15.121 -0.3545  0.1922 -0.0646
   61TMC2     C  950   1.576   4.566  14.712  0.3108  0.0770  0.0877
   61TMC2     O  951   1.490   4.484  14.672  0.0501  0.6010 -0.1914
   61TMC2     H  952   1.494   4.405  14.897 -1.1696  0.1282  2.6773
   61TMC2    H1  953   1.697   0.048  14.837 -0.1616  1.3323  0.5145
   61TMC2    H2  954   1.594   4.641  15.229 -0.3400 -1.9961  0.0630
   61TMC2    C7  955   1.667   0.122  15.073 -0.0379 -0.2412  0.2570
   61TMC2    C8  956   1.449   4.449  15.145 -0.4713 -0.0253  0.0824
   61TMC2    O1  957   1.756   0.186  15.009  0.4490 -0.0347  0.5098
   61TMC2    O2  958   1.385   4.510  15.230 -0.0295  0.4517 -0.3932
   61TMC2    O5  959   1.481   4.318  15.140 -0.1852  0.0064 -0.4292
   61TMC2    H5  960   1.558   4.295  15.083 -0.3652  1.7229 -1.3704
   62MPD2     C  961   1.528   4.612  14.431 -0.3364 -0.2431 -0.9951
   62MPD2    C1  962   1.617   4.684  14.502 -0.2328  0.2506 -0.6260
   62MPD2    C2  963   1.688   0.052  14.446  0.0169 -0.2190 -0.0776
   62MPD2    C3  964   1.658   0.096  14.321 -0.6514 -0.0414 -0.6207
   62MPD2    C4  965   1.574   0.020  14.245  0.5463 -0.1927  0.0311
   62MPD2    C5  966   1.506   4.645  14.297 -0.4546  0.5879  0.2989
   62MPD2     H  967   1.756   0.113  14.504 -1.3626  2.3224 -1.1285
   62MPD2    H1  968   1.572   0.029  14.137  1.8187  2.0658  0.1909
   62MPD2    H2  969   1.468   4.529  14.468  0.1876  0.1106  0.6354
   62MPD2    H3  970   1.443   4.591  14.228 -0.0875  0.9451 -0.3132
   62MPD2     N  971   1.697   0.224  14.269  0.5911 -0.9193 -0.1105
   62MPD2    H5  972   1.648   0.263  14.189  1.6480 -1.4375 -1.0129
   62MPD2    N1  973   1.647   4.660  14.641 -0.6910 -0.0348  0.5537
   62MPD2    H7  974   1.720   4.715  14.684 -1.2055  2.5168 -1.8489
   63TMC2    C1  975   1.248   0.879  10.478 -0.1518 -0.5440 -0.2299
   63TMC2    C2  976   1.333   0.853  10.584  0.3985  0.4877 -0.0049
   63TMC2    C3  977   1.427   0.946  10.603  0.2334  0.3286 -0.5211
   63TMC2    C4  978   1.255   0.990  10.397  0.3901  0.5981  0.9602
   63TMC2    C5  979   1.349   1.088  10.428  0.6340 -0.7060  0.2916
   63TMC2    C6  980   1.444   1.061  10.527  0.7575 -0.2583 -0.4313
   63TMC2     C  981   1.157   0.762  10.448  0.6985  0.3359  0.1174
   63TMC2     O  982   1.196   0.650  10.467 -0.1082  0.9722  0.4737
   63TMC2     H  983   1.328   0.758  10.634  0.0117 -1.5438 -3.8869
   63TMC2    H1  984   1.198   1.000  10.305 -1.6552  2.1734  2.3734
   63TMC2    H2  985   1.506   1.137  10.573 -0.9395  2.3115 -2.3991
   63TMC2    C7  986   1.362   1.198  10.332  0.1003 -0.2641  0.8217
   63TMC2    C8  987   1.506   0.935  10.722 -0.2631 -0.3906 -0.3764
   63TMC2    O1  988   1.269   1.221  10.251 -0.2587  0.7861 -0.4265
   63TMC2    O2  989   1.617   0.979  10.725 -0.0572 -0.6601 -0.2174
   63TMC2    O5  990   1.453   0.850  10.812 -0.0099 -0.3957  0.0384
   63TMC2    H5  991   1.357   0.832  10.799 -0.7183  2.2968  1.5673
   64MPD2     C  992   0.750   0.557  10.195  0.0636 -0.8257  0.0127
   64MPD2    C1  993   0.855   0.503  10.268 -0.5040 -0.0575  0.4829
   64MPD2    C2  994   0.953   0.579  10.325  1.1827 -0.3791 -0.3546
   64MPD2    C3  995   0.943   0.716  10.326  0.0223 -0.0440 -0.4480
   64MPD2    C4  996   0.838   0.774  10.255 -0.2559 -0.0717  0.2409
   64MPD2    C5  997   0.748   0.695  10.189 -0.6685 -0.3537 -0.1020
   64MPD2     H  998   1.035   0.534  10.379  0.8403  1.1961  1.4852
   64MPD2    H1  999   0.837   0.881  10.240  1.0788  0.1404  1.7442
   64MPD2    H2 1000   0.677   0.495  10.144 -2.0349  1.6841  0.0073
   64MPD2    H3 1001   0.663   0.739  10.138  0.5519  0.9589 -0.9919
   64MPD2     N 1002   1.045   0.802  10.379 -0.2484  0.9040 -0.1029
   64MPD2    H5 1003   1.018   0.899  10.381  1.9551  1.4883  1.5384
   64MPD2    N1 1004   0.882   0.365  10.272 -0.1766 -0.2077  0.0464
   64MPD2    H7 1005   0.976   0.346  10.303 -1.3546 -1.1210  3.0010
   65TMC2    C1 1006   1.738   4.411  15.628 -0.5707 -0.0114 -0.6045
   65TMC2    C2 1007   1.620   4.346  15.607  0.4002 -0.4111  0.5620
   65TMC2    C3 1008   1.514   4.404  15.543  0.0096  0.1044 -0.1768
   65TMC2    C4 1009   1.748   4.543  15.589  0.2873 -0.1634 -0.1841
   65TMC2    C5 1010   1.638   4.602  15.534 -0.4711 -0.2003 -0.0651
   65TMC2    C6 1011   1.519   4.535  15.511  0.3758  0.6423  0.1939
   65TMC2     C 1012   1.858   4.350  15.667  0.5435  0.1250  0.5318
   65TMC2     O 1013   1.967   4.383  15.626  0.7167 -0.1138  0.5198
   65TMC2     H 1014   1.614   4.240  15.630  2.4997 -0.0360  2.8680
   65TMC2    H1 1015   1.844   4.592  15.603  0.8488 -1.3958  0.2638
   65TMC2    H2 1016   1.430   4.593  15.487 -0.9673 -0.9242  1.3666
   65TMC2    C7 1017   1.640   0.010  15.514  0.7586  0.6931 -0.0454
   65TMC2    C8 1018   1.389   4.320  15.519  0.1114 -0.3423  0.4607
   65TMC2    O1 1019   1.551   0.050  15.440 -0.5989 -0.7809 -0.4259
   65TMC2    O2 1020   1.364   4.218  15.586 -0.4438  0.4131 -0.0489
   65TMC2    O5 1021   1.302   4.402  15.467 -0.6500 -0.4246 -0.1993
   65TMC2    H5 1022   1.344   4.461  15.400 -0.4884 -0.6325 -0.2818
   66MPD2     C 1023   1.876   4.138  15.959 -0.0909  0.3015 -0.2416
   66MPD2    C1 1024   1.916   4.181  15.838  0.7850 -0.2217  0.3846
   66MPD2    C2 1025   2.030   4.127  15.785 -0.5001 -0.0691 -0.3424
   66MPD2    C3 1026   2.103   4.033  15.853 -0.2775  0.4846  0.0394
   66MPD2    C4 1027   2.067   4.000  15.983  0.4745 -0.4509  0.0147
   66MPD2    C5 1028   1.955   4.050  16.030  0.1474  0.2285  0.4712
   66MPD2     H 1029   2.077   4.172  15.698  1.1549 -0.5017  0.3205
   66MPD2    H1 1030   2.126   3.930  16.040 -0.0311  0.7002  1.9271
   66MPD2    H2 1031   1.777   4.174  15.985  0.1991  2.2762 -1.8712
   66MPD2    H3 1032   1.921   4.009  16.125  0.3044 -1.1583 -0.0782
   66MPD2     N 1033   2.207   3.958  15.792  0.4487 -0.6827  0.0279
   66MPD2    H5 1034   2.251   3.884  15.845  1.0888 -0.2191  0.1587
   66MPD2    N1 1035   1.828   4.269  15.772  0.3464  0.1253 -0.1123
   66MPD2    H7 1036   1.736   4.279  15.813  0.8655 -0.2631  1.1208
   67TMC2    C1 1037   2.342   3.975  14.191  0.0378  0.1287 -0.5458
   67TMC2    C2 1038   2.230   4.002  14.261 -0.1103  0.6076 -0.2147
   67TMC2    C3 1039   2.236   4.023  14.400 -1.0687  0.3798 -0.7956
   67TMC2    C4 1040   2.466   3.975  14.252 -0.8275 -0.3930 -0.0659
   67TMC2    C5 1041   2.472   3.997  14.387 -0.0308  0.2406 -0.2665
   67TMC2    C6 1042   2.364   4.034  14.461  0.0691  0.1018 -0.0767
   67TMC2     C 1043   2.345   3.954  14.045  0.0465 -0.0228 -0.7532
   67TMC2     O 1044   2.448   3.970  13.985 -0.1417  0.2663 -0.1615
   67TMC2     H 1045   2.134   4.005  14.210  0.0668 -0.7508 -0.6198
   67TMC2    H1 1046   2.561   3.969  14.201 -0.5122  0.4036  0.4206
   67TMC2    H2 1047   2.372   4.068  14.564  0.3439  0.0485 -0.0794
   67TMC2    C7 1048   2.597   3.967  14.454  0.0260 -0.8816  0.1395
   67TMC2    C8 1049   2.119   4.066  14.467 -0.3886  0.0191  0.4244
   67TMC2    O1 1050   2.689   3.914  14.391 -0.8206  0.2371 -0.9596
   67TMC2    O2 1051   2.020   4.101  14.410  1.1921  0.2337  0.6411
   67TMC2    O5 1052   2.133   4.050  14.598 -0.2587  0.1075 -0.0620
   67TMC2    H5 1053   2.211   3.998  14.627 -1.8415  0.2380  4.4501
   68MPD2     C 1054   2.286   3.950  13.756  0.3040  0.3380  0.5320
   68MPD2    C1 1055   2.197   3.921  13.855  0.2847 -0.2391  0.0042
   68MPD2    C2 1056   2.065   3.896  13.817  0.7958  0.2491 -0.0134
   68MPD2    C3 1057   2.022   3.892  13.684  0.0803  0.4115  0.1776
   68MPD2    C4 1058   2.113   3.931  13.589  0.5218 -0.3455  0.0820
   68MPD2    C5 1059   2.241   3.961  13.627  0.4366 -0.3271  0.2540
   68MPD2     H 1060   1.994   3.887  13.898  1.1449  0.2610  0.2952
   68MPD2    H1 1061   2.078   3.935  13.486 -2.8449  1.0763  1.2675
   68MPD2    H2 1062   2.384   3.992  13.777  0.5753 -0.8863  1.6976
   68MPD2    H3 1063   2.312   3.989  13.550  0.3884 -0.6259  0.1043
   68MPD2     N 1064   1.893   3.847  13.637 -0.1618 -0.1661 -0.3453
   68MPD2    H5 1065   1.872   3.851  13.538  0.3074  1.0024 -0.3971
   68MPD2    N1 1066   2.222   3.927  13.994 -0.6826  0.3600  0.0386
   68MPD2    H7 1067   2.148   3.908  14.060  0.7749  0.0005  1.5501
   69TMC2    C1 1068   4.309   0.481  12.369 -0.1071  0.1726  0.2804
   69TMC2    C2 1069   4.174   0.506  12.338 -0.0992 -0.1360 -0.2512
   69TMC2    C3 1070   4.149   0.515  12.204 -0.5479  0.2306  0.1060
   69TMC2    C4 1071   4.408   0.463  12.272 -0.4501 -0.4236 -0.2178
   69TMC2    C5 1072   4.380   0.489  12.146 -0.3116  0.4020 -0.3108
   69TMC2    C6 1073   4.252   0.518  12.110  0.3071  0.6897 -0.7768
   69TMC2     C 1074   4.330   0.461  12.513 -0.5385  0.1476 -0.4281
   69TMC2     O 1075   4.401   0.368  12.544  0.1047  0.0607  0.1222
   69TMC2     H 1076   4.095   0.509  12.412  0.3881 -0.7355  0.2944
   69TMC2    H1 1077   4.512   0.444  12.296  0.1976  1.8035 -1.3263
   69TMC2    H2 1078   4.229   0.552  12.009 -1.3319 -0.6139 -0.8435
   69TMC2    C7 1079   4.488   0.505  12.047  0.4162 -0.2403 -0.2173
   69TMC2    C8 1080   4.015   0.539  12.161 -0.1549  0.3234  0.4083
   69TMC2    O1 1081   4.599   0.467  12.082  0.0216 -0.8674  0.0321
   69TMC2    O2 1082   3.929   0.538  12.250 -0.3612  0.9766  0.5439
   69TMC2    O5 1083   4.000   0.488  12.038 -0.1833 -0.2130 -0.1619
   69TMC2    H5 1084   4.077   0.474  11.980 -1.2873 -0.0793 -1.6513
   70MPD2     C 1085   4.129   0.634  12.767  0.7692 -0.2306  0.2851
   70MPD2    C1 1086   4.224   0.547  12.722  0.4436  0.6530  0.1633
   70MPD2    C2 1087   4.278   0.461  12.818 -0.4240 -0.6403  0.8233
   70MPD2    C3 1088   4.239   0.462  12.951 -0.4732  0.2428  0.0284
   70MPD2    C4 1089   4.136   0.547  12.988  0.0428 -0.0722 -0.2767
   70MPD2    C5 1090   4.090   0.636  12.898  0.7028  0.3480  0.0932
   70MPD2     H 1091   4.354   0.390  12.787  0.8051  0.3562  1.5430
   70MPD2    H1 1092   4.103   0.568  13.089 -0.5297 -1.0312 -0.2608
   70MPD2    H2 1093   4.084   0.711  12.705 -0.2452 -1.3111 -0.3136
   70MPD2    H3 1094   4.014   0.711  12.918  1.6186  0.7087  2.2157
   70MPD2     N 1095   4.296   0.383  13.056 -0.1458 -0.0355  0.5462
   70MPD2    H5 1096   4.263   0.393  13.151  2.6207  0.8253  1.4046
   70MPD2    N1 1097   4.266   0.560  12.586 -0.3258  0.5979 -0.3548
   70MPD2    H7 1098   4.232   0.643  12.538  1.4513  1.7901  0.4254
   71TMC2    C1 1099   1.887   1.891   1.817  0.0511  0.1687 -1.2367
   71TMC2    C2 1100   1.988   1.962   1.884 -0.4705 -0.4912  0.5544
   71TMC2    C3 1101   1.956   2.062   1.969  0.4489 -0.7254  0.4168
   71TMC2    C4 1102   1.757   1.928   1.832  0.0168  0.1550 -0.8326
   71TMC2    C5 1103   1.727   2.034   1.914 -0.4561 -0.5323  0.0906
   71TMC2    C6 1104   1.821   2.094   1.988  0.0231  0.3351 -0.0796
   71TMC2     C 1105   1.933   1.785   1.728 -0.7322  1.0157  0.0521
   71TMC2     O 1106   2.051   1.756   1.748  0.2223 -0.1321  0.3233
   71TMC2     H 1107   2.093   1.946   1.864 -0.8399 -0.3295 -1.4864
   71TMC2    H1 1108   1.676   1.870   1.789 -0.0595  0.3603 -0.9613
   71TMC2    H2 1109   1.786   2.175   2.051  0.3761  0.3787  0.0595
   71TMC2    C7 1110   1.590   2.059   1.954  0.4401  0.3379  0.6842
   71TMC2    C8 1111   2.050   2.134   2.047  0.1768  0.0848 -0.2743
   71TMC2    O1 1112   1.581   2.096   2.072  0.1146  0.2616  0.2518
   71TMC2    O2 1113   2.013   2.212   2.132 -0.2225  0.2167  0.3282
   71TMC2    O5 1114   2.171   2.145   1.979 -0.0926 -0.4653 -0.0863
   71TMC2    H5 1115   2.182   2.088   1.900  0.0353 -1.2691  0.5088
   72MPD2     C 1116   1.841   1.415   1.392  0.7720  0.1724  0.3528
   72MPD2    C1 1117   1.958   1.473   1.434 -0.2301 -0.1070 -0.3834
   72MPD2    C2 1118   1.965   1.583   1.515  0.3683  0.4940  0.9080
   72MPD2    C3 1119   1.848   1.636   1.555  0.7253  0.0766  0.0658
   72MPD2    C4 1120   1.729   1.582   1.510  0.1755  0.3216  0.3382
   72MPD2    C5 1121   1.723   1.480   1.424 -0.5086 -0.3772  0.3756
   72MPD2     H 1122   2.062   1.626   1.540  0.0398  3.0106 -2.0187
   72MPD2    H1 1123   1.637   1.632   1.539  0.0308 -1.2396  2.5752
   72MPD2    H2 1124   1.836   1.320   1.339  1.8153  0.0381  0.4913
   72MPD2    H3 1125   1.630   1.433   1.393 -1.0750  1.1462 -0.2253
   72MPD2     N 1126   1.833   1.741   1.644 -0.1160 -0.4799 -0.0104
   72MPD2    H5 1127   1.737   1.760   1.670 -1.0479 -0.2910 -3.6752
   72MPD2    N1 1128   2.085   1.415   1.402  0.2541 -0.6427  0.1873
   72MPD2    H7 1129   2.166   1.457   1.446  0.4827  0.3318 -1.1632
   73TMC2    C1 1130   1.928   2.643  14.037  0.7967  0.9534 -0.0796
   73TMC2    C2 1131   1.867   2.647  14.160  0.0823  0.0101  0.0144
   73TMC2    C3 1132   1.947   2.645  14.274  0.6743 -0.3291 -0.6299
   73TMC2    C4 1133   2.064   2.644  14.030 -0.1790 -0.3397  0.5105
   73TMC2    C5 1134   2.141   2.663  14.139 -0.6281 -0.7054  0.2509
   73TMC2    C6 1135   2.083   2.656  14.265 -0.3891 -0.4654 -1.1816
   73TMC2     C 1136   1.879   2.755  13.959 -0.7421  0.0075  0.3784
   73TMC2     O 1137   1.956   2.849  13.944 -0.2250  0.2695 -0.0343
   73TMC2     H 1138   1.759   2.646  14.175 -0.3119  0.9880 -2.6017
   73TMC2    H1 1139   2.103   2.657  13.929 -1.0177  1.6621  0.4439
   73TMC2    H2 1140   2.145   2.647  14.353  0.0252  3.2215 -1.0606
   73TMC2    C7 1141   2.251   2.752  14.124 -0.0777  0.0108 -0.7345
   73TMC2    C8 1142   1.879   2.628  14.406  0.0457  0.9021 -0.2028
   73TMC2    O1 1143   2.347   2.746  14.201 -0.4972 -0.2211 -0.3521
   73TMC2    O2 1144   1.939   2.593  14.505  0.0587  0.1279 -0.1630
   73TMC2    O5 1145   1.781   2.719  14.403  0.5135 -0.1166 -0.8113
   73TMC2    H5 1146   1.753   2.750  14.314 -0.8693 -1.0396 -0.7032
   74MPD2     C 1147   1.504   3.052  13.764 -0.1420 -0.6505  0.0426
   74MPD2    C1 1148   1.634   3.079  13.797 -0.1391  0.0269 -0.5649
   74MPD2    C2 1149   1.717   2.979  13.850 -0.3049  0.5341  0.0879
   74MPD2    C3 1150   1.666   2.855  13.882 -0.3684  0.2647  0.2741
   74MPD2    C4 1151   1.533   2.837  13.848  0.0748 -0.3044 -0.6438
   74MPD2    C5 1152   1.453   2.930  13.792 -0.0323  0.7359 -0.2321
   74MPD2     H 1153   1.820   3.005  13.869  0.3686 -1.6305 -0.5591
   74MPD2    H1 1154   1.483   2.744  13.873  0.5640  0.0422  1.6549
   74MPD2    H2 1155   1.436   3.122  13.717 -0.9400 -0.6261  1.2426
   74MPD2    H3 1156   1.350   2.903  13.774  0.3457 -0.7083 -0.1998
   74MPD2     N 1157   1.740   2.753  13.938  0.2076  0.1594  0.3765
   74MPD2    H5 1158   1.682   2.675  13.965 -1.6217  0.9435 -1.2196
   74MPD2    N1 1159   1.681   3.210  13.758 -0.2583 -0.3735 -0.2822
   74MPD2    H7 1160   1.619   3.271  13.707  1.1947 -0.6493 -2.3966
   75TMC2    C1 1161   1.667   3.774  13.644  0.9111 -0.0930  0.5508
   75TMC2    C2 1162   1.588   3.679  13.692  0.1387 -0.7620  0.4672
   75TMC2    C3 1163   1.462   3.663  13.635  0.0551 -0.1734 -0.5136
   75TMC2    C4 1164   1.613   3.885  13.582  0.3946 -0.6139  0.2882
   75TMC2    C5 1165   1.483   3.869  13.528 -0.5769 -0.0127  0.7627
   75TMC2    C6 1166   1.410   3.755  13.550  0.6490  0.6992 -0.2690
   75TMC2     C 1167   1.793   3.786  13.712  0.4606  0.6510 -0.2551
   75TMC2     O 1168   1.798   3.718  13.811  0.1744 -0.1808 -0.0235
   75TMC2     H 1169   1.610   3.606  13.769 -0.2330 -0.0321  1.2657
   75TMC2    H1 1170   1.667   3.978  13.569 -1.5913  0.5770  0.5380
   75TMC2    H2 1171   1.313   3.740  13.504  0.1379  1.4365  0.5813
   75TMC2    C7 1172   1.411   3.989  13.483 -0.1612 -0.0590 -0.2315
   75TMC2    C8 1173   1.424   3.519  13.623 -0.2671  0.4259  0.2695
   75TMC2    O1 1174   1.305   3.971  13.425 -0.3714 -0.1250 -0.1687
   75TMC2    O2 1175   1.502   3.426  13.610  0.2738 -0.8273 -0.1296
   75TMC2    O5 1176   1.302   3.514  13.568 -0.1310  0.0998 -0.2461
   75TMC2    H5 1177   1.250   3.589  13.605  1.1782  1.3225 -0.8514
   76TMC2    C1 1178   4.685   4.140  12.066  0.2255  0.1739  0.4579
   76TMC2    C2 1179   4.681   4.006  12.028  0.0044 -1.0048  0.0242
   76TMC2    C3 1180   0.007   3.917  12.112 -0.5454 -0.5503  0.2793
   76TMC2    C4 1181   0.006   4.182  12.185 -0.1852 -0.9317 -0.2374
   76TMC2    C5 1182   0.063   4.086  12.263  0.6580 -0.0439 -0.0834
   76TMC2    C6 1183   0.058   3.953  12.235  0.5507 -0.1419  0.2945
   76TMC2     C 1184   4.702   4.231  11.955  0.0071 -0.2605  0.4938
   76TMC2     O 1185   0.026   4.334  11.982 -0.1913  0.5304  0.8278
   76TMC2     H 1186   4.632   3.959  11.943  1.1876 -1.3448 -0.4751
   76TMC2    H1 1187   0.004   4.288  12.207  0.4439 -1.4267  2.1626
   76TMC2    H2 1188   0.114   3.884  12.297  0.2813 -1.5526 -1.0363
   76TMC2    C7 1189   0.089   4.115  12.406  0.2193 -0.1526 -0.5305
   76TMC2    C8 1190   0.036   3.790  12.052  0.0628 -0.0521  1.1112
   76TMC2    O1 1191   0.093   4.020  12.481  0.7206 -1.0465  0.0623
   76TMC2    O2 1192   0.032   3.774  11.931 -0.1824 -0.3096  0.8097
   76TMC2    O5 1193   4.712   3.706  12.139 -0.8891 -0.7308  0.0735
   76TMC2    H5 1194   4.700   3.749  12.226  2.3020  3.1064 -1.3861
   77MPD2     C 1195   4.713   4.366  11.457  1.2022  0.5957  0.3143
   77MPD2    C1 1196   0.047   4.417  11.563  0.2618  0.1760  0.1569
   77MPD2    C2 1197   0.032   4.355  11.684  0.0623  0.5572  0.1363
   77MPD2    C3 1198   4.686   4.247  11.705 -0.0612  0.0982  0.5508
   77MPD2    C4 1199   4.620   4.194  11.593 -0.1674 -0.2756 -0.3840
   77MPD2    C5 1200   4.635   4.258  11.473  0.0505 -0.1893 -0.2350
   77MPD2     H 1201   0.087   4.402  11.765 -0.6096  0.0285  0.8972
   77MPD2    H1 1202   4.555   4.110  11.612 -0.4445  0.0455  0.0860
   77MPD2    H2 1203   4.725   4.414  11.360 -0.6149  0.6826  0.1312
   77MPD2    H3 1204   4.590   4.220  11.382  0.1577 -0.7332 -0.0614
   77MPD2     N 1205   4.662   4.183  11.831  0.0375  0.4948  0.9208
   77MPD2    H5 1206   4.595   4.108  11.833  0.9209 -0.3413 -1.1957
   77MPD2    N1 1207   0.122   4.541  11.553 -0.3232 -0.0826  0.0451
   77MPD2    H7 1208   0.161   4.567  11.644  1.5267 -0.2739 -0.7042
   78TMC2    C1 1209   1.923   1.465   1.915  0.1154  0.2862  0.3585
   78TMC2    C2 1210   1.786   1.429   1.918 -0.2911  0.0830  1.1103
   78TMC2    C3 1211   1.757   1.313   1.853  0.0482  0.1990 -0.0227
   78TMC2    C4 1212   2.019   1.407   1.833  0.3506  0.6568 -0.1598
   78TMC2    C5 1213   1.972   1.296   1.766 -0.2186  0.3320 -0.1597
   78TMC2    C6 1214   1.844   1.247   1.775  0.1617  0.1823  0.3192
   78TMC2     C 1215   1.976   1.574   1.990  0.1225  0.2400  0.3255
   78TMC2     O 1216   2.095   1.574   2.015  0.0881  0.5763 -0.0490
   78TMC2     H 1217   1.707   1.476   1.975 -0.5622  0.9632  0.0132
   78TMC2    H1 1218   2.124   1.433   1.836  0.2828  1.0219 -1.0193
   78TMC2    H2 1219   1.813   1.149   1.739 -0.6155  0.7883 -0.6516
   78TMC2    C7 1220   2.072   1.197   1.726  0.2028 -1.0016  0.3620
   78TMC2    C8 1221   1.644   1.243   1.885  0.1414  0.2631  0.3309
   78TMC2    O1 1222   2.041   1.080   1.740 -0.1698  0.0086 -0.0720
   78TMC2    O2 1223   1.599   1.272   1.996  0.4385  0.4974  0.4031
   78TMC2    O5 1224   1.569   1.273   1.776  0.4536 -0.3280  0.6970
   78TMC2    H5 1225   1.601   1.241   1.689 -2.8899 -1.4266 -0.1568
   79MPD1     C 1226   1.917   1.956   2.327  0.2787  0.6383  0.1569
   79MPD1    C1 1227   2.027   1.881   2.306 -0.5981 -0.2689 -0.8162
   79MPD1    C2 1228   2.017   1.768   2.222  0.0157  0.9926 -0.4916
   79MPD1    C3 1229   1.895   1.743   2.151  0.3500 -0.0446 -0.3572
   79MPD1    C4 1230   1.782   1.811   2.183  0.3501 -0.3518 -0.2061
   79MPD1    C5 1231   1.793   1.921   2.267 -0.1883  0.3739  0.0879
   79MPD1     H 1232   2.104   1.704   2.220 -1.8753 -1.5699 -0.2958
   79MPD1    H1 1233   1.688   1.777   2.142  0.3976 -0.0531 -0.5709
   79MPD1    H2 1234   1.922   2.033   2.403 -0.9854  1.4273 -0.5458
   79MPD1    H3 1235   1.706   1.979   2.295 -0.2029 -0.5890  2.0226
   79MPD1     N 1236   1.873   1.647   2.049 -0.5890  0.1401  0.2384
   79MPD1    H5 1237   1.779   1.624   2.019  0.5135 -0.9014 -2.4768
   79MPD1    N1 1238   2.137   1.893   2.387 -0.5052 -0.5062  0.2313
   79MPD1    H6 1239   2.220   1.863   2.336  1.0964  2.4264  1.0896
   79MPD1    H7 1240   2.158   1.982   2.432  0.8007 -0.5510 -0.2844
   80TMC2    C1 1241   4.371   4.460  12.047  0.4186  0.3273 -0.5073
   80TMC2    C2 1242   4.355   4.538  11.934  0.4166  0.0619 -0.3251
   80TMC2    C3 1243   4.348   4.479  11.813 -0.2379 -0.2063 -0.0047
   80TMC2    C4 1244   4.363   4.324  12.041  0.3584 -0.0468 -0.1560
   80TMC2    C5 1245   4.354   4.269  11.920 -0.4143 -0.1204  0.3051
   80TMC2    C6 1246   4.347   4.346  11.811 -0.5683  0.2701 -0.6230
   80TMC2     C 1247   4.335   4.511  12.173 -0.2278 -0.1128 -0.1820
   80TMC2     O 1248   4.417   4.496  12.264 -0.4625  0.1186  0.6574
   80TMC2     H 1249   4.357   4.646  11.949  1.4326  0.0767 -0.5814
   80TMC2    H1 1250   4.374   4.260  12.128  0.2129  0.9738  0.6146
   80TMC2    H2 1251   4.337   4.300  11.713  0.3202  1.8575 -1.4674
   80TMC2    C7 1252   4.345   4.119  11.909 -0.4463 -0.0254  0.2263
   80TMC2    C8 1253   4.340   4.559  11.699 -0.3149 -0.4818  0.0453
   80TMC2    O1 1254   4.418   4.078  11.817  0.3405  0.2515 -0.0366
   80TMC2    O2 1255   4.376   4.674  11.705  0.0535 -0.5253  0.7303
   80TMC2    O5 1256   4.223   4.522  11.647 -0.3535  0.3160  0.2090
   80TMC2    H5 1257   4.176   4.461  11.708 -0.6577 -0.8900 -1.2479
   81MPD2     C 1258   4.171   4.544  12.429 -0.6248  0.5129  0.0861
   81MPD2    C1 1259   4.121   4.555  12.296 -0.0125 -0.3930 -0.3984
   81MPD2    C2 1260   3.976   4.556  12.280 -0.4478  0.1782  1.1503
   81MPD2    C3 1261   3.898   4.566  12.394 -0.2995  0.2053  0.7010
   81MPD2    C4 1262   3.958   4.566  12.524 -0.2789 -0.3282  0.3403
   81MPD2    C5 1263   4.090   4.542  12.539  0.2033  0.0804 -0.3692
   81MPD2     H 1264   3.943   4.563  12.178 -0.6703 -2.6988  1.0142
   81MPD2    H1 1265   3.895   4.568  12.612  0.5625  0.7667  0.9156
   81MPD2    H2 1266   4.278   4.536  12.439 -0.6904 -0.0483  0.3617
   81MPD2    H3 1267   4.127   4.521  12.639  0.5055 -0.7665 -0.6601
   81MPD2     N 1268   3.762   4.578  12.382  0.0635 -0.1835  0.4486
   81MPD2    H5 1269   3.703   4.572  12.464 -0.0445  1.6063  0.5056
   81MPD2    N1 1270   4.203   4.541  12.178  0.3270  0.3006  0.5222
   81MPD2    H7 1271   4.147   4.545  12.093  1.2610  0.0434 -0.1086
   82TMC2    C1 1272   2.903   3.445  10.987 -0.1333  0.5920  0.3374
   82TMC2    C2 1273   3.016   3.413  11.058 -0.1363 -0.2614 -0.4141
   82TMC2    C3 1274   3.003   3.327  11.160 -0.1592  0.1879  0.4903
   82TMC2    C4 1275   2.782   3.394  11.028  0.1038 -0.0746 -0.1309
   82TMC2    C5 1276   2.781   3.313  11.144  0.6655  0.7629 -0.3125
   82TMC2    C6 1277   2.893   3.281  11.212  0.3625  0.1840  0.4074
   82TMC2     C 1278   2.914   3.553  10.885 -0.2211 -0.7244  0.2149
   82TMC2     O 1279   2.822   3.589  10.810  0.1458 -0.9852  0.6046
   82TMC2     H 1280   3.116   3.439  11.026 -0.1347 -1.0326 -1.0279
   82TMC2    H1 1281   2.691   3.435  10.987 -1.1033 -2.4751  0.1775
   82TMC2    H2 1282   2.891   3.229  11.307  1.1753  0.7455  0.7378
   82TMC2    C7 1283   2.659   3.251  11.195  0.2624 -0.2362 -0.5153
   82TMC2    C8 1284   3.123   3.273  11.228  1.0014  0.0657 -0.5191
   82TMC2    O1 1285   2.670   3.205  11.308 -0.3881 -0.3592  0.2287
   82TMC2    O2 1286   3.135   3.155  11.259 -0.3405  0.2978 -0.6229
   82TMC2    O5 1287   3.191   3.373  11.282 -0.3744  0.2873  0.2250
   82TMC2    H5 1288   3.171   3.467  11.262  1.0563  0.4524 -0.3942
   83MPD2     C 1289   3.135   4.016  10.832 -0.6434 -0.5687  0.4026
   83MPD2    C1 1290   3.001   3.978  10.815 -1.0852  0.4534  0.4894
   83MPD2    C2 1291   2.965   3.841  10.818 -0.4385  0.0481  0.1238
   83MPD2    C3 1292   3.064   3.747  10.843 -0.4084 -0.5458  0.2224
   83MPD2    C4 1293   3.194   3.785  10.854  1.1437  0.2937  0.1420
   83MPD2    C5 1294   3.227   3.916  10.853  0.0032  0.6859  0.3916
   83MPD2     H 1295   2.861   3.811  10.821 -0.0715 -1.1434  0.5750
   83MPD2    H1 1296   3.272   3.712  10.875 -2.1373 -2.7642  1.7154
   83MPD2    H2 1297   3.154   4.123  10.842  0.7678 -0.9895  2.3873
   83MPD2    H3 1298   3.330   3.943  10.869  0.0609  0.2769  0.6776
   83MPD2     N 1299   3.036   3.617  10.886  0.1378 -0.6190  0.5265
   83MPD2    H5 1300   3.110   3.563  10.930  0.5228 -1.8951 -1.6757
   83MPD2    N1 1301   2.914   4.090  10.803 -0.6125  0.0472  0.4066
   83MPD2    H7 1302   2.961   4.180  10.808 -0.1045 -0.1951 -0.0569
   84TMC2    C1 1303   3.881   3.475  11.328 -0.0085  0.7065 -0.2790
   84TMC2    C2 1304   3.894   3.405  11.444  0.6251  0.3644  0.1369
   84TMC2    C3 1305   3.937   3.277  11.437  0.8362 -0.4999 -0.0985
   84TMC2    C4 1306   3.919   3.425  11.203  0.6547  0.2838 -0.3010
   84TMC2    C5 1307   3.972   3.299  11.202 -0.0591  0.3920 -0.2402
   84TMC2    C6 1308   3.983   3.228  11.318 -0.1044 -0.6504 -1.0177
   84TMC2     C 1309   3.794   3.591  11.335 -0.4008  0.0701 -0.1529
   84TMC2     O 1310   3.729   3.598  11.439  0.0678 -0.0509 -0.5913
   84TMC2     H 1311   3.863   3.445  11.540  0.4042  1.2964 -0.3235
   84TMC2    H1 1312   3.897   3.471  11.107  0.7348  1.1484  0.1013
   84TMC2    H2 1313   4.023   3.128  11.308 -0.6104 -1.0916  1.3482
   84TMC2    C7 1314   4.055   3.247  11.088  0.3070  0.2060  0.4920
   84TMC2    C8 1315   3.972   3.203  11.557 -0.4087  0.3741  0.7284
   84TMC2    O1 1316   4.090   3.131  11.090  0.5955 -0.3285 -0.3303
   84TMC2    O2 1317   4.001   3.263  11.659  0.2808  0.2012  0.0500
   84TMC2    O5 1318   4.030   3.087  11.530  0.5567  0.1410  0.3003
   84TMC2    H5 1319   4.014   3.043  11.444 -0.0116  0.2376  0.3562
   85TMC2    C1 1320   0.030   1.393  15.813 -0.5455  0.7878 -0.4264
   85TMC2    C2 1321   4.657   1.437  15.740 -0.4931 -0.3383 -0.3582
   85TMC2    C3 1322   4.668   1.490  15.613  0.5578  0.1104 -0.0736
   85TMC2    C4 1323   0.154   1.388  15.759 -0.9330  0.0698  0.3117
   85TMC2    C5 1324   0.160   1.432  15.625  0.0037 -0.5822  0.3638
   85TMC2    C6 1325   0.055   1.478  15.552  0.1054 -0.1151 -0.1261
   85TMC2     C 1326   0.012   1.321  15.933 -0.3602 -0.6572  0.2496
   85TMC2     O 1327   0.092   1.335  16.026 -0.1409  0.6175 -0.0606
   85TMC2     H 1328   4.562   1.454  15.791 -0.9846 -1.4146 -0.9377
   85TMC2    H1 1329   0.239   1.351  15.814  0.0162  1.4046 -0.2616
   85TMC2    H2 1330   0.053   1.498  15.445  1.7730 -1.5017 -0.4064
   85TMC2    C7 1331   0.283   1.417  15.552  0.1867 -0.1495  0.1007
   85TMC2    C8 1332   4.561   1.561  15.549 -0.0302 -0.1299 -0.7633
   85TMC2    O1 1333   0.355   1.332  15.601 -0.8953 -0.4379  0.1648
   85TMC2    O2 1334   4.441   1.546  15.562 -0.4357  0.0491 -0.0513
   85TMC2    O5 1335   4.611   1.659  15.476 -0.1601  0.4953  1.3346
   85TMC2    H5 1336   4.708   1.668  15.485 -0.3968  2.2796  1.9758
   86MPD2     C 1337   4.489   0.998  16.230  0.5106 -0.8537  0.8130
   86MPD2    C1 1338   4.437   0.983  16.102 -0.0867 -0.0844  0.4547
   86MPD2    C2 1339   4.475   1.073  16.001 -0.6165  0.2567  0.6738
   86MPD2    C3 1340   4.579   1.163  16.030 -0.8265  0.2697  0.9296
   86MPD2    C4 1341   4.629   1.171  16.158 -0.5206  0.4795  0.1320
   86MPD2    C5 1342   4.579   1.099  16.259 -0.3325 -0.2677  0.0432
   86MPD2     H 1343   4.427   1.065  15.904  0.1089  2.1164  0.1638
   86MPD2    H1 1344   4.697   1.251  16.186  1.2514 -0.9399 -0.0740
   86MPD2    H2 1345   4.477   0.925  16.309 -0.7827 -0.5264  0.9285
   86MPD2    H3 1346   4.611   1.112  16.362 -1.3076 -1.5777  0.5098
   86MPD2     N 1347   4.629   1.246  15.926 -0.0284  0.3010  0.4394
   86MPD2    H5 1348   4.586   1.230  15.835 -0.4294  1.4393  0.4324
   86MPD2    N1 1349   4.333   0.890  16.082 -0.1761 -0.8737 -0.2663
   86MPD2    H7 1350   4.302   0.880  15.986  0.7990  1.6288 -0.8618
   87TMC2    C1 1351   2.598   3.994   0.749  0.2309  0.4115  0.0822
   87TMC2    C2 1352   2.705   4.076   0.759  0.2949  0.3956  0.0885
   87TMC2    C3 1353   2.690   4.199   0.812 -0.3501  0.6725 -0.3312
   87TMC2    C4 1354   2.470   4.032   0.784  0.9949 -0.0980  1.1171
   87TMC2    C5 1355   2.457   4.157   0.833 -0.2640  0.6276 -0.2480
   87TMC2    C6 1356   2.565   4.242   0.841 -0.7496  0.3773  0.0378
   87TMC2     C 1357   2.627   3.857   0.694 -0.3141 -0.1696  0.9312
   87TMC2     O 1358   2.727   3.845   0.626 -0.1880 -0.0945  0.2470
   87TMC2     H 1359   2.805   4.037   0.740  1.0017  3.1442 -1.7289
   87TMC2    H1 1360   2.381   3.973   0.767  0.0543  2.1055 -1.5909
   87TMC2    H2 1361   2.541   4.345   0.865  1.7326  0.7456  0.9795
   87TMC2    C7 1362   2.327   4.194   0.877  0.1356 -0.9718  0.3305
   87TMC2    C8 1363   2.802   4.302   0.821 -0.1503  0.0084  0.0791
   87TMC2    O1 1364   2.234   4.150   0.818 -0.1303  0.3142 -0.0317
   87TMC2    O2 1365   2.911   4.279   0.775 -0.1615 -0.3092 -0.0604
   87TMC2    O5 1366   2.779   4.343   0.952 -0.2973 -0.2627 -0.0717
   87TMC2    H5 1367   2.691   4.314   0.984  0.1588  0.0605  1.4861
   88MPD2     C 1368   2.249   4.384   1.185 -0.6905  0.6927 -0.5434
   88MPD2    C1 1369   2.224   4.327   1.063  0.1183  0.3743 -0.1242
   88MPD2    C2 1370   2.101   4.350   1.012  0.2930 -0.3919 -0.1239
   88MPD2    C3 1371   2.006   4.433   1.069  0.0880  0.1614 -0.8010
   88MPD2    C4 1372   2.036   4.489   1.189 -0.3471 -0.3154 -0.2185
   88MPD2    C5 1373   2.153   4.453   1.252  0.6533 -1.0148 -0.8062
   88MPD2     H 1374   2.087   4.322   0.908 -3.1862 -1.3243  0.5860
   88MPD2    H1 1375   1.969   4.554   1.244 -2.0912 -1.3331 -1.1292
   88MPD2    H2 1376   2.341   4.368   1.240 -0.3823  0.3194 -1.1733
   88MPD2    H3 1377   2.169   4.485   1.355  0.4807 -0.9429 -0.8017
   88MPD2     N 1378   1.878   4.476   1.023  0.1216  0.1081 -0.0111
   88MPD2    H5 1379   1.842   4.556   1.075 -0.8069  0.2865 -0.9194
   88MPD2    N1 1380   2.335   4.260   0.996  0.1383  0.2706  0.6737
   88MPD2    H7 1381   2.425   4.274   1.041  0.7464 -0.6380 -0.2540
   89TMC2    C1 1382   3.732   2.688   2.363 -0.1012 -0.2092 -0.9841
   89TMC2    C2 1383   3.867   2.668   2.370  0.1187  0.6497  0.0346
   89TMC2    C3 1384   3.953   2.728   2.288 -0.0983  0.2093  0.0099
   89TMC2    C4 1385   3.682   2.785   2.289  0.4273  0.0495 -0.5415
   89TMC2    C5 1386   3.770   2.854   2.211 -1.2880 -0.0109 -0.0955
   89TMC2    C6 1387   3.905   2.827   2.210  0.1765  0.3272  1.0989
   89TMC2     C 1388   3.652   2.579   2.416 -0.0578  0.1888 -0.0683
   89TMC2     O 1389   3.696   2.497   2.497  0.1718  0.1947 -0.1377
   89TMC2     H 1390   3.905   2.596   2.442 -0.5424  1.8644  1.6150
   89TMC2    H1 1391   3.585   2.831   2.307 -0.2507 -1.4319 -0.3650
   89TMC2    H2 1392   3.974   2.890   2.154  0.6270 -1.4091 -0.2832
   89TMC2    C7 1393   3.705   2.947   2.121  0.4850 -0.7082  0.2873
   89TMC2    C8 1394   4.100   2.701   2.294  0.1627  0.0808 -0.6015
   89TMC2    O1 1395   3.590   2.981   2.152 -0.4808 -0.4152  0.4922
   89TMC2    O2 1396   4.183   2.704   2.207 -0.0028  0.2021  0.6529
   89TMC2    O5 1397   4.124   2.689   2.422 -0.5785 -0.2271 -0.0477
   89TMC2    H5 1398   4.060   2.720   2.489 -0.2769 -0.6149  0.4289
   90MPD2     C 1399   3.189   2.349   2.464 -0.9380 -0.4503  0.9900
   90MPD2    C1 1400   3.197   2.406   2.339  0.0311  0.1557 -0.9746
   90MPD2    C2 1401   3.307   2.478   2.303 -0.3312 -0.7142  0.0447
   90MPD2    C3 1402   3.421   2.476   2.384  0.4187 -0.7444 -0.7757
   90MPD2    C4 1403   3.417   2.407   2.509 -0.1532  0.6233 -0.4768
   90MPD2    C5 1404   3.301   2.351   2.547  0.5786  0.0625 -0.2336
   90MPD2     H 1405   3.318   2.515   2.202  1.3361  0.1943  0.5501
   90MPD2    H1 1406   3.499   2.396   2.579 -0.6062  1.4702  0.1910
   90MPD2    H2 1407   3.109   2.294   2.512 -2.3445  0.3585 -0.4344
   90MPD2    H3 1408   3.302   2.295   2.640 -1.8700 -0.8126 -0.7393
   90MPD2     N 1409   3.532   2.562   2.345 -0.6795  0.3638  0.0608
   90MPD2    H5 1410   3.515   2.614   2.260  2.3255 -4.1553 -3.2760
   90MPD2    N1 1411   3.091   2.402   2.241 -0.1148 -0.0948  0.1369
   90MPD2    H7 1412   3.097   2.459   2.157 -0.0354 -0.3419 -0.0232
   91TMC2    C1 1413   4.586   2.134  16.108  0.3655 -0.1567 -0.0788
   91TMC2    C2 1414   4.643   2.158  16.229 -0.0932  0.2184  0.5305
   91TMC2    C3 1415   4.567   2.167  16.343 -0.0521 -0.1202  0.1357
   91TMC2    C4 1416   4.452   2.123  16.091 -0.9425  0.3817 -0.2030
   91TMC2    C5 1417   4.373   2.131  16.204 -0.0441 -0.3274  0.4166
   91TMC2    C6 1418   4.429   2.158  16.328  1.4092 -0.2219  0.3175
   91TMC2     C 1419   4.657   2.133  15.988 -0.3429 -0.0028 -0.1185
   91TMC2     O 1420   4.589   2.174  15.889 -0.0169  0.2381  0.4150
   91TMC2     H 1421   0.016   2.163  16.237 -0.0924  0.8512  0.1652
   91TMC2    H1 1422   4.409   2.103  15.994 -0.1114  1.5356 -0.8094
   91TMC2    H2 1423   4.367   2.144  16.416 -1.4661 -0.5550 -1.7318
   91TMC2    C7 1424   4.236   2.085  16.211 -0.2998  1.0972 -0.1261
   91TMC2    C8 1425   4.616   2.138  16.480  0.0082  0.4689  0.1887
   91TMC2    O1 1426   4.172   2.089  16.312 -0.1123  0.2050 -0.5237
   91TMC2    O2 1427   4.547   2.098  16.574 -0.3414  0.0862 -0.3021
   91TMC2    O5 1428   4.729   2.212  16.491 -0.4730 -0.3436 -0.6283
   91TMC2    H5 1429   0.003   2.269  16.412 -0.4667  0.5240 -0.0088
   92MPD2     C 1430   0.116   2.181  15.768  0.1925 -0.3997  0.2245
   92MPD2    C1 1431   0.147   2.114  15.886  0.0302  0.5473  0.3416
   92MPD2    C2 1432   0.274   2.077  15.908  0.1546 -0.8370 -0.4212
   92MPD2    C3 1433   0.373   2.112  15.822  0.1911  1.3034  0.1449
   92MPD2    C4 1434   0.348   2.183  15.704 -0.1743  0.6143 -0.1793
   92MPD2    C5 1435   0.219   2.209  15.675 -0.2781  0.6283 -0.8682
   92MPD2     H 1436   0.300   2.026  16.000 -2.8941 -0.4276  0.6934
   92MPD2    H1 1437   0.425   2.216  15.634 -0.5854 -2.3977 -2.0646
   92MPD2    H2 1438   0.015   2.209  15.739  0.6359  0.7169 -0.2316
   92MPD2    H3 1439   0.195   2.263  15.584 -1.0375  0.3565 -0.8291
   92MPD2     N 1440   0.507   2.077  15.858 -0.0853  0.2691  0.1145
   92MPD2    H5 1441   0.515   2.047  15.954  0.8371  1.4230  0.3932
   92MPD2    N1 1442   0.057   2.092  15.993  0.4825  0.4990 -0.3177
   92MPD2    H7 1443   0.085   2.039  16.075  2.5549  0.8966 -0.7819
   93TMC2    C1 1444   1.714   2.102  13.781  0.1072 -0.1685  0.0024
   93TMC2    C2 1445   1.620   2.204  13.788  0.4866  0.2244  0.3879
   93TMC2    C3 1446   1.667   2.328  13.824  0.1747 -0.0442  0.2477
   93TMC2    C4 1447   1.840   2.113  13.836 -0.6333  0.1504  0.7658
   93TMC2    C5 1448   1.876   2.231  13.878 -0.6060  0.5315  0.6004
   93TMC2    C6 1449   1.793   2.343  13.873 -0.5918  0.5148  0.1828
   93TMC2     C 1450   1.667   1.964  13.743  0.3556 -0.0113 -0.3964
   93TMC2     O 1451   1.707   1.877  13.814 -0.3094  0.5285  0.0466
   93TMC2     H 1452   1.524   2.195  13.738  1.3033  0.5973 -1.2431
   93TMC2    H1 1453   1.907   2.028  13.838 -0.5256  0.1825 -0.9223
   93TMC2    H2 1454   1.821   2.435  13.923 -1.1706  0.7752  0.0365
   93TMC2    C7 1455   2.016   2.261  13.883 -0.6617 -0.2104  0.6823
   93TMC2    C8 1456   1.575   2.427  13.883 -0.6979 -0.0764  0.4189
   93TMC2    O1 1457   2.096   2.199  13.946  0.1446 -0.9250 -0.6790
   93TMC2    O2 1458   1.617   2.504  13.970 -0.6821 -0.2544  0.6631
   93TMC2    O5 1459   1.447   2.396  13.862  0.0360 -0.3313  0.1824
   93TMC2    H5 1460   1.437   2.377  13.766 -0.6109  1.0972 -0.0346
   94MPD2     C 1461   1.446   1.758  13.692 -0.7703  0.7800 -0.0339
   94MPD2    C1 1462   1.470   1.880  13.624 -0.1045 -0.8342  0.3468
   94MPD2    C2 1463   1.380   1.920  13.530 -0.0305 -0.0673  0.2707
   94MPD2    C3 1464   1.266   1.850  13.498  0.3406  0.7959  0.5938
   94MPD2    C4 1465   1.240   1.743  13.577  0.3965 -0.3304 -0.2809
   94MPD2    C5 1466   1.324   1.705  13.674  0.0451 -0.3560  0.2094
   94MPD2     H 1467   1.381   2.003  13.460  0.9648  0.0716  0.4562
   94MPD2    H1 1468   1.150   1.684  13.566 -0.5748  1.1445 -0.2681
   94MPD2    H2 1469   1.516   1.726  13.767 -0.4470  0.7696 -0.3403
   94MPD2    H3 1470   1.298   1.620  13.736  1.8588 -0.5454  0.7166
   94MPD2     N 1471   1.178   1.905  13.399 -0.1187 -0.3700  0.1728
   94MPD2    H5 1472   1.219   1.986  13.353  0.8304 -1.2003 -0.4505
   94MPD2    N1 1473   1.568   1.977  13.653  0.1886 -0.0671 -0.5680
   94MPD2    H7 1474   1.570   2.059  13.594 -0.9503  0.3195 -0.0848
   95TMC2    C1 1475   1.934   3.458  16.381 -0.3519  0.0390 -0.1425
   95TMC2    C2 1476   1.961   3.373  16.484 -0.3350 -0.2709 -0.0651
   95TMC2    C3 1477   1.936   3.405  16.612 -0.3513 -0.7495 -0.4687
   95TMC2    C4 1478   1.871   3.573  16.403 -0.5655  0.0704 -0.3459
   95TMC2    C5 1479   1.830   3.599  16.533 -0.6434  0.3781  0.2730
   95TMC2    C6 1480   1.869   3.524  16.643  0.4495  0.2130  0.4038
   95TMC2     C 1481   2.012   3.456  16.257 -0.3557  0.2680  0.1193
   95TMC2     O 1482   2.017   3.568  16.195 -0.3620 -0.2230  0.0795
   95TMC2     H 1483   2.017   3.281  16.477 -2.7210 -1.7901  0.7111
   95TMC2    H1 1484   1.837   3.631  16.318  1.1678  1.2158 -0.2585
   95TMC2    H2 1485   1.848   3.556  16.745  1.3850  2.3669 -0.0693
   95TMC2    C7 1486   1.725   3.701  16.553  0.4329 -0.2231  0.4057
   95TMC2    C8 1487   1.960   3.298  16.712 -0.2669  0.8194 -0.0470
   95TMC2    O1 1488   1.714   3.778  16.462  0.5248 -0.3338  0.2354
   95TMC2    O2 1489   1.951   3.180  16.692 -0.3958  0.4289 -0.0997
   95TMC2    O5 1490   1.998   3.353  16.828 -0.0808 -0.1556  0.2659
   95TMC2    H5 1491   2.021   3.448  16.816 -0.5010 -0.1859 -0.8013
   96MPD2     C 1492   2.290   3.256  15.871  0.1746 -0.3092 -0.1793
   96MPD2    C1 1493   2.253   3.383  15.901 -0.2277  0.3323  0.0427
   96MPD2    C2 1494   2.182   3.408  16.013 -0.0229 -0.4094  0.0175
   96MPD2    C3 1495   2.146   3.309  16.105 -0.2886 -0.6297 -0.2065
   96MPD2    C4 1496   2.189   3.183  16.073 -0.3771 -0.3576  0.9552
   96MPD2    C5 1497   2.259   3.157  15.959 -0.0476 -0.3396  0.4012
   96MPD2     H 1498   2.156   3.512  16.028 -0.0059 -0.0011 -2.8824
   96MPD2    H1 1499   2.175   3.101  16.143  0.0681  0.0479  1.5218
   96MPD2    H2 1500   2.343   3.234  15.779 -0.3850 -1.8631 -0.1207
   96MPD2    H3 1501   2.295   3.056  15.946  2.3014  0.6194 -0.6096
   96MPD2     N 1502   2.066   3.331  16.220  0.5031  0.2076  0.8318
   96MPD2    H5 1503   2.058   3.250  16.281  1.2361  0.0480  0.7178
   96MPD2    N1 1504   2.286   3.491  15.816  0.0440  0.0216 -0.6854
   96MPD2    H7 1505   2.238   3.579  15.834 -1.2331 -1.0172  1.0206
   97TMC2    C1 1506   4.275   1.419   0.200 -0.0792 -0.2363 -0.1992
   97TMC2    C2 1507   4.236   1.367   0.080 -0.0826 -0.2896 -0.1744
   97TMC2    C3 1508   4.260   1.441  17.712 -0.2146 -0.5114  0.4368
   97TMC2    C4 1509   4.330   1.546   0.206 -0.2126 -0.2249  0.0062
   97TMC2    C5 1510   4.348   1.618   0.098  0.3310  0.5165 -0.7760
   97TMC2    C6 1511   4.314   1.567  17.717  0.0270 -0.7056  0.2659
   97TMC2     C 1512   4.208   1.378   0.319 -1.2721 -0.2416 -0.1403
   97TMC2     O 1513   4.191   1.467   0.407  0.0782 -0.2981 -0.2638
   97TMC2     H 1514   4.185   1.271   0.074  1.2692 -0.9499 -1.1880
   97TMC2    H1 1515   4.369   1.593   0.296  2.4077  1.2427 -1.8959
   97TMC2    H2 1516   4.328   1.629  17.629  0.7108 -0.6759  0.3901
   97TMC2    C7 1517   4.419   1.749   0.101 -0.1662  0.4508  0.2355
   97TMC2    C8 1518   4.200   1.398  17.587  0.4610  0.0019  0.1134
   97TMC2    O1 1519   4.494   1.767   0.197  0.0105  1.1183  0.4424
   97TMC2    O2 1520   4.107   1.321  17.584  0.2206  0.3586 -0.1336
   97TMC2    O5 1521   4.299   1.401  17.495  0.3545 -0.0331  0.0690
   97TMC2    H5 1522   4.387   1.434  17.524  2.2502 -2.7000 -2.5989
   98MPD2     C 1523   4.052   1.013   0.640  0.3020 -0.2123 -0.0755
   98MPD2    C1 1524   4.088   1.142   0.665 -0.1950 -0.5279 -0.3895
   98MPD2    C2 1525   4.136   1.218   0.558  0.0712  0.1831 -0.3485
   98MPD2    C3 1526   4.139   1.169   0.431 -0.4652  0.5106  0.3886
   98MPD2    C4 1527   4.105   1.042   0.415  0.3749 -0.6168  0.5993
   98MPD2    C5 1528   4.063   0.967   0.516 -0.4152 -0.1553  0.0002
   98MPD2     H 1529   4.174   1.318   0.573  0.3534 -0.2405  1.7078
   98MPD2    H1 1530   4.107   0.999   0.316 -0.8111 -2.8205  1.5239
   98MPD2    H2 1531   4.018   0.948   0.719  0.5270 -1.7162 -1.2180
   98MPD2    H3 1532   4.040   0.862   0.504  0.0032 -0.1546 -0.8547
   98MPD2     N 1533   4.182   1.240   0.318  0.3499 -0.0686 -0.1727
   98MPD2    H5 1534   4.191   1.194   0.228 -1.0587  2.2151 -1.4881
   98MPD2    N1 1535   4.072   1.199   0.796 -0.6872  0.6793  0.4814
   98MPD2    H7 1536   4.044   1.138   0.872 -0.6012  1.7282  1.3650
   99TMC2    C1 1537   3.051   2.855   2.312  1.0114 -0.4290 -0.2856
   99TMC2    C2 1538   3.087   2.792   2.430 -0.0251 -0.4283 -0.6350
   99TMC2    C3 1539   2.995   2.758   2.520  0.3860 -0.0302 -1.5861
   99TMC2    C4 1540   2.920   2.899   2.298 -0.0464  0.4448  0.1103
   99TMC2    C5 1541   2.833   2.875   2.400 -0.2383 -0.5294  0.1820
   99TMC2    C6 1542   2.865   2.801   2.513  0.6040 -0.6914  0.4812
   99TMC2     C 1543   3.147   2.899   2.217 -0.0509  0.0799 -0.5388
   99TMC2     O 1544   3.263   2.923   2.247 -0.2579  0.3924  0.2858
   99TMC2     H 1545   3.192   2.771   2.446 -0.8471 -2.4172  2.0678
   99TMC2    H1 1546   2.885   2.963   2.218 -2.3278 -0.6705  0.2109
   99TMC2    H2 1547   2.799   2.781   2.596  0.6135  0.6283  0.8026
   99TMC2    C7 1548   2.694   2.919   2.394  0.0959  0.3826 -0.2406
   99TMC2    C8 1549   3.017   2.640   2.597  0.4813 -1.0520  0.6093
   99TMC2    O1 1550   2.635   2.952   2.499 -0.2482  0.4792  0.1618
   99TMC2    O2 1551   3.123   2.611   2.654 -0.0305  0.7871  0.1166
   99TMC2    O5 1552   2.902   2.565   2.587  0.2275 -0.1539 -0.5633
   99TMC2    H5 1553   2.842   2.594   2.514  0.4705 -0.8283 -1.0366
  100MPD2     C 1554   3.267   2.995   1.954 -0.5334  0.4217 -0.3664
  100MPD2    C1 1555   3.135   2.964   1.975  1.3433 -0.2574 -0.2908
  100MPD2    C2 1556   3.046   2.972   1.874 -0.0387 -0.0944 -0.0222
  100MPD2    C3 1557   3.089   3.006   1.749 -0.2005 -0.9342  0.4061
  100MPD2    C4 1558   3.219   3.040   1.728 -0.5718 -0.5022 -0.0927
  100MPD2    C5 1559   3.307   3.033   1.826 -0.4065 -0.3206 -0.1440
  100MPD2     H 1560   2.941   2.946   1.882 -0.6733  2.3753 -0.3540
  100MPD2    H1 1561   3.259   3.067   1.631  1.8239  1.0238  1.3345
  100MPD2    H2 1562   3.343   2.996   2.030  0.4401  3.3507 -1.4001
  100MPD2    H3 1563   3.415   3.041   1.815 -0.7300  1.2581 -2.2223
  100MPD2     N 1564   2.995   2.997   1.645  0.1264 -0.7536  0.4043
  100MPD2    H5 1565   2.899   2.988   1.676 -0.9036 -0.1738 -2.6192
  100MPD2    N1 1566   3.085   2.911   2.095  0.0416  0.4758 -0.0221
  100MPD2    H7 1567   2.988   2.882   2.092  0.8352 -2.1157 -0.8354
  101TMC2    C1 1568   3.171   4.056  12.991  0.8040  0.5714 -0.0526
  101TMC2    C2 1569   3.276   3.973  12.998 -0.5871  0.2554 -0.0454
  101TMC2    C3 1570   3.400   4.022  12.951 -0.0380 -0.8331  0.0993
  101TMC2    C4 1571   3.175   4.175  12.916  0.6129  0.7472 -0.1395
  101TMC2    C5 1572   3.296   4.212  12.864  0.3017 -0.1673  0.0482
  101TMC2    C6 1573   3.412   4.144  12.881  0.3319 -0.0087  0.4131
  101TMC2     C 1574   3.075   4.046  13.099  0.1833 -0.0428 -0.5587
  101TMC2     O 1575   3.032   4.154  13.141 -0.5155  0.0398  0.0884
  101TMC2     H 1576   3.282   3.883  13.057  0.0834  0.2337 -0.1447
  101TMC2    H1 1577   3.091   4.242  12.926  1.2862  1.3868  1.3261
  101TMC2    H2 1578   3.509   4.178  12.845  0.0127  0.6363  0.1666
  101TMC2    C7 1579   3.318   4.348  12.810 -0.3259  0.3229  0.1291
  101TMC2    C8 1580   3.521   3.963  12.990  0.4613 -0.2909  0.5008
  101TMC2    O1 1581   3.437   4.383  12.797  0.0253 -0.5484 -0.0326
  101TMC2    O2 1582   3.519   3.858  13.050  0.2310  0.5389  0.0578
  101TMC2    O5 1583   3.578   4.070  13.052 -0.1453  1.3370  0.0839
  101TMC2    H5 1584   3.586   4.152  12.999  1.7358  1.7482  0.9760
  102MPD2     C 1585   2.916   3.755  13.239 -0.5364  0.0018 -0.4119
  102MPD2    C1 1586   2.971   3.881  13.241 -0.4241  0.6559 -0.6859
  102MPD2    C2 1587   2.923   3.971  13.335 -1.0686 -0.3856 -0.0115
  102MPD2    C3 1588   2.827   3.936  13.426  0.3972 -0.4118 -0.0794
  102MPD2    C4 1589   2.768   3.812  13.423 -0.3301 -0.6800 -0.4070
  102MPD2    C5 1590   2.818   3.725  13.338  0.3467  0.1622 -0.1591
  102MPD2     H 1591   2.960   4.072  13.339 -0.0321 -0.7125 -1.4841
  102MPD2    H1 1592   2.687   3.777  13.486 -0.0228 -1.1220 -0.2590
  102MPD2    H2 1593   2.944   3.686  13.160  1.1104  1.4297 -1.0528
  102MPD2    H3 1594   2.774   3.626  13.333 -0.4184  0.4391  1.2617
  102MPD2     N 1595   2.782   4.043  13.504  0.4119 -0.0742  0.1847
  102MPD2    H5 1596   2.829   4.130  13.480 -1.3513  0.9375  0.3984
  102MPD2    N1 1597   3.060   3.918  13.148  0.7758  0.2705 -0.5070
  102MPD2    H7 1598   3.090   3.845  13.084  1.3777 -1.2348  1.4929
  103TMC2    C1 1599   0.313   0.117  12.611  0.2239 -0.2715  0.0402
  103TMC2    C2 1600   0.351   0.207  12.515 -0.2931 -0.2411  0.3525
  103TMC2    C3 1601   0.412   0.318  12.556  0.1884  0.4869  0.4591
  103TMC2    C4 1602   0.341   0.136  12.744  0.0947  0.1706 -0.5422
  103TMC2    C5 1603   0.405   0.255  12.775 -1.2546  0.4559  0.3217
  103TMC2    C6 1604   0.433   0.349  12.686  1.0291  0.4313  0.2165
  103TMC2     C 1605   0.320   4.719  12.561  0.5315 -0.0414 -0.6135
  103TMC2     O 1606   0.281   4.700  12.445  0.4372  0.6981  0.3529
  103TMC2     H 1607   0.359   0.178  12.410 -3.2327  0.1495  0.0135
  103TMC2    H1 1608   0.316   0.065  12.822  1.2635 -1.0654 -1.2890
  103TMC2    H2 1609   0.480   0.440  12.721 -0.4490  1.1089  0.4463
  103TMC2    C7 1610   0.482   0.254  12.893  0.1736  0.1711 -0.2763
  103TMC2    C8 1611   0.443   0.420  12.457  0.6046  0.3322  0.4131
  103TMC2    O1 1612   0.428   0.211  12.999  1.3548  0.2741  0.1419
  103TMC2    O2 1613   0.450   0.388  12.338 -0.5841  0.4252 -0.1404
  103TMC2    O5 1614   0.399   0.538  12.501 -0.4468  0.2522  0.5293
  103TMC2    H5 1615   0.360   0.538  12.591  1.6653  1.3177  1.4348
  104MPD2     C 1616   0.369   4.405  12.738  0.9657  0.1409  0.2415
  104MPD2    C1 1617   0.324   4.486  12.633 -0.9095  0.5374 -0.0002
  104MPD2    C2 1618   0.242   4.429  12.534  0.1530  0.5075 -0.0290
  104MPD2    C3 1619   0.214   4.294  12.531  0.0478 -0.2440 -0.4803
  104MPD2    C4 1620   0.263   4.218  12.633  1.2768  0.0148  1.1321
  104MPD2    C5 1621   0.345   4.270  12.735 -0.0865  0.3170  0.7939
  104MPD2     H 1622   0.194   4.487  12.457 -1.2070 -0.7392 -0.1250
  104MPD2    H1 1623   0.240   4.112  12.637  3.0524 -0.3720  1.2656
  104MPD2    H2 1624   0.436   4.444  12.815  2.5182 -2.0319 -0.0074
  104MPD2    H3 1625   0.385   4.206  12.813 -1.8180  0.0311  1.4499
  104MPD2     N 1626   0.131   4.244  12.427  0.3608 -0.1423  0.5782
  104MPD2    H5 1627   0.128   4.299  12.342  0.0849  1.0266  1.3558
  104MPD2    N1 1628   0.356   4.622  12.646  0.7029  0.8162 -0.4316
  104MPD2    H7 1629   0.403   4.653  12.731  0.9674  2.6292 -1.2213
  105TMC2    C1 1630   3.104   3.162   0.417 -0.4361 -0.0178  0.0795
  105TMC2    C2 1631   3.088   3.043   0.482 -0.5998 -0.1800  0.4240
  105TMC2    C3 1632   2.982   3.042   0.577  0.0897  0.4139  0.6059
  105TMC2    C4 1633   3.026   3.270   0.446 -0.8486  0.2504 -0.0477
  105TMC2    C5 1634   2.931   3.264   0.544 -0.2751 -0.3740  0.4656
  105TMC2    C6 1635   2.907   3.150   0.615  0.3500  0.1316 -0.4657
  105TMC2     C 1636   3.230   3.176   0.353  0.1683  0.1879 -0.2020
  105TMC2     O 1637   3.323   3.111   0.404 -0.5062 -0.2138  0.3390
  105TMC2     H 1638   3.157   2.961   0.469 -0.3468  0.3353 -1.4663
  105TMC2    H1 1639   3.035   3.364   0.393 -3.6212  1.0378  0.8989
  105TMC2    H2 1640   2.865   3.150   0.715 -0.0998  0.0300 -0.6577
  105TMC2    C7 1641   2.855   3.380   0.576 -0.3964 -0.4095 -0.5746
  105TMC2    C8 1642   3.008   2.965   0.696 -0.8907  0.3815  0.2429
  105TMC2    O1 1643   2.893   3.492   0.555  0.1631  0.7868  0.5988
  105TMC2    O2 1644   3.048   3.020   0.797 -0.1232  0.6197  0.1772
  105TMC2    O5 1645   3.018   2.831   0.658 -0.2457 -0.1496  0.0732
  105TMC2    H5 1646   2.974   2.815   0.571  1.2793  3.4363 -1.3495
  106MPD2     C 1647   3.597   3.375   0.075 -0.7438  0.7642  0.3409
  106MPD2    C1 1648   3.482   3.424   0.029 -0.2169  0.5375 -0.0813
  106MPD2    C2 1649   3.368   3.401   0.102 -0.0422  0.4392  0.3530
  106MPD2    C3 1650   3.373   3.316   0.209 -0.2318  0.5900 -0.5713
  106MPD2    C4 1651   3.493   3.267   0.253  0.1967 -0.3243  0.3193
  106MPD2    C5 1652   3.609   3.318   0.200 -0.1412 -0.4983  0.8272
  106MPD2     H 1653   3.273   3.450   0.085  0.1463  0.3198 -1.0815
  106MPD2    H1 1654   3.510   3.185   0.322  1.1729  0.6843  1.2700
  106MPD2    H2 1655   3.687   3.402   0.021 -1.0740  0.7920 -0.1944
  106MPD2    H3 1656   3.702   3.271   0.230  1.0071  1.6387  0.6141
  106MPD2     N 1657   3.249   3.280   0.268  0.0163 -0.0943 -0.3892
  106MPD2    H5 1658   3.164   3.312   0.222 -1.0702 -0.1716  1.5819
  106MPD2    N1 1659   3.474   3.511  17.651  0.1673 -0.6322  0.3851
  106MPD2    H7 1660   3.382   3.550  17.639  0.8205  0.0997 -2.2199
  107TMC2    C1 1661   3.214   4.144  11.647 -0.2117  1.0087  0.5541
  107TMC2    C2 1662   3.103   4.218  11.614  0.5430  0.1960  0.6438
  107TMC2    C3 1663   3.075   4.251  11.483 -0.5124  0.3784  0.4221
  107TMC2    C4 1664   3.300   4.110  11.548 -0.1743  0.5756  0.1263
  107TMC2    C5 1665   3.275   4.131  11.415 -0.6342  0.1478  0.1645
  107TMC2    C6 1666   3.160   4.203  11.378  0.0837  0.3187 -0.1505
  107TMC2     C 1667   3.197   4.071  11.770 -0.3691 -0.0954 -0.0026
  107TMC2     O 1668   3.102   4.105  11.836  0.0793 -0.0482  0.2366
  107TMC2     H 1669   3.027   4.251  11.683  2.1629  0.8314  2.1214
  107TMC2    H1 1670   3.401   4.070  11.560 -0.7235 -0.6341  0.7214
  107TMC2    H2 1671   3.136   4.214  11.273 -1.1624 -0.7550  0.0284
  107TMC2    C7 1672   3.379   4.116  11.309  0.2806  0.0243 -0.6994
  107TMC2    C8 1673   2.942   4.287  11.453 -0.5511 -0.6148  0.0069
  107TMC2    O1 1674   3.381   4.205  11.225 -0.5142 -0.1153 -0.0370
  107TMC2    O2 1675   2.849   4.269  11.533 -0.1053 -0.9820  0.7125
  107TMC2    O5 1676   2.923   4.322  11.323  0.2680  0.6213  0.3297
  107TMC2    H5 1677   2.997   4.354  11.266  0.2180 -1.7052 -1.0414
  108MPD2     C 1678   3.387   3.783  11.901 -0.1661  0.7345  0.4570
  108MPD2    C1 1679   3.278   3.864  11.878 -0.1368 -0.5962 -0.1722
  108MPD2    C2 1680   3.166   3.828  11.951  0.7484 -0.3659  0.5216
  108MPD2    C3 1681   3.161   3.713  12.022  0.6848  0.5030  0.6519
  108MPD2    C4 1682   3.271   3.629  12.016 -0.3807 -0.0068 -0.7647
  108MPD2    C5 1683   3.382   3.666  11.960  0.4593  0.0959  0.1939
  108MPD2     H 1684   3.089   3.904  11.961  0.6158 -0.3168 -0.7822
  108MPD2    H1 1685   3.277   3.530  12.059 -1.0016  0.4638  0.3903
  108MPD2    H2 1686   3.478   3.816  11.852  0.2145 -1.2944 -0.1962
  108MPD2    H3 1687   3.463   3.594  11.954 -1.4929 -2.3095  2.5511
  108MPD2     N 1688   3.050   3.667  12.086 -0.6028 -0.2701  0.4236
  108MPD2    H5 1689   3.061   3.597  12.158 -2.3177 -0.1401  0.7978
  108MPD2    N1 1690   3.289   3.970  11.786  0.1950 -0.1361 -0.5661
  108MPD2    H7 1691   3.371   3.969  11.725 -0.1143 -0.1815 -0.9841
  109TMC2    C1 1692   3.389   0.610   1.688  0.3099 -0.3501 -0.3392
  109TMC2    C2 1693   3.438   0.495   1.632 -0.4041 -0.0610  0.5008
  109TMC2    C3 1694   3.537   0.514   1.540  0.1852 -0.5215  0.1417
  109TMC2    C4 1695   3.430   0.736   1.649  0.4654 -0.4006  0.2166
  109TMC2    C5 1696   3.531   0.747   1.555 -0.1491  0.3796 -0.0464
  109TMC2    C6 1697   3.579   0.637   1.492  0.2912 -0.2508  0.2356
  109TMC2     C 1698   3.271   0.608   1.770 -0.1750  0.3354  0.3092
  109TMC2     O 1699   3.268   0.688   1.864 -0.1328  0.1457  0.3204
  109TMC2     H 1700   3.404   0.398   1.667 -1.9147  0.7220  1.2012
  109TMC2    H1 1701   3.407   0.824   1.708  0.1432 -0.2569 -0.1223
  109TMC2    H2 1702   3.641   0.637   1.403 -0.3763  1.0846 -0.2333
  109TMC2    C7 1703   3.579   0.870   1.505 -0.1280  0.0132 -0.1506
  109TMC2    C8 1704   3.589   0.404   1.460  0.1882  0.0455  0.0812
  109TMC2    O1 1705   3.693   0.880   1.460 -0.6090 -0.3741 -0.1555
  109TMC2    O2 1706   3.627   0.406   1.342 -0.1785 -0.1331 -0.0344
  109TMC2    O5 1707   3.624   0.299   1.540 -0.6905 -0.2486  1.3599
  109TMC2    H5 1708   3.613   0.307   1.637 -2.4478  0.0707  1.1315
  110MPD2     C 1709   2.804   0.498   1.882 -0.9605 -0.4144  0.1858
  110MPD2    C1 1710   2.815   0.496   1.741  0.2110 -0.9931 -0.1395
  110MPD2    C2 1711   2.942   0.479   1.689 -0.0364  0.3420  0.4425
  110MPD2    C3 1712   3.048   0.519   1.770  0.7573 -0.1560  0.3193
  110MPD2    C4 1713   3.036   0.526   1.906  0.0664 -0.1000 -0.1793
  110MPD2    C5 1714   2.916   0.507   1.960 -0.0685 -0.1845 -0.3509
  110MPD2     H 1715   2.964   0.471   1.583 -2.2591 -1.0267  0.0665
  110MPD2    H1 1716   3.117   0.553   1.973  0.2654 -0.6721 -0.1852
  110MPD2    H2 1717   2.712   0.501   1.939 -1.5946  2.7783 -1.0266
  110MPD2    H3 1718   2.899   0.516   2.067 -0.0260  1.4124 -0.4847
  110MPD2     N 1719   3.176   0.531   1.709  0.2787 -0.3547  0.2454
  110MPD2    H5 1720   3.170   0.502   1.612  0.9627  1.8680 -0.4497
  110MPD2    N1 1721   2.697   0.483   1.661 -0.0326 -0.4135 -0.7496
  110MPD2    H7 1722   2.615   0.497   1.721  1.0981  1.1227  0.4374
  111TMC2    C1 1723   3.015   1.075  11.966 -0.4359  0.3809 -0.1313
  111TMC2    C2 1724   2.963   1.135  12.078 -0.3287 -0.4342  0.0916
  111TMC2    C3 1725   2.977   1.072  12.199 -0.0290  0.3208  0.3111
  111TMC2    C4 1726   3.100   0.973  11.974  0.2372  0.0126 -0.6469
  111TMC2    C5 1727   3.129   0.929  12.098 -0.5324 -0.1902 -1.1142
  111TMC2    C6 1728   3.064   0.967  12.209  0.0542  0.2319 -0.1744
  111TMC2     C 1729   2.956   1.099  11.837  0.1175  0.0454 -0.0745
  111TMC2     O 1730   2.989   1.206  11.782 -0.0200  0.3312  0.5935
  111TMC2     H 1731   2.900   1.223  12.070 -0.9062 -0.9292 -0.8437
  111TMC2    H1 1732   3.140   0.940  11.878 -0.0508 -0.3966 -0.6298
  111TMC2    H2 1733   3.099   0.921  12.301 -1.3122 -1.3701 -0.4674
  111TMC2    C7 1734   3.238   0.837  12.114  0.1316 -0.3213 -0.3246
  111TMC2    C8 1735   2.906   1.130  12.306 -0.3616  0.0530  0.1389
  111TMC2    O1 1736   3.236   0.758  12.208 -0.0341  0.2909 -0.4214
  111TMC2    O2 1737   2.814   1.205  12.289  0.8438 -0.1544  0.6955
  111TMC2    O5 1738   3.002   1.135  12.401 -0.3204 -0.0243  0.2199
  111TMC2    H5 1739   3.089   1.094  12.383  0.5518  2.6272 -1.5971
  112MPD2     C 1740   2.785   0.892  11.404  0.4782  0.0105 -0.0448
  112MPD2    C1 1741   2.818   1.022  11.433 -0.5658 -0.0522  0.1931
  112MPD2    C2 1742   2.866   1.055  11.558 -0.3277 -0.0269 -0.0954
  112MPD2    C3 1743   2.875   0.954  11.656  0.6380 -0.1462 -0.6994
  112MPD2    C4 1744   2.842   0.824  11.624 -0.0901 -0.4463 -0.0127
  112MPD2    C5 1745   2.800   0.794  11.496  0.7737 -0.3992  0.1667
  112MPD2     H 1746   2.896   1.156  11.586  0.3981 -0.1965 -0.2740
  112MPD2    H1 1747   2.842   0.746  11.699 -0.3786  0.9196  1.3844
  112MPD2    H2 1748   2.744   0.858  11.309  0.8964 -1.7246  0.4122
  112MPD2    H3 1749   2.780   0.690  11.470  1.6396 -0.2021 -1.2776
  112MPD2     N 1750   2.911   0.978  11.786 -0.2680  0.0530 -0.5909
  112MPD2    H5 1751   2.898   0.906  11.856  1.1080 -0.8081 -1.2140
  112MPD2    N1 1752   2.819   1.128  11.338 -0.0644 -0.4096  0.0807
  112MPD2    H7 1753   2.854   1.215  11.377  0.7741 -0.3146 -0.8828
  113TMC2    C1 1754   1.566   2.827   0.542  0.2539 -0.1557  0.1333
  113TMC2    C2 1755   1.522   2.896   0.437  0.5419 -0.3472  0.1538
  113TMC2    C3 1756   1.403   2.866   0.382 -0.2082  0.1710  0.5248
  113TMC2    C4 1757   1.487   2.735   0.594 -0.1143 -0.8794  0.4338
  113TMC2    C5 1758   1.376   2.706   0.534 -0.5213 -0.7427  0.1881
  113TMC2    C6 1759   1.336   2.755   0.413 -0.1793 -0.3165 -0.3442
  113TMC2     C 1760   1.675   2.869   0.630 -0.4132  0.3327  0.1800
  113TMC2     O 1761   1.702   2.990   0.630  0.3327  0.1512  0.3720
  113TMC2     H 1762   1.579   2.981   0.401  1.1719 -0.6937  0.3292
  113TMC2    H1 1763   1.507   2.670   0.679  0.3277 -1.4997 -0.1493
  113TMC2    H2 1764   1.249   2.719   0.359 -0.8921  2.1769 -0.8693
  113TMC2    C7 1765   1.305   2.592   0.582 -0.2135 -0.3566  0.3617
  113TMC2    C8 1766   1.349   2.953   0.278 -0.0361  0.1096 -0.4120
  113TMC2    O1 1767   1.275   2.501   0.502  0.0417 -0.4517 -0.0370
  113TMC2    O2 1768   1.418   3.043   0.231 -0.1931 -0.3757  0.3947
  113TMC2    O5 1769   1.217   2.947   0.288 -0.5691 -0.1971 -0.1481
  113TMC2    H5 1770   1.180   2.881   0.351 -2.2181 -1.6968 -2.6796
  114MPD2     C 1771   2.036   2.737   0.970  0.2103 -0.1191 -0.7708
  114MPD2    C1 1772   2.024   2.854   0.906  0.0139  0.5612  0.2696
  114MPD2    C2 1773   1.914   2.865   0.820  0.6803  0.1049  0.6777
  114MPD2    C3 1774   1.833   2.757   0.790  0.7489  0.2810 -0.2070
  114MPD2    C4 1775   1.847   2.645   0.863  1.2651 -0.9223  0.2442
  114MPD2    C5 1776   1.950   2.633   0.944 -0.4308 -0.0515  0.0377
  114MPD2     H 1777   1.895   2.956   0.763  1.8506 -0.4089 -0.5398
  114MPD2    H1 1778   1.770   2.570   0.853  0.8338 -0.6853  1.8035
  114MPD2    H2 1779   2.117   2.712   1.037 -0.3070 -0.2913 -0.2127
  114MPD2    H3 1780   1.955   2.540   1.000  1.7264  0.6179  0.9554
  114MPD2     N 1781   1.726   2.757   0.693  0.2366  0.1511  0.1159
  114MPD2    H5 1782   1.678   2.668   0.691  0.5215 -0.0209  1.1105
  114MPD2    N1 1783   2.106   2.967   0.925  0.2279  0.5253 -0.2674
  114MPD2    H7 1784   2.092   3.055   0.876  1.7977  1.8966  1.7941
  115TMC2    C1 1785   2.528   0.916   0.117  1.0830 -0.4674 -0.5054
  115TMC2    C2 1786   2.651   0.913   0.057 -0.2557 -0.6704  0.3246
  115TMC2    C3 1787   2.726   1.027   0.058 -0.7184 -0.1391 -0.3919
  115TMC2    C4 1788   2.469   1.035   0.160  0.7007  0.5869  0.2814
  115TMC2    C5 1789   2.546   1.148   0.153  0.1791 -0.0597  0.3255
  115TMC2    C6 1790   2.677   1.142   0.101 -0.7073  0.5285 -0.3315
  115TMC2     C 1791   2.444   0.801   0.101 -0.0393 -0.4630  0.5521
  115TMC2     O 1792   2.484   0.716   0.020 -0.1777  0.7322  0.3353
  115TMC2     H 1793   2.693   0.820   0.022 -0.0499 -1.0298  1.5359
  115TMC2    H1 1794   2.364   1.035   0.189  0.3968  1.0905 -0.8046
  115TMC2    H2 1795   2.734   1.232   0.121 -0.4283  0.5027 -1.0026
  115TMC2    C7 1796   2.461   1.265   0.111  0.0637  0.1174 -0.2044
  115TMC2    C8 1797   2.873   1.008   0.043  0.0807  1.1294  0.2117
  115TMC2    O1 1798   2.358   1.279   0.173 -0.0656 -0.2504  0.4942
  115TMC2    O2 1799   2.948   1.085   0.105 -0.5029  0.0651  0.3901
  115TMC2    O5 1800   2.875   0.995  17.646 -0.0033 -0.0133  0.3752
  115TMC2    H5 1801   2.804   0.938  17.610 -0.3138  0.7631 -0.2291
  116MPD2     C 1802   2.013   0.533   0.164 -0.5900  0.5896 -0.1325
  116MPD2    C1 1803   2.117   0.510   0.072 -1.1755  0.7278 -0.3562
  116MPD2    C2 1804   2.234   0.587   0.086  0.0966 -0.2877  0.2819
  116MPD2    C3 1805   2.244   0.688   0.186 -0.6026 -0.5516 -0.2988
  116MPD2    C4 1806   2.143   0.698   0.281  0.6805 -0.6643 -0.0355
  116MPD2    C5 1807   2.026   0.627   0.264  0.5244  0.1596  0.2333
  116MPD2     H 1808   2.309   0.584   0.008 -1.2340 -1.6929 -0.9276
  116MPD2    H1 1809   2.139   0.777   0.356 -1.4106 -1.8702  1.1120
  116MPD2    H2 1810   1.924   0.471   0.159 -0.4710  0.2653  2.0978
  116MPD2    H3 1811   1.938   0.635   0.327 -0.3402 -0.0336 -0.9429
  116MPD2     N 1812   2.341   0.792   0.193 -0.1078 -0.0173  0.3677
  116MPD2    H5 1813   2.342   0.848   0.278 -0.9825  1.8955 -0.8865
  116MPD2    N1 1814   2.101   0.422  17.695  0.1012  0.8914 -0.1476
  116MPD2    H7 1815   2.011   0.383  17.670  0.7481 -0.4778 -0.3094
  117TMC2    C1 1816   1.467   2.100  14.137 -0.2973  0.3034 -0.2479
  117TMC2    C2 1817   1.591   2.044  14.142  0.3827 -0.2322  0.0596
  117TMC2    C3 1818   1.689   2.114  14.208 -0.3669 -0.3705 -0.2741
  117TMC2    C4 1819   1.432   2.214  14.199  0.0964 -0.3822  0.1597
  117TMC2    C5 1820   1.528   2.285  14.257  0.5066  0.1516  0.1347
  117TMC2    C6 1821   1.657   2.237  14.263  0.3557  0.4508 -0.4088
  117TMC2     C 1822   1.377   2.058  14.033  0.0324 -0.4278 -0.0899
  117TMC2     O 1823   1.406   1.949  13.981 -0.0088 -0.1500 -0.1254
  117TMC2     H 1824   1.600   1.946  14.096  1.6417 -0.6938  1.2844
  117TMC2    H1 1825   1.329   2.232  14.228 -0.1238 -2.3173  0.5431
  117TMC2    H2 1826   1.733   2.287  14.321 -0.6577 -0.6077  1.8658
  117TMC2    C7 1827   1.500   2.426  14.258 -0.4880  0.1552  0.1564
  117TMC2    C8 1828   1.828   2.079  14.220 -0.7496 -0.3050  0.1311
  117TMC2    O1 1829   1.585   2.498  14.315  0.5906  0.5110 -0.2406
  117TMC2    O2 1830   1.919   2.164  14.215  0.1254 -0.4963  0.2396
  117TMC2    O5 1831   1.841   1.946  14.207  0.4995 -0.0253 -0.0427
  117TMC2    H5 1832   1.758   1.896  14.224  0.6311  0.9398  3.3116
  118MPD2     C 1833   1.219   2.599  14.105 -0.3578  0.7881 -0.1424
  118MPD2    C1 1834   1.343   2.586  14.166 -0.3573  0.0009 -0.9358
  118MPD2    C2 1835   1.419   2.699  14.182 -0.0514  0.1161 -0.1625
  118MPD2    C3 1836   1.371   2.820  14.133  0.9217  0.2660 -0.6183
  118MPD2    C4 1837   1.243   2.827  14.089 -0.2094  0.1527  0.0510
  118MPD2    C5 1838   1.166   2.721  14.063 -0.3840 -0.0327  0.5529
  118MPD2     H 1839   1.513   2.695  14.236  2.0199 -2.6866 -3.9321
  118MPD2    H1 1840   1.194   2.921  14.065 -1.3292 -0.3594  0.2914
  118MPD2    H2 1841   1.149   2.516  14.102 -1.2955  1.5541  0.4608
  118MPD2    H3 1842   1.068   2.739  14.022 -0.1305  0.4136  0.1348
  118MPD2     N 1843   1.438   2.947  14.157  0.0763 -0.1765  1.1653
  118MPD2    H5 1844   1.394   3.035  14.135  2.8188  0.8605 -0.2033
  118MPD2    N1 1845   1.378   2.462  14.211  0.1563  0.1616 -0.0907
  118MPD2    H7 1846   1.302   2.394  14.207 -1.1373  1.5579  0.8712
  119TMC2    C1 1847   4.010   3.194  13.452 -0.1570  0.0101  0.1601
  119TMC2    C2 1848   4.122   3.198  13.532 -0.3240  0.4571  0.2000
  119TMC2    C3 1849   4.108   3.174  13.667  0.2207  0.5220  0.0191
  119TMC2    C4 1850   3.889   3.173  13.512 -0.1373  0.4481  0.6052
  119TMC2    C5 1851   3.877   3.163  13.649 -0.5173 -0.0272 -0.0638
  119TMC2    C6 1852   3.985   3.159  13.729  0.2498  0.2030 -0.9167
  119TMC2     C 1853   4.005   3.293  13.341 -0.5086 -0.5470  0.2256
  119TMC2     O 1854   4.099   3.370  13.334 -0.1902  0.1907 -0.3292
  119TMC2     H 1855   4.219   3.210  13.485 -0.5584 -1.1495 -0.7106
  119TMC2    H1 1856   3.794   3.156  13.461  0.3354  1.6347 -0.6583
  119TMC2    H2 1857   3.974   3.142  13.835 -1.9366 -3.2243 -1.7143
  119TMC2    C7 1858   3.763   3.228  13.697 -0.5504 -0.2857 -0.6105
  119TMC2    C8 1859   4.220   3.104  13.720  0.3952 -0.9555  0.2776
  119TMC2    O1 1860   3.716   3.311  13.619 -0.2943 -0.4426  0.2934
  119TMC2    O2 1861   4.333   3.136  13.686  0.1720 -0.3675 -0.4374
  119TMC2    O5 1862   4.174   2.975  13.714 -0.0483  0.2022 -0.5065
  119TMC2    H5 1863   4.077   2.967  13.704  0.2643  0.1214 -3.5972
  120MPD2     C 1864   3.705   3.590  13.062 -0.2462 -0.4371  0.3214
  120MPD2    C1 1865   3.768   3.611  13.184 -0.5058 -0.1087  0.0778
  120MPD2    C2 1866   3.837   3.510  13.245  0.1066  0.2676  0.0667
  120MPD2    C3 1867   3.840   3.384  13.191 -0.5821  0.7161  0.3815
  120MPD2    C4 1868   3.756   3.353  13.083 -0.4846  0.3591  0.2021
  120MPD2    C5 1869   3.695   3.459  13.014 -0.7321 -0.7332 -0.8753
  120MPD2     H 1870   3.890   3.545  13.333 -1.2619 -0.5288  1.1960
  120MPD2    H1 1871   3.737   3.254  13.045  0.8077  0.6481 -1.2232
  120MPD2    H2 1872   3.672   3.671  12.998 -1.3096  0.5185  2.0906
  120MPD2    H3 1873   3.624   3.442  12.934 -0.6679  0.8438 -1.2722
  120MPD2     N 1874   3.894   3.276  13.254 -0.0129  0.5822 -0.2410
  120MPD2    H5 1875   3.857   3.181  13.249  1.5850  0.0335 -1.7864
  120MPD2    N1 1876   3.758   3.745  13.239  0.0829 -0.0332  0.2736
  120MPD2    H7 1877   3.692   3.802  13.186  1.4722  1.8932  0.6203
  121TMC2    C1 1878   0.464   0.794  14.004  0.4616 -0.1207 -0.8944
  121TMC2    C2 1879   0.416   0.686  14.073  0.2116  0.0601  0.2109
  121TMC2    C3 1880   0.281   0.678  14.085  0.1445  0.1070  0.2573
  121TMC2    C4 1881   0.387   0.898  13.953 -0.1192 -0.1195  0.1357
  121TMC2    C5 1882   0.248   0.885  13.961  0.2923  0.2079 -0.3317
  121TMC2    C6 1883   0.198   0.775  14.029 -0.7523 -0.0441 -0.3058
  121TMC2     C 1884   0.610   0.785  13.980  0.0117  0.8736 -0.0645
  121TMC2     O 1885   0.670   0.702  14.051 -0.0228  0.2829  0.0492
  121TMC2     H 1886   0.482   0.618  14.126  2.0088  0.5599 -1.4003
  121TMC2    H1 1887   0.431   0.976  13.892 -1.3864  1.3293  1.0719
  121TMC2    H2 1888   0.092   0.758  14.047 -0.6574 -0.4064 -0.0780
  121TMC2    C7 1889   0.174   0.984  13.889 -0.2397  0.5429  0.5473
  121TMC2    C8 1890   0.214   0.553  14.108 -0.6028  0.2528  0.3440
  121TMC2    O1 1891   0.236   1.074  13.838 -0.0021  0.2567 -0.1481
  121TMC2    O2 1892   0.099   0.558  14.152  0.1301  0.3920  0.0693
  121TMC2    O5 1893   0.300   0.453  14.106  0.5585 -0.1078  0.2826
  121TMC2    H5 1894   0.389   0.476  14.071  1.1169 -3.3380 -0.4479
  122MPD2     C 1895   0.869   0.720  13.847 -0.8685 -0.2815  0.5575
  122MPD2    C1 1896   0.785   0.823  13.806  0.5164 -0.8182  0.4283
  122MPD2    C2 1897   0.822   0.908  13.701  0.2098 -0.3221  0.2467
  122MPD2    C3 1898   0.947   0.885  13.633  0.0748  0.9930 -0.0075
  122MPD2    C4 1899   1.027   0.788  13.681  0.0300 -0.0588  0.2101
  122MPD2    C5 1900   0.993   0.706  13.780  0.5227 -0.3900  0.2911
  122MPD2     H 1901   0.751   0.979  13.660 -0.2536 -0.6938  0.3998
  122MPD2    H1 1902   1.132   0.781  13.653  0.1562 -0.3546  0.7639
  122MPD2    H2 1903   0.847   0.652  13.927 -1.3515  0.4724  1.0647
  122MPD2    H3 1904   1.052   0.629  13.827  0.7646 -0.2465  0.2219
  122MPD2     N 1905   0.978   0.966  13.516 -0.4928  0.3923  0.4122
  122MPD2    H5 1906   1.066   0.948  13.469 -1.6363 -0.3954 -1.4565
  122MPD2    N1 1907   0.655   0.838  13.859 -0.3869 -0.3070  0.3864
  122MPD2    H7 1908   0.588   0.886  13.799  0.6254  1.0293  0.3119
  123TMC2    C1 1909   4.302   4.632  10.408 -0.2889  0.4441  0.1320
  123TMC2    C2 1910   4.334   0.023  10.436  0.2094  0.0779 -0.2068
  123TMC2    C3 1911   4.398   0.091  10.336 -0.3350 -0.8362  0.6256
  123TMC2    C4 1912   4.320   4.571  10.287 -0.6947 -0.8781  0.8862
  123TMC2    C5 1913   4.391   4.640  10.192  0.1495 -0.6838  0.2283
  123TMC2    C6 1914   4.427   0.035  10.210 -0.0909  0.2579  0.2774
  123TMC2     C 1915   4.233   4.559  10.516  0.1840  0.2938 -0.6427
  123TMC2     O 1916   4.196   4.627  10.611 -0.1183  0.6595 -0.5429
  123TMC2     H 1917   4.322   0.062  10.537 -1.1698 -0.0972 -0.2956
  123TMC2    H1 1918   4.286   4.469  10.273  0.7043 -1.3298  0.6982
  123TMC2    H2 1919   4.469   0.093  10.128  1.5048 -1.0017  0.2042
  123TMC2    C7 1920   4.356   4.592  10.065 -0.2072 -0.2675  0.3369
  123TMC2    C8 1921   4.441   0.228  10.346 -0.2979  0.9038 -0.4599
  123TMC2    O1 1922   4.324   4.472  10.058 -0.0248  0.0899  0.9232
  123TMC2    O2 1923   4.540   0.276  10.295  0.0059  0.1585  0.1537
  123TMC2    O5 1924   4.344   0.296  10.411  0.3515 -0.3981  0.6670
  123TMC2    H5 1925   4.261   0.245  10.425 -0.4607  1.0677  1.1951
  124MPD2     C 1926   3.974   4.123  10.667 -0.0294  0.6052  0.3696
  124MPD2    C1 1927   4.000   4.120  10.531 -0.4918 -0.1479 -0.5093
  124MPD2    C2 1928   4.071   4.223  10.474 -0.4052  0.1725  0.0144
  124MPD2    C3 1929   4.113   4.332  10.549  0.3106  0.0443 -0.0636
  124MPD2    C4 1930   4.069   4.345  10.678 -0.3229  0.0167 -0.9691
  124MPD2    C5 1931   4.003   4.242  10.733  0.4043 -0.2539  0.1905
  124MPD2     H 1932   4.095   4.231  10.369  1.1440 -0.4271  0.3164
  124MPD2    H1 1933   4.092   4.429  10.742 -1.0624  0.9726 -1.9570
  124MPD2    H2 1934   3.903   4.051  10.705 -0.5547  0.2168 -1.3139
  124MPD2    H3 1935   3.969   4.258  10.835  0.3681 -1.6539  0.3981
  124MPD2     N 1936   4.194   4.428  10.480  0.3815  0.4923  0.3950
  124MPD2    H5 1937   4.235   4.392  10.395  0.4278 -1.0921  1.0892
  124MPD2    N1 1938   3.941   4.026  10.445  0.0450 -0.1598  0.1037
  124MPD2    H7 1939   3.949   4.040  10.345  0.0070 -2.4620 -0.2166
  125TMC2    C1 1940   4.371   2.348  10.014  0.5537 -0.3552 -0.7300
  125TMC2    C2 1941   4.321   2.456  10.082  0.0327 -0.2239 -0.2103
  125TMC2    C3 1942   4.227   2.416  10.176  0.0519 -0.5646  0.0495
  125TMC2    C4 1943   4.338   2.218  10.038  0.4736  1.0026  0.0196
  125TMC2    C5 1944   4.258   2.187  10.143  0.3895  0.6200 -0.3564
  125TMC2    C6 1945   4.187   2.287  10.207 -0.2446 -0.4879 -0.2914
  125TMC2     C 1946   4.440   2.391   9.890 -0.3747 -0.1068  0.1913
  125TMC2     O 1947   4.498   2.497   9.886  0.2666  0.6993  0.4228
  125TMC2     H 1948   4.335   2.556  10.043 -1.3837  0.8419  2.0505
  125TMC2    H1 1949   4.365   2.135   9.973 -1.3618 -0.5577  1.2410
  125TMC2    H2 1950   4.111   2.260  10.279  2.2876 -2.2199  1.7516
  125TMC2    C7 1951   4.249   2.055  10.198  0.5660 -0.0780  0.0114
  125TMC2    C8 1952   4.141   2.519  10.233 -0.0111  0.0560  0.0876
  125TMC2    O1 1953   4.153   2.042  10.272  0.4721  0.7295 -0.3231
  125TMC2    O2 1954   4.134   2.627  10.175 -0.5231  0.4462 -0.4509
  125TMC2    O5 1955   4.139   2.501  10.368 -0.2244 -0.0747  0.1728
  125TMC2    H5 1956   4.184   2.419  10.399 -0.3717 -0.5972 -0.9809
  126MPD1     C 1957   4.653   2.262   9.439  0.2654 -0.3588  0.8562
  126MPD1    C1 1958   4.563   2.157   9.467  0.2522 -0.2844 -0.4192
  126MPD1    C2 1959   4.502   2.170   9.592 -0.4341 -0.0503 -0.6465
  126MPD1    C3 1960   4.525   2.279   9.678  0.0763 -0.1638 -0.3604
  126MPD1    C4 1961   4.623   2.374   9.649  0.1947 -0.1960  0.3279
  126MPD1    C5 1962   4.687   2.361   9.524 -0.3466 -0.2821  0.0438
  126MPD1     H 1963   4.435   2.092   9.624  0.2527 -1.2644 -2.1844
  126MPD1    H1 1964   4.659   2.454   9.712  0.2295 -1.8431  2.3927
  126MPD1    H2 1965   4.709   2.256   9.346  0.5061 -1.4739  1.0645
  126MPD1    H3 1966   0.027   2.430   9.489  0.0093 -0.8052 -0.2317
  126MPD1     N 1967   4.441   2.293   9.794 -0.1608 -0.6022 -0.3309
  126MPD1    H5 1968   4.367   2.224   9.803 -0.6843 -0.0513 -0.3908
  126MPD1    N1 1969   4.520   2.066   9.367  0.4208  0.0372  0.1771
  126MPD1    H6 1970   4.588   2.050   9.294 -1.7682  0.2038 -1.8859
  126MPD1    H7 1971   4.493   1.974   9.403  2.1175 -0.0605  1.1696
  127TMC2    C1 1972   1.005   4.696   9.599 -0.3791 -0.3367 -0.3533
  127TMC2    C2 1973   1.122   4.639   9.637  0.5639  0.3729 -0.1420
  127TMC2    C3 1974   1.124   4.506   9.661 -0.3077 -0.2715 -0.0857
  127TMC2    C4 1975   0.889   4.622   9.589  0.2056 -0.1347 -0.2025
  127TMC2    C5 1976   0.892   4.486   9.608  0.1216 -0.2191 -0.1365
  127TMC2    C6 1977   1.014   4.426   9.644  0.4429  0.5100 -0.3497
  127TMC2     C 1978   1.005   0.107   9.574 -0.3456  0.0428  0.0986
  127TMC2     O 1979   1.099   0.167   9.618 -0.3339 -0.5729 -0.0097
  127TMC2     H 1980   1.215   4.694   9.629 -0.0572  1.5996  1.1790
  127TMC2    H1 1981   0.802   4.672   9.547 -0.6965 -0.7227  0.9481
  127TMC2    H2 1982   1.012   4.321   9.671 -1.3674  0.6558  0.1211
  127TMC2    C7 1983   0.774   4.404   9.591 -0.3783 -0.3219  0.3195
  127TMC2    C8 1984   1.243   4.440   9.618 -0.6318  0.2437 -0.3052
  127TMC2    O1 1985   0.678   4.445   9.531  0.6329 -0.3590 -0.1940
  127TMC2    O2 1986   1.251   4.397   9.504  0.4569  0.6973  0.8582
  127TMC2    O5 1987   1.345   4.507   9.675 -0.7946 -0.2669 -0.3549
  127TMC2    H5 1988   1.312   4.547   9.759 -0.1950  1.9294 -1.1797
  128MPD2     C 1989   0.853   0.310   9.319  0.3934 -0.0823 -0.3295
  128MPD2    C1 1990   0.933   0.285   9.425 -0.0968  0.5391 -0.0539
  128MPD2    C2 1991   0.992   0.387   9.491  0.1022  0.2527 -0.2607
  128MPD2    C3 1992   0.975   0.517   9.439  0.6119  0.1651 -0.1146
  128MPD2    C4 1993   0.926   0.531   9.310 -0.0772  0.0143 -0.0107
  128MPD2    C5 1994   0.861   0.428   9.256 -0.4425 -0.4567 -0.6363
  128MPD2     H 1995   1.047   0.376   9.584  0.6331 -1.5106 -0.7856
  128MPD2    H1 1996   0.934   0.628   9.262 -2.5760 -0.4082 -1.2704
  128MPD2    H2 1997   0.804   0.224   9.274 -2.4982 -0.2166  3.0637
  128MPD2    H3 1998   0.812   0.445   9.161 -0.7586  0.2195 -0.3543
  128MPD2     N 1999   1.025   0.623   9.519 -0.0477 -0.8373 -0.5547
  128MPD2    H5 2000   1.092   0.598   9.591  0.2012  0.4775 -0.3217
  128MPD2    N1 2001   0.925   0.153   9.476  0.7364 -0.1478  0.2583
  128MPD2    H7 2002   0.868   0.084   9.427  0.5347  0.0812  0.1693
  129TMC2    C1 2003   3.810   0.785   1.818  0.3205 -0.6158  0.3449
  129TMC2    C2 2004   3.897   0.753   1.719  0.6297  0.2092  0.3653
  129TMC2    C3 2005   3.926   0.624   1.694  0.0951  0.5549 -0.9050
  129TMC2    C4 2006   3.749   0.685   1.889  0.5381  0.6803  0.0882
  129TMC2    C5 2007   3.781   0.552   1.857  0.0329 -0.1002  0.1580
  129TMC2    C6 2008   3.872   0.518   1.762 -0.0549 -0.5747 -0.1350
  129TMC2     C 2009   3.753   0.916   1.813  0.2608 -0.1740  0.0414
  129TMC2     O 2010   3.642   0.939   1.857 -0.1422 -0.0281  0.2598
  129TMC2     H 2011   3.932   0.822   1.643 -0.0292 -0.5239 -0.6073
  129TMC2    H1 2012   3.674   0.716   1.962 -1.2276 -0.9068 -1.0652
  129TMC2    H2 2013   3.892   0.414   1.738 -0.3524 -0.8715  0.8871
  129TMC2    C7 2014   3.682   0.448   1.887 -0.1885 -0.1283  0.3806
  129TMC2    C8 2015   3.970   0.593   1.567  0.1852 -1.0057  0.6783
  129TMC2    O1 2016   3.671   0.360   1.800 -0.6207  0.0165 -0.8136
  129TMC2    O2 2017   3.921   0.645   1.465  0.3493 -0.0539  0.1973
  129TMC2    O5 2018   4.073   0.505   1.580 -0.1481 -0.7321  0.3077
  129TMC2    H5 2019   4.087   0.493   1.676  0.7398  0.1340  0.2750
  130MPD2     C 2020   3.680   1.199   1.740 -0.1308 -0.0094  0.2584
  130MPD2    C1 2021   3.806   1.146   1.737 -0.7710 -0.1153 -0.4215
  130MPD2    C2 2022   3.906   1.228   1.695  0.0968 -0.3201  0.4420
  130MPD2    C3 2023   3.883   1.359   1.658  0.4005  0.5309 -0.1928
  130MPD2    C4 2024   3.759   1.412   1.667  0.2201 -0.0742  0.0697
  130MPD2    C5 2025   3.657   1.334   1.707 -0.1808  0.4839  0.1825
  130MPD2     H 2026   4.004   1.183   1.697  1.5859  2.8985 -1.4284
  130MPD2    H1 2027   3.738   1.515   1.641  3.1379  0.1851 -1.1836
  130MPD2    H2 2028   3.587   1.155   1.776 -1.4278  0.4576 -2.5579
  130MPD2    H3 2029   3.553   1.362   1.718  0.1678  1.0681  1.9537
  130MPD2     N 2030   3.995   1.436   1.610 -0.3555  0.3536  0.0461
  130MPD2    H5 2031   4.073   1.375   1.586  1.0033  2.2117 -0.2690
  130MPD2    N1 2032   3.840   1.013   1.769  0.0112 -0.3280 -0.5947
  130MPD2    H7 2033   3.936   0.987   1.749  0.5005  1.4964 -0.5893
  131TMC2    C1 2034   3.673   0.068  10.162  0.1469 -0.0999 -0.6630
  131TMC2    C2 2035   3.594   0.147  10.080 -0.5663 -0.0543 -0.4488
  131TMC2    C3 2036   3.603   0.280  10.102  0.2748 -0.2503  0.0738
  131TMC2    C4 2037   3.753   0.116  10.254  0.4523 -0.7851  0.4106
  131TMC2    C5 2038   3.769   0.249  10.264 -0.2107 -0.2773  0.4531
  131TMC2    C6 2039   3.691   0.330  10.194  0.0871  0.2072 -0.4255
  131TMC2     C 2040   3.681   4.659  10.139 -0.2836  0.1018  0.3264
  131TMC2     O 2041   3.716   4.601  10.241  0.3885 -0.0939  0.0917
  131TMC2     H 2042   3.514   0.114  10.015 -1.0720  0.4367 -0.0816
  131TMC2    H1 2043   3.809   0.054  10.323  1.7375  0.4714  0.5016
  131TMC2    H2 2044   3.702   0.437  10.210 -1.9969  0.4954 -0.8844
  131TMC2    C7 2045   3.836   0.307  10.385  0.0587  0.0163  0.0345
  131TMC2    C8 2046   3.535   0.380  10.017 -0.6610 -0.6596  0.8429
  131TMC2    O1 2047   3.841   0.234  10.484 -0.0895  0.0343 -0.1501
  131TMC2    O2 2048   3.506   0.361   9.898  0.1378  0.4174  0.1653
  131TMC2    O5 2049   3.480   0.468  10.106 -0.4418  0.7460  0.2151
  131TMC2    H5 2050   3.476   0.426  10.194  1.1988 -0.4472 -0.2695
  132MPD2     C 2051   3.587   4.429   9.849 -1.2898 -0.3437 -0.5235
  132MPD2    C1 2052   3.617   4.467   9.980 -0.4670  0.8069 -0.0223
  132MPD2    C2 2053   3.615   4.361  10.077  0.2253  0.1044 -0.3510
  132MPD2    C3 2054   3.578   4.231  10.045  0.3717 -0.1664  0.4880
  132MPD2    C4 2055   3.550   4.207   9.910  0.0219  0.3400  0.1822
  132MPD2    C5 2056   3.552   4.307   9.820  0.8483  0.4808  0.0911
  132MPD2     H 2057   3.643   4.381  10.179 -3.6418 -0.0902  0.7340
  132MPD2    H1 2058   3.512   4.111   9.878 -1.5180  1.0775 -0.1557
  132MPD2    H2 2059   3.598   4.500   9.768  1.9598 -0.3623 -0.0963
  132MPD2    H3 2060   3.535   4.284   9.715 -0.3323  1.0464  0.1509
  132MPD2     N 2061   3.596   4.131  10.149  0.1302 -0.7221 -0.1378
  132MPD2    H5 2062   3.646   4.156  10.234 -1.5274  1.0211  0.3229
  132MPD2    N1 2063   3.639   4.604  10.012 -0.5845 -0.5232 -0.0927
  132MPD2    H7 2064   3.636   4.665   9.931  1.5883 -4.5493 -3.2333
  133TMC2    C1 2065   3.760   1.031   9.739 -0.3778  0.0654 -0.3692
  133TMC2    C2 2066   3.790   1.144   9.811  0.1260 -0.2380  0.0892
  133TMC2    C3 2067   3.907   1.137   9.877 -0.1905  0.4788  0.3872
  133TMC2    C4 2068   3.851   0.928   9.724 -0.0564  0.2528  0.1321
  133TMC2    C5 2069   3.967   0.935   9.805  0.3232  0.4901  0.0562
  133TMC2    C6 2070   4.000   1.044   9.880 -0.6201  0.8198  0.1918
  133TMC2     C 2071   3.633   1.015   9.673 -0.0744  0.7597  0.1349
  133TMC2     O 2072   3.626   0.915   9.600  0.3455 -0.0766  0.5346
  133TMC2     H 2073   3.712   1.210   9.846  3.7325  2.2030  3.5181
  133TMC2    H1 2074   3.824   0.832   9.681  1.1501  0.3478 -0.8173
  133TMC2    H2 2075   4.093   1.059   9.935 -1.0046 -1.5847  1.4649
  133TMC2    C7 2076   4.047   0.810   9.811  0.4404 -0.2609  0.5862
  133TMC2    C8 2077   3.922   1.244   9.967  0.3927  0.2927 -0.1557
  133TMC2    O1 2078   4.047   0.741   9.709 -0.7721  0.3426 -0.1231
  133TMC2    O2 2079   3.980   1.239  10.068 -0.3248 -0.2909 -0.1217
  133TMC2    O5 2080   3.938   1.350   9.882  0.5401 -0.3806  0.7454
  133TMC2    H5 2081   3.908   1.337   9.790 -0.1092 -0.2265  0.9362
  134MPD2     C 2082   3.336   1.236   9.687  0.3424  0.1754  0.3016
  134MPD2    C1 2083   3.414   1.127   9.646  0.8212 -0.2698  1.0884
  134MPD2    C2 2084   3.348   1.011   9.617 -0.2991  0.0248 -0.2083
  134MPD2    C3 2085   3.211   1.003   9.614 -0.5224  0.0525 -0.9716
  134MPD2    C4 2086   3.139   1.110   9.650 -0.5144  0.2206 -0.3504
  134MPD2    C5 2087   3.198   1.224   9.696 -0.2043 -0.2688  0.2223
  134MPD2     H 2088   3.405   0.919   9.616 -3.1075 -1.7388  1.4965
  134MPD2    H1 2089   3.031   1.114   9.642 -0.4315 -1.1988 -2.2534
  134MPD2    H2 2090   3.383   1.328   9.721  0.7637 -0.0769  0.4005
  134MPD2    H3 2091   3.134   1.307   9.727  0.6857  0.1897  0.8207
  134MPD2     N 2092   3.135   0.892   9.568  0.2665  0.0674  0.2738
  134MPD2    H5 2093   3.034   0.888   9.570  0.2184  1.1629 -0.1685
  134MPD2    N1 2094   3.546   1.124   9.680  0.1203 -0.5905  0.9481
  134MPD2    H7 2095   3.583   1.204   9.729 -0.2803 -0.3595  0.8710
  135TMC2    C1 2096   0.195   2.003   9.745  0.3026 -0.8675 -0.1791
  135TMC2    C2 2097   0.112   1.923   9.664  0.2779  0.6517 -0.4483
  135TMC2    C3 2098   4.724   1.904   9.710  0.4498  0.8414 -0.4324
  135TMC2    C4 2099   0.149   2.073   9.857 -0.2663  0.0909 -0.3523
  135TMC2    C5 2100   0.021   2.045   9.898 -1.1064  0.1047  0.3237
  135TMC2    C6 2101   4.679   1.957   9.827 -0.3034  0.3594  0.3340
  135TMC2     C 2102   0.334   2.032   9.692 -1.1066  0.0533 -0.0182
  135TMC2     O 2103   0.383   2.135   9.735  0.1520  0.2475  0.2998
  135TMC2     H 2104   0.147   1.877   9.572 -0.9063 -1.3920  0.1226
  135TMC2    H1 2105   0.216   2.132   9.919 -1.8418 -0.6118  2.0558
  135TMC2    H2 2106   4.575   1.941   9.856  0.6582 -2.2711  2.3093
  135TMC2    C7 2107   4.702   2.085  10.026 -0.3382  0.3388 -0.4698
  135TMC2    C8 2108   4.642   1.798   9.657  0.4015 -0.3965  0.0077
  135TMC2    O1 2109   4.607   2.018  10.062  0.4422  0.1821 -0.0739
  135TMC2    O2 2110   4.521   1.805   9.664 -0.3283 -0.1179  0.2073
  135TMC2    O5 2111   4.717   1.680   9.653 -0.2204  0.1735 -0.3601
  135TMC2    H5 2112   0.079   1.695   9.655 -0.2581  0.2133  0.7932
  136MPD2     C 2113   0.620   1.989   9.612 -0.3370  0.0702  0.4136
  136MPD2    C1 2114   0.519   1.902   9.582  0.0698 -0.6269  0.3667
  136MPD2    C2 2115   0.549   1.782   9.520  0.0915  0.2166 -0.2570
  136MPD2    C3 2116   0.676   1.742   9.485  0.2293 -0.0797  0.4873
  136MPD2    C4 2117   0.776   1.828   9.514  0.1255 -0.2066 -0.9183
  136MPD2    C5 2118   0.749   1.946   9.582  0.4086 -0.4006 -0.4041
  136MPD2     H 2119   0.458   1.726   9.502 -0.6178  1.8417 -1.7398
  136MPD2    H1 2120   0.881   1.799   9.509 -0.0761 -0.7893 -1.6964
  136MPD2    H2 2121   0.602   2.082   9.665  2.3155 -0.7969  2.8724
  136MPD2    H3 2122   0.833   2.009   9.609 -0.2983 -0.0506  0.9753
  136MPD2     N 2123   0.706   1.615   9.434  0.1624 -0.0699 -0.3688
  136MPD2    H5 2124   0.805   1.604   9.415  0.5025  2.1173  0.1520
  136MPD2    N1 2125   0.387   1.922   9.632  0.1048 -0.0486  0.1838
  136MPD2    H7 2126   0.323   1.844   9.624 -0.8094  0.6269  0.8305
  137TMC2    C1 2127   4.672   0.550   9.851 -0.5083 -0.9578  0.4527
  137TMC2    C2 2128   0.037   0.507   9.764 -0.1009  0.4072  0.0696
  137TMC2    C3 2129   0.028   0.542   9.633 -0.3985  0.3125 -0.0250
  137TMC2    C4 2130   4.561   0.614   9.794 -0.2208 -0.5675  0.2277
  137TMC2    C5 2131   4.560   0.655   9.665 -0.2540  0.1280 -0.4063
  137TMC2    C6 2132   4.661   0.616   9.583  0.0524 -0.8099 -0.1427
  137TMC2     C 2133   4.714   0.614   9.971  0.1931  0.4735  0.1387
  137TMC2     O 2134   4.653   0.718   9.998 -0.0646  0.5734  0.5153
  137TMC2     H 2135   0.124   0.455   9.803 -0.0252  0.1337 -0.4701
  137TMC2    H1 2136   4.470   0.624   9.852 -0.1693 -0.8736  0.3591
  137TMC2    H2 2137   4.677   0.658   9.484  1.1127  0.6407  0.6544
  137TMC2    C7 2138   4.500   0.785   9.631  0.3330 -0.3213 -0.2187
  137TMC2    C8 2139   0.147   0.526   9.548  0.1515  0.9527  0.1058
  137TMC2    O1 2140   4.503   0.818   9.508 -0.0771 -0.3041 -0.5611
  137TMC2    O2 2141   0.258   0.526   9.605 -0.6028 -0.1288  0.0343
  137TMC2    O5 2142   0.106   0.448   9.439  0.3217  0.1903  0.0201
  137TMC2    H5 2143   0.012   0.450   9.412 -0.2488 -2.2863  1.8106
  138MPD2     C 2144   0.297   0.546  10.155  0.2131  0.9739  0.1136
  138MPD2    C1 2145   0.177   0.617  10.131  0.1959 -0.0898 -1.1808
  138MPD2    C2 2146   0.149   0.736  10.188 -0.9804 -0.1007  0.1793
  138MPD2    C3 2147   0.244   0.792  10.271 -0.0223  0.8223 -0.2996
  138MPD2    C4 2148   0.369   0.730  10.293 -0.3300 -0.4647 -0.0884
  138MPD2    C5 2149   0.383   0.601  10.245 -0.3482 -0.2045 -0.2888
  138MPD2     H 2150   0.068   0.797  10.152 -0.5983 -1.1274 -2.3653
  138MPD2    H1 2151   0.453   0.769  10.348 -0.5360  1.2367 -0.9911
  138MPD2    H2 2152   0.324   0.454  10.104 -0.4095  0.9119 -0.0992
  138MPD2    H3 2153   0.472   0.545  10.270 -0.1673 -0.8660 -2.3577
  138MPD2     N 2154   0.234   0.927  10.301  0.1557 -0.4035  0.6911
  138MPD2    H5 2155   0.147   0.978  10.285  0.6020 -0.4486 -1.8561
  138MPD2    N1 2156   0.098   0.567  10.024 -0.3173 -0.7897 -0.4080
  138MPD2    H7 2157   0.135   0.485   9.978  1.2224 -1.3591  1.8790
  139TMC2    C1 2158   0.736   3.812  13.535  0.3319 -0.7353 -0.0658
  139TMC2    C2 2159   0.729   3.882  13.419  0.2416 -0.1603 -0.4894
  139TMC2    C3 2160   0.678   4.007  13.422  0.3278 -0.0952 -0.4414
  139TMC2    C4 2161   0.678   3.841  13.650 -0.8371 -0.8473  0.3575
  139TMC2    C5 2162   0.617   3.969  13.651  0.1967  0.4651 -0.4073
  139TMC2    C6 2163   0.625   4.053  13.536  0.2996 -0.6485 -0.2633
  139TMC2     C 2164   0.802   3.683  13.518 -0.6214 -0.2304 -0.3363
  139TMC2     O 2165   0.889   3.671  13.434 -0.1432  0.1607 -0.1683
  139TMC2     H 2166   0.779   3.838  13.334 -1.2875 -0.6838 -1.1341
  139TMC2    H1 2167   0.688   3.786  13.743  0.4281 -0.7619  0.2724
  139TMC2    H2 2168   0.580   4.151  13.543  2.0175  0.1589 -0.4714
  139TMC2    C7 2169   0.512   4.003  13.747 -0.5606  0.8547  0.0271
  139TMC2    C8 2170   0.606   4.062  13.297 -0.4405  0.4437 -0.0322
  139TMC2    O1 2171   0.470   4.120  13.752 -0.3720 -0.5685 -0.1654
  139TMC2    O2 2172   0.507   4.129  13.312  0.0432  0.2187 -0.4996
  139TMC2    O5 2173   0.621   3.965  13.198 -0.3505  0.8308  0.0902
  139TMC2    H5 2174   0.712   3.930  13.184 -1.8163 -1.8182 -2.9075
  140MPD2     C 2175   0.724   3.357  13.685  0.3002  0.5300 -0.9997
  140MPD2    C1 2176   0.798   3.449  13.611  0.7916  0.3231  0.1959
  140MPD2    C2 2177   0.914   3.410  13.556  0.4669 -0.4910  0.2667
  140MPD2    C3 2178   0.963   3.287  13.585 -0.6589  0.2844  0.0645
  140MPD2    C4 2179   0.890   3.203  13.668  0.4563  0.0615 -0.5530
  140MPD2    C5 2180   0.765   3.229  13.705  0.1379  0.0086 -0.3969
  140MPD2     H 2181   0.974   3.465  13.484  1.1576 -1.4856  0.0828
  140MPD2    H1 2182   0.928   3.106  13.700 -0.6172 -0.6598 -1.4408
  140MPD2    H2 2183   0.629   3.394  13.723  0.0526 -1.3957  0.2329
  140MPD2    H3 2184   0.712   3.164  13.773  1.4863 -0.5583  0.0904
  140MPD2     N 2185   1.092   3.247  13.537  0.0371 -0.2560  0.0783
  140MPD2    H5 2186   1.133   3.310  13.469 -0.7139  0.5718  0.4028
  140MPD2    N1 2187   0.751   3.579  13.602  0.1953  0.4309  0.4684
  140MPD2    H7 2188   0.677   3.608  13.664  0.5423 -1.0212  1.5430
  141TMC2    C1 2189   1.189   4.496  14.479 -0.1614 -0.8376 -0.5682
  141TMC2    C2 2190   1.160   4.371  14.532 -0.1965 -0.1252 -0.8355
  141TMC2    C3 2191   1.131   4.375  14.667  0.1295 -0.7248 -0.7556
  141TMC2    C4 2192   1.185   4.610  14.555  0.3295  0.6940 -0.4613
  141TMC2    C5 2193   1.163   4.604  14.690  0.1629  0.4823  0.0877
  141TMC2    C6 2194   1.139   4.483  14.747 -0.1528 -0.0421 -0.5084
  141TMC2     C 2195   1.192   4.506  14.340  0.7316  0.0080 -0.3506
  141TMC2     O 2196   1.169   4.616  14.294 -0.7005 -0.3606 -0.0971
  141TMC2     H 2197   1.126   4.289  14.469 -1.7937  0.4125 -0.6671
  141TMC2    H1 2198   1.185   4.701  14.496  2.3586  0.9195 -0.1251
  141TMC2    H2 2199   1.110   4.480  14.852 -1.3069  2.7209 -0.7624
  141TMC2    C7 2200   1.216   4.710  14.769 -0.2381  0.2435 -0.9691
  141TMC2    C8 2201   1.090   4.251  14.721 -0.1515  0.2699 -1.0501
  141TMC2    O1 2202   1.190   4.713  14.886  0.4130  0.1472  0.6330
  141TMC2    O2 2203   1.102   4.148  14.656  0.0733 -0.3237 -0.1366
  141TMC2    O5 2204   1.042   4.254  14.847 -0.6802  0.0772 -0.6264
  141TMC2    H5 2205   1.051   4.341  14.890  2.6636 -0.0237 -1.1448
  142TMC2    C1 2206   3.795   4.061   9.778  0.0119 -0.0572  0.3158
  142TMC2    C2 2207   3.757   4.057   9.647  0.2064 -0.1141  0.3558
  142TMC2    C3 2208   3.802   4.150   9.560  0.2553  0.3293  0.1649
  142TMC2    C4 2209   3.872   4.160   9.821  0.0306 -0.3105 -0.9261
  142TMC2    C5 2210   3.910   4.255   9.729 -0.1001  0.6486 -0.5997
  142TMC2    C6 2211   3.878   4.250   9.597 -0.1954  0.0227  0.4429
  142TMC2     C 2212   3.816   3.939   9.851  0.1622 -0.9030  0.0172
  142TMC2     O 2213   3.747   3.846   9.811  0.2936  0.0166 -0.5658
  142TMC2     H 2214   3.685   3.987   9.606  0.2907  0.3815 -0.6398
  142TMC2    H1 2215   3.883   4.172   9.928  0.0661  2.3261 -1.2436
  142TMC2    H2 2216   3.893   4.331   9.526 -1.1097  0.1435  0.3854
  142TMC2    C7 2217   3.991   4.358   9.778 -0.7138  1.1286  0.0813
  142TMC2    C8 2218   3.809   4.119   9.419  0.4273 -0.2366 -0.2865
  142TMC2    O1 2219   4.038   4.342   9.887  0.2747  0.1708  0.0555
  142TMC2    O2 2220   3.759   4.021   9.369  0.1949 -0.4773  0.5024
  142TMC2    O5 2221   3.938   4.157   9.382  1.0179  0.8766 -0.3949
  142TMC2    H5 2222   3.993   4.193   9.455 -1.2186 -0.9659  2.2398
  143MPD2     C 2223   4.033   3.642  10.218 -0.0546  0.5702 -0.3486
  143MPD2    C1 2224   3.927   3.617  10.136 -0.3462  0.2201 -0.3380
  143MPD2    C2 2225   3.880   3.722  10.058 -0.0326 -0.3512  1.1069
  143MPD2    C3 2226   3.944   3.843  10.052  0.6743 -0.0171 -0.1437
  143MPD2    C4 2227   4.054   3.856  10.125  0.6066 -0.5410  1.3434
  143MPD2    C5 2228   4.093   3.761  10.214  0.5165 -0.0910 -0.0689
  143MPD2     H 2229   3.799   3.701   9.990  0.4396 -0.7128  0.6641
  143MPD2    H1 2230   4.103   3.953  10.121 -0.5704 -0.0274 -0.5564
  143MPD2    H2 2231   4.079   3.562  10.275 -0.5488 -0.5986 -1.6002
  143MPD2    H3 2232   4.180   3.775  10.276  0.3412 -2.0412  0.6014
  143MPD2     N 2233   3.908   3.939   9.949 -0.2441  0.0358  0.2131
  143MPD2    H5 2234   3.969   4.020   9.947 -1.2553  0.8140  0.8759
  143MPD2    N1 2235   3.855   3.497  10.143  0.0788 -0.9024  0.3654
  143MPD2    H7 2236   3.902   3.431  10.204  2.8197 -0.1865 -0.9737
  144TMC2    C1 2237   2.372   1.950   0.921 -0.5933  0.0395  0.4183
  144TMC2    C2 2238   2.434   1.826   0.914 -0.0915 -0.4504 -0.2713
  144TMC2    C3 2239   2.564   1.812   0.955  0.0252  0.5558 -0.3278
  144TMC2    C4 2240   2.452   2.057   0.961 -0.1329 -1.0464  0.1466
  144TMC2    C5 2241   2.590   2.038   0.971  1.5212 -0.9409 -0.0730
  144TMC2    C6 2242   2.652   1.913   0.969 -0.2442 -0.5075 -0.0602
  144TMC2     C 2243   2.226   1.953   0.889  0.5603 -0.0369 -0.5545
  144TMC2     O 2244   2.178   1.862   0.816  0.3798 -0.2662  0.2864
  144TMC2     H 2245   2.374   1.737   0.906 -2.3324  0.9547  0.8464
  144TMC2    H1 2246   2.409   2.155   0.943  3.1782  0.1645 -1.1058
  144TMC2    H2 2247   2.752   1.901   1.009 -0.2517 -0.2019  0.0511
  144TMC2    C7 2248   2.667   2.142   1.031 -0.4738  0.5268 -0.0129
  144TMC2    C8 2249   2.612   1.676   0.936  0.4670 -0.3285 -0.1178
  144TMC2    O1 2250   2.784   2.117   1.048  0.2755  0.2085  0.2450
  144TMC2    O2 2251   2.541   1.576   0.926 -0.5545  0.2014  0.0949
  144TMC2    O5 2252   2.738   1.679   0.899  0.7639  0.3274  0.2269
  144TMC2    H5 2253   2.781   1.766   0.883  1.4113  0.1559  1.0634
  145MPD2     C 2254   1.775   2.199   0.906  0.1036 -0.4524 -0.0692
  145MPD2    C1 2255   1.813   2.095   0.819  0.5223 -0.1156 -0.2231
  145MPD2    C2 2256   1.936   2.036   0.846  0.2574  0.6667  0.0141
  145MPD2    C3 2257   2.019   2.077   0.951 -0.4077 -0.5980  0.3944
  145MPD2    C4 2258   1.973   2.170   1.039 -0.1314 -0.0760 -0.0068
  145MPD2    C5 2259   1.857   2.241   1.012 -0.3482 -0.0609  0.3309
  145MPD2     H 2260   1.959   1.940   0.800  1.4201 -0.4303  2.8472
  145MPD2    H1 2261   2.045   2.193   1.117  1.4397  0.0432 -1.5140
  145MPD2    H2 2262   1.682   2.253   0.895  0.4574  0.0803 -0.4475
  145MPD2    H3 2263   1.815   2.321   1.071 -0.5732  0.1685 -0.1432
  145MPD2     N 2264   2.155   2.042   0.969 -0.6659 -0.3941 -0.9485
  145MPD2    H5 2265   2.210   2.094   1.037 -1.7052  0.3303 -0.6622
  145MPD2    N1 2266   1.746   2.056   0.705  0.3311 -0.1739 -0.3521
  145MPD2    H7 2267   1.786   1.977   0.656  0.1349 -0.2872 -0.3304
  146TMC2    C1 2268   3.152   1.711  12.935 -0.5926 -0.1886  0.3250
  146TMC2    C2 2269   3.044   1.794  12.935 -0.2436 -0.2139  0.0790
  146TMC2    C3 2270   2.987   1.817  12.811 -0.5621  0.9699  0.3905
  146TMC2    C4 2271   3.200   1.648  12.829 -0.1329  0.8713 -0.7162
  146TMC2    C5 2272   3.129   1.658  12.710 -0.1982  0.1964  0.2002
  146TMC2    C6 2273   3.028   1.749  12.696  0.1922  0.0563 -0.0595
  146TMC2     C 2274   3.194   1.661  13.067 -0.9883 -0.7920 -0.0524
  146TMC2     O 2275   3.227   1.746  13.145 -0.2131  0.3539  0.3907
  146TMC2     H 2276   3.028   1.858  13.021 -1.4349 -0.3790 -0.0193
  146TMC2    H1 2277   3.287   1.585  12.838 -0.9562 -0.3527 -1.3137
  146TMC2    H2 2278   2.971   1.771  12.606 -1.2086  2.3069  1.3710
  146TMC2    C7 2279   3.174   1.558  12.612  0.7457  0.1843 -0.3121
  146TMC2    C8 2280   2.891   1.927  12.783 -0.2987  0.0517  0.5717
  146TMC2    O1 2281   3.269   1.483  12.637 -0.3228 -0.3646 -0.1820
  146TMC2    O2 2282   2.860   1.963  12.667 -0.0975 -0.0288  0.0555
  146TMC2    O5 2283   2.833   1.967  12.895 -0.1231  0.0579 -0.7910
  146TMC2    H5 2284   2.877   1.918  12.967 -1.7594  1.4430  1.1527
  147MPD2     C 2285   3.215   1.418  12.118  0.0883 -0.1076 -0.1793
  147MPD2    C1 2286   3.245   1.347  12.233  1.0632  0.6298 -0.4498
  147MPD2    C2 2287   3.207   1.401  12.356 -0.2203 -0.0679  0.1954
  147MPD2    C3 2288   3.134   1.515  12.367 -0.1329  0.1793 -0.5079
  147MPD2    C4 2289   3.097   1.579  12.245  0.6533 -0.3651 -0.7331
  147MPD2    C5 2290   3.134   1.526  12.123  0.0148  0.7179  0.1671
  147MPD2     H 2291   3.230   1.348  12.448 -0.3449  1.8183  1.3261
  147MPD2    H1 2292   3.032   1.665  12.257  1.4189  0.3424 -1.7004
  147MPD2    H2 2293   3.251   1.387  12.020  0.0325 -0.1581 -0.1838
  147MPD2    H3 2294   3.107   1.577  12.032 -2.0965 -1.6505 -0.5190
  147MPD2     N 2295   3.113   1.577  12.492  0.5646  0.3674 -0.0209
  147MPD2    H5 2296   3.043   1.650  12.486 -0.2211 -0.2411  1.9677
  147MPD2    N1 2297   3.329   1.233  12.221 -0.3092  0.0351  0.1097
  147MPD2    H7 2298   3.366   1.224  12.127 -2.3323 -0.0457 -0.6801
  148TMC2    C1 2299   3.006   0.656  10.644  0.2226 -1.0062 -0.3425
  148TMC2    C2 2300   3.122   0.715  10.685  0.7321 -0.8789 -0.1601
  148TMC2    C3 2301   3.191   0.660  10.790 -0.0004  0.3822 -0.5173
  148TMC2    C4 2302   2.960   0.538  10.714 -0.4697  0.5578 -0.4145
  148TMC2    C5 2303   3.028   0.496  10.829 -0.5786  0.0950 -0.3196
  148TMC2    C6 2304   3.141   0.563  10.871 -0.4706 -0.0548 -0.2392
  148TMC2     C 2305   2.963   0.668  10.506 -0.0741 -0.2299  0.8098
  148TMC2     O 2306   2.938   0.780  10.458  0.1265 -0.1737 -0.1828
  148TMC2     H 2307   3.163   0.793  10.623  0.7919 -0.7750  0.0099
  148TMC2    H1 2308   2.871   0.488  10.679  1.1559 -1.4692 -1.6785
  148TMC2    H2 2309   3.208   0.532  10.951  1.5721  1.3277 -1.4330
  148TMC2    C7 2310   3.010   0.356  10.857 -0.3617  0.3864 -0.2283
  148TMC2    C8 2311   3.332   0.690  10.813  0.2116  0.5022 -0.4433
  148TMC2    O1 2312   2.963   0.286  10.768 -0.8650 -0.0819  0.1232
  148TMC2    O2 2313   3.393   0.657  10.912  0.5887  0.1470 -0.0863
  148TMC2    O5 2314   3.384   0.673  10.688 -0.6212 -0.1832  0.4450
  148TMC2    H5 2315   3.482   0.680  10.678 -0.4099 -4.1188 -0.1665
  149MPD2     C 2316   2.824   0.614  10.236 -0.7177 -0.1329  0.2552
  149MPD2    C1 2317   2.883   0.514  10.313 -0.2689  0.0099  0.4493
  149MPD2    C2 2318   2.903   0.390  10.254  0.0093 -1.0239  0.3684
  149MPD2    C3 2319   2.844   0.356  10.127 -0.4309 -0.0948  0.2672
  149MPD2    C4 2320   2.780   0.452  10.054 -0.4755 -0.0261 -0.0392
  149MPD2    C5 2321   2.781   0.577  10.111 -0.3931 -0.0470 -0.4718
  149MPD2     H 2322   2.954   0.316  10.314  1.1546 -0.2848  0.3101
  149MPD2    H1 2323   2.734   0.425   9.960  0.5618 -0.8511 -0.3173
  149MPD2    H2 2324   2.795   0.711  10.275 -1.2045  0.6650 -2.1396
  149MPD2    H3 2325   2.712   0.645  10.062  1.3881  1.5157 -0.7962
  149MPD2     N 2326   2.848   0.220  10.072  0.7450  0.3816 -0.0812
  149MPD2    H5 2327   2.822   0.216   9.974 -0.9465 -1.0825  0.4334
  149MPD2    N1 2328   2.945   0.542  10.442 -0.0519 -0.0744 -0.3870
  149MPD2    H7 2329   2.991   0.462  10.484  1.1828  0.4443 -0.7623
  150TMC2    C1 2330   0.548   4.257  12.381 -0.1946  0.1999  0.2027
  150TMC2    C2 2331   0.536   4.371  12.312  0.5273  0.0170  0.1189
  150TMC2    C3 2332   0.578   4.489  12.366  0.5739 -0.4512  0.9200
  150TMC2    C4 2333   0.623   4.262  12.497 -0.8678 -0.0866 -0.3172
  150TMC2    C5 2334   0.654   4.380  12.558  0.3253 -0.4451  0.6096
  150TMC2    C6 2335   0.627   4.498  12.493 -0.1159 -0.3943  0.0618
  150TMC2     C 2336   0.550   4.135  12.301 -0.3313 -0.2679 -0.1596
  150TMC2     O 2337   0.611   4.041  12.354  0.0808 -0.9460  0.1866
  150TMC2     H 2338   0.508   4.364  12.208  1.9958  0.7825 -0.3410
  150TMC2    H1 2339   0.625   4.168  12.550 -1.9789 -0.3098 -0.6791
  150TMC2    H2 2340   0.614   4.592  12.547 -0.0118 -1.0456  1.2235
  150TMC2    C7 2341   0.750   4.383  12.669 -0.8407  0.3808  0.0611
  150TMC2    C8 2342   0.531   4.607  12.301  0.2461  0.0146  0.2842
  150TMC2    O1 2343   0.780   4.492  12.703 -0.1099  0.0544 -0.2571
  150TMC2    O2 2344   0.445   4.608  12.215 -0.4802  0.0156 -0.0534
  150TMC2    O5 2345   0.619   4.701  12.342  0.0975 -0.5214  0.4303
  150TMC2    H5 2346   0.687   4.668  12.405  2.6390  0.2144 -1.9621
  151MPD2     C 2347   0.420   3.805  11.937 -0.7826 -0.4299  1.0357
  151MPD2    C1 2348   0.345   3.919  11.914 -0.3461  0.0202 -0.1463
  151MPD2    C2 2349   0.362   4.026  11.998  0.6212 -0.2759  0.3395
  151MPD2    C3 2350   0.453   4.019  12.104 -0.3424 -0.0951  0.1244
  151MPD2    C4 2351   0.532   3.911  12.119  0.0410 -0.3249 -0.1379
  151MPD2    C5 2352   0.511   3.797  12.033  0.4665  0.4291  0.0624
  151MPD2     H 2353   0.321   4.126  11.985  0.4569 -0.4052 -0.1326
  151MPD2    H1 2354   0.610   3.899  12.192  0.7729  1.4226 -0.6351
  151MPD2    H2 2355   0.403   3.709  11.891 -0.1708 -0.6854  1.3486
  151MPD2    H3 2356   0.565   3.707  12.062  0.4813 -0.0380 -1.4080
  151MPD2     N 2357   0.468   4.135  12.183 -0.7100  0.6175  0.2803
  151MPD2    H5 2358   0.407   4.213  12.166  0.4399  1.1271 -1.4823
  151MPD2    N1 2359   0.269   3.921  11.794  0.4019 -0.4685  0.5959
  151MPD2    H7 2360   0.247   3.830  11.755 -1.3676  0.0394  0.4138
  152TMC2    C1 2361   0.082   3.799  12.988  0.3154 -0.1052 -0.7531
  152TMC2    C2 2362   0.194   3.731  12.945 -0.0935  0.2782  0.4772
  152TMC2    C3 2363   0.307   3.807  12.945 -0.4779 -0.3433 -0.7964
  152TMC2    C4 2364   0.085   3.929  13.020  0.5903  0.0114  0.2070
  152TMC2    C5 2365   0.202   4.000  13.022  0.4885  0.5513 -0.4743
  152TMC2    C6 2366   0.314   3.938  12.983 -0.0786 -0.5004 -0.0595
  152TMC2     C 2367   4.688   3.733  12.979  0.3034 -0.3298 -1.1376
  152TMC2     O 2368   4.670   3.651  12.885 -0.1775 -0.8139 -0.2591
  152TMC2     H 2369   0.180   3.629  12.913 -1.7475  0.1576  1.5858
  152TMC2    H1 2370   4.726   3.980  13.037 -0.0448  0.0177 -3.3883
  152TMC2    H2 2371   0.410   3.986  12.983 -0.7353  0.8019  2.2959
  152TMC2    C7 2372   0.197   4.138  13.054 -0.5657 -0.8759 -0.2734
  152TMC2    C8 2373   0.432   3.741  12.946 -0.6498  0.5036 -0.0550
  152TMC2    O1 2374   0.087   4.192  13.072  0.0134  0.2326 -0.0993
  152TMC2    O2 2375   0.537   3.807  12.951  0.0652 -0.2407 -0.3658
  152TMC2    O5 2376   0.418   3.617  12.998 -0.1945  0.3540  0.3890
  152TMC2    H5 2377   0.331   3.574  13.015 -1.6417  3.7628  1.6217
  153MPD2     C 2378   4.408   3.750  13.183  0.5280  0.4426  0.1154
  153MPD2    C1 2379   4.474   3.734  13.066 -0.7427  0.2960 -0.3512
  153MPD2    C2 2380   4.395   3.704  12.958  0.0591  0.3104  0.8343
  153MPD2    C3 2381   4.258   3.679  12.969  0.4687 -0.0527  0.2231
  153MPD2    C4 2382   4.195   3.681  13.090 -0.0302 -0.8894  0.4083
  153MPD2    C5 2383   4.273   3.715  13.197  0.6126 -0.3474  0.1495
  153MPD2     H 2384   4.445   3.695  12.862  0.8771 -3.3983  1.5879
  153MPD2    H1 2385   4.087   3.682  13.104 -0.0001  0.2258  0.5407
  153MPD2    H2 2386   4.461   3.780  13.272  0.9093 -2.3540  0.8344
  153MPD2    H3 2387   4.223   3.717  13.293  0.6925 -2.1146  0.2234
  153MPD2     N 2388   4.194   3.643  12.847 -0.0949  0.6740  0.3166
  153MPD2    H5 2389   4.251   3.675  12.770  0.4696  0.9430  0.8506
  153MPD2    N1 2390   4.602   3.772  13.078  0.2626  0.1324  0.0882
  153MPD2    H7 2391   4.647   3.804  13.163 -2.8436 -0.1285  1.8161
  154TMC2    C1 2392   2.191   3.545   0.313  0.2981  0.5945  0.4235
  154TMC2    C2 2393   2.239   3.666   0.364 -0.7184  0.3314 -0.5023
  154TMC2    C3 2394   2.377   3.671   0.384 -0.3019 -0.2639  0.2801
  154TMC2    C4 2395   2.270   3.440   0.281 -0.4368 -0.0384  0.4158
  154TMC2    C5 2396   2.404   3.452   0.300  0.3465 -0.4932 -0.1862
  154TMC2    C6 2397   2.462   3.569   0.346  0.3968  0.5293 -0.9616
  154TMC2     C 2398   2.045   3.524   0.313 -0.3013 -0.0648 -0.2352
  154TMC2     O 2399   1.981   3.601   0.381 -0.3759 -0.5223 -0.7910
  154TMC2     H 2400   2.178   3.750   0.395  0.1542  0.4382  0.8815
  154TMC2    H1 2401   2.237   3.338   0.264 -3.7329  1.0637  0.1402
  154TMC2    H2 2402   2.559   3.565   0.395  0.2305  1.4677 -0.5415
  154TMC2    C7 2403   2.492   3.333   0.290 -0.5863  0.2050  0.7809
  154TMC2    C8 2404   2.441   3.799   0.406 -0.5891 -0.2145 -0.2537
  154TMC2    O1 2405   2.447   3.220   0.312  0.4149 -0.2539  0.0239
  154TMC2    O2 2406   2.384   3.891   0.455 -0.1664 -0.2010 -0.0420
  154TMC2    O5 2407   2.553   3.807   0.332  0.5658 -0.0000  0.2109
  154TMC2    H5 2408   2.561   3.718   0.290 -2.3694  0.5446 -1.5476
  155MPD2     C 2409   1.849   3.329   0.071 -0.5127  0.0237 -0.1282
  155MPD2    C1 2410   1.878   3.383   0.193  0.0102  0.1388 -0.4838
  155MPD2    C2 2411   1.782   3.405   0.287  0.2306  0.6358 -0.0588
  155MPD2    C3 2412   1.649   3.387   0.255 -0.0602 -0.3781  0.3777
  155MPD2    C4 2413   1.618   3.335   0.132  0.2920 -0.3554 -0.7484
  155MPD2    C5 2414   1.718   3.307   0.038  0.7448 -0.4489  0.6477
  155MPD2     H 2415   1.818   3.433   0.385  0.2724  0.4591 -0.0228
  155MPD2    H1 2416   1.513   3.327   0.105  0.7738  0.5635 -2.8810
  155MPD2    H2 2417   1.923   3.310  17.735  2.0244  2.2270  1.7963
  155MPD2    H3 2418   1.698   3.281  17.674 -0.3187  0.1898  0.6940
  155MPD2     N 2419   1.546   3.406   0.351 -0.5548  0.6117  0.1796
  155MPD2    H5 2420   1.574   3.441   0.443  0.2606  0.9808 -0.2094
  155MPD2    N1 2421   2.012   3.413   0.226 -0.0739  0.3061 -0.2266
  155MPD2    H7 2422   2.089   3.381   0.167  0.1896  1.7938 -0.6901
  156TMC2    C1 2423   0.102   2.193  11.552 -0.4625 -0.6436  0.0309
  156TMC2    C2 2424   4.719   2.147  11.496  0.4153 -0.6563 -0.2934
  156TMC2    C3 2425   4.634   2.238  11.438  0.7390  0.5488  0.7143
  156TMC2    C4 2426   0.124   2.328  11.555 -0.7303 -0.4016  0.0856
  156TMC2    C5 2427   0.029   2.416  11.506 -0.9013  0.0303 -0.5417
  156TMC2    C6 2428   4.649   2.376  11.443 -0.1332  0.1284  0.9886
  156TMC2     C 2429   0.174   2.114  11.651 -0.4676 -0.2843  0.3922
  156TMC2     O 2430   0.265   2.172  11.706  0.0593 -0.3651  0.3375
  156TMC2     H 2431   4.710   2.040  11.484 -0.9203 -0.5036 -0.5780
  156TMC2    H1 2432   0.218   2.362  11.594  0.3475 -0.2310 -2.6379
  156TMC2    H2 2433   4.586   2.440  11.383  0.9437  1.6916  1.5013
  156TMC2    C7 2434   0.074   2.558  11.506  0.1184 -0.7167 -0.5031
  156TMC2    C8 2435   4.499   2.206  11.401 -0.4275 -0.5550  0.1717
  156TMC2    O1 2436   0.183   2.587  11.556  0.2491  0.0199  0.6893
  156TMC2    O2 2437   4.414   2.290  11.366 -0.4741 -0.7427 -0.6418
  156TMC2    O5 2438   4.497   2.077  11.364  0.7440 -0.5642  0.0066
  156TMC2    H5 2439   4.588   2.042  11.362  0.3698 -1.5156 -0.1375
  157MPD2     C 2440   0.101   1.794  11.817  0.1661  0.5524  0.3379
  157MPD2    C1 2441   0.170   1.911  11.793  0.4487  0.1052  0.2016
  157MPD2    C2 2442   0.285   1.938  11.874  0.1306  0.0619 -0.9137
  157MPD2    C3 2443   0.318   1.842  11.968  0.0991  0.3195  0.2182
  157MPD2    C4 2444   0.241   1.726  11.995  0.1115 -0.6377 -0.1776
  157MPD2    C5 2445   0.130   1.713  11.918  0.3975  0.3280 -0.8246
  157MPD2     H 2446   0.342   2.028  11.858 -0.4565  0.6849  0.5352
  157MPD2    H1 2447   0.259   1.657  12.076 -0.1305  1.7241  1.9093
  157MPD2    H2 2448   0.007   1.781  11.764  0.3934 -0.5764  0.2198
  157MPD2    H3 2449   0.064   1.633  11.948  2.0633 -0.4376  0.8168
  157MPD2     N 2450   0.427   1.868  12.045  0.1600 -0.0722  0.8603
  157MPD2    H5 2451   0.459   1.962  12.022  1.3297 -0.2894  1.5803
  157MPD2    N1 2452   0.120   1.995  11.689  0.3256  0.3940 -0.2108
  157MPD2    H7 2453   0.036   1.958  11.646 -0.1352 -0.1414  1.1643
  158TMC2    C1 2454   0.326   0.500  13.378  0.1890 -1.0067  0.3355
  158TMC2    C2 2455   0.304   0.570  13.261 -0.5508  0.4265  0.2071
  158TMC2    C3 2456   0.189   0.552  13.196  0.3989  0.8846  0.1439
  158TMC2    C4 2457   0.239   0.413  13.430  0.6497  0.0770  0.0317
  158TMC2    C5 2458   0.115   0.410  13.371 -0.4485  0.3303 -0.5067
  158TMC2    C6 2459   0.084   0.484  13.254  0.9746  0.3763 -0.4861
  158TMC2     C 2460   0.465   0.482  13.398  0.0858 -0.4566  0.7335
  158TMC2     O 2461   0.535   0.458  13.300  0.0100 -0.2932 -0.3768
  158TMC2     H 2462   0.382   0.642  13.244 -0.0081  0.4344  2.6788
  158TMC2    H1 2463   0.268   0.344  13.509  0.9389 -1.9431 -1.8323
  158TMC2    H2 2464   4.730   0.484  13.192  0.2928 -3.4971  0.4561
  158TMC2    C7 2465   0.005   0.348  13.435  0.2371 -0.8715  0.9049
  158TMC2    C8 2466   0.156   0.625  13.074  0.3655  0.5365  0.5453
  158TMC2    O1 2467   4.632   0.375  13.386 -0.3682  0.3515  0.4892
  158TMC2    O2 2468   0.043   0.648  13.034 -0.5046 -0.1002 -0.3941
  158TMC2    O5 2469   0.266   0.637  12.995  0.0558 -0.1550 -0.4520
  158TMC2    H5 2470   0.350   0.596  13.024 -1.4586 -1.5924  1.8892
  159MPD2     C 2471   0.862   0.387  13.705  0.0309  0.4174 -0.3890
  159MPD2    C1 2472   0.748   0.381  13.781  0.3461  0.0987 -0.6690
  159MPD2    C2 2473   0.629   0.411  13.726  0.2861  0.6350  0.0361
  159MPD2    C3 2474   0.618   0.441  13.590  0.2780  0.4333  0.5369
  159MPD2    C4 2475   0.729   0.448  13.518 -0.2710  0.8471 -0.6609
  159MPD2    C5 2476   0.852   0.417  13.570  0.0274  0.4364 -0.1784
  159MPD2     H 2477   0.539   0.404  13.786 -1.4111 -0.6068 -2.6949
  159MPD2    H1 2478   0.723   0.490  13.418  1.0769  0.0873 -1.0674
  159MPD2    H2 2479   0.960   0.367  13.747  0.5758  2.3900 -0.7024
  159MPD2    H3 2480   0.941   0.407  13.509  0.8108  0.8523  0.8866
  159MPD2     N 2481   0.492   0.456  13.531  0.3594  0.2640  0.0870
  159MPD2    H5 2482   0.415   0.459  13.597  0.7801 -0.6440  0.6183
  159MPD2    N1 2483   0.766   0.352  13.912 -0.6541 -0.1771 -0.0742
  159MPD2    H7 2484   0.861   0.324  13.936 -0.7209 -0.8570 -0.6128
  160TMC2    C1 2485   0.339   3.256   1.648 -0.0827 -0.0354 -0.0513
  160TMC2    C2 2486   0.302   3.208   1.530  0.1495  0.6162  0.2983
  160TMC2    C3 2487   0.378   3.109   1.477 -0.0624 -0.1319 -0.5398
  160TMC2    C4 2488   0.458   3.223   1.710  0.0927 -0.3615  0.0129
  160TMC2    C5 2489   0.536   3.130   1.648  0.1420  0.2430 -0.8060
  160TMC2    C6 2490   0.494   3.071   1.535 -0.4126  0.1617 -0.1319
  160TMC2     C 2491   0.268   3.370   1.703 -0.0642 -0.5405 -0.5831
  160TMC2     O 2492   0.278   3.399   1.819 -0.1437  0.6384 -0.0684
  160TMC2     H 2493   0.204   3.233   1.491  0.8320 -0.4492 -2.1094
  160TMC2    H1 2494   0.478   3.252   1.813 -0.3056 -1.2679  0.3423
  160TMC2    H2 2495   0.542   2.991   1.479  0.7608  1.1744 -0.5914
  160TMC2    C7 2496   0.674   3.102   1.698  1.1073 -0.1626 -1.1112
  160TMC2    C8 2497   0.335   3.041   1.352  0.5913  0.4565 -0.4942
  160TMC2    O1 2498   0.683   3.098   1.822 -0.0014 -0.4652 -0.6377
  160TMC2    O2 2499   0.414   3.020   1.265  0.0768 -0.3363 -0.0555
  160TMC2    O5 2500   0.218   2.973   1.373 -0.1848  0.2653  0.1485
  160TMC2    H5 2501   0.163   3.007   1.448 -0.2510 -3.0508  1.5867
  161MPD2     C 2502   0.046   3.571   1.720 -0.2376  0.0489  0.4034
  161MPD2    C1 2503   0.125   3.552   1.614 -0.5488  0.1653 -0.3378
  161MPD2    C2 2504   0.104   3.635   1.501 -0.3012  0.5197 -0.9732
  161MPD2    C3 2505   0.006   3.733   1.504  0.5026  0.5145 -0.1955
  161MPD2    C4 2506   4.657   3.745   1.614  0.4104  0.4841  0.3943
  161MPD2    C5 2507   4.679   3.666   1.719 -0.3595  1.0481 -0.4592
  161MPD2     H 2508   0.177   3.622   1.422  2.5941  2.1313  1.4196
  161MPD2    H1 2509   4.581   3.822   1.611 -0.1010  0.0470  2.7850
  161MPD2    H2 2510   0.057   3.502   1.803 -0.3279 -1.8137 -1.1405
  161MPD2    H3 2511   4.616   3.678   1.807  0.9561  1.4141  0.4284
  161MPD2     N 2512   4.709   3.819   1.397 -0.0878  0.1151  0.0150
  161MPD2    H5 2513   4.638   3.890   1.411  0.7663  0.7063  1.3740
  161MPD2    N1 2514   0.217   3.449   1.605  0.6259  0.0526  0.6743
  161MPD2    H7 2515   0.248   3.431   1.510 -0.5419  0.1406  0.2776
  162TMC2    C1 2516   2.509   4.640   0.853  0.5024  0.1435 -0.4174
  162TMC2    C2 2517   2.404   4.590   0.787  0.1098  0.1817  0.3237
  162TMC2    C3 2518   2.281   4.597   0.838  0.0262 -0.0517 -0.0529
  162TMC2    C4 2519   2.492   4.720   0.961  0.5018  0.3907 -0.1309
  162TMC2    C5 2520   2.360   4.723   1.014  0.1712  0.1867  1.0661
  162TMC2    C6 2521   2.254   4.653   0.960 -0.4255 -0.3276  0.0823
  162TMC2     C 2522   2.637   4.642   0.787  0.4165 -0.1073 -0.0258
  162TMC2     O 2523   2.644   4.582   0.680  0.0059 -0.5138  0.2133
  162TMC2     H 2524   2.416   4.536   0.694  1.7090  1.8224 -0.4508
  162TMC2    H1 2525   2.566   0.056   0.997  0.3126  0.9606 -0.8592
  162TMC2    H2 2526   2.155   4.663   1.004 -0.0374  1.7812  0.4930
  162TMC2    C7 2527   2.330   0.054   1.137  0.2707 -0.5413  0.0328
  162TMC2    C8 2528   2.170   4.549   0.760 -0.4364  0.2653  0.3897
  162TMC2    O1 2529   2.215   0.072   1.167 -0.0531  0.0584  0.2614
  162TMC2    O2 2530   2.173   4.464   0.670 -0.5236  0.0322  0.9339
  162TMC2    O5 2531   2.073   4.642   0.788 -0.5476 -0.0965  0.4745
  162TMC2    H5 2532   2.100   4.716   0.848 -1.5703  0.3267  0.4096
  163MPD2     C 2533   3.144   4.689   0.755  0.4958  0.5424  0.1376
  163MPD2    C1 2534   3.056   4.668   0.658 -0.4217 -0.6269 -0.5155
  163MPD2    C2 2535   2.919   4.670   0.689 -0.1227 -0.2695  0.5882
  163MPD2    C3 2536   2.881   4.683   0.820 -0.7386  0.2870  0.4528
  163MPD2    C4 2537   2.975   4.713   0.918 -0.1572 -0.9770  0.7688
  163MPD2    C5 2538   3.106   4.726   0.880  0.4004  0.3356 -0.8757
  163MPD2     H 2539   2.833   4.671   0.623  0.4580 -1.5059 -0.1807
  163MPD2    H1 2540   2.950   4.729   1.022 -3.1054 -0.2911 -0.0432
  163MPD2    H2 2541   3.247   4.699   0.723 -0.0344 -0.8859 -2.0301
  163MPD2    H3 2542   3.181   0.025   0.950  0.0972 -1.3318  0.2603
  163MPD2     N 2543   2.742   4.685   0.865 -0.1607  0.5538 -0.2074
  163MPD2    H5 2544   2.724   4.712   0.961  0.5303  1.3566 -0.3095
  163MPD2    N1 2545   3.104   4.650   0.527 -0.2743 -0.6194 -0.0214
  163MPD2    H7 2546   3.205   4.648   0.520 -0.3342  0.3749 -1.2976
  164TMC2    C1 2547   3.788   4.712  11.237  0.7333  0.6797  0.5511
  164TMC2    C2 2548   3.889   0.044  11.181  0.2621  0.2154 -0.3178
  164TMC2    C3 2549   3.860   0.171  11.129 -0.0075  0.2654 -0.2398
  164TMC2    C4 2550   3.662   0.032  11.267 -0.0127  0.3995 -0.1642
  164TMC2    C5 2551   3.635   0.157  11.205 -0.0118 -0.6373 -0.7129
  164TMC2    C6 2552   3.733   0.219  11.128  0.0184  0.3780  0.5219
  164TMC2     C 2553   3.796   4.568  11.267 -0.1388 -0.2145  0.5354
  164TMC2     O 2554   3.708   4.522  11.339 -0.4785 -0.2729 -0.6089
  164TMC2     H 2555   3.987   0.004  11.160  0.1121  0.2481 -1.0904
  164TMC2    H1 2556   3.585   4.707  11.313 -0.6472  1.4098  0.0870
  164TMC2    H2 2557   3.706   0.321  11.103  1.0461  0.1974 -1.3357
  164TMC2    C7 2558   3.532   0.243  11.265 -0.3750 -0.1542  0.0053
  164TMC2    C8 2559   3.976   0.253  11.085  0.5204 -0.0895  0.4035
  164TMC2    O1 2560   3.499   0.340  11.199  0.2035 -0.4969  0.1437
  164TMC2    O2 2561   4.089   0.234  11.123  0.3427  0.1122 -0.0955
  164TMC2    O5 2562   3.942   0.283  10.960 -0.0241  0.1927  0.1120
  164TMC2    H5 2563   3.847   0.278  10.936 -0.8479  0.6089  3.2716
  165TMC2    C1 2564   4.630   2.566   1.249  0.2807 -0.0372 -0.0009
  165TMC2    C2 2565   4.600   2.462   1.162 -0.4047 -0.4513  0.1472
  165TMC2    C3 2566   4.694   2.361   1.139 -0.4479 -0.3839 -0.2405
  165TMC2    C4 2567   0.001   2.554   1.326  0.2351 -0.8320  1.1617
  165TMC2    C5 2568   0.094   2.456   1.308 -0.5281  0.4047  0.3455
  165TMC2    C6 2569   0.083   2.371   1.199  0.4607 -0.2462  0.9271
  165TMC2     C 2570   4.517   2.643   1.301 -0.1878 -0.0122  0.4083
  165TMC2     O 2571   4.524   2.690   1.413 -0.4772 -0.3595 -0.0776
  165TMC2     H 2572   4.500   2.447   1.123  0.2624 -1.2926 -1.2874
  165TMC2    H1 2573   0.009   2.630   1.403  0.4447 -1.1147  1.4170
  165TMC2    H2 2574   0.161   2.303   1.166  0.7937  0.0461  1.1017
  165TMC2    C7 2575   0.230   2.467   1.362 -0.6072 -0.2883 -0.8526
  165TMC2    C8 2576   4.663   2.269   1.031  0.2148  0.4259 -0.2297
  165TMC2    O1 2577   0.321   2.437   1.287 -0.1782 -0.4815 -0.3539
  165TMC2    O2 2578   4.576   2.302   0.951  0.6728 -0.3985  0.2242
  165TMC2    O5 2579   4.683   2.143   1.074 -0.0051  0.3416 -0.2631
  165TMC2    H5 2580   4.715   2.142   1.167 -2.1435 -1.0903  0.4512
  166MPD2     C 2581   4.072   2.895   1.245 -0.3072 -0.3884  0.7198
  166MPD2    C1 2582   4.137   2.852   1.353 -0.2250 -0.9153  0.0667
  166MPD2    C2 2583   4.263   2.789   1.340  0.0185  0.0759  0.0698
  166MPD2    C3 2584   4.324   2.763   1.215  0.2974  0.2983 -0.0030
  166MPD2    C4 2585   4.258   2.820   1.107  0.4287 -0.1503  0.1481
  166MPD2    C5 2586   4.141   2.898   1.124  0.0786 -0.2247 -0.8174
  166MPD2     H 2587   4.303   2.750   1.433 -0.9331  2.5925  1.5419
  166MPD2    H1 2588   4.302   2.815   1.008 -0.7067  1.2190 -0.4283
  166MPD2    H2 2589   3.985   2.958   1.255 -0.2213  0.2525 -2.7956
  166MPD2    H3 2590   4.102   2.948   1.036  0.1713  0.1076 -0.6691
  166MPD2     N 2591   4.433   2.674   1.199 -0.1883 -0.0087  0.0305
  166MPD2    H5 2592   4.459   2.648   1.104  2.9124  1.3936  0.4921
  166MPD2    N1 2593   4.087   2.846   1.486  0.5834 -0.7724 -0.2793
  166MPD2    H7 2594   4.137   2.809   1.566  1.0084 -1.6584 -0.9552
  167TMC2    C1 2595   2.701   4.117  13.063  0.6014  0.2548  0.1915
  167TMC2    C2 2596   2.615   4.072  13.156 -0.1175  0.3501  0.2110
  167TMC2    C3 2597   2.550   3.957  13.121  0.2756 -0.5309 -0.7647
  167TMC2    C4 2598   2.732   4.063  12.941  0.3160 -0.3400  1.0327
  167TMC2    C5 2599   2.666   3.949  12.917 -0.2365 -0.5708 -0.2145
  167TMC2    C6 2600   2.575   3.893  13.006  0.3516  0.1444  0.9466
  167TMC2     C 2601   2.734   4.254  13.071 -0.1844 -1.1619  1.0979
  167TMC2     O 2602   2.783   4.305  13.173  0.3763  0.5297 -0.5297
  167TMC2     H 2603   2.579   4.132  13.238  0.3797  2.0932 -0.8396
  167TMC2    H1 2604   2.812   4.098  12.878 -1.5202 -1.5401 -1.9720
  167TMC2    H2 2605   2.512   3.812  12.970  1.3485  0.7584 -2.1690
  167TMC2    C7 2606   2.637   3.920  12.774  0.2840  0.7844 -0.4120
  167TMC2    C8 2607   2.427   3.944  13.194  0.3592  0.7182 -0.4251
  167TMC2    O1 2608   2.521   3.891  12.750  0.1399  0.0751  0.0748
  167TMC2    O2 2609   2.372   4.034  13.257  0.6879  0.2006  0.6874
  167TMC2    O5 2610   2.388   3.822  13.177  0.2618  0.2229  0.2320
  167TMC2    H5 2611   2.456   3.759  13.146  1.1179  2.2576 -1.9986
  168MPD2     C 2612   2.755   4.547  12.991 -0.0317  0.7671  0.4294
  168MPD2    C1 2613   2.740   4.440  12.906  0.6339  0.2662 -0.0180
  168MPD2    C2 2614   2.733   4.466  12.769 -0.5971 -0.2331  0.3181
  168MPD2    C3 2615   2.741   4.599  12.729  0.0054  0.0882  0.0236
  168MPD2    C4 2616   2.757   4.702  12.813 -0.2174 -0.5379  0.4607
  168MPD2    C5 2617   2.762   4.672  12.945  0.0610 -0.3748 -0.5798
  168MPD2     H 2618   2.713   4.390  12.694  0.5869  1.2110 -1.4529
  168MPD2    H1 2619   2.769   0.071  12.784  2.6836 -1.4012 -1.4629
  168MPD2    H2 2620   2.770   4.532  13.097 -1.9692  0.9502  0.7214
  168MPD2    H3 2621   2.768   0.023  13.011 -0.9956 -1.1989  0.5813
  168MPD2     N 2622   2.747   4.621  12.588  0.1665  0.0279  0.4227
  168MPD2    H5 2623   2.751   4.717  12.553  1.5429 -1.2390 -2.8733
  168MPD2    N1 2624   2.721   4.303  12.941  0.5445 -0.8876  0.3219
  168MPD2    H7 2625   2.694   4.231  12.874  0.7916  0.1537 -0.8992
  169MPD1     C 2626   1.077   0.640   8.858  0.1879 -0.1807 -0.4114
  169MPD1    C1 2627   0.982   0.543   8.865 -0.0294  0.5378 -0.6358
  169MPD1    C2 2628   1.003   0.436   8.951 -0.4847  0.1085 -0.1528
  169MPD1    C3 2629   1.118   0.429   9.027  0.0275  1.0712 -0.1342
  169MPD1    C4 2630   1.218   0.522   9.010 -0.1731 -0.9296  0.2104
  169MPD1    C5 2631   1.197   0.628   8.920 -0.3681 -0.2074 -0.5777
  169MPD1     H 2632   0.931   0.355   8.949 -0.7217  0.3337 -1.0040
  169MPD1    H1 2633   1.316   0.499   9.050 -0.3019  0.1100  1.1409
  169MPD1    H2 2634   1.064   0.731   8.800 -3.1048 -0.7652 -0.5585
  169MPD1    H3 2635   1.279   0.697   8.906 -0.3412  0.1018  1.1649
  169MPD1     N 2636   1.128   0.322   9.124  0.4385  0.5535  0.2304
  169MPD1    H5 2637   1.051   0.256   9.130  1.2360 -0.1506  2.7300
  169MPD1    N1 2638   0.852   0.573   8.811  0.0263  0.6599 -0.3674
  169MPD1    H6 2639   0.794   0.494   8.785  0.9452 -0.6492  1.5401
  169MPD1    H7 2640   0.867   0.631   8.729  0.2705  0.5370 -0.4082
  170MPD1     C 2641   3.289   2.418  13.124 -0.5415 -0.3768  0.2408
  170MPD1    C1 2642   3.407   2.475  13.087 -0.0941  0.0111 -0.1422
  170MPD1    C2 2643   3.507   2.495  13.179 -0.4706  0.4403  0.1910
  170MPD1    C3 2644   3.492   2.456  13.313  0.0750 -0.3335  0.0807
  170MPD1    C4 2645   3.380   2.394  13.351 -0.3870 -0.4502 -0.0810
  170MPD1    C5 2646   3.276   2.378  13.259 -0.3062  0.0701  0.6833
  170MPD1     H 2647   3.601   2.541  13.148 -0.4065 -0.5530 -1.0800
  170MPD1    H1 2648   3.381   2.347  13.449 -2.9848  0.9454  0.6253
  170MPD1    H2 2649   3.213   2.425  13.047 -1.1775  2.5551  1.0966
  170MPD1    H3 2650   3.188   2.323  13.291 -0.0715 -0.0211  1.1671
  170MPD1     N 2651   3.598   2.472  13.397  0.1522 -0.1651  0.4484
  170MPD1    H5 2652   3.675   2.521  13.353  0.0786  0.4264  0.9734
  170MPD1    N1 2653   3.415   2.535  12.960  0.3266 -0.5414  0.5555
  170MPD1    H6 2654   3.511   2.547  12.929  0.0685  0.0229 -0.0136
  170MPD1    H7 2655   3.349   2.512  12.886  1.2838  1.1671 -0.8079
  171MPD1     C 2656   3.053   2.681  15.360 -0.2513  0.3650  0.0266
  171MPD1    C1 2657   3.184   2.636  15.353 -0.1791 -0.4714 -0.5636
  171MPD1    C2 2658   3.233   2.556  15.457 -0.0283  0.1116 -0.2095
  171MPD1    C3 2659   3.148   2.523  15.560  0.3819 -0.3960  0.4399
  171MPD1    C4 2660   3.016   2.566  15.557  0.1366 -0.4519 -0.2811
  171MPD1    C5 2661   2.971   2.652  15.467 -0.4280  0.0206  0.8319
  171MPD1     H 2662   3.333   2.515  15.451 -0.3012 -0.3771 -1.4724
  171MPD1    H1 2663   2.947   2.546  15.638  0.4441  1.6634  0.4907
  171MPD1    H2 2664   3.011   2.742  15.281 -0.2293  1.0059  0.5035
  171MPD1    H3 2665   2.871   2.693  15.460  0.2343  1.3620 -0.6803
  171MPD1     N 2666   3.182   2.438  15.667  0.6074 -0.4110  0.0695
  171MPD1    H5 2667   3.115   2.410  15.739 -0.1117 -0.2174 -0.5243
  171MPD1    N1 2668   3.273   2.690  15.254 -0.1913  0.2987  0.2297
  171MPD1    H6 2669   3.358   2.634  15.249 -0.0496  0.5891 -0.6362
  171MPD1    H7 2670   3.237   2.703  15.160 -0.5819 -0.9799  0.1999
  172MPD1     C 2671   1.874   1.590   0.140  0.4112  0.3207  0.0974
  172MPD1    C1 2672   1.839   1.597   0.271  0.2593  0.3502  0.0774
  172MPD1    C2 2673   1.893   1.699   0.352  0.3845  0.3339 -1.3169
  172MPD1    C3 2674   1.995   1.780   0.303 -0.4657  0.3513  0.4342
  172MPD1    C4 2675   2.038   1.763   0.175  0.1395 -0.0539  0.0068
  172MPD1    C5 2676   1.979   1.671   0.093 -0.0126 -0.0719  0.3134
  172MPD1     H 2677   1.867   1.706   0.457 -1.3596  1.8486 -1.8414
  172MPD1    H1 2678   2.115   1.828   0.137 -0.7696  0.2020 -1.3886
  172MPD1    H2 2679   1.829   1.530   0.062  0.9193 -1.3626  1.1073
  172MPD1    H3 2680   1.991   1.678  17.725  1.2772  1.6149  0.5635
  172MPD1     N 2681   2.072   1.867   0.366  0.2980  0.1673  0.4783
  172MPD1    H5 2682   2.138   1.917   0.306 -1.4214  1.5185 -0.2987
  172MPD1    N1 2683   1.727   1.529   0.314 -0.6436  0.0942 -0.1462
  172MPD1    H6 2684   1.709   1.449   0.255  1.3251  1.3743 -2.4634
  172MPD1    H7 2685   1.721   1.518   0.415 -0.4725 -2.7791 -0.4608
  173MPD1     C 2686   2.424   2.167  14.157 -0.1697  0.3297 -0.1186
  173MPD1    C1 2687   2.502   2.272  14.204 -0.9355  0.5889  0.6071
  173MPD1    C2 2688   2.626   2.237  14.260 -0.4300  0.4950  0.3736
  173MPD1    C3 2689   2.666   2.100  14.280 -0.0110 -0.0959  0.3265
  173MPD1    C4 2690   2.581   2.001  14.231 -0.2635  0.1215  0.0946
  173MPD1    C5 2691   2.464   2.039  14.168  0.4962  0.3363 -0.4800
  173MPD1     H 2692   2.695   2.317  14.286  3.1819 -2.7700  0.9561
  173MPD1    H1 2693   2.602   1.895  14.244 -1.9795 -0.3070 -0.7425
  173MPD1    H2 2694   2.329   2.174  14.104 -0.2941  2.2431  0.3725
  173MPD1    H3 2695   2.401   1.960  14.131  1.0555 -0.3798  0.0895
  173MPD1     N 2696   2.786   2.069  14.342  0.0563  0.3258  0.0896
  173MPD1    H5 2697   2.857   2.141  14.346  0.3812  0.0834 -1.2821
  173MPD1    N1 2698   2.472   2.398  14.158  0.3662 -0.5110 -0.0421
  173MPD1    H6 2699   2.373   2.420  14.154  0.1214 -1.3416  1.5210
  173MPD1    H7 2700   2.516   2.475  14.209 -0.3740 -0.7066  0.8932
  174MPD1     C 2701   3.536   2.318  13.985  0.2770 -0.0065  0.1989
  174MPD1    C1 2702   3.581   2.235  14.085 -0.5857 -0.6911 -0.3500
  174MPD1    C2 2703   3.496   2.168  14.168  0.0369  0.3704  0.4389
  174MPD1    C3 2704   3.358   2.182  14.148 -0.0145 -0.1160  0.4551
  174MPD1    C4 2705   3.315   2.267  14.051  0.1144  0.2886  0.0988
  174MPD1    C5 2706   3.401   2.327  13.965  0.0887  0.3435  0.5938
  174MPD1     H 2707   3.530   2.100  14.245  0.4031 -1.5131 -1.4076
  174MPD1    H1 2708   3.209   2.286  14.049  0.2745  1.1266 -0.2606
  174MPD1    H2 2709   3.608   2.369  13.922 -1.3095  0.0793 -1.5216
  174MPD1    H3 2710   3.371   2.393  13.884  2.2773  0.1017 -0.4164
  174MPD1     N 2711   3.259   2.120  14.231 -0.2945 -0.0589  0.5115
  174MPD1    H5 2712   3.164   2.138  14.200 -0.6451  0.6852  2.0478
  174MPD1    N1 2713   3.720   2.234  14.124  0.0758 -0.0002 -0.6362
  174MPD1    H6 2714   3.742   2.147  14.172  1.3187  0.4277 -0.4251
  174MPD1    H7 2715   3.772   2.234  14.037 -2.4933 -0.0601 -2.1687
  175MPD1     C 2716   2.255   2.485  15.385  0.3118 -0.0635 -0.1740
  175MPD1    C1 2717   2.163   2.584  15.414  0.1174 -0.4343 -0.4103
  175MPD1    C2 2718   2.173   2.640  15.540 -0.5745 -0.4014 -0.0418
  175MPD1    C3 2719   2.268   2.606  15.635 -0.6224 -0.2558  0.1629
  175MPD1    C4 2720   2.363   2.516  15.595 -0.4744 -0.0290 -0.8170
  175MPD1    C5 2721   2.359   2.454  15.469  0.5126 -0.1046 -0.1232
  175MPD1     H 2722   2.091   2.703  15.572 -0.1421  0.7035 -1.1477
  175MPD1    H1 2723   2.444   2.501  15.666 -0.5453  0.1091 -0.7084
  175MPD1    H2 2724   2.247   2.432  15.291  2.2144  1.2710 -1.0768
  175MPD1    H3 2725   2.430   2.377  15.443  1.6485 -0.1064  3.0180
  175MPD1     N 2726   2.273   2.634  15.775  0.5940 -0.4355 -0.3006
  175MPD1    H5 2727   2.351   2.593  15.825 -0.0724 -1.4097 -0.0671
  175MPD1    N1 2728   2.048   2.606  15.325 -0.0575  0.1638 -0.1965
  175MPD1    H6 2729   2.071   2.571  15.232  1.3345 -0.4818  0.3813
  175MPD1    H7 2730   2.012   2.701  15.327 -0.9239 -0.1445 -1.4628
  176MPD1     C 2731   2.720   4.407  16.143 -0.0568 -0.0223 -0.0523
  176MPD1    C1 2732   2.836   4.372  16.209 -1.2444 -0.2672 -0.4407
  176MPD1    C2 2733   2.852   4.418  16.340  0.6553  0.4727  0.0164
  176MPD1    C3 2734   2.755   4.495  16.405 -0.6852  0.5789 -0.4769
  176MPD1    C4 2735   2.635   4.522  16.340  0.4028  0.5360 -0.3658
  176MPD1    C5 2736   2.621   4.474  16.212 -0.5067 -0.2768  0.4374
  176MPD1     H 2737   2.947   4.401  16.389  0.2109 -0.7296  0.4454
  176MPD1    H1 2738   2.555   4.583  16.380 -0.5013 -1.3356  0.7091
  176MPD1    H2 2739   2.715   4.375  16.039 -1.3019 -1.2948  0.4000
  176MPD1    H3 2740   2.524   4.496  16.168  1.1167  1.1243 -2.4118
  176MPD1     N 2741   2.779   4.547  16.537  0.3853 -0.1161 -0.0767
  176MPD1    H5 2742   2.869   4.519  16.575  1.1410  3.0142  0.4425
  176MPD1    N1 2743   2.951   4.330  16.139  0.6520 -0.5790 -0.0007
  176MPD1    H6 2744   3.018   4.289  16.204 -0.1972 -0.4036  0.9835
  176MPD1    H7 2745   2.914   4.260  16.075 -1.4004 -0.8797  1.4901
  177MPD1     C 2746   1.788   0.583   9.896  0.4600  0.5647  0.6910
  177MPD1    C1 2747   1.676   0.504   9.900  0.2610  0.5463 -0.3360
  177MPD1    C2 2748   1.555   0.562   9.847  0.0486  0.3704 -0.5711
  177MPD1    C3 2749   1.550   0.687   9.797  0.4359  0.0340  1.0921
  177MPD1    C4 2750   1.674   0.757   9.794 -0.3223 -0.0329  0.3941
  177MPD1    C5 2751   1.788   0.707   9.844 -0.8026 -0.3871  0.2264
  177MPD1     H 2752   1.462   0.506   9.842  0.2207 -0.1142  1.6017
  177MPD1    H1 2753   1.686   0.851   9.742  0.8213 -1.6959 -2.3192
  177MPD1    H2 2754   1.882   0.542   9.930  0.1599 -0.7130  0.0059
  177MPD1    H3 2755   1.883   0.756   9.825 -0.8108  0.1452  1.5371
  177MPD1     N 2756   1.437   0.744   9.736 -0.2821 -0.3081 -0.3826
  177MPD1    H5 2757   1.354   0.687   9.725  0.5884 -1.4582 -0.9379
  177MPD1    N1 2758   1.688   0.370   9.952  0.3662  0.4876 -0.7407
  177MPD1    H6 2759   1.762   0.354  10.021 -0.7326  2.2852  0.8602
  177MPD1    H7 2760   1.602   0.332   9.991  0.4407  1.6746  0.5882
  178MPD1     C 2761   3.958   2.111  17.145  0.1666 -0.4292  0.4457
  178MPD1    C1 2762   4.012   2.047  17.250 -0.3810 -0.1237 -0.2384
  178MPD1    C2 2763   4.016   1.906  17.235  0.8227 -0.2631  0.1824
  178MPD1    C3 2764   3.981   1.838  17.118  0.4017  1.1634  0.1495
  178MPD1    C4 2765   3.936   1.917  17.012  0.7271  0.4589 -0.1500
  178MPD1    C5 2766   3.932   2.049  17.030 -0.5011 -0.1743 -0.0493
  178MPD1     H 2767   4.052   1.854  17.323  1.0678  1.1431  0.9268
  178MPD1    H1 2768   3.922   1.869  16.916  1.1996 -1.9561  1.0041
  178MPD1    H2 2769   3.933   2.216  17.155  0.0966 -0.6940  3.0536
  178MPD1    H3 2770   3.883   2.098  16.946  0.2175 -0.5150 -0.6620
  178MPD1     N 2771   3.994   1.698  17.099 -0.3075  0.0149  0.2381
  178MPD1    H5 2772   3.965   1.664  17.009  0.2637  0.1742 -0.0066
  178MPD1    N1 2773   4.032   2.119  17.370  0.0335  0.7451 -0.5186
  178MPD1    H6 2774   4.078   2.072  17.448 -2.7540  0.9309  1.2260
  178MPD1    H7 2775   4.065   2.213  17.351  0.4511  1.3468  3.1205
  179MPD1     C 2776   4.336   4.466  15.507 -0.0408 -0.2184  0.0321
  179MPD1    C1 2777   4.201   4.477  15.482  0.5934 -0.0190  0.5118
  179MPD1    C2 2778   4.122   4.373  15.524  1.0211  0.5156  0.5321
  179MPD1    C3 2779   4.164   4.247  15.572  0.3076 -0.1180 -0.7553
  179MPD1    C4 2780   4.298   4.243  15.596  0.2358 -0.2648  0.7937
  179MPD1    C5 2781   4.378   4.351  15.564  0.0507  0.0399 -0.4272
  179MPD1     H 2782   4.015   4.393  15.524  0.5540 -1.9779  0.3025
  179MPD1    H1 2783   4.336   4.156  15.647  0.6653 -0.3634  0.3076
  179MPD1    H2 2784   4.412   4.539  15.483  0.4234 -0.4899  0.6822
  179MPD1    H3 2785   4.485   4.338  15.573  0.2163  2.0017  0.4226
  179MPD1     N 2786   4.081   4.139  15.601  0.1293 -0.1814 -0.4822
  179MPD1    H5 2787   4.131   4.053  15.622  1.9134  0.9984  0.0360
  179MPD1    N1 2788   4.149   4.603  15.440  0.6040 -1.2407 -0.2515
  179MPD1    H6 2789   4.224   4.659  15.399 -0.6532 -0.4539 -1.5026
  179MPD1    H7 2790   4.068   4.590  15.378 -1.1000 -2.9014  2.3247
  180MPD1     C 2791   3.490   0.309  14.877 -0.0596  0.1917  0.2277
  180MPD1    C1 2792   3.563   0.363  14.778 -0.4888  0.4836  0.1835
  180MPD1    C2 2793   3.498   0.371  14.653  0.0929 -0.4854  0.2049
  180MPD1    C3 2794   3.374   0.317  14.634  0.4767  0.1545 -0.4125
  180MPD1    C4 2795   3.303   0.256  14.729  0.4553 -0.1069  0.2440
  180MPD1    C5 2796   3.363   0.253  14.856 -0.2465  0.5374  1.0724
  180MPD1     H 2797   3.553   0.423  14.576 -2.4267  0.2889 -1.0662
  180MPD1    H1 2798   3.207   0.209  14.713  0.6698 -0.3961 -0.1954
  180MPD1    H2 2799   3.511   0.323  14.982  0.9387 -1.2531  0.2146
  180MPD1    H3 2800   3.302   0.211  14.934  0.6166 -0.8439  1.0155
  180MPD1     N 2801   3.320   0.335  14.505 -0.1443  0.1834  0.4581
  180MPD1    H5 2802   3.381   0.388  14.443 -0.0389 -0.0702  0.3430
  180MPD1    N1 2803   3.697   0.386  14.802 -0.4975  0.0276  0.7788
  180MPD1    H6 2804   3.727   0.464  14.744  2.4255 -1.4561  0.2564
  180MPD1    H7 2805   3.704   0.441  14.887  1.2888 -0.5659  1.0222
  181MPD1     C 2806   0.922   3.453   8.803  0.8330  1.1370  0.2500
  181MPD1    C1 2807   0.931   3.330   8.874  0.3315 -0.4046 -0.0115
  181MPD1    C2 2808   1.044   3.300   8.948 -0.3311 -0.2373 -1.0623
  181MPD1    C3 2809   1.140   3.395   8.979  0.1764 -0.0313  0.1315
  181MPD1    C4 2810   1.125   3.522   8.918 -0.2261  0.8249  0.5271
  181MPD1    C5 2811   1.025   3.544   8.827 -0.1989  0.3546 -0.4414
  181MPD1     H 2812   1.053   3.205   9.000  2.5756 -0.5090 -2.0910
  181MPD1    H1 2813   1.198   3.601   8.933 -3.2451  3.2072  2.5571
  181MPD1    H2 2814   0.848   3.472   8.727 -0.6504 -3.1563  0.6288
  181MPD1    H3 2815   1.015   3.646   8.791 -0.7754  0.5331  0.2054
  181MPD1     N 2816   1.241   3.376   9.074 -0.1323  0.4065 -0.7265
  181MPD1    H5 2817   1.278   3.467   9.101  1.7049 -1.0355  1.6191
  181MPD1    N1 2818   0.824   3.243   8.869 -0.1635 -0.0547  0.3283
  181MPD1    H6 2819   0.862   3.148   8.869 -0.8241 -0.3189  0.7597
  181MPD1    H7 2820   0.778   3.259   8.780 -1.9345  1.4038  1.5131
  182MPD1     C 2821   1.167   2.419   2.228  0.0770  0.0566  0.5210
  182MPD1    C1 2822   1.230   2.378   2.113 -0.0761  0.1237  0.7615
  182MPD1    C2 2823   1.151   2.333   2.009  0.2739 -0.1611 -0.3139
  182MPD1    C3 2824   1.012   2.331   2.022 -0.9552  0.1023  0.2657
  182MPD1    C4 2825   0.954   2.357   2.147 -0.1901 -0.0689  0.3563
  182MPD1    C5 2826   1.036   2.377   2.251 -0.5028  0.1980 -0.6816
  182MPD1     H 2827   1.195   2.302   1.915  1.3192 -0.1490  0.1720
  182MPD1    H1 2828   0.846   2.361   2.155 -0.2745 -0.9956 -0.2949
  182MPD1    H2 2829   1.222   2.447   2.317 -2.2952  2.1809  1.3131
  182MPD1    H3 2830   0.981   2.407   2.340  1.3366 -0.7697  0.7671
  182MPD1     N 2831   0.925   2.309   1.913 -0.1695  0.7210  0.1394
  182MPD1    H5 2832   0.827   2.293   1.933 -0.6352  0.5472 -2.2678
  182MPD1    N1 2833   1.366   2.399   2.096 -0.1503 -0.5350  0.0583
  182MPD1    H6 2834   1.390   2.332   2.023  0.5319  0.9375 -1.0661
  182MPD1    H7 2835   1.411   2.355   2.176  2.0555  0.6852 -0.5119
  183MPD1     C 2836   0.744   1.597   9.072 -0.5169 -0.4965  0.9076
  183MPD1    C1 2837   0.675   1.711   9.063  0.1994 -0.0242  0.6668
  183MPD1    C2 2838   0.740   1.829   9.058 -0.2450 -0.2153 -0.5285
  183MPD1    C3 2839   0.877   1.839   9.091  0.1715  0.2345  0.3978
  183MPD1    C4 2840   0.949   1.723   9.104  0.0440  0.1351  0.4063
  183MPD1    C5 2841   0.879   1.607   9.091  0.2616  0.0911 -0.3172
  183MPD1     H 2842   0.690   1.919   9.023  1.4317 -0.1480 -2.7515
  183MPD1    H1 2843   1.056   1.724   9.115 -0.0057 -0.7564  0.9465
  183MPD1    H2 2844   0.697   1.499   9.072  1.0931 -1.2590  2.0748
  183MPD1    H3 2845   0.935   1.516   9.111 -1.7273 -1.0149  0.2456
  183MPD1     N 2846   0.930   1.967   9.107  0.6557  0.2742 -0.5060
  183MPD1    H5 2847   0.859   2.040   9.105 -1.0125 -1.4059 -3.2030
  183MPD1    N1 2848   0.542   1.704   9.012  0.0886 -0.2229  0.0515
  183MPD1    H6 2849   0.491   1.619   9.035 -0.7218  0.4206  0.6318
  183MPD1    H7 2850   0.489   1.786   9.040  1.9079  0.2720  2.1286
  184MPD1     C 2851   0.730   4.504   9.986 -0.1242  0.8045 -0.9137
  184MPD1    C1 2852   0.848   4.572   9.986  0.6625 -0.4153  0.0798
  184MPD1    C2 2853   0.843   4.698   9.926  0.8287  0.3393  0.0153
  184MPD1    C3 2854   0.726   0.026   9.877 -0.2324  0.3545 -0.1135
  184MPD1    C4 2855   0.608   4.686   9.880  0.3280 -0.2695  0.1032
  184MPD1    C5 2856   0.616   4.562   9.938  0.3784  0.0861 -0.0501
  184MPD1     H 2857   0.939   0.011   9.911 -0.1309  1.9001 -1.0864
  184MPD1    H1 2858   0.515   4.717   9.833  2.5653  1.4063 -3.1832
  184MPD1    H2 2859   0.722   4.398  10.008  2.5932  0.9893  0.9327
  184MPD1    H3 2860   0.526   4.500   9.937 -1.3657  2.5757  1.2147
  184MPD1     N 2861   0.718   0.160   9.827  0.1734  0.2771  0.5113
  184MPD1    H5 2862   0.626   0.190   9.796  1.1835  1.8151 -0.9741
  184MPD1    N1 2863   0.967   4.505  10.019 -0.6452  0.5766 -0.3792
  184MPD1    H6 2864   0.955   4.457  10.108  1.7655  2.0794  0.7534
  184MPD1    H7 2865   1.047   4.565  10.036 -0.0579  0.4729 -2.7624
  185MPD1     C 2866   0.337   0.774   9.156  0.3742  0.1860 -0.0290
  185MPD1    C1 2867   0.302   0.662   9.222  0.4103 -0.4137 -0.5834
  185MPD1    C2 2868   0.390   0.606   9.315  0.0707  0.2727  0.1098
  185MPD1    C3 2869   0.508   0.670   9.349  0.3605 -0.6930 -0.2672
  185MPD1    C4 2870   0.540   0.787   9.283 -0.5760  0.4859 -0.0043
  185MPD1    C5 2871   0.455   0.836   9.186 -0.5530  0.3599  0.4555
  185MPD1     H 2872   0.349   0.517   9.362  3.0651  0.6848  3.5035
  185MPD1    H1 2873   0.632   0.841   9.304 -0.0250 -0.1592 -0.7936
  185MPD1    H2 2874   0.276   0.811   9.075 -1.0044 -2.1599 -0.0580
  185MPD1    H3 2875   0.486   0.926   9.134  0.5690 -0.0736  0.3703
  185MPD1     N 2876   0.598   0.626   9.450  0.4352  0.0963 -0.3042
  185MPD1    H5 2877   0.676   0.687   9.470 -0.6405  1.7286 -1.0972
  185MPD1    N1 2878   0.192   0.592   9.177 -0.1321 -0.1145  0.3202
  185MPD1    H6 2879   0.125   0.649   9.125  1.1832  1.2215  0.0645
  185MPD1    H7 2880   0.147   0.541   9.252  1.4727 -0.8379  0.8044
  186MPD1     C 2881   4.468   4.017  15.889  0.3093 -0.4041 -0.2504
  186MPD1    C1 2882   4.373   3.988  15.981 -0.2895 -0.4340  0.2687
  186MPD1    C2 2883   4.312   4.096  16.048  0.2583  0.3680 -0.5085
  186MPD1    C3 2884   4.335   4.228  16.010 -0.2644  0.0437  0.6424
  186MPD1    C4 2885   4.430   4.252  15.910  0.4968  0.0650  0.1346
  186MPD1    C5 2886   4.499   4.150  15.854 -0.5719  0.3090 -0.2728
  186MPD1     H 2887   4.248   4.073  16.132 -0.4543  1.5542 -0.7236
  186MPD1    H1 2888   4.450   4.350  15.869 -2.4729 -0.4556 -2.5945
  186MPD1    H2 2889   4.525   3.939  15.840 -1.6820 -1.5273 -0.7393
  186MPD1    H3 2890   4.582   4.176  15.789  1.6706 -0.6178  2.2359
  186MPD1     N 2891   4.283   4.337  16.075 -0.4087  0.2011 -0.2859
  186MPD1    H5 2892   4.319   4.428  16.047  2.8759 -0.4273  1.9847
  186MPD1    N1 2893   4.355   3.860  16.042  0.1808  0.8305  0.1690
  186MPD1    H6 2894   4.260   3.834  16.019  0.7075 -0.8625 -0.1260
  186MPD1    H7 2895   4.409   3.785  15.998 -1.0601  0.5850 -0.9473
  187MPD1     C 2896   3.736   0.738   0.015  0.4229  0.6123  0.2562
  187MPD1    C1 2897   3.685   0.646  17.667  0.4390  0.1074 -0.3894
  187MPD1    C2 2898   3.621   0.691  17.550  0.0879  0.0957 -0.9588
  187MPD1    C3 2899   3.607   0.827  17.524  0.6775 -0.0267  0.5456
  187MPD1    C4 2900   3.650   0.916  17.618 -0.1433  0.0622  0.2205
  187MPD1    C5 2901   3.711   0.868  17.730  0.2414 -0.6208  0.1294
  187MPD1     H 2902   3.587   0.619  17.476 -1.5588  2.2298 -2.3105
  187MPD1    H1 2903   3.650   1.024  17.605 -1.1971  0.0268 -0.1517
  187MPD1    H2 2904   3.793   0.712   0.103 -0.1933 -0.3442  0.3690
  187MPD1    H3 2905   3.738   0.940   0.067 -0.4442 -0.5021  0.2548
  187MPD1     N 2906   3.556   0.879  17.396  0.1559 -0.2032 -0.0311
  187MPD1    H5 2907   3.554   0.981  17.390  1.3402 -0.0599  1.8933
  187MPD1    N1 2908   3.682   0.511  17.706 -0.2716  0.0596  0.1361
  187MPD1    H6 2909   3.763   0.483   0.023 -0.0142 -0.9042 -0.7170
  187MPD1    H7 2910   3.662   0.435  17.641  0.1313  0.6315 -0.6521
  188MPD1     C 2911   3.502   2.245  10.173 -0.0677 -0.1651 -0.0496
  188MPD1    C1 2912   3.386   2.269  10.239 -0.0499 -0.4023  0.2899
  188MPD1    C2 2913   3.317   2.153  10.274 -0.1342  0.3341  0.7571
  188MPD1    C3 2914   3.365   2.021  10.261 -0.3321 -0.0640  0.4403
  188MPD1    C4 2915   3.492   2.001  10.214  0.0168  0.0894  1.0685
  188MPD1    C5 2916   3.554   2.117  10.173 -0.1953  0.1476 -0.6395
  188MPD1     H 2917   3.222   2.158  10.325 -0.7554 -0.9067 -0.2601
  188MPD1    H1 2918   3.541   1.905  10.209  1.1663  0.6360  1.7017
  188MPD1    H2 2919   3.566   2.323  10.133 -2.9608  2.1381 -0.2166
  188MPD1    H3 2920   3.651   2.099  10.130 -0.1774 -0.5464 -0.3130
  188MPD1     N 2921   3.294   1.903  10.314 -0.2601 -0.3556 -0.4910
  188MPD1    H5 2922   3.341   1.814  10.308  1.0003  0.3286 -0.6966
  188MPD1    N1 2923   3.327   2.398  10.257 -0.1702  0.4107  0.1521
  188MPD1    H6 2924   3.258   2.414  10.329 -0.2078 -0.7618  0.3750
  188MPD1    H7 2925   3.401   2.465  10.277 -0.8726  0.9731  0.8635
  189MPD1     C 2926   0.717   1.903   0.582  0.5630  0.4942  0.3681
  189MPD1    C1 2927   0.627   1.846   0.500 -0.0077 -0.6174 -0.1211
  189MPD1    C2 2928   0.507   1.917   0.487 -1.6935 -0.1168  0.6910
  189MPD1    C3 2929   0.475   2.040   0.538  0.4515 -0.2486  0.2761
  189MPD1    C4 2930   0.570   2.096   0.618 -0.1517  0.0962  0.6381
  189MPD1    C5 2931   0.690   2.022   0.636  0.0956  0.7995  0.6985
  189MPD1     H 2932   0.433   1.866   0.427 -1.9553  1.9404 -0.7000
  189MPD1    H1 2933   0.565   2.193   0.665  0.6397  0.7211 -0.5557
  189MPD1    H2 2934   0.809   1.852   0.609  0.9579  0.8591 -0.3149
  189MPD1    H3 2935   0.761   2.070   0.702  0.9707 -0.6421  0.8093
  189MPD1     N 2936   0.361   2.109   0.491  0.4225 -0.1098  0.5089
  189MPD1    H5 2937   0.292   2.055   0.441  1.7194 -1.9085  0.6626
  189MPD1    N1 2938   0.640   1.715   0.454  0.4915 -0.1480  0.1524
  189MPD1    H6 2939   0.738   1.687   0.446  0.6191 -0.2542  2.1852
  189MPD1    H7 2940   0.585   1.691   0.371 -1.7858  1.1440  1.3092
  190MPD1     C 2941   3.450   1.103  15.120 -0.2756 -0.2212  0.7847
  190MPD1    C1 2942   3.484   1.155  15.242 -0.0810 -0.3264 -0.3009
  190MPD1    C2 2943   3.590   1.091  15.313 -0.4505 -0.3155  0.0286
  190MPD1    C3 2944   3.663   0.985  15.253  0.3786  0.4582  0.1009
  190MPD1    C4 2945   3.629   0.938  15.126  0.4740  0.7879  0.7628
  190MPD1    C5 2946   3.515   0.994  15.065 -0.1790  0.5050 -0.4800
  190MPD1     H 2947   3.611   1.129  15.412 -1.1168  1.2090 -0.4140
  190MPD1    H1 2948   3.684   0.862  15.072  1.4106  3.0282 -1.3800
  190MPD1    H2 2949   3.370   1.152  15.065  2.3496 -0.0235 -2.8780
  190MPD1    H3 2950   3.488   0.946  14.972 -1.3981 -1.9593  1.1428
  190MPD1     N 2951   3.777   0.939  15.320 -0.4622  0.3443  0.3914
  190MPD1    H5 2952   3.795   0.986  15.408  1.2804  2.0249 -0.8382
  190MPD1    N1 2953   3.425   1.273  15.286  0.4116 -0.3264 -0.3470
  190MPD1    H6 2954   3.328   1.269  15.255 -0.1815 -0.4680  1.5266
  190MPD1    H7 2955   3.429   1.263  15.387  0.8410  0.8242 -0.2505
  191MPD1     C 2956   2.937   2.629  12.970  0.5948  0.2932 -0.3139
  191MPD1    C1 2957   2.833   2.649  12.885 -0.0128  0.6607 -0.3214
  191MPD1    C2 2958   2.846   2.716  12.768  0.1633  0.5442  0.3877
  191MPD1    C3 2959   2.963   2.782  12.738 -0.4776  1.0743 -0.4074
  191MPD1    C4 2960   3.072   2.760  12.825  0.0806 -0.6305  0.3796
  191MPD1    C5 2961   3.060   2.676  12.933  0.4196 -0.0679  0.9508
  191MPD1     H 2962   2.762   2.727  12.700  0.6816 -0.2313 -0.3797
  191MPD1    H1 2963   3.169   2.805  12.810 -0.0772 -0.7304 -0.9116
  191MPD1    H2 2964   2.919   2.561  13.053  1.4210  0.0407 -0.3460
  191MPD1    H3 2965   3.141   2.652  13.001  0.8353  3.0118  1.5796
  191MPD1     N 2966   2.972   2.871  12.626  0.3729  0.3039  0.4698
  191MPD1    H5 2967   2.888   2.892  12.573 -0.4138 -0.3687  1.4658
  191MPD1    N1 2968   2.719   2.572  12.910  0.5581 -0.0346 -0.5211
  191MPD1    H6 2969   2.633   2.617  12.878  1.7094  1.7600 -1.0796
  191MPD1    H7 2970   2.709   2.544  13.007  2.6224 -1.6579 -0.7781
  192MPD1     C 2971   2.271   3.376  12.649  0.9091 -0.4653 -0.1380
  192MPD1    C1 2972   2.342   3.440  12.548 -0.9726  0.3308 -0.0287
  192MPD1    C2 2973   2.459   3.388  12.491  0.2300  0.9408  0.3423
  192MPD1    C3 2974   2.523   3.282  12.544 -0.7624  0.8235  0.2916
  192MPD1    C4 2975   2.455   3.216  12.642  0.2138  0.0853 -0.8860
  192MPD1    C5 2976   2.331   3.256  12.680  0.1808 -0.4470 -0.1475
  192MPD1     H 2977   2.506   3.451  12.417 -1.5044 -2.1128 -3.3740
  192MPD1    H1 2978   2.489   3.125  12.690 -1.1981 -0.8445 -1.6336
  192MPD1    H2 2979   2.174   3.405  12.686  1.3434  1.5192 -0.5713
  192MPD1    H3 2980   2.272   3.200  12.752 -2.4283  0.9446 -1.2162
  192MPD1     N 2981   2.654   3.229  12.515  0.2086 -0.0762 -0.3261
  192MPD1    H5 2982   2.692   3.157  12.576 -2.4991 -0.0285  1.4636
  192MPD1    N1 2983   2.277   3.548  12.490  0.1554  0.6609 -0.0517
  192MPD1    H6 2984   2.330   3.619  12.441 -1.1324  2.9970  1.9517
  192MPD1    H7 2985   2.215   3.592  12.557  1.9664  0.6358  1.6498
  193MPD1     C 2986   3.071   2.217  17.356  0.1765  0.4304  0.7461
  193MPD1    C1 2987   3.143   2.182  17.247  0.2940  0.3507 -0.1924
  193MPD1    C2 2988   3.226   2.275  17.197 -0.3679 -0.0252 -0.3573
  193MPD1    C3 2989   3.260   2.395  17.261  0.1657  0.9190  0.1611
  193MPD1    C4 2990   3.191   2.424  17.373 -0.6081  0.2773  0.3720
  193MPD1    C5 2991   3.100   2.332  17.416 -0.2095 -0.0942  0.2672
  193MPD1     H 2992   3.269   2.248  17.101  0.8890 -0.7355  0.4075
  193MPD1    H1 2993   3.207   2.513  17.433 -0.3510  0.4838 -0.0021
  193MPD1    H2 2994   2.991   2.153  17.392 -0.6941  1.5587  0.8376
  193MPD1    H3 2995   3.042   2.348  17.506 -0.2871 -2.6247  0.6640
  193MPD1     N 2996   3.336   2.495  17.201 -0.0488  0.4807  0.0716
  193MPD1    H5 2997   3.337   2.583  17.252 -4.2599  1.3068 -1.2763
  193MPD1    N1 2998   3.097   2.071  17.173  0.2747 -0.1509  0.3339
  193MPD1    H6 2999   3.073   1.991  17.231  1.3081 -0.5589  0.2000
  193MPD1    H7 3000   3.175   2.050  17.111  0.5412 -0.9297  0.9208
  194MPD1     C 3001   0.524   4.254  16.270 -0.3884  0.6737  0.3424
  194MPD1    C1 3002   0.556   4.326  16.383  0.3554 -0.1915 -0.1941
  194MPD1    C2 3003   0.570   4.248  16.496 -0.2610  0.3672 -0.1835
  194MPD1    C3 3004   0.538   4.107  16.494 -0.1017  0.0156  0.1838
  194MPD1    C4 3005   0.508   4.040  16.375  0.0071  0.8298 -0.6484
  194MPD1    C5 3006   0.500   4.114  16.263 -0.1509 -0.1968 -0.1372
  194MPD1     H 3007   0.603   4.294  16.589 -0.0723 -0.6164  0.2409
  194MPD1    H1 3008   0.492   3.933  16.367  0.5896  0.7473 -0.6917
  194MPD1    H2 3009   0.503   4.303  16.175  1.0056  3.4061  1.4460
  194MPD1    H3 3010   0.473   4.078  16.165 -1.4817 -0.2258  0.2360
  194MPD1     N 3011   0.559   4.029  16.616  0.5434 -0.5259 -0.4980
  194MPD1    H5 3012   0.548   3.929  16.596  0.9059 -0.7143  0.2739
  194MPD1    N1 3013   0.603   4.457  16.376 -0.4659 -0.0853 -0.1991
  194MPD1    H6 3014   0.557   4.521  16.311  0.6673  2.3041  1.3232
  194MPD1    H7 3015   0.592   4.506  16.464  1.9969  2.6293 -1.3991
  195MPD1     C 3016   3.191   1.585  17.218  0.7938 -0.1071 -0.6595
  195MPD1    C1 3017   3.213   1.530  17.347 -0.8437  0.5515 -0.7736
  195MPD1    C2 3018   3.165   1.400  17.367 -0.8362 -0.0992  0.8386
  195MPD1    C3 3019   3.106   1.315  17.270  0.1327 -0.2686  0.3653
  195MPD1    C4 3020   3.091   1.375  17.142 -0.2372  0.0940 -0.4560
  195MPD1    C5 3021   3.132   1.510  17.117  0.3443 -0.1285  0.2130
  195MPD1     H 3022   3.191   1.354  17.461  3.2022  1.7667  0.6379
  195MPD1    H1 3023   3.048   1.321  17.059 -3.3522  1.2058  0.4207
  195MPD1    H2 3024   3.216   1.687  17.192  0.2946 -0.0360 -0.8574
  195MPD1    H3 3025   3.110   1.556  17.022  1.0930 -2.3600 -1.0288
  195MPD1     N 3026   3.067   1.184  17.286 -0.0930  0.1773  0.1828
  195MPD1    H5 3027   3.032   1.146  17.199  1.2632 -0.7819  0.0513
  195MPD1    N1 3028   3.278   1.602  17.453 -0.7363 -0.1878  0.5295
  195MPD1    H6 3029   3.276   1.703  17.437  0.1579 -0.0933  1.0379
  195MPD1    H7 3030   3.243   1.583  17.547  0.1807 -0.0268  0.9020
  196MPD1     C 3031   2.427   0.684   0.807 -0.4376 -0.7327  0.2491
  196MPD1    C1 3032   2.524   0.783   0.815 -0.1919  0.0298 -0.0904
  196MPD1    C2 3033   2.516   0.868   0.927  0.7768 -0.0184  0.2969
  196MPD1    C3 3034   2.410   0.857   1.013 -0.4490  0.6929  0.4476
  196MPD1    C4 3035   2.309   0.766   0.994  0.3851 -0.6325  0.6537
  196MPD1    C5 3036   2.323   0.671   0.897  0.1142 -0.1377  0.5815
  196MPD1     H 3037   2.580   0.955   0.933  2.7341 -1.5857  2.2467
  196MPD1    H1 3038   2.222   0.751   1.057 -0.9665 -2.3691 -1.5943
  196MPD1    H2 3039   2.440   0.602   0.737  0.1704 -1.2897  1.0078
  196MPD1    H3 3040   2.249   0.595   0.878  2.4470 -2.9601  2.9114
  196MPD1     N 3041   2.396   0.950   1.119 -0.4392  0.4123  0.2188
  196MPD1    H5 3042   2.306   0.955   1.166 -0.1314 -0.1994  0.8647
  196MPD1    N1 3043   2.644   0.775   0.738  0.4470 -0.1136  0.0765
  196MPD1    H6 3044   2.690   0.865   0.727 -2.6075  1.3238 -1.2053
  196MPD1    H7 3045   2.615   0.736   0.649 -1.3129  0.0986  0.5546
  197MPD1     C 3046   1.710   2.553  17.642  0.0697 -0.1365 -0.0024
  197MPD1    C1 3047   1.824   2.601  17.698  0.1236 -0.0018 -0.5143
  197MPD1    C2 3048   1.905   2.692  17.633 -0.0447 -0.2541  0.4964
  197MPD1    C3 3049   1.881   2.721  17.496 -0.4565 -0.6107 -0.2801
  197MPD1    C4 3050   1.766   2.673  17.443  0.7645  0.1187  0.5799
  197MPD1    C5 3051   1.683   2.597  17.515  0.3820 -0.0776  0.0401
  197MPD1     H 3052   1.994   2.720  17.689  1.4810 -1.1082 -1.5179
  197MPD1    H1 3053   1.734   2.695  17.342  2.0983 -1.2389 -0.1389
  197MPD1    H2 3054   1.649   2.479  17.692 -0.9928  0.1835 -0.8229
  197MPD1    H3 3055   1.599   2.562  17.457  0.1941 -1.1701  0.9725
  197MPD1     N 3056   1.972   2.798  17.407 -0.5571  0.7916 -0.4416
  197MPD1    H5 3057   1.947   2.813  17.310  0.0259  0.0579 -0.7058
  197MPD1    N1 3058   1.844   2.571   0.091  0.3833 -0.4177 -0.8302
  197MPD1    H6 3059   1.805   2.481   0.118 -0.7604  0.1947 -0.4137
  197MPD1    H7 3060   1.942   2.558   0.117 -0.3276  1.4302  2.7368
  198MPD1     C 3061   3.789   1.374  14.912 -0.1341  0.1246 -1.0880
  198MPD1    C1 3062   3.816   1.509  14.886  0.5047 -0.0420  0.2908
  198MPD1    C2 3063   3.796   1.608  14.983 -0.6841 -0.4916 -0.3422
  198MPD1    C3 3064   3.751   1.567  15.108 -0.0031  0.2501  0.1741
  198MPD1    C4 3065   3.726   1.432  15.138  0.1348 -0.1586 -0.0074
  198MPD1    C5 3066   3.744   1.340  15.034 -0.7300  0.2772  0.3984
  198MPD1     H 3067   3.831   1.708  14.961 -0.4453 -0.8387 -1.5326
  198MPD1    H1 3068   3.701   1.397  15.237 -2.6185 -0.2445 -0.7287
  198MPD1    H2 3069   3.813   1.298  14.838  1.6360 -0.3016 -0.0635
  198MPD1    H3 3070   3.722   1.234  15.043 -0.0470 -0.0108 -1.4275
  198MPD1     N 3071   3.724   1.670  15.199 -0.0043  0.2750  0.0014
  198MPD1    H5 3072   3.747   1.763  15.164 -2.9562  1.6835  1.7681
  198MPD1    N1 3073   3.893   1.538  14.772 -0.6035 -0.2042  0.1361
  198MPD1    H6 3074   3.867   1.475  14.696  0.3338  1.3125 -1.4370
  198MPD1    H7 3075   3.884   1.634  14.741  1.3966 -0.2070 -0.4495
  199MPD1     C 3076   1.287   3.906  10.347  0.1369  0.2401 -0.8770
  199MPD1    C1 3077   1.207   3.801  10.322 -0.8369 -0.1681 -0.6835
  199MPD1    C2 3078   1.181   3.769  10.190 -0.1155 -0.1118 -1.3899
  199MPD1    C3 3079   1.206   3.856  10.089  0.0008 -0.3381  0.2283
  199MPD1    C4 3080   1.290   3.965  10.116  0.2549  0.3483 -0.0377
  199MPD1    C5 3081   1.329   3.991  10.242 -0.7617  0.1465  0.3011
  199MPD1     H 3082   1.123   3.679  10.171 -0.9055  0.8650 -3.5928
  199MPD1    H1 3083   1.325   4.036  10.041  1.4044 -0.3401 -0.1671
  199MPD1    H2 3084   1.327   3.938  10.442  1.5221 -0.7284 -1.1410
  199MPD1    H3 3085   1.389   4.079  10.263  1.5351 -1.0551 -1.2749
  199MPD1     N 3086   1.154   3.844   9.959  0.0505 -0.1988 -0.6636
  199MPD1    H5 3087   1.175   3.923   9.899  0.2880  1.3551  1.4523
  199MPD1    N1 3088   1.170   3.715  10.430  0.9624  0.2032 -0.0457
  199MPD1    H6 3089   1.182   3.759  10.520 -0.9845  1.7584 -0.5474
  199MPD1    H7 3090   1.074   3.683  10.420  1.0526 -0.0846 -0.0123
  200MPD1     C 3091   4.619   2.924  15.008  0.3261  0.2127  0.0141
  200MPD1    C1 3092   4.586   2.860  14.893  0.1202 -0.0713  0.1256
  200MPD1    C2 3093   4.683   2.813  14.809  0.3234 -0.6101 -0.4829
  200MPD1    C3 3094   0.079   2.844  14.826 -0.7902  0.2283  0.2299
  200MPD1    C4 3095   0.111   2.927  14.930  0.4881 -0.6682 -0.3209
  200MPD1    C5 3096   0.017   2.966  15.018  0.2002  0.0388 -0.0411
  200MPD1     H 3097   4.661   2.744  14.727 -3.0149  0.2069 -0.2932
  200MPD1    H1 3098   0.214   2.960  14.938  0.5845 -0.7436 -1.2709
  200MPD1    H2 3099   4.550   2.971  15.078 -0.0790 -0.3713  0.0030
  200MPD1    H3 3100   0.052   3.030  15.098  0.6638 -0.5231  0.2084
  200MPD1     N 3101   0.179   2.798  14.731 -0.6776  0.2880  0.0984
  200MPD1    H5 3102   0.135   2.742  14.659 -0.5316 -2.9593  2.5121
  200MPD1    N1 3103   4.458   2.816  14.879  0.1012 -0.0305  0.4886
  200MPD1    H6 3104   4.395   2.882  14.924 -0.5148 -0.0880 -0.2915
  200MPD1    H7 3105   4.418   2.786  14.790 -0.0650  1.7626 -0.0248
  201MPD1     C 3106   1.732   1.116  13.781 -0.5107 -0.0602 -0.0614
  201MPD1    C1 3107   1.860   1.067  13.811 -0.7955  0.2933  0.1839
  201MPD1    C2 3108   1.966   1.142  13.763 -0.3011  0.4903 -0.0723
  201MPD1    C3 3109   1.944   1.261  13.687  1.2695 -1.2318 -0.4266
  201MPD1    C4 3110   1.814   1.298  13.658 -0.2862 -0.9726 -0.7671
  201MPD1    C5 3111   1.708   1.228  13.706 -0.0059 -0.4598 -1.3203
  201MPD1     H 3112   2.069   1.118  13.788 -0.6589  0.6048  1.5619
  201MPD1    H1 3113   1.792   1.398  13.622  0.7326 -0.4913 -0.0455
  201MPD1    H2 3114   1.646   1.061  13.819 -1.4573  0.2148 -1.8272
  201MPD1    H3 3115   1.606   1.257  13.686 -1.2262 -3.5051  0.4988
  201MPD1     N 3116   2.059   1.332  13.657 -0.0586 -0.0657 -0.6747
  201MPD1    H5 3117   2.147   1.297  13.692  0.6859  0.8525 -1.6719
  201MPD1    N1 3118   1.887   0.952  13.891 -0.0169  0.5447 -0.6281
  201MPD1    H6 3119   1.982   0.918  13.884  0.4759  1.9357 -0.6955
  201MPD1    H7 3120   1.824   0.875  13.871 -1.0962  0.9870  1.0837
  202MPD1     C 3121   1.655   1.320   9.056 -0.2024  0.1991 -0.6556
  202MPD1    C1 3122   1.749   1.261   9.136 -0.1520 -0.3420 -0.3134
  202MPD1    C2 3123   1.815   1.342   9.225  0.1696 -0.0505 -0.4197
  202MPD1    C3 3124   1.770   1.473   9.253  0.3928 -0.0979  0.1481
  202MPD1    C4 3125   1.667   1.522   9.179 -0.0818 -0.3716  0.1542
  202MPD1    C5 3126   1.610   1.443   9.077  0.2313 -0.0940  0.8132
  202MPD1     H 3127   1.883   1.280   9.283 -0.6508 -0.5364  0.0313
  202MPD1    H1 3128   1.625   1.621   9.184  2.3411  0.5981  1.0769
  202MPD1    H2 3129   1.604   1.266   8.977 -0.1739 -2.2526  1.0160
  202MPD1    H3 3130   1.534   1.482   9.010  1.0057 -0.4837 -0.2784
  202MPD1     N 3131   1.829   1.560   9.341  0.0142 -0.0832  0.0428
  202MPD1    H5 3132   1.793   1.655   9.345 -2.6824 -1.1601  0.5261
  202MPD1    N1 3133   1.814   1.142   9.093 -0.1939  0.3270 -0.6546
  202MPD1    H6 3134   1.752   1.062   9.078  1.7665 -1.3215  0.0779
  202MPD1    H7 3135   1.887   1.106   9.154 -0.3900  2.0491  0.5843
  203MPD1     C 3136   0.207   1.381  11.642  0.0882 -0.3133  0.4437
  203MPD1    C1 3137   0.332   1.435  11.612  0.5228  0.4719  0.4903
  203MPD1    C2 3138   0.428   1.436  11.722  0.2445  0.1750  0.3706
  203MPD1    C3 3139   0.396   1.418  11.851  1.0470 -0.1761  0.3553
  203MPD1    C4 3140   0.267   1.384  11.880  0.7190 -0.2924  0.2697
  203MPD1    C5 3141   0.172   1.368  11.778  0.3735 -0.3677 -0.5396
  203MPD1     H 3142   0.528   1.470  11.695 -0.2018  1.1390 -0.0718
  203MPD1    H1 3143   0.234   1.359  11.981 -1.7589  1.3054 -0.1399
  203MPD1    H2 3144   0.132   1.379  11.564 -0.0403 -2.4152  0.6391
  203MPD1    H3 3145   0.069   1.338  11.794  1.0207 -2.4394 -0.1816
  203MPD1     N 3146   0.499   1.423  11.946 -0.1246  0.2014 -0.1488
  203MPD1    H5 3147   0.586   1.466  11.918 -0.5682  0.2729 -1.4493
  203MPD1    N1 3148   0.371   1.434  11.483 -0.1400 -0.1341 -0.4899
  203MPD1    H6 3149   0.305   1.469  11.413 -0.0916 -2.0906 -1.4895
  203MPD1    H7 3150   0.457   1.486  11.469 -0.9488  1.1628 -0.6752
  204MPD1     C 3151   0.391   3.358   0.083  0.0057 -0.1932  0.6043
  204MPD1    C1 3152   0.476   3.355  17.720 -0.9613 -0.0931  0.3912
  204MPD1    C2 3153   0.537   3.239  17.684  0.0848 -0.0129 -0.4926
  204MPD1    C3 3154   0.510   3.115   0.001 -0.1650  0.9252 -0.7696
  204MPD1    C4 3155   0.413   3.113   0.096 -0.3006  0.1633  0.2115
  204MPD1    C5 3156   0.366   3.234   0.141  0.0207  0.2231  0.1717
  204MPD1     H 3157   0.612   3.245  17.605  0.7320  0.0400  0.1219
  204MPD1    H1 3158   0.389   3.022   0.148 -0.9500  0.9356  1.2608
  204MPD1    H2 3159   0.338   3.446   0.118  1.5464  0.3613  1.5169
  204MPD1    H3 3160   0.289   3.225   0.217 -0.8675 -1.0013 -0.8702
  204MPD1     N 3161   0.571   3.002  17.680  0.4464 -0.0259  0.1127
  204MPD1    H5 3162   0.635   3.020  17.604 -1.2997  0.9013 -1.1412
  204MPD1    N1 3163   0.508   3.480  17.660 -0.2250 -0.1286  0.0550
  204MPD1    H6 3164   0.428   3.542  17.658  1.3163  1.8534  0.3526
  204MPD1    H7 3165   0.548   3.472  17.567 -0.8578  0.6032 -0.2787
  205MPD1     C 3166   0.294   1.487  16.775 -0.0880  0.5065  0.2381
  205MPD1    C1 3167   0.389   1.412  16.843  0.0689  0.0607 -0.2609
  205MPD1    C2 3168   0.417   1.445  16.973 -0.4906 -0.1074 -0.4128
  205MPD1    C3 3169   0.351   1.552  17.036  0.6755 -0.2891 -0.4270
  205MPD1    C4 3170   0.265   1.627  16.960  0.8497 -0.2006 -0.5159
  205MPD1    C5 3171   0.242   1.598  16.831 -0.7558  0.1419 -0.0868
  205MPD1     H 3172   0.490   1.393  17.034 -1.2804  0.2359  0.8213
  205MPD1    H1 3173   0.221   1.715  17.006  0.7491 -0.3247 -0.3724
  205MPD1    H2 3174   0.267   1.468  16.671 -1.5700  1.0365  0.5392
  205MPD1    H3 3175   0.180   1.662  16.769 -1.0956 -0.3920 -0.2913
  205MPD1     N 3176   0.361   1.577  17.173  0.5068  0.0353  0.0516
  205MPD1    H5 3177   0.289   1.640  17.208 -1.1372 -0.5210 -2.3807
  205MPD1    N1 3178   0.429   1.287  16.789  0.0335  0.7083 -0.3559
  205MPD1    H6 3179   0.414   1.284  16.688 -0.9013  0.7952 -0.2185
  205MPD1    H7 3180   0.528   1.279  16.812 -0.1132  0.7529  0.2676
  206MPD1     C 3181   0.637   4.622  16.704 -0.1761 -1.2343 -0.9094
  206MPD1    C1 3182   0.507   4.646  16.657  0.0906  0.1672 -0.1739
  206MPD1    C2 3183   0.488   4.726  16.541  0.2915  0.4601  0.2586
  206MPD1    C3 3184   0.588   0.031  16.458  0.2196  0.2782  0.2423
  206MPD1    C4 3185   0.713   0.000  16.509 -0.2089 -0.4678  0.5988
  206MPD1    C5 3186   0.736   4.666  16.623 -0.9149  0.0042  0.4251
  206MPD1     H 3187   0.385   4.734  16.508  0.8333  0.8607 -1.3265
  206MPD1    H1 3188   0.801   0.027  16.451  0.0733 -1.0454  0.7622
  206MPD1    H2 3189   0.670   4.568  16.792  0.7449 -0.1036 -0.5569
  206MPD1    H3 3190   0.838   4.643  16.650  0.0143  2.1094 -1.3298
  206MPD1     N 3191   0.573   0.107  16.339 -0.2828  0.0673 -0.2682
  206MPD1    H5 3192   0.658   0.116  16.285  0.1168  1.0566  0.5326
  206MPD1    N1 3193   0.402   4.618  16.748  0.1292 -0.3468  0.4524
  206MPD1    H6 3194   0.434   4.535  16.798 -2.6653 -0.7726  1.5536
  206MPD1    H7 3195   0.312   4.586  16.713  0.7734 -1.2240 -0.3870
  207MPD1     C 3196   3.414   2.576   9.816  1.0422  0.3538  0.2503
  207MPD1    C1 3197   3.421   2.696   9.751 -0.2900 -0.3913  0.5888
  207MPD1    C2 3198   3.459   2.808   9.816  0.3383 -0.2309  0.5812
  207MPD1    C3 3199   3.476   2.809   9.953 -0.2500  0.4652  0.5567
  207MPD1    C4 3200   3.456   2.689  10.017  0.0962 -0.2017 -0.0177
  207MPD1    C5 3201   3.431   2.571   9.949  0.0404  0.0917 -0.1348
  207MPD1     H 3202   3.479   2.894   9.753 -1.0371 -1.0368 -0.9352
  207MPD1    H1 3203   3.477   2.673  10.122  1.2308 -0.1169 -0.2285
  207MPD1    H2 3204   3.401   2.480   9.767  2.1955  0.0431  0.5383
  207MPD1    H3 3205   3.417   2.482  10.008  1.8691  0.3905  0.7563
  207MPD1     N 3206   3.511   2.918  10.035 -0.3850  0.2979 -0.1161
  207MPD1    H5 3207   3.533   2.893  10.131 -0.9052 -0.2902 -0.1530
  207MPD1    N1 3208   3.406   2.695   9.611 -0.2659  0.1149 -0.6504
  207MPD1    H6 3209   3.357   2.779   9.579 -1.5541 -1.2936 -2.3478
  207MPD1    H7 3210   3.342   2.621   9.584 -0.5813  0.1898 -0.1277
  208MPD1     C 3211   1.682   1.663   0.669 -0.0288 -0.4254 -0.1507
  208MPD1    C1 3212   1.638   1.660   0.796 -0.1430 -0.3542  0.4823
  208MPD1    C2 3213   1.505   1.619   0.825 -0.1504  0.4844 -0.2776
  208MPD1    C3 3214   1.411   1.618   0.727 -0.1298  0.5896  0.5094
  208MPD1    C4 3215   1.448   1.652   0.600  0.3011  0.0587 -0.0032
  208MPD1    C5 3216   1.583   1.669   0.574 -0.6156 -0.9392  0.3172
  208MPD1     H 3217   1.478   1.598   0.928  1.3254  1.5750  0.3415
  208MPD1    H1 3218   1.383   1.653   0.513  0.9406  0.2943 -0.4727
  208MPD1    H2 3219   1.783   1.692   0.645 -0.5656  1.2471 -0.3846
  208MPD1    H3 3220   1.599   1.706   0.473  0.1715 -0.8639  0.4686
  208MPD1     N 3221   1.277   1.602   0.766 -0.5737 -0.5541  0.0620
  208MPD1    H5 3222   1.252   1.581   0.862 -1.3942 -0.1022 -0.0548
  208MPD1    N1 3223   1.726   1.650   0.902 -0.4115 -0.2414  0.0084
  208MPD1    H6 3224   1.684   1.666   0.993 -1.6850  0.5269 -0.7286
  208MPD1    H7 3225   1.804   1.715   0.891 -0.1067 -0.0108  3.3343
  209MPD1     C 3226   3.891   1.943  11.015  0.0490 -0.0592 -0.3793
  209MPD1    C1 3227   3.956   1.996  11.116  0.0502 -0.1040 -0.5606
  209MPD1    C2 3228   3.953   2.127  11.146 -0.1405 -0.4238  0.5795
  209MPD1    C3 3229   3.890   2.213  11.061  0.5421  0.4513 -0.0751
  209MPD1    C4 3230   3.838   2.161  10.943 -0.0160 -0.7823  0.3520
  209MPD1    C5 3231   3.834   2.026  10.920  0.0888  0.5202 -0.6434
  209MPD1     H 3232   3.996   2.158  11.241  0.4548 -2.1128  0.8554
  209MPD1    H1 3233   3.793   2.218  10.862  0.2615  1.3447  1.6822
  209MPD1    H2 3234   3.894   1.839  10.986  0.8031 -0.4941  1.2654
  209MPD1    H3 3235   3.788   1.990  10.829 -0.7690 -1.7868  0.6981
  209MPD1     N 3236   3.885   2.352  11.098 -0.5137 -0.1147 -0.0144
  209MPD1    H5 3237   3.940   2.370  11.182  0.3450 -0.4841 -0.4932
  209MPD1    N1 3238   4.002   1.895  11.203 -0.1850 -0.0346  0.2818
  209MPD1    H6 3239   4.067   1.925  11.276 -1.5500  0.4040  1.3295
  209MPD1    H7 3240   4.029   1.810  11.155  1.1593 -0.8242  2.4639
  210MPD1     C 3241   4.415   2.738  11.640  0.2447  0.2831 -0.2079
  210MPD1    C1 3242   4.361   2.854  11.583 -0.3421 -0.0125  0.6199
  210MPD1    C2 3243   4.248   2.842  11.502  0.0748 -0.3331  0.0022
  210MPD1    C3 3244   4.205   2.713  11.462  1.0226  0.1447 -0.1160
  210MPD1    C4 3245   4.269   2.602  11.514 -0.4496  0.9221 -0.3885
  210MPD1    C5 3246   4.369   2.613  11.605 -0.1297  0.7411 -1.0422
  210MPD1     H 3247   4.201   2.934  11.470  1.2100  0.6070  1.0317
  210MPD1    H1 3248   4.246   2.500  11.484 -0.8099  0.4716  1.4125
  210MPD1    H2 3249   4.495   2.743  11.713  1.1737  2.3584 -1.3745
  210MPD1    H3 3250   4.413   2.524  11.648 -1.7364  1.3368  1.8283
  210MPD1     N 3251   4.104   2.694  11.364  0.2398 -0.1098  0.4386
  210MPD1    H5 3252   4.082   2.597  11.342 -0.5446  0.1450  0.1030
  210MPD1    N1 3253   4.389   2.988  11.631 -0.0666  0.7395  0.8846
  210MPD1    H6 3254   4.482   3.009  11.666  0.0730  2.3366 -0.4166
  210MPD1    H7 3255   4.370   3.065  11.567  1.2421  0.3153 -0.0390
  211MPD1     C 3256   1.081   1.423  15.422 -0.3718 -0.4411  0.0542
  211MPD1    C1 3257   1.057   1.547  15.360 -0.2177 -0.0175  0.1997
  211MPD1    C2 3258   1.045   1.658  15.443  0.1340 -0.0212 -0.5070
  211MPD1    C3 3259   1.033   1.643  15.582 -0.2236  0.1174  0.4031
  211MPD1    C4 3260   1.039   1.516  15.635  0.1523  0.7672  0.2435
  211MPD1    C5 3261   1.069   1.413  15.555 -0.5973  0.7800  0.8891
  211MPD1     H 3262   1.031   1.756  15.398  1.6277  0.3448 -0.1563
  211MPD1    H1 3263   1.012   1.499  15.739  1.4055 -2.0525  0.0777
  211MPD1    H2 3264   1.116   1.335  15.368  0.0260  0.1398 -0.6342
  211MPD1    H3 3265   1.090   1.321  15.610  0.3809 -0.4453 -1.5200
  211MPD1     N 3266   0.987   1.756  15.653 -0.3297  0.4912 -0.3419
  211MPD1    H5 3267   0.976   1.841  15.598  0.8109  0.2282 -0.9786
  211MPD1    N1 3268   1.091   1.560  15.228 -0.8593  0.1737 -0.1720
  211MPD1    H6 3269   1.045   1.484  15.178 -1.0561 -0.0241  0.3178
  211MPD1    H7 3270   1.058   1.645  15.183  2.8797  0.8522 -1.6369
  212MPD1     C 3271   0.220   0.698  16.383 -0.0806  0.3168 -0.0025
  212MPD1    C1 3272   0.095   0.700  16.439  0.0154  0.3054  0.1912
  212MPD1    C2 3273   0.066   0.596  16.525  0.5080  0.1124  0.3683
  212MPD1    C3 3274   0.152   0.487  16.544 -0.1400 -0.0868  0.5492
  212MPD1    C4 3275   0.274   0.490  16.484  0.0387 -0.6026 -0.0662
  212MPD1    C5 3276   0.305   0.598  16.410 -0.4648 -0.2540  0.3338
  212MPD1     H 3277   4.706   0.598  16.576  0.4485 -0.0474  0.2639
  212MPD1    H1 3278   0.351   0.415  16.491  1.1717  0.4193 -1.6014
  212MPD1    H2 3279   0.249   0.783  16.323 -1.0571 -1.4919 -3.0327
  212MPD1    H3 3280   0.403   0.609  16.364 -0.7457 -2.0294 -0.6846
  212MPD1     N 3281   0.120   0.377  16.631 -0.2118 -0.1522  0.5263
  212MPD1    H5 3282   0.179   0.295  16.623 -0.9001 -0.5361 -0.5335
  212MPD1    N1 3283   4.733   0.802  16.401 -0.2035 -0.2462 -0.2585
  212MPD1    H6 3284   0.038   0.893  16.381  0.4480 -0.1088  1.6426
  212MPD1    H7 3285   4.642   0.794  16.446 -0.4016 -1.4695 -0.8749
  213MPD1     C 3286   3.170   0.751  15.823  0.2844 -0.5268  0.0961
  213MPD1    C1 3287   3.100   0.641  15.777 -0.6346  0.1330  1.1020
  213MPD1    C2 3288   3.084   0.635  15.635  0.3737  0.3759  0.1093
  213MPD1    C3 3289   3.099   0.749  15.560 -0.2400  0.4803 -0.3015
  213MPD1    C4 3290   3.151   0.864  15.616  0.5499 -0.1325  0.1774
  213MPD1    C5 3291   3.199   0.861  15.741 -0.6566 -0.1817  0.5708
  213MPD1     H 3292   3.058   0.539  15.592  0.8059  0.0195  0.6401
  213MPD1    H1 3293   3.176   0.956  15.565 -1.2530  0.6918  0.8117
  213MPD1    H2 3294   3.192   0.749  15.929  2.0342 -1.4016 -0.2928
  213MPD1    H3 3295   3.257   0.939  15.789 -1.3389 -0.0366  1.1523
  213MPD1     N 3296   3.055   0.744  15.426  0.1311 -0.0405 -0.3987
  213MPD1    H5 3297   3.013   0.657  15.392  1.1280  0.2292 -2.3121
  213MPD1    N1 3298   3.116   0.523  15.855 -0.0872 -0.6333 -0.2602
  213MPD1    H6 3299   3.035   0.470  15.825 -0.3363 -1.1321  1.3139
  213MPD1    H7 3300   3.110   0.544  15.954  2.9115 -0.2143 -0.1724
  214MPD1     C 3301   2.357   0.333  15.253  0.1055  0.1674  1.3614
  214MPD1    C1 3302   2.355   0.396  15.132 -0.4448 -0.4677 -0.0133
  214MPD1    C2 3303   2.468   0.468  15.085 -0.5359 -0.0276 -0.1903
  214MPD1    C3 3304   2.583   0.462  15.161 -0.0549  0.5332  0.7924
  214MPD1    C4 3305   2.583   0.394  15.278  0.0177  0.0287 -0.4597
  214MPD1    C5 3306   2.470   0.328  15.330  0.3453  0.2542  0.0586
  214MPD1     H 3307   2.467   0.541  15.005  1.9554 -0.6290 -0.7652
  214MPD1    H1 3308   2.671   0.373  15.338 -0.3431  0.5766  0.2566
  214MPD1    H2 3309   2.272   0.272  15.281 -1.5842  2.1246  0.4293
  214MPD1    H3 3310   2.476   0.286  15.430  2.7431 -1.2255 -0.7178
  214MPD1     N 3311   2.702   0.537  15.140  0.3567  0.0438  0.2348
  214MPD1    H5 3312   2.777   0.528  15.208 -1.9018  0.5911  2.8163
  214MPD1    N1 3313   2.229   0.413  15.073  0.4026 -0.4212 -0.1193
  214MPD1    H6 3314   2.242   0.411  14.972  0.4642  2.2169 -0.1721
  214MPD1    H7 3315   2.168   0.333  15.092 -1.1609  0.9718  0.7004
  215MPD1     C 3316   2.707   1.880  10.941  0.5642  0.7477  0.2695
  215MPD1    C1 3317   2.637   1.967  11.014 -0.6895  0.0315 -0.2024
  215MPD1    C2 3318   2.706   2.069  11.075  0.0942 -0.7589 -0.1147
  215MPD1    C3 3319   2.845   2.092  11.049  0.1429 -0.3294  0.1196
  215MPD1    C4 3320   2.910   2.001  10.974  0.5616 -0.3615 -0.0378
  215MPD1    C5 3321   2.841   1.896  10.925  0.2527  0.2616 -0.0663
  215MPD1     H 3322   2.653   2.142  11.134 -0.0912 -1.3361  0.4282
  215MPD1    H1 3323   3.018   2.010  10.970  0.5961 -0.4699  0.5994
  215MPD1    H2 3324   2.667   1.789  10.897  0.2708  1.0357 -0.0570
  215MPD1    H3 3325   2.902   1.829  10.867  1.3243  1.2802 -0.1147
  215MPD1     N 3326   2.891   2.219  11.082 -0.1908  0.1775 -0.3614
  215MPD1    H5 3327   2.834   2.279  11.140 -1.2144 -0.4368 -0.7434
  215MPD1    N1 3328   2.503   1.943  11.049 -0.5096 -0.6880  0.4088
  215MPD1    H6 3329   2.456   2.033  11.054 -3.6072 -2.1943 -1.1807
  215MPD1    H7 3330   2.457   1.884  10.980 -0.7804 -0.5743  0.4897
  216MPD1     C 3331   0.019   0.301   0.129 -0.3263  0.3062  0.1176
  216MPD1    C1 3332   0.032   0.242   0.009  0.3266 -0.7102  0.6700
  216MPD1    C2 3333   0.036   0.104   0.002  0.1922 -0.2038  0.2762
  216MPD1    C3 3334   0.013   0.022   0.117 -0.3900  0.3491 -0.0020
  216MPD1    C4 3335   4.734   0.089   0.235 -0.3815  0.2203  0.2884
  216MPD1    C5 3336   0.008   0.225   0.238 -0.2063  0.5607 -0.3059
  216MPD1     H 3337   0.055   0.058  17.645 -0.7758  0.4578 -0.2321
  216MPD1    H1 3338   4.720   0.035   0.328  0.8622 -0.6944 -0.0524
  216MPD1    H2 3339   0.029   0.407   0.148  0.9030  0.7321 -2.8673
  216MPD1    H3 3340   0.009   0.275   0.334 -2.0661  0.2204 -0.1155
  216MPD1     N 3341   0.016   4.618   0.100  0.1827 -0.7585  0.2087
  216MPD1    H5 3342   0.050   4.587   0.010  0.6919  1.4743 -0.3736
  216MPD1    N1 3343   0.076   0.302  17.630 -0.7959  0.4865  0.3155
  216MPD1    H6 3344   0.041   0.397  17.619  0.2218  0.9941  1.4820
  216MPD1    H7 3345   0.071   0.249  17.544  1.4369 -0.2794  0.6611
  217MPD1     C 3346   0.218   0.856   9.809 -0.0058  0.1160 -0.0339
  217MPD1    C1 3347   0.348   0.860   9.842 -0.3358  0.0553  0.4431
  217MPD1    C2 3348   0.439   0.918   9.752 -0.4776 -1.4131 -0.2250
  217MPD1    C3 3349   0.388   0.984   9.633  0.0123 -0.4634  0.3840
  217MPD1    C4 3350   0.250   0.997   9.615 -0.5621  0.0305 -0.7905
  217MPD1    C5 3351   0.169   0.935   9.706 -0.0674 -0.1290 -0.7016
  217MPD1     H 3352   0.545   0.924   9.777 -0.4914  0.0852 -0.5083
  217MPD1    H1 3353   0.210   1.054   9.532 -2.2711 -0.3707 -0.2506
  217MPD1    H2 3354   0.150   0.810   9.879  0.5058 -0.5951 -0.0072
  217MPD1    H3 3355   0.064   0.946   9.682 -0.0043 -2.2460 -1.9386
  217MPD1     N 3356   0.465   1.058   9.538  0.1546 -0.2266  0.7259
  217MPD1    H5 3357   0.412   1.105   9.465 -0.0566 -1.7299 -0.0895
  217MPD1    N1 3358   0.397   0.792   9.953  0.1793  0.1002 -0.4557
  217MPD1    H6 3359   0.334   0.771  10.030  0.9971 -0.9458 -0.0603
  217MPD1    H7 3360   0.489   0.821   9.987 -0.5901  0.3279  1.4278
  218MPD1     C 3361   2.098   2.314  12.731  0.5601 -0.0473 -0.5161
  218MPD1    C1 3362   2.135   2.412  12.648  0.2480 -0.1831  0.8258
  218MPD1    C2 3363   2.269   2.433  12.627  0.5042  0.5173 -0.2535
  218MPD1    C3 3364   2.363   2.334  12.654 -0.2700 -0.1768  0.1636
  218MPD1    C4 3365   2.311   2.218  12.707  0.0181 -0.5759  0.6497
  218MPD1    C5 3366   2.180   2.211  12.745  0.4803 -0.0620 -0.1157
  218MPD1     H 3367   2.303   2.520  12.571  2.1054  0.5624  0.7808
  218MPD1    H1 3368   2.381   2.139  12.733  0.4968 -0.1253  0.7234
  218MPD1    H2 3369   1.994   2.306  12.760  0.7885 -1.2769 -0.0354
  218MPD1    H3 3370   2.158   2.117  12.794  1.9245 -1.3235 -1.8910
  218MPD1     N 3371   2.499   2.340  12.621 -0.4139 -0.6149 -0.3226
  218MPD1    H5 3372   2.549   2.256  12.651  0.8269  0.7576  1.4246
  218MPD1    N1 3373   2.052   2.525  12.617 -0.5422  0.3973 -0.4745
  218MPD1    H6 3374   1.954   2.497  12.618  0.1563 -1.9516  1.4959
  218MPD1    H7 3375   2.075   2.570  12.529 -0.8484  2.0783  0.3147
  219MPD1     C 3376   3.341   2.761  12.076 -0.1060 -0.1935 -0.1202
  219MPD1    C1 3377   3.206   2.766  12.058 -0.8112 -0.1335 -0.3072
  219MPD1    C2 3378   3.124   2.728  12.166 -0.2236 -0.7167 -0.4834
  219MPD1    C3 3379   3.181   2.661  12.274  0.1758  0.9007 -0.7558
  219MPD1    C4 3380   3.319   2.647  12.282 -0.8350 -0.1353  0.0907
  219MPD1    C5 3381   3.396   2.715  12.193  0.4716 -0.5888  0.3299
  219MPD1     H 3382   3.016   2.727  12.163 -0.2270 -0.6549 -0.3845
  219MPD1    H1 3383   3.366   2.598  12.366  0.0229 -2.3820 -1.7295
  219MPD1    H2 3384   3.409   2.805  12.004 -0.3921  1.2336  0.4693
  219MPD1    H3 3385   3.502   2.700  12.214  0.4748  0.3847  1.0141
  219MPD1     N 3386   3.104   2.604  12.386  0.5117 -0.1249 -0.3799
  219MPD1    H5 3387   3.152   2.552  12.459 -1.6910 -1.9530 -0.2524
  219MPD1    N1 3388   3.152   2.820  11.938 -0.6573 -0.1269  0.2459
  219MPD1    H6 3389   3.211   2.811  11.855  2.2271  3.1704  1.9409
  219MPD1    H7 3390   3.063   2.782  11.907  0.5647 -2.6328 -0.2248
  220MPD1     C 3391   3.215   3.256   9.502 -0.6879  0.3451 -0.2828
  220MPD1    C1 3392   3.250   3.287   9.626 -0.1870  0.5265  0.5833
  220MPD1    C2 3393   3.231   3.197   9.729 -0.7400  0.2053 -0.3800
  220MPD1    C3 3394   3.163   3.077   9.714 -0.9229 -0.1213 -0.5901
  220MPD1    C4 3395   3.104   3.061   9.590  0.0476 -0.6869  0.6084
  220MPD1    C5 3396   3.131   3.148   9.488  0.5252 -0.2083  0.1120
  220MPD1     H 3397   3.283   3.214   9.822  0.2809 -0.7027 -0.7857
  220MPD1    H1 3398   3.035   2.980   9.568  2.3831 -2.3635 -0.5449
  220MPD1    H2 3399   3.241   3.313   9.414 -2.1368  0.0849 -0.8679
  220MPD1    H3 3400   3.084   3.126   9.393  0.5115 -1.6492  0.4578
  220MPD1     N 3401   3.148   2.987   9.825  0.0769 -0.0759 -0.1297
  220MPD1    H5 3402   3.187   3.015   9.915  0.7526 -1.0342 -0.1258
  220MPD1    N1 3403   3.325   3.404   9.653 -0.0161  0.6785  0.3649
  220MPD1    H6 3404   3.307   3.474   9.581  0.2153  0.1659 -0.1942
  220MPD1    H7 3405   3.312   3.437   9.748  2.1200 -1.8657  1.5570
  221MPD1     C 3406   0.384   2.341  16.379 -0.5796  0.5909  0.4781
  221MPD1    C1 3407   0.388   2.291  16.251  0.8743 -0.5143 -0.0731
  221MPD1    C2 3408   0.455   2.174  16.222  0.3897  0.0317  0.2958
  221MPD1    C3 3409   0.518   2.108  16.326 -0.0364  0.4316 -0.3760
  221MPD1    C4 3410   0.520   2.163  16.451 -0.1827 -0.6092  0.1099
  221MPD1    C5 3411   0.450   2.279  16.479  0.1832  0.3949  0.2992
  221MPD1     H 3412   0.444   2.134  16.122  1.3261  0.5215  0.0000
  221MPD1    H1 3413   0.554   2.113  16.541  1.2896 -3.1293 -1.8375
  221MPD1    H2 3414   0.327   2.427  16.410  1.1802  1.9183  0.0445
  221MPD1    H3 3415   0.448   2.313  16.582 -0.5574 -2.0114  1.0921
  221MPD1     N 3416   0.586   1.987  16.316  0.1298 -0.7294  0.5770
  221MPD1    H5 3417   0.643   1.952  16.392  2.2639 -2.6487 -1.9229
  221MPD1    N1 3418   0.302   2.339  16.149  0.3265  0.2861 -0.1002
  221MPD1    H6 3419   0.289   2.440  16.153 -1.6924  0.1033 -1.8891
  221MPD1    H7 3420   0.329   2.316  16.054 -1.0863  1.8335 -0.8642
  222MPD1     C 3421   4.479   4.306  17.246  0.2181  0.1039 -0.1012
  222MPD1    C1 3422   4.510   4.441  17.217  0.5343  0.4535  1.0764
  222MPD1    C2 3423   4.469   4.540  17.303 -0.4721 -0.9540 -0.3630
  222MPD1    C3 3424   4.432   4.514  17.430  0.0057 -0.0509 -0.9242
  222MPD1    C4 3425   4.418   4.383  17.466  0.2806 -0.4320 -0.0506
  222MPD1    C5 3426   4.443   4.285  17.376  0.5103 -0.6622 -0.0922
  222MPD1     H 3427   4.460   4.642  17.268  0.3222 -0.2451  1.5030
  222MPD1    H1 3428   4.402   4.358  17.570 -2.1614  0.1083 -0.2999
  222MPD1    H2 3429   4.495   4.222  17.179  1.9739 -0.4099  0.9721
  222MPD1    H3 3430   4.439   4.182  17.411  1.5764  0.0086  1.9925
  222MPD1     N 3431   4.397   4.610  17.526 -0.1811  0.1574 -0.1529
  222MPD1    H5 3432   4.366   4.580  17.618 -2.1620 -2.6402 -1.7319
  222MPD1    N1 3433   4.533   4.465  17.080  0.1469  0.1244 -0.1906
  222MPD1    H6 3434   4.560   4.383  17.027 -1.7406 -0.6826  0.1105
  222MPD1    H7 3435   4.586   4.549  17.055 -0.9062 -0.0094 -2.8318
  223MPD1     C 3436   3.771   0.083   0.499 -0.2102 -0.7380  0.4462
  223MPD1    C1 3437   3.787   0.210   0.457  0.0007  0.3378 -0.1547
  223MPD1    C2 3438   3.854   0.228   0.339 -0.5055 -0.0103 -0.4980
  223MPD1    C3 3439   3.916   0.127   0.265 -0.0553  0.6278 -0.1665
  223MPD1    C4 3440   3.908   4.732   0.316 -0.4567  0.1976 -0.6380
  223MPD1    C5 3441   3.833   4.714   0.431 -0.1811  0.1106  0.5368
  223MPD1     H 3442   3.867   0.331   0.308  2.6058 -0.2368  0.0466
  223MPD1    H1 3443   3.956   4.650   0.265  1.6236  1.0510 -0.0356
  223MPD1    H2 3444   3.724   0.059   0.594  0.0428 -0.6741  0.5879
  223MPD1    H3 3445   3.832   4.614   0.475 -1.8701 -0.3190 -0.4773
  223MPD1     N 3446   3.990   0.163   0.154 -0.1466  0.0995 -0.1806
  223MPD1    H5 3447   3.993   0.262   0.131 -0.3948  0.2742  0.5206
  223MPD1    N1 3448   3.708   0.311   0.516 -0.2162  0.2853 -0.1623
  223MPD1    H6 3449   3.745   0.405   0.501  2.7641 -0.6770  1.1260
  223MPD1    H7 3450   3.713   0.299   0.617  0.7941 -1.4515 -0.4251
  224MPD1     C 3451   0.663   2.337   9.234 -0.5430 -0.8663 -0.0959
  224MPD1    C1 3452   0.714   2.211   9.272  0.1933 -0.3404 -0.6984
  224MPD1    C2 3453   0.832   2.190   9.343 -0.8906  0.1215 -0.4127
  224MPD1    C3 3454   0.886   2.303   9.397 -0.3734 -0.5426  0.0988
  224MPD1    C4 3455   0.834   2.425   9.369  0.9723  0.0531  0.1015
  224MPD1    C5 3456   0.732   2.447   9.281 -0.0124 -0.0414  0.0169
  224MPD1     H 3457   0.863   2.090   9.368 -2.8304 -0.6232 -0.9980
  224MPD1    H1 3458   0.884   2.515   9.404  1.5979  0.5156 -1.9930
  224MPD1    H2 3459   0.579   2.356   9.168 -0.4941  0.1360  0.1248
  224MPD1    H3 3460   0.712   2.548   9.248  1.9661  0.1284 -0.6495
  224MPD1     N 3461   1.002   2.298   9.478 -0.3378  0.4146 -0.4729
  224MPD1    H5 3462   1.032   2.378   9.532  0.2713 -0.4531  0.4859
  224MPD1    N1 3463   0.641   2.096   9.227 -0.5920 -0.4361 -0.0049
  224MPD1    H6 3464   0.544   2.122   9.212 -0.7861  0.0123  2.0547
  224MPD1    H7 3465   0.650   2.015   9.287 -0.4829  0.7196  1.5427
  225MPD1     C 3466   2.711   2.989  12.246  0.6227 -0.0203 -0.2230
  225MPD1    C1 3467   2.630   2.930  12.341  0.6032 -0.2981  0.2115
  225MPD1    C2 3468   2.508   2.981  12.366  0.0270  0.3395  0.0995
  225MPD1    C3 3469   2.446   3.055  12.260  0.1069 -0.5863  0.1470
  225MPD1    C4 3470   2.521   3.098  12.153 -0.0461  0.5013  0.2785
  225MPD1    C5 3471   2.654   3.062  12.148 -0.1101  0.0041  0.4291
  225MPD1     H 3472   2.459   2.954  12.459  1.3155 -1.1848  0.3383
  225MPD1    H1 3473   2.491   3.185  12.095  0.7096 -0.2210 -1.1998
  225MPD1    H2 3474   2.819   2.983  12.243  0.6711  0.9698 -0.6929
  225MPD1    H3 3475   2.716   3.110  12.073  1.4892 -0.3889  1.5072
  225MPD1     N 3476   2.313   3.095  12.274 -0.4444 -0.3746  0.0626
  225MPD1    H5 3477   2.276   3.085  12.368 -1.0842 -1.6756 -0.3223
  225MPD1    N1 3478   2.696   2.851  12.438  0.4848 -0.1056 -0.4682
  225MPD1    H6 3479   2.777   2.810  12.393 -0.2972 -0.3247 -1.6854
  225MPD1    H7 3480   2.634   2.776  12.467  0.0475 -0.4340 -2.2681
  226MPD1     C 3481   0.843   2.698   9.933  0.5387  0.0176 -0.3191
  226MPD1    C1 3482   0.731   2.659   9.856 -0.2369  0.0177 -0.4302
  226MPD1    C2 3483   0.700   2.738   9.749  0.6891  0.3582  0.4967
  226MPD1    C3 3484   0.766   2.853   9.711  0.4709  0.7143  0.3492
  226MPD1    C4 3485   0.870   2.894   9.794  0.5127 -1.1206  0.0069
  226MPD1    C5 3486   0.910   2.810   9.899 -0.4538 -0.6856  0.2719
  226MPD1     H 3487   0.621   2.702   9.683  0.3281 -0.9916  1.6714
  226MPD1    H1 3488   0.930   2.982   9.771 -1.1545 -0.4843 -1.9725
  226MPD1    H2 3489   0.876   2.640  10.019 -1.6059 -1.2863 -0.3532
  226MPD1    H3 3490   0.999   2.845   9.950 -0.9648 -1.1439  1.4740
  226MPD1     N 3491   0.721   2.921   9.592 -0.0597  0.5467  0.1814
  226MPD1    H5 3492   0.642   2.886   9.539 -0.0573  1.4804 -0.4371
  226MPD1    N1 3493   0.680   2.529   9.873 -0.2251  0.0091 -0.3408
  226MPD1    H6 3494   0.578   2.521   9.864 -0.1282 -0.0674 -1.4043
  226MPD1    H7 3495   0.707   2.489   9.962 -0.3883  0.6643  0.0015
  227MPD1     C 3496   0.989   3.842   9.217 -0.0243  0.9867 -0.5864
  227MPD1    C1 3497   1.069   3.749   9.281 -0.0433 -0.7991  0.3171
  227MPD1    C2 3498   1.019   3.619   9.284 -0.4057  0.1357  0.2427
  227MPD1    C3 3499   0.892   3.580   9.244  0.2534 -0.2291  0.3138
  227MPD1    C4 3500   0.819   3.674   9.179  0.1403  0.4230  0.7748
  227MPD1    C5 3501   0.874   3.798   9.160 -0.3194  0.0745 -0.0875
  227MPD1     H 3502   1.082   3.538   9.322 -0.3916  0.7970  1.6365
  227MPD1    H1 3503   0.722   3.659   9.132  0.7252 -0.2084 -0.2396
  227MPD1    H2 3504   1.019   3.946   9.208 -1.2704  1.2762 -1.4387
  227MPD1    H3 3505   0.804   3.868   9.114  0.1725  0.1088 -0.7874
  227MPD1     N 3506   0.846   3.448   9.278 -0.2131 -0.0635  0.5842
  227MPD1    H5 3507   0.914   3.379   9.310 -0.2678 -0.1027  0.6158
  227MPD1    N1 3508   1.193   3.790   9.328 -0.2718 -0.5762  0.3631
  227MPD1    H6 3509   1.193   3.882   9.372 -1.0271 -0.5330  0.2707
  227MPD1    H7 3510   1.239   3.720   9.386  0.5730  0.0351  0.4189
  228MPD1     C 3511   4.176   1.070  11.856  0.5822  0.3839 -0.2545
  228MPD1    C1 3512   4.204   1.062  11.990 -0.4425 -0.3923  0.2598
  228MPD1    C2 3513   4.108   1.003  12.067 -0.0135  0.2966 -0.2862
  228MPD1    C3 3514   3.983   0.989  12.019  0.6985  0.1824  0.2503
  228MPD1    C4 3515   3.945   1.018  11.885  0.5077 -0.4888 -0.3805
  228MPD1    C5 3516   4.050   1.058  11.804 -0.1266  0.4475 -0.5413
  228MPD1     H 3517   4.127   0.972  12.169  0.1482 -0.4529 -0.5467
  228MPD1    H1 3518   3.846   1.004  11.843 -0.4444 -0.8423  1.9831
  228MPD1    H2 3519   4.250   1.106  11.786  1.0103 -0.7342 -0.3800
  228MPD1    H3 3520   4.025   1.065  11.699 -0.6481 -1.2756 -0.5442
  228MPD1     N 3521   3.873   0.961  12.111 -0.4242  0.4745  0.1228
  228MPD1    H5 3522   3.906   0.943  12.206 -1.4129 -0.7200  0.2457
  228MPD1    N1 3523   4.336   1.077  12.033  0.0844 -0.3487  0.5716
  228MPD1    H6 3524   4.351   1.095  12.132  1.7719 -0.2097  0.2917
  228MPD1    H7 3525   4.355   1.165  11.985  0.8033  1.1427  3.6312
  229MPD1     C 3526   3.599   4.364  14.756 -0.0444 -0.3050 -0.1645
  229MPD1    C1 3527   3.715   4.419  14.806  0.4419 -0.2616 -0.8632
  229MPD1    C2 3528   3.824   4.337  14.829  0.2446  0.5348 -0.6501
  229MPD1    C3 3529   3.817   4.198  14.815  0.3248  0.1069  0.0902
  229MPD1    C4 3530   3.701   4.143  14.765 -1.4992  0.4755 -0.3809
  229MPD1    C5 3531   3.595   4.224  14.738  0.5312 -0.0588  0.4422
  229MPD1     H 3532   3.914   4.379  14.871 -1.7905  3.4989  0.6971
  229MPD1    H1 3533   3.689   4.036  14.751  0.9868  0.3922 -1.9544
  229MPD1    H2 3534   3.521   4.434  14.727  0.8692  1.1410  0.8881
  229MPD1    H3 3535   3.508   4.189  14.685  0.0262  0.7224  0.7478
  229MPD1     N 3536   3.930   4.123  14.858  0.4376  0.3515  0.0595
  229MPD1    H5 3537   4.005   4.176  14.902  2.9358 -1.6379 -1.8101
  229MPD1    N1 3538   3.719   4.559  14.838 -0.1728  0.2170  0.7748
  229MPD1    H6 3539   3.645   4.612  14.792  0.8882 -0.1821 -1.3889
  229MPD1    H7 3540   3.807   4.611  14.830  0.4008 -0.4503  2.5769
  230MPD1     C 3541   4.657   3.966  15.530 -0.3364  0.8479 -0.0549
  230MPD1    C1 3542   4.649   3.847  15.461  1.2078 -0.2541  0.4483
  230MPD1    C2 3543   4.545   3.834  15.371  0.1008  0.5662 -0.1074
  230MPD1    C3 3544   4.467   3.942  15.328  1.0820  0.3320  0.7384
  230MPD1    C4 3545   4.488   4.064  15.397 -0.6791 -0.2196 -0.1951
  230MPD1    C5 3546   4.574   4.072  15.501 -0.3288 -0.4935  0.1647
  230MPD1     H 3547   4.522   3.739  15.324 -0.2062 -0.0822  1.3410
  230MPD1    H1 3548   4.437   4.156  15.369 -1.8435 -0.8557 -0.1651
  230MPD1    H2 3549   4.729   3.984  15.608  0.1882 -0.0045 -0.3492
  230MPD1    H3 3550   4.587   4.166  15.554  2.3417 -0.8096  0.0700
  230MPD1     N 3551   4.385   3.926  15.215  0.1085  0.5135 -0.2669
  230MPD1    H5 3552   4.391   3.831  15.178  2.1934  0.1268  1.0579
  230MPD1    N1 3553   4.727   3.731  15.500  0.0681  1.1419 -0.2720
  230MPD1    H6 3554   0.089   3.758  15.513 -0.0247  1.6806 -0.6929
  230MPD1    H7 3555   4.725   3.659  15.427 -0.3834  0.5228  0.3472
  231MPD1     C 3556   2.680   0.710  15.696  0.8417 -0.1579 -0.1988
  231MPD1    C1 3557   2.757   0.824  15.677 -0.3506 -0.3923  0.3363
  231MPD1    C2 3558   2.743   0.880  15.550  0.3064  0.1916  0.6885
  231MPD1    C3 3559   2.662   0.834  15.446 -0.1453 -0.2404 -0.0421
  231MPD1    C4 3560   2.605   0.708  15.466 -0.2079  0.4263 -0.3959
  231MPD1    C5 3561   2.614   0.650  15.588  0.2271 -0.2895  0.0103
  231MPD1     H 3562   2.770   0.984  15.534  1.3618 -0.1697  0.1209
  231MPD1    H1 3563   2.533   0.664  15.397  0.2344 -2.1997  0.8003
  231MPD1    H2 3564   2.690   0.652  15.787  2.7234  2.2172  1.0831
  231MPD1    H3 3565   2.582   0.548  15.608  1.5728 -0.7386 -0.1411
  231MPD1     N 3566   2.655   0.916  15.328  0.0386 -0.6865 -0.0187
  231MPD1    H5 3567   2.724   0.990  15.320 -2.5269  1.6827 -0.5012
  231MPD1    N1 3568   2.822   0.883  15.784  0.1844 -0.2724 -0.1215
  231MPD1    H6 3569   2.838   0.819  15.861 -0.6012  0.0364  0.2928
  231MPD1    H7 3570   2.902   0.940  15.758 -0.1852 -0.4373 -1.6313
  232MPD1     C 3571   0.074   3.489   0.209 -0.2204  0.9150 -0.0580
  232MPD1    C1 3572   0.062   3.429   0.330 -0.1690  0.9744  0.2668
  232MPD1    C2 3573   4.700   3.337   0.348  0.3011 -0.1922  0.4753
  232MPD1    C3 3574   4.611   3.312   0.251 -0.0169  0.5164  0.0893
  232MPD1    C4 3575   4.628   3.365   0.128  0.0814 -0.4901 -0.1979
  232MPD1    C5 3576   4.727   3.446   0.108 -0.5853  0.1470  0.1453
  232MPD1     H 3577   4.692   3.293   0.446 -0.4801 -0.7012  0.1838
  232MPD1    H1 3578   4.567   3.334   0.043  2.0551 -1.5096 -1.2522
  232MPD1    H2 3579   0.153   3.556   0.180 -0.0043  0.8903  0.4695
  232MPD1    H3 3580   0.003   3.486   0.008  0.8670 -0.2915  0.1290
  232MPD1     N 3581   4.504   3.222   0.280 -0.3993 -0.0752  0.2728
  232MPD1    H5 3582   4.508   3.173   0.369  2.2830  1.2982  0.9166
  232MPD1    N1 3583   0.140   3.472   0.439  0.0723  0.4787  0.7897
  232MPD1    H6 3584   0.224   3.523   0.412  0.1767  0.8894  1.8889
  232MPD1    H7 3585   0.162   3.391   0.495 -0.2301 -0.0194  0.1908
  233MPD1     C 3586   3.978   1.568   2.035 -0.4789 -0.5670  0.7289
  233MPD1    C1 3587   3.996   1.701   1.999  0.7827 -0.0628 -0.6588
  233MPD1    C2 3588   4.108   1.729   1.923 -0.2705 -0.1688 -0.7673
  233MPD1    C3 3589   4.203   1.634   1.889  0.3921  0.2386  0.3110
  233MPD1    C4 3590   4.174   1.500   1.922  0.2330  0.2924  0.3622
  233MPD1    C5 3591   4.059   1.467   1.986 -0.2631 -0.6930  0.8851
  233MPD1     H 3592   4.127   1.833   1.896 -1.1163  0.4465  1.0175
  233MPD1    H1 3593   4.232   1.417   1.883  0.9711  0.6868  0.6159
  233MPD1    H2 3594   3.887   1.545   2.088 -0.9558 -1.3192 -0.3996
  233MPD1    H3 3595   4.029   1.364   2.001 -1.4672 -0.4226  0.2808
  233MPD1     N 3596   4.329   1.659   1.820 -0.3391 -0.9048 -0.7676
  233MPD1    H5 3597   4.384   1.582   1.784 -0.6526 -1.8754  0.8357
  233MPD1    N1 3598   3.907   1.796   2.054  0.0932  0.1537 -0.3009
  233MPD1    H6 3599   3.816   1.761   2.080  0.5931 -1.8137 -1.2113
  233MPD1    H7 3600   3.896   1.880   1.997  0.0997  1.5296  1.6938
  234MPD1     C 3601   2.480   1.100   9.640 -0.5754 -0.0039  0.6170
  234MPD1    C1 3602   2.436   1.199   9.725 -0.2624  0.3984 -0.3479
  234MPD1    C2 3603   2.298   1.220   9.716  0.0054  0.0254  0.5957
  234MPD1    C3 3604   2.219   1.132   9.628  1.0585  0.2430  0.5589
  234MPD1    C4 3605   2.271   1.024   9.564  0.3017 -0.1564  0.2383
  234MPD1    C5 3606   2.403   1.010   9.576  0.8450  0.0755 -0.2145
  234MPD1     H 3607   2.250   1.303   9.767 -1.7369 -0.1175 -0.7850
  234MPD1    H1 3608   2.206   0.951   9.519  0.4251  1.2942 -2.3083
  234MPD1    H2 3609   2.585   1.075   9.651 -0.8261 -0.0535  3.0072
  234MPD1    H3 3610   2.451   0.920   9.539  3.7625  0.3433  2.9424
  234MPD1     N 3611   2.082   1.164   9.626  0.4725  0.2102 -0.2214
  234MPD1    H5 3612   2.059   1.254   9.669  0.3694 -0.5435  1.3189
  234MPD1    N1 3613   2.524   1.298   9.778  0.1391 -0.4699 -0.0775
  234MPD1    H6 3614   2.484   1.333   9.865  0.9068 -1.3950  0.6591
  234MPD1    H7 3615   2.609   1.246   9.804  1.5355 -0.0665 -3.8538
  235MPD1     C 3616   3.204   3.210  10.334  0.6049  0.4493 -0.7833
  235MPD1    C1 3617   3.197   3.283  10.215  0.0049  0.4648  0.3764
  235MPD1    C2 3618   3.283   3.394  10.205 -0.2094  0.2115 -0.5009
  235MPD1    C3 3619   3.362   3.438  10.309 -0.2163 -0.6892  0.3340
  235MPD1    C4 3620   3.352   3.365  10.427  0.5146 -0.2755  0.3749
  235MPD1    C5 3621   3.281   3.248  10.436 -0.0068  0.2094  0.0747
  235MPD1     H 3622   3.297   3.442  10.109  3.1268 -1.4667 -0.8894
  235MPD1    H1 3623   3.402   3.399  10.517 -2.1783 -3.0508  2.9124
  235MPD1    H2 3624   3.152   3.117  10.354 -1.5242  2.1000  1.4110
  235MPD1    H3 3625   3.284   3.196  10.532  1.3246  1.1832  0.5450
  235MPD1     N 3626   3.441   3.556  10.297 -0.3032 -0.2521  0.8535
  235MPD1    H5 3627   3.425   3.623  10.222  1.3955 -0.1693  0.5453
  235MPD1    N1 3628   3.128   3.235  10.103 -0.0545 -0.0630 -0.1405
  235MPD1    H6 3629   3.037   3.193  10.124 -0.4402 -0.2598 -2.2459
  235MPD1    H7 3630   3.121   3.303  10.028 -0.3817  1.0618  0.9078
  236MPD1     C 3631   2.384   4.316   9.493 -0.3693  0.2168 -0.5248
  236MPD1    C1 3632   2.350   4.401   9.592  0.2210  0.4248  0.8887
  236MPD1    C2 3633   2.446   4.466   9.662 -0.5266 -0.1663  0.2490
  236MPD1    C3 3634   2.578   4.423   9.648  0.0887  0.3335  0.0353
  236MPD1    C4 3635   2.612   4.330   9.554  0.3105 -1.1290  0.4965
  236MPD1    C5 3636   2.514   4.278   9.473 -1.1179  0.5092 -0.1622
  236MPD1     H 3637   2.421   4.539   9.739  1.7366  0.1509  0.6661
  236MPD1    H1 3638   2.714   4.298   9.535  0.7063 -0.1226  0.9375
  236MPD1    H2 3639   2.317   4.284   9.414 -3.2803  2.6429  0.9410
  236MPD1    H3 3640   2.541   4.203   9.400  0.5516  1.5268 -0.5713
  236MPD1     N 3641   2.678   4.479   9.726  0.2511 -0.3212 -0.4144
  236MPD1    H5 3642   2.758   4.416   9.726 -0.2471 -0.9579  1.2259
  236MPD1    N1 3643   2.222   4.454   9.595 -0.1312 -0.8055 -0.0331
  236MPD1    H6 3644   2.152   4.382   9.582 -2.5030  1.3071  1.1747
  236MPD1    H7 3645   2.210   4.490   9.689  1.3157 -1.3471  0.3607
  237MPD1     C 3646   3.164   2.293  15.230 -0.3237 -0.1984 -0.2980
  237MPD1    C1 3647   3.191   2.168  15.288 -0.1818 -0.1539  0.7166
  237MPD1    C2 3648   3.092   2.072  15.295 -0.4663  0.0099  0.5809
  237MPD1    C3 3649   2.967   2.102  15.249 -0.6044  0.1638 -0.6358
  237MPD1    C4 3650   2.952   2.219  15.172 -0.2302 -0.4114  0.7265
  237MPD1    C5 3651   3.048   2.320  15.172 -0.0211 -0.2597  0.1852
  237MPD1     H 3652   3.114   1.977  15.343 -1.2923 -0.1175  0.7220
  237MPD1    H1 3653   2.852   2.241  15.139 -1.3169 -0.5767  3.8999
  237MPD1    H2 3654   3.231   2.378  15.232  1.7988 -1.8336 -1.7615
  237MPD1    H3 3655   3.028   2.409  15.113  2.2000  0.6528  0.8070
  237MPD1     N 3656   2.854   2.017  15.266  0.1676  0.0621  0.1839
  237MPD1    H5 3657   2.769   2.052  15.223 -0.2456  1.0115  1.7591
  237MPD1    N1 3658   3.307   2.145  15.361 -0.1642 -0.8880  0.0000
  237MPD1    H6 3659   3.348   2.054  15.341 -0.2170 -1.2294  1.4953
  237MPD1    H7 3660   3.376   2.214  15.333 -0.2815 -0.2121  1.3936
  238MPD1     C 3661   4.244   1.282  14.870 -0.1943 -0.3470 -0.9269
  238MPD1    C1 3662   4.232   1.146  14.906 -0.2798 -0.8248  0.3619
  238MPD1    C2 3663   4.122   1.079  14.860 -0.7873  0.0447  0.2698
  238MPD1    C3 3664   4.051   1.123  14.754  0.4467  0.4976  0.7419
  238MPD1    C4 3665   4.076   1.250  14.706  0.6437 -0.3832 -0.6257
  238MPD1    C5 3666   4.164   1.328  14.767  0.2591  0.3975 -0.1356
  238MPD1     H 3667   4.118   0.975  14.890  0.4316 -0.3481 -0.9197
  238MPD1    H1 3668   4.020   1.299  14.628 -1.1733  0.0211  0.9237
  238MPD1    H2 3669   4.317   1.346  14.917 -0.2499 -0.0134 -1.2890
  238MPD1    H3 3670   4.166   1.435  14.749  2.2462  0.4769  0.5792
  238MPD1     N 3671   3.954   1.044  14.689 -0.3254  0.1666 -0.4679
  238MPD1    H5 3672   3.911   1.078  14.603 -0.2511  1.8700  0.1649
  238MPD1    N1 3673   4.300   1.100  15.020 -0.0568 -0.4737 -0.3440
  238MPD1    H6 3674   4.397   1.127  15.010  0.3219 -0.8699  2.0650
  238MPD1    H7 3675   4.318   1.000  15.022  1.5177 -0.1649  0.7743
  239MPD1     C 3676   4.653   1.643  14.727 -0.7834 -0.0730  0.1485
  239MPD1    C1 3677   0.003   1.707  14.645  0.1799  0.5775  0.1758
  239MPD1    C2 3678   4.688   1.812  14.576 -0.5008 -0.2052  0.5687
  239MPD1    C3 3679   4.557   1.855  14.592  0.0781 -0.7968  0.3171
  239MPD1    C4 3680   4.471   1.796  14.671  0.3268 -0.6665  0.0766
  239MPD1    C5 3681   4.521   1.688  14.742  0.4842  0.5543  0.3450
  239MPD1     H 3682   0.011   1.876  14.511  0.0177 -1.2175  0.0331
  239MPD1    H1 3683   4.370   1.835  14.680  0.9417  0.8647  0.2870
  239MPD1    H2 3684   4.680   1.557  14.787  1.0138  0.3996 -0.0028
  239MPD1    H3 3685   4.440   1.643  14.799 -0.5099  1.2318 -0.5272
  239MPD1     N 3686   4.503   1.967  14.526  0.4853 -0.7644 -0.0413
  239MPD1    H5 3687   4.410   1.992  14.559  0.8657  2.3054 -1.2979
  239MPD1    N1 3688   0.129   1.656  14.618 -0.2047 -0.4466  0.0958
  239MPD1    H6 3689   0.191   1.718  14.567  2.5905 -0.8123  3.0308
  239MPD1    H7 3690   0.180   1.614  14.695 -3.1436  0.2594  2.4753
  240MPD1     C 3691   2.785   2.251  13.500  0.0896 -0.1952 -0.1400
  240MPD1    C1 3692   2.767   2.133  13.574 -0.1729 -1.1245  0.5167
  240MPD1    C2 3693   2.880   2.092  13.640 -0.3180  0.3623  0.3372
  240MPD1    C3 3694   2.998   2.163  13.641  0.8057  0.2648  0.1918
  240MPD1    C4 3695   3.009   2.270  13.563  0.3948 -0.5892  0.3736
  240MPD1    C5 3696   2.905   2.314  13.489  0.0851 -0.0983 -0.2575
  240MPD1     H 3697   2.883   2.001  13.700  2.7811  0.9852  1.1418
  240MPD1    H1 3698   3.094   2.338  13.564 -0.3354  0.3596 -1.5027
  240MPD1    H2 3699   2.695   2.295  13.460  0.3448  1.2338  0.8678
  240MPD1    H3 3700   2.912   2.403  13.429 -0.3775  2.1021  2.9324
  240MPD1     N 3701   3.105   2.114  13.713  0.0320 -0.0982  0.4277
  240MPD1    H5 3702   3.093   2.058  13.796  1.4139  0.0230  0.7064
  240MPD1    N1 3703   2.655   2.056  13.553 -1.3667 -0.4394  0.3062
  240MPD1    H6 3704   2.651   1.986  13.627  0.3849  0.6494  1.4401
  240MPD1    H7 3705   2.571   2.113  13.556 -0.6033  0.7189  0.0234
  241MPD1     C 3706   4.113   1.701  13.556 -0.5798 -0.3237 -0.0528
  241MPD1    C1 3707   4.028   1.789  13.491  0.0450  0.2185 -0.0543
  241MPD1    C2 3708   3.907   1.830  13.545 -0.2159 -0.6464 -0.8173
  241MPD1    C3 3709   3.881   1.812  13.677 -0.2212 -0.5145  0.1980
  241MPD1    C4 3710   3.969   1.733  13.750 -0.5025  0.0018 -0.0878
  241MPD1    C5 3711   4.077   1.676  13.689  0.3108 -0.4555 -0.6848
  241MPD1     H 3712   3.845   1.887  13.477 -1.2815  0.8802  1.4156
  241MPD1    H1 3713   3.956   1.731  13.857  0.0010 -0.8589 -0.0413
  241MPD1    H2 3714   4.186   1.636  13.510  1.0020  0.3712  1.4978
  241MPD1    H3 3715   4.143   1.617  13.753  0.1199 -0.9050 -0.9022
  241MPD1     N 3716   3.763   1.869  13.736  0.5184 -0.8711  1.3111
  241MPD1    H5 3717   3.745   1.839  13.831  0.8362 -1.5124  1.1731
  241MPD1    N1 3718   4.043   1.797  13.347 -0.1193 -0.6889 -0.0286
  241MPD1    H6 3719   4.139   1.792  13.313  0.3431 -0.6764  1.2927
  241MPD1    H7 3720   4.004   1.881  13.305  1.0886 -0.3538 -0.4950
  242MPD1     C 3721   3.885   0.614  15.824 -0.0962 -0.2632  0.7228
  242MPD1    C1 3722   3.805   0.664  15.726  0.0384  0.4113 -0.9431
  242MPD1    C2 3723   3.798   0.604  15.599  0.4235  0.6060  0.1194
  242MPD1    C3 3724   3.865   0.484  15.584 -0.0050  0.2045  0.3508
  242MPD1    C4 3725   3.933   0.423  15.686  0.4411 -0.1745 -0.3940
  242MPD1    C5 3726   3.948   0.490  15.805  0.4535  0.2510  0.3812
  242MPD1     H 3727   3.742   0.650  15.518 -0.7276 -2.0679 -0.5983
  242MPD1    H1 3728   3.986   0.328  15.684  0.5459 -0.1375  0.3662
  242MPD1    H2 3729   3.888   0.667  15.919  1.1525 -2.1542  1.7561
  242MPD1    H3 3730   4.004   0.456  15.891  0.1572  0.1842  0.5447
  242MPD1     N 3731   3.852   0.412  15.461  0.2940 -0.0174  0.8098
  242MPD1    H5 3732   3.900   0.322  15.459 -0.8607 -0.6433  1.0589
  242MPD1    N1 3733   3.753   0.793  15.742  0.0111 -0.0537  0.2806
  242MPD1    H6 3734   3.730   0.809  15.839 -2.2963 -0.5406 -0.1864
  242MPD1    H7 3735   3.672   0.817  15.685  0.7189 -1.6917 -1.4310
  243MPD1     C 3736   0.291   3.912  17.625  0.2749 -0.2911  0.0680
  243MPD1    C1 3737   0.262   3.790  17.679 -0.1323 -0.4648  0.1049
  243MPD1    C2 3738   0.263   3.675  17.596 -0.0608 -0.3696 -0.0239
  243MPD1    C3 3739   0.312   3.691  17.470 -0.3828 -0.1610 -0.0027
  243MPD1    C4 3740   0.345   3.819  17.423  0.3701  0.7669 -0.0092
  243MPD1    C5 3741   0.334   3.922  17.502  0.4458 -0.0874  0.1304
  243MPD1     H 3742   0.227   3.582  17.639 -0.5931  0.1109  0.5601
  243MPD1    H1 3743   0.389   3.842  17.327 -0.8501  0.3992 -0.6608
  243MPD1    H2 3744   0.280   4.006  17.678  0.0713 -1.1118  1.4808
  243MPD1    H3 3745   0.360   4.018  17.459 -1.0869  0.4445  0.4171
  243MPD1     N 3746   0.326   3.580  17.384 -0.1406  0.7370 -0.1451
  243MPD1    H5 3747   0.292   3.489  17.417 -1.2135  1.5418  0.9856
  243MPD1    N1 3748   0.197   3.785   0.066  0.3739  0.3872  0.4715
  243MPD1    H6 3749   0.223   3.857   0.133  1.7275 -1.4344  1.8978
  243MPD1    H7 3750   0.224   3.702   0.117 -0.4384 -0.6754 -0.8354
  244MPD1     C 3751   0.143   2.870  17.726 -0.4809 -0.0468 -0.1691
  244MPD1    C1 3752   0.102   3.000  17.738  0.0860  0.7667  0.5322
  244MPD1    C2 3753   0.144   3.083  17.634  0.2954 -0.4476  0.3225
  244MPD1    C3 3754   0.235   3.041  17.541  0.1083 -0.1289  0.2154
  244MPD1    C4 3755   0.269   2.910  17.530 -0.1943  1.1257 -0.0372
  244MPD1    C5 3756   0.220   2.826  17.627  0.4932 -0.0310 -0.8560
  244MPD1     H 3757   0.102   3.183  17.630  1.3996  0.0073  0.2318
  244MPD1    H1 3758   0.339   2.855  17.468 -0.8598 -0.0013  0.2069
  244MPD1    H2 3759   0.103   2.797   0.057  1.6235 -1.0753 -0.0395
  244MPD1    H3 3760   0.243   2.720  17.621 -0.4797 -0.2632 -0.4901
  244MPD1     N 3761   0.272   3.129  17.434  0.5826  0.0919  1.0183
  244MPD1    H5 3762   0.238   3.224  17.444 -0.6108 -0.7460  5.2688
  244MPD1    N1 3763   4.730   3.026   0.091 -0.2120 -0.2024  0.1159
  244MPD1    H6 3764   4.725   3.126   0.108  1.5492 -0.5256  2.5534
  244MPD1    H7 3765   0.010   2.975   0.178 -1.6489 -1.9001 -0.6382
  245MPD1     C 3766   1.691   3.883  13.242 -0.3331 -0.3246  0.4429
  245MPD1    C1 3767   1.808   3.908  13.310 -0.7709 -0.4710  0.1542
  245MPD1    C2 3768   1.835   4.035  13.352  0.2725 -0.2525 -0.3722
  245MPD1    C3 3769   1.758   4.137  13.318 -0.3681 -0.4163  0.2667
  245MPD1    C4 3770   1.641   4.110  13.251  0.6382 -0.5142  0.0648
  245MPD1    C5 3771   1.604   3.985  13.215  0.7288  0.8430 -0.5130
  245MPD1     H 3772   1.916   4.055  13.420  0.0340  1.8614 -0.7338
  245MPD1    H1 3773   1.573   4.193  13.235  0.4953 -0.5445  0.5075
  245MPD1    H2 3774   1.680   3.783  13.200 -1.6748 -0.7151  1.7491
  245MPD1    H3 3775   1.510   3.974  13.162 -0.8315  0.3452  2.3067
  245MPD1     N 3776   1.797   4.265  13.356  0.3780 -0.9146  0.2835
  245MPD1    H5 3777   1.881   4.260  13.414  0.0829  0.5002  0.8299
  245MPD1    N1 3778   1.895   3.804  13.346 -0.2860  0.6251  0.0107
  245MPD1    H6 3779   1.991   3.820  13.314 -0.7089 -1.3651 -2.2273
  245MPD1    H7 3780   1.875   3.716  13.299 -1.4288  0.9515 -0.1064
  246MPD1     C 3781   4.314   0.459  10.065  0.5647 -0.2439 -0.0713
  246MPD1    C1 3782   4.278   0.465   9.933 -0.6683  0.3441 -0.6523
  246MPD1    C2 3783   4.205   0.574   9.891  0.3193  1.1483  0.4318
  246MPD1    C3 3784   4.172   0.677   9.977  0.0302 -0.4379  0.5172
  246MPD1    C4 3785   4.211   0.666  10.111 -0.2345 -0.2646  0.3641
  246MPD1    C5 3786   4.277   0.557  10.151  0.4132  1.0732  0.2290
  246MPD1     H 3787   4.166   0.575   9.790  1.9002 -1.9408 -0.1830
  246MPD1    H1 3788   4.186   0.736  10.190 -0.9438 -1.5225  1.2599
  246MPD1    H2 3789   4.370   0.374  10.103  0.9308  1.0670  2.3476
  246MPD1    H3 3790   4.320   0.565  10.251  0.4537  1.0205  0.2153
  246MPD1     N 3791   4.099   0.794   9.937 -0.4419 -0.0641  0.2152
  246MPD1    H5 3792   4.072   0.873   9.995 -2.4230 -0.6059  0.0241
  246MPD1    N1 3793   4.313   0.359   9.846 -0.2651 -0.9711  0.3633
  246MPD1    H6 3794   4.316   0.381   9.747  0.1149 -1.3205  0.2988
  246MPD1    H7 3795   4.396   0.309   9.876 -0.0949  0.8152  2.8851
  247MPD1     C 3796   1.412   3.966  16.855  0.7755 -0.2317  0.3529
  247MPD1    C1 3797   1.475   4.006  16.740  0.0782  0.0874  0.9117
  247MPD1    C2 3798   1.544   3.899  16.673 -0.6079  0.1386 -0.5494
  247MPD1    C3 3799   1.562   3.774  16.726 -0.6302 -1.0835 -0.3380
  247MPD1    C4 3800   1.502   3.745  16.844 -0.9679 -0.4036  0.1714
  247MPD1    C5 3801   1.416   3.842  16.900 -0.3255 -0.8124 -0.7673
  247MPD1     H 3802   1.586   3.923  16.575  1.3449  2.0431  0.7629
  247MPD1    H1 3803   1.508   3.648  16.891 -0.0762 -0.0317  0.8282
  247MPD1    H2 3804   1.346   4.028  16.915  0.7954 -1.4196  1.6150
  247MPD1    H3 3805   1.348   3.809  16.977 -0.5336 -0.3398 -0.7537
  247MPD1     N 3806   1.659   3.686  16.671 -0.2010  0.1720 -0.4978
  247MPD1    H5 3807   1.667   3.603  16.730  1.1989  2.1479  2.0897
  247MPD1    N1 3808   1.452   4.126  16.680  0.6768  0.5153  0.3271
  247MPD1    H6 3809   1.536   4.178  16.654  1.1439 -0.3904  0.0288
  247MPD1    H7 3810   1.406   4.192  16.742 -0.5650 -0.2455  0.2149
  248MPD1     C 3811   2.911   3.109   0.088  0.0778  0.4828 -0.6859
  248MPD1    C1 3812   2.930   3.241   0.083  0.8855 -0.1847  0.4721
  248MPD1    C2 3813   2.834   3.323   0.136  0.2145  0.2711  0.2495
  248MPD1    C3 3814   2.726   3.271   0.200  0.5092  0.3749  0.3772
  248MPD1    C4 3815   2.702   3.134   0.198  0.2979 -0.2567  0.1562
  248MPD1    C5 3816   2.798   3.061   0.145 -0.4746  0.0755 -0.4788
  248MPD1     H 3817   2.854   3.429   0.143 -1.1477  0.5463 -0.0170
  248MPD1    H1 3818   2.617   3.092   0.251  0.3688  0.3379  0.7358
  248MPD1    H2 3819   2.967   3.032   0.036  0.8782  0.9015 -0.4297
  248MPD1    H3 3820   2.788   2.955   0.163  0.9296 -0.1750 -1.2078
  248MPD1     N 3821   2.624   3.365   0.243  0.5990  0.1234  0.1043
  248MPD1    H5 3822   2.643   3.459   0.210  0.3736  0.3338  0.5790
  248MPD1    N1 3823   3.053   3.292   0.038  0.2364  0.0548  0.0716
  248MPD1    H6 3824   3.040   3.387   0.005 -0.2402 -0.0857 -0.1497
  248MPD1    H7 3825   3.086   3.230  17.703 -1.6704 -2.0030  0.9378
  249MPD1     C 3826   4.225   2.292  11.039  0.5962  0.1549 -0.8141
  249MPD1    C1 3827   4.234   2.427  11.056  0.3826 -0.2230  0.4914
  249MPD1    C2 3828   4.192   2.513  10.954 -0.1588  0.1884  0.3421
  249MPD1    C3 3829   4.146   2.457  10.838 -0.5806  0.3521 -0.0989
  249MPD1    C4 3830   4.139   2.318  10.821 -0.8655  0.0207  0.0455
  249MPD1    C5 3831   4.192   2.242  10.917 -0.6122 -0.2602  0.4509
  249MPD1     H 3832   4.177   2.620  10.966  2.0177  0.5419  0.0324
  249MPD1    H1 3833   4.106   2.276  10.727 -0.4586 -2.1713  0.8656
  249MPD1    H2 3834   4.246   2.223  11.120  0.4651 -0.6959 -1.4992
  249MPD1    H3 3835   4.194   2.134  10.909  1.9627 -0.0657 -1.4788
  249MPD1     N 3836   4.088   2.545  10.749 -0.3986 -0.4383  0.2969
  249MPD1    H5 3837   4.075   2.638  10.788 -0.8910 -0.7336  0.8511
  249MPD1    N1 3838   4.266   2.492  11.178  0.4405  0.6238  0.0610
  249MPD1    H6 3839   4.297   2.588  11.167 -2.0127  1.3545 -0.4047
  249MPD1    H7 3840   4.327   2.440  11.241  0.4649 -0.3026 -0.7081
  250MPD2     C 3841   0.765   2.688  13.080  0.2779  0.7208 -0.0216
  250MPD2    C1 3842   0.646   2.759  13.108 -0.8849 -0.0182 -0.3533
  250MPD2    C2 3843   0.520   2.702  13.103  0.0825  0.2415  0.5344
  250MPD2    C3 3844   0.514   2.565  13.079 -0.1392  0.6371 -0.2016
  250MPD2    C4 3845   0.629   2.496  13.048  0.0552  0.1125 -0.7892
  250MPD2    C5 3846   0.756   2.551  13.058  0.4481 -0.0859  0.3045
  250MPD2     H 3847   0.429   2.757  13.122 -0.6872 -0.2563 -1.6863
  250MPD2    H1 3848   0.609   2.394  13.016 -0.9305  0.5242 -1.4509
  250MPD2    H2 3849   0.860   2.738  13.097 -0.9032  3.0639 -0.2906
  250MPD2    H3 3850   0.841   2.490  13.030 -0.1634  0.1897 -2.1727
  250MPD2     N 3851   0.394   2.493  13.058  0.1075 -0.3456  0.7149
  250MPD2    H5 3852   0.412   2.394  13.050  1.1691 -0.1106  0.1110
  250MPD2    N1 3853   0.655   2.894  13.149 -0.0938  0.3524  0.8501
  250MPD2    H7 3854   0.753   2.920  13.157 -0.0006  0.3401 -0.2752
  251TMC3    C1 3855   0.607   3.111  13.217  0.2700 -0.0816 -0.4273
  251TMC3    C2 3856   0.529   3.193  13.287 -0.6205 -0.1475  0.2173
  251TMC3    C3 3857   0.582   3.315  13.319 -0.2932  0.5956 -0.0574
  251TMC3    C4 3858   0.741   3.140  13.189  0.6369  0.0377  0.0051
  251TMC3    C5 3859   0.785   3.266  13.215 -1.1344  0.1123 -0.8712
  251TMC3    C6 3860   0.700   3.353  13.280  0.1955 -0.2834 -0.0105
  251TMC3     C 3861   0.555   2.988  13.178  0.5384 -0.7765 -0.0622
  251TMC3     O 3862   0.435   2.984  13.158  0.3652 -0.1359 -0.5005
  251TMC3     H 3863   0.425   3.170  13.310 -1.1059  0.2807 -1.5618
  251TMC3    H1 3864   0.806   3.061  13.154 -0.5405 -0.0058 -2.0768
  251TMC3    H2 3865   0.737   3.443  13.328  0.9298 -0.8499  0.5089
  251TMC3    C7 3866   0.924   3.285  13.208 -0.5908  0.6164 -0.3722
  251TMC3    C8 3867   0.489   3.405  13.391 -0.5016 -0.2524 -0.6079
  251TMC3    O1 3868   0.992   3.183  13.203  0.5601 -0.8198  0.1650
  251TMC3    O2 3869   0.396   3.347  13.446  0.8568  0.8349 -0.5311
  252TMC3    C1 3870   1.230   0.161   9.267 -0.7664  0.4825  0.0105
  252TMC3    C2 3871   1.334   0.126   9.349 -0.8075 -0.0738 -0.4617
  252TMC3    C3 3872   1.367   4.727   9.358 -0.0361 -0.3320 -0.4420
  252TMC3    C4 3873   1.152   0.058   9.210  0.3041 -0.1510 -0.1455
  252TMC3    C5 3874   1.184   4.659   9.226  0.0291  0.5146  0.3697
  252TMC3    C6 3875   1.293   4.623   9.299 -0.4716  0.7406 -0.2876
  252TMC3     C 3876   1.236   0.292   9.207  0.3084  0.6991  0.0742
  252TMC3     O 3877   1.337   0.353   9.230  0.1556  0.9929  0.6269
  252TMC3     H 3878   1.388   0.206   9.397 -0.4773 -1.0149  0.7333
  252TMC3    H1 3879   1.064   0.080   9.151 -0.1440  0.1659  0.6546
  252TMC3    H2 3880   1.333   4.524   9.315 -1.8604 -0.2678 -3.1098
  252TMC3    C7 3881   1.088   4.562   9.173  0.3023 -0.0693 -0.4433
  252TMC3    C8 3882   1.489   4.679   9.415 -1.0818 -0.4924 -0.1955
  252TMC3    O1 3883   1.026   4.587   9.067  0.0413  0.2416  0.3136
  252TMC3    O2 3884   1.535   4.577   9.376 -0.4390 -0.2431  0.4238
  253MPD2     C 3885   1.959   2.103  15.087  0.8480 -0.2094  0.2259
  253MPD2    C1 3886   1.824   2.120  15.105  0.2753 -0.6307  0.4709
  253MPD2    C2 3887   1.771   2.156  15.231  0.7806 -1.2247  0.3215
  253MPD2    C3 3888   1.844   2.166  15.340  0.5102 -0.2562  0.1409
  253MPD2    C4 3889   1.990   2.160  15.324  0.5960 -0.3824 -0.1151
  253MPD2    C5 3890   2.037   2.127  15.199 -0.4516  0.7594 -0.8276
  253MPD2     H 3891   1.666   2.181  15.234  0.6885 -1.6018  0.3225
  253MPD2    H1 3892   2.060   2.179  15.405  0.1011  1.2448 -0.0723
  253MPD2    H2 3893   2.002   2.074  14.992  0.2336  2.4632 -0.8787
  253MPD2    H3 3894   2.144   2.112  15.186 -0.7135  1.4490 -3.6668
  253MPD2     N 3895   1.800   2.194  15.471  0.3766 -0.2963  0.7813
  253MPD2    H5 3896   1.874   2.206  15.540  2.3923  0.2055 -1.4641
  253MPD2    N1 3897   1.732   2.111  15.001  0.1497  0.4087  0.0199
  253MPD2    H7 3898   1.634   2.112  15.028 -0.0109 -0.6714 -0.5213
  254TMC3    C1 3899   1.657   2.266  15.647  0.7576  0.8241  0.5466
  254TMC3    C2 3900   1.545   2.346  15.675 -0.2675 -0.2967  0.1919
  254TMC3    C3 3901   1.551   2.448  15.766 -0.0887  0.1607  0.7716
  254TMC3    C4 3902   1.768   2.282  15.728 -0.1858 -0.1450  0.2987
  254TMC3    C5 3903   1.760   2.380  15.829  0.4406 -0.1521 -0.1529
  254TMC3    C6 3904   1.662   2.475  15.836  0.5719 -0.1661 -0.2508
  254TMC3     C 3905   1.669   2.217  15.509 -0.3633  0.1581  0.4447
  254TMC3     O 3906   1.565   2.219  15.442 -0.1969  0.0937  0.0828
  254TMC3     H 3907   1.452   2.315  15.628 -0.8955 -0.5022  1.5724
  254TMC3    H1 3908   1.851   2.211  15.727 -0.8082 -0.9050  3.5850
  254TMC3    H2 3909   1.652   2.541  15.921  1.0553  0.0004 -0.3222
  254TMC3    C7 3910   1.868   2.390  15.928 -0.1429 -1.1236 -0.0977
  254TMC3    C8 3911   1.437   2.471  15.837 -0.7357 -0.6300 -0.7570
  254TMC3    O1 3912   1.840   2.467  16.013 -0.6999 -0.6528  0.1354
  254TMC3    O2 3913   1.408   2.386  15.919  0.7404 -0.5034 -0.7697
  255MPD2     C 3914   4.281   1.462  10.656 -0.6858  0.0969 -0.2491
  255MPD2    C1 3915   4.381   1.559  10.657 -0.5714 -0.1329 -0.2542
  255MPD2    C2 3916   4.506   1.525  10.616 -0.1143 -0.1882 -0.2137
  255MPD2    C3 3917   4.533   1.396  10.570  0.3109 -0.4279 -0.0738
  255MPD2    C4 3918   4.435   1.295  10.578  0.0449  0.3045  0.8049
  255MPD2    C5 3919   4.312   1.337  10.627  0.3297  0.1711  0.2452
  255MPD2     H 3920   4.590   1.593  10.618  0.1704 -0.5582  0.5025
  255MPD2    H1 3921   4.442   1.198  10.530  1.7018  0.0077  1.6516
  255MPD2    H2 3922   4.179   1.475  10.692 -0.6590  1.1479 -0.5525
  255MPD2    H3 3923   4.231   1.265  10.622  0.3538  0.0614  1.3641
  255MPD2     N 3924   4.671   1.379  10.543 -0.3677  0.9182 -0.1665
  255MPD2    H5 3925   0.000   1.458  10.547  0.1278  0.4518  1.1909
  255MPD2    N1 3926   4.347   1.687  10.717 -0.1866 -0.1266  0.0104
  255MPD2    H7 3927   4.248   1.707  10.733  0.2298  1.6718  0.4060
  256TMC3    C1 3928   4.351   1.917  10.759 -0.2733 -0.0237 -0.1799
  256TMC3    C2 3929   4.389   2.026  10.687 -0.2972  0.0575  0.5633
  256TMC3    C3 3930   4.297   2.094  10.613 -0.1809 -0.9661  0.4483
  256TMC3    C4 3931   4.216   1.895  10.772  0.1422 -0.6738 -0.1007
  256TMC3    C5 3932   4.126   1.960  10.687  0.0318 -0.4998  0.3611
  256TMC3    C6 3933   4.168   2.051  10.592  0.6200  0.2514  0.0770
  256TMC3     C 3934   4.430   1.797  10.729  0.9649  0.7939  0.0931
  256TMC3     O 3935   4.550   1.807  10.712  0.7067 -0.1339  0.1048
  256TMC3     H 3936   4.493   2.049  10.669 -0.9034  3.1798  1.0890
  256TMC3    H1 3937   4.180   1.837  10.856  0.1873 -0.1391  0.2938
  256TMC3    H2 3938   4.104   2.111  10.528 -0.9010 -0.6734  0.7254
  256TMC3    C7 3939   4.021   1.865  10.642 -0.3969  0.2831  0.4203
  256TMC3    C8 3940   4.345   2.202  10.529  0.1554  0.1636 -0.1270
  256TMC3    O1 3941   4.023   1.759  10.701  0.3027  0.0274  0.2677
  256TMC3    O2 3942   4.275   2.302  10.512  0.2154 -0.2233  0.5264
  257MPD2     C 3943   4.250   3.012  13.258  0.5053 -0.6972 -0.8648
  257MPD2    C1 3944   4.133   2.977  13.193  0.6529  0.6915  0.1869
  257MPD2    C2 3945   4.059   2.876  13.248 -0.0557 -0.5260 -0.3143
  257MPD2    C3 3946   4.104   2.801  13.363  0.6473  0.1271 -0.1886
  257MPD2    C4 3947   4.218   2.839  13.421  0.4445 -0.4541 -0.1832
  257MPD2    C5 3948   4.289   2.942  13.371 -0.2577 -0.0125  0.0636
  257MPD2     H 3949   3.960   2.845  13.216 -1.7772  4.0132  0.5406
  257MPD2    H1 3950   4.260   2.800  13.513 -1.1142 -0.7567  0.3986
  257MPD2    H2 3951   4.307   3.098  13.224  0.4587 -0.6602 -0.8488
  257MPD2    H3 3952   4.376   2.973  13.429  0.2182  0.2183 -0.7748
  257MPD2     N 3953   4.027   2.688  13.408 -0.1651  0.1586 -0.4883
  257MPD2    H5 3954   3.935   2.681  13.365 -0.0381 -0.4544 -0.6619
  257MPD2    N1 3955   4.103   3.057  13.078  0.0162 -0.8915  0.0180
  257MPD2    H7 3956   4.166   3.133  13.056 -1.0832  0.2633  0.8907
  258TMC3    C1 3957   3.962   2.515  13.551 -0.5369 -0.8928 -0.1437
  258TMC3    C2 3958   3.827   2.537  13.514  0.0204  0.0068  0.4800
  258TMC3    C3 3959   3.735   2.461  13.580 -0.4656  0.1346 -0.1951
  258TMC3    C4 3960   3.991   2.416  13.637 -0.4624  0.5069 -0.5552
  258TMC3    C5 3961   3.902   2.344  13.697 -0.3761 -0.0853  0.1270
  258TMC3    C6 3962   3.769   2.363  13.667  0.5215  0.2480  0.7258
  258TMC3     C 3963   4.064   2.607  13.512  0.0571  0.0208  0.4174
  258TMC3     O 3964   4.166   2.603  13.582 -0.1074  0.3073  0.1224
  258TMC3     H 3965   3.798   2.612  13.441 -2.1459 -0.2879  1.0155
  258TMC3    H1 3966   4.097   2.408  13.658 -0.0621  0.8664 -2.4391
  258TMC3    H2 3967   3.704   2.288  13.712  1.3497  0.1260  1.7341
  258TMC3    C7 3968   3.932   2.259  13.805  0.0220  0.4604  0.4217
  258TMC3    C8 3969   3.600   2.450  13.530  0.0411 -0.5884  0.3203
  258TMC3    O1 3970   3.853   2.246  13.901  0.7103  0.3003 -0.3369
  258TMC3    O2 3971   3.507   2.423  13.601  0.3920 -0.2899 -0.1337
  259MPD2     C 3972   3.219   3.919   0.292 -0.5969  0.5888 -0.3956
  259MPD2    C1 3973   3.300   3.928   0.404 -0.3726  0.2373  0.6465
  259MPD2    C2 3974   3.431   3.880   0.407 -0.4685  0.4891  0.1071
  259MPD2    C3 3975   3.474   3.832   0.284  0.5167 -0.0470  0.5344
  259MPD2    C4 3976   3.397   3.832   0.171 -0.4169 -0.2636 -0.3626
  259MPD2    C5 3977   3.276   3.883   0.172  0.3356  0.1914 -0.5848
  259MPD2     H 3978   3.487   3.881   0.500 -0.3070 -0.6302  0.0268
  259MPD2    H1 3979   3.433   3.803   0.073 -0.9385 -1.9681 -0.0536
  259MPD2    H2 3980   3.120   3.961   0.295 -0.7827  0.2764 -2.1564
  259MPD2    H3 3981   3.222   3.892   0.078  1.9145  0.5813 -1.4572
  259MPD2     N 3982   3.614   3.794   0.275  0.5860 -0.3266 -0.2860
  259MPD2    H5 3983   3.665   3.797   0.363 -0.3066 -1.4346  0.2776
  259MPD2    N1 3984   3.232   3.951   0.527 -0.2217 -0.6631 -0.6387
  259MPD2    H7 3985   3.133   3.975   0.527  0.4940  2.3595  0.0328
  260TMC3    C1 3986   3.815   3.718   0.178  0.2664  0.3309  0.2841
  260TMC3    C2 3987   3.899   3.702   0.062  0.7207  0.3559  0.5088
  260TMC3    C3 3988   3.996   3.605   0.066 -0.2293  0.7085 -0.9796
  260TMC3    C4 3989   3.846   3.649   0.295 -0.6570  0.4073 -0.5530
  260TMC3    C5 3990   3.956   3.563   0.301  0.5260 -0.2611 -0.2115
  260TMC3    C6 3991   4.032   3.545   0.183 -0.3849 -0.0780  0.1022
  260TMC3     C 3992   3.688   3.784   0.168  0.3392 -0.4335 -0.1408
  260TMC3     O 3993   3.654   3.810   0.053 -0.0882 -0.3705 -0.2936
  260TMC3     H 3994   3.855   3.727  17.705  0.8082 -1.7974 -0.0918
  260TMC3    H1 3995   3.776   3.649   0.377  0.1319 -2.1331  0.1257
  260TMC3    H2 3996   4.121   3.483   0.188 -0.0334  0.3656 -0.8200
  260TMC3    C7 3997   3.921   3.436   0.356  0.5054 -0.4096 -0.1767
  260TMC3    C8 3998   4.009   3.527  17.684  0.1123 -0.0873 -0.3783
  260TMC3    O1 3999   3.951   3.338   0.289  0.1611 -0.2210 -0.1127
  260TMC3    O2 4000   3.983   3.573  17.572  0.3820 -0.0597  0.0923
  261MPD2     C 4001   4.383   2.542  12.641 -0.2320 -0.4600  0.3880
  261MPD2    C1 4002   4.508   2.598  12.679 -0.4612  0.1901 -0.0068
  261MPD2    C2 4003   4.564   2.700  12.611 -0.0018  0.2555 -0.2883
  261MPD2    C3 4004   4.492   2.758  12.510 -0.5666  0.5303 -0.3815
  261MPD2    C4 4005   4.366   2.712  12.475  0.4042  0.7269  0.1097
  261MPD2    C5 4006   4.319   2.599  12.539 -0.0686 -0.1128 -0.5024
  261MPD2     H 4007   4.661   2.744  12.628 -0.0045  1.6662 -3.8268
  261MPD2    H1 4008   4.302   2.763  12.404 -0.5074 -1.7225 -0.8195
  261MPD2    H2 4009   4.340   2.456  12.692 -3.2574  1.5790  1.2757
  261MPD2    H3 4010   4.219   2.562  12.518 -0.1337  0.0834 -0.5366
  261MPD2     N 4011   4.551   2.864  12.444 -0.1187 -0.3493  0.2363
  261MPD2    H5 4012   4.646   2.890  12.470 -0.0676 -0.5098  0.2169
  261MPD2    N1 4013   4.588   2.544  12.781 -0.4494  0.8417 -0.5030
  261MPD2    H7 4014   4.686   2.572  12.777 -0.1979 -0.2468 -1.9101
  262TMC3    C1 4015   4.585   3.057  12.324  0.0633  0.5319 -0.1168
  262TMC3    C2 4016   4.560   3.134  12.216  0.5980  0.2785 -0.3936
  262TMC3    C3 4017   4.671   3.182  12.154 -0.3301  0.6959 -0.1194
  262TMC3    C4 4018   4.705   3.065  12.390 -0.3024  0.3245  0.4516
  262TMC3    C5 4019   0.078   3.116  12.323  0.4719  0.4699  0.4945
  262TMC3    C6 4020   0.066   3.169  12.204  0.6112 -0.0207  0.0973
  262TMC3     C 4021   4.499   2.949  12.351 -0.0157  0.6205 -0.1619
  262TMC3     O 4022   4.394   2.937  12.282  0.4496  0.2334  0.3416
  262TMC3     H 4023   4.466   3.139  12.161  1.0166 -1.6217 -1.3037
  262TMC3    H1 4024   4.711   3.028  12.491  0.3680  0.2916  0.4015
  262TMC3    H2 4025   0.151   3.218  12.158  0.5509  0.0733  0.0843
  262TMC3    C7 4026   0.210   3.096  12.376  0.5051  0.5523  0.3657
  262TMC3    C8 4027   4.664   3.259  12.027  0.0057 -0.4249  0.4015
  262TMC3    O1 4028   0.236   2.996  12.440  0.4464  0.1887  0.0052
  262TMC3    O2 4029   0.031   3.316  11.994 -0.6343  0.3535  0.3375
  263MPD2     C 4030   1.130   2.032  11.269 -0.4668  0.0796  0.2830
  263MPD2    C1 4031   1.210   2.124  11.331 -0.0085 -0.7321  0.3070
  263MPD2    C2 4032   1.226   2.247  11.275 -1.0155 -0.0490  0.0011
  263MPD2    C3 4033   1.178   2.277  11.152 -0.1236  0.5690  0.8247
  263MPD2    C4 4034   1.100   2.183  11.090 -0.4656  0.0579  0.1593
  263MPD2    C5 4035   1.079   2.066  11.147  0.1353 -0.0805  0.3583
  263MPD2     H 4036   1.271   2.323  11.338 -0.8700 -0.3769  0.2948
  263MPD2    H1 4037   1.051   2.203  10.996  2.3393  2.6321 -0.7449
  263MPD2    H2 4038   1.117   1.937  11.319  0.4980 -0.9022 -1.3558
  263MPD2    H3 4039   1.004   2.001  11.103 -0.6439  1.9264 -1.2516
  263MPD2     N 4040   1.203   2.410  11.108  0.1711 -0.2600 -0.7425
  263MPD2    H5 4041   1.261   2.463  11.173 -0.7084  0.1019 -0.2551
  263MPD2    N1 4042   1.275   2.081  11.446 -0.2819 -0.4759  0.2786
  263MPD2    H7 4043   1.246   1.990  11.480  1.3731 -0.1556  2.5587
  264TMC3    C1 4044   1.269   2.572  10.962  0.5354  0.5191 -0.5954
  264TMC3    C2 4045   1.260   2.671  11.059  0.0505 -0.1905 -0.1240
  264TMC3    C3 4046   1.301   2.795  11.023  0.5073  1.1034 -0.3964
  264TMC3    C4 4047   1.338   2.598  10.842 -0.8453  0.0430 -0.3513
  264TMC3    C5 4048   1.394   2.724  10.821  0.4621  0.2716  0.1006
  264TMC3    C6 4049   1.389   2.822  10.914 -0.0972 -0.6311 -0.0922
  264TMC3     C 4050   1.191   2.451  10.982  0.0197  0.2072  0.0341
  264TMC3     O 4051   1.149   2.391  10.887 -0.2393 -0.6292 -0.1764
  264TMC3     H 4052   1.211   2.643  11.151 -1.3019  2.5066 -0.0305
  264TMC3    H1 4053   1.371   2.512  10.785  0.9028 -0.8711  2.0692
  264TMC3    H2 4054   1.417   2.925  10.897 -1.4260 -0.3750 -0.7630
  264TMC3    C7 4055   1.494   2.732  10.715  0.9772  0.7805 -0.1563
  264TMC3    C8 4056   1.318   2.900  11.125 -0.1465 -0.1693  1.0651
  264TMC3    O1 4057   1.472   2.653  10.625 -0.0188 -0.6996 -0.3000
  264TMC3    O2 4058   1.390   2.996  11.108  0.2905 -0.4676  0.0153
  265MPD2     C 4059   3.287   1.655  15.557 -0.6463 -0.1745  0.2177
  265MPD2    C1 4060   3.342   1.777  15.517  0.1132 -0.2263 -0.7443
  265MPD2    C2 4061   3.380   1.803  15.389 -0.4211  0.1025  0.2402
  265MPD2    C3 4062   3.368   1.702  15.290 -0.1922 -0.2889  0.4418
  265MPD2    C4 4063   3.304   1.587  15.328  0.0933 -0.2814 -0.7055
  265MPD2    C5 4064   3.276   1.563  15.461  0.0083 -0.1484 -0.8376
  265MPD2     H 4065   3.422   1.898  15.359  3.2418 -2.4752 -2.8847
  265MPD2    H1 4066   3.279   1.505  15.262 -1.0519 -0.4188 -0.1078
  265MPD2    H2 4067   3.240   1.632  15.652  0.9376  2.3354  1.6020
  265MPD2    H3 4068   3.239   1.465  15.491 -1.4217  0.5774 -0.2641
  265MPD2     N 4069   3.406   1.706  15.157  0.5419  0.1178  0.2108
  265MPD2    H5 4070   3.413   1.618  15.108 -0.5732 -0.1202  0.4810
  265MPD2    N1 4071   3.335   1.885  15.608  0.2783  0.0807  0.3354
  265MPD2    H7 4072   3.357   1.976  15.569  3.1356 -0.2756  1.1134
  266TMC3    C1 4073   3.241   2.024  15.769 -0.1016  0.0851  0.4466
  266TMC3    C2 4074   3.185   2.036  15.898 -0.3279 -0.4615 -0.1794
  266TMC3    C3 4075   3.180   2.160  15.956 -0.1921 -0.0539 -0.1933
  266TMC3    C4 4076   3.293   2.132  15.704 -0.7233  0.2203 -0.4483
  266TMC3    C5 4077   3.284   2.251  15.767 -0.0430  0.0257 -0.0943
  266TMC3    C6 4078   3.226   2.272  15.893  0.4767 -0.3551 -0.2624
  266TMC3     C 4079   3.250   1.890  15.720 -0.5618  0.2771  0.0528
  266TMC3     O 4080   3.214   1.796  15.790 -0.3236 -0.1756 -0.1963
  266TMC3     H 4081   3.156   1.950  15.959  0.8242 -0.5756  0.2006
  266TMC3    H1 4082   3.356   2.132  15.616 -1.2635  0.7015 -0.8391
  266TMC3    H2 4083   3.211   2.373  15.929 -1.7835 -1.3690  1.6767
  266TMC3    C7 4084   3.303   2.365  15.679 -0.2286 -0.1906 -0.6957
  266TMC3    C8 4085   3.130   2.160  16.091 -1.0497 -0.2135  0.8330
  266TMC3    O1 4086   3.408   2.371  15.615  0.0593  0.7675  0.1410
  266TMC3    O2 4087   3.049   2.075  16.123 -0.1766  0.4688 -0.0088
  267MPD2     C 4088   0.403   3.853   0.664  0.9852 -0.0488  0.1399
  267MPD2    C1 4089   0.402   3.812   0.535  0.1412  0.0497 -0.5135
  267MPD2    C2 4090   0.311   3.881   0.452 -0.3244  0.5718  0.0340
  267MPD2    C3 4091   0.233   3.993   0.494  0.6085  0.2229  0.0380
  267MPD2    C4 4092   0.229   4.020   0.631 -0.9834  0.3948 -0.0803
  267MPD2    C5 4093   0.318   3.947   0.712 -0.1759 -0.4048 -0.3040
  267MPD2     H 4094   0.335   3.864   0.348  0.1538 -0.1948  0.2673
  267MPD2    H1 4095   0.170   4.105   0.665  0.3058  0.4115  2.0554
  267MPD2    H2 4096   0.465   3.809   0.742 -0.7341 -0.4249  1.2997
  267MPD2    H3 4097   0.335   3.985   0.812 -1.4189 -0.7886  0.0504
  267MPD2     N 4098   0.146   4.071   0.411 -0.3587 -0.0453 -0.5958
  267MPD2    H5 4099   0.078   4.130   0.458 -0.6788 -2.7363  2.3292
  267MPD2    N1 4100   0.497   3.712   0.487 -0.4049  0.2798  0.3878
  267MPD2    H7 4101   0.578   3.690   0.544  0.1357  1.1808 -0.0256
  268TMC3    C1 4102   0.612   3.581   0.340 -0.6019  0.4855  0.5064
  268TMC3    C2 4103   0.653   3.571   0.210  0.2810  0.2404 -0.5702
  268TMC3    C3 4104   0.789   3.557   0.186  0.0417 -0.0473 -0.0016
  268TMC3    C4 4105   0.692   3.555   0.446 -0.1612  0.2242 -0.2845
  268TMC3    C5 4106   0.823   3.533   0.419 -0.2261 -0.7688  0.0766
  268TMC3    C6 4107   0.877   3.536   0.293 -0.4599 -0.2150 -0.2984
  268TMC3     C 4108   0.485   3.646   0.366 -0.0212 -0.2161 -0.4085
  268TMC3     O 4109   0.401   3.661   0.277  0.3387 -0.3828 -0.3900
  268TMC3     H 4110   0.576   3.590   0.136 -1.8598 -0.2539  1.5301
  268TMC3    H1 4111   0.651   3.535   0.544 -1.1278 -0.5610 -0.8497
  268TMC3    H2 4112   0.984   3.523   0.282 -0.5414 -0.0934 -1.1659
  268TMC3    C7 4113   0.904   3.494   0.526  0.2698 -0.4604 -0.5779
  268TMC3    C8 4114   0.848   3.631   0.082  0.5602  0.2473  0.0988
  268TMC3    O1 4115   0.996   3.421   0.489 -0.0759 -0.3856  0.5109
  268TMC3    O2 4116   0.964   3.672   0.100 -0.1925  0.1608 -0.5528
  269MPD2     C 4117   0.951   2.894  15.421 -0.5712 -0.6340  0.7949
  269MPD2    C1 4118   0.918   2.915  15.551  0.1584 -0.2597 -0.1599
  269MPD2    C2 4119   0.894   3.038  15.599  0.3999  0.1193 -1.2634
  269MPD2    C3 4120   0.917   3.148  15.519 -0.2498  0.3351  0.7120
  269MPD2    C4 4121   0.940   3.125  15.387  0.1957 -0.7797  0.3380
  269MPD2    C5 4122   0.962   3.000  15.344  0.6591  0.0044 -0.5522
  269MPD2     H 4123   0.859   3.055  15.700  2.0712 -1.2814 -0.4244
  269MPD2    H1 4124   0.948   3.205  15.314  0.7360  0.3743  1.6733
  269MPD2    H2 4125   0.967   2.794  15.385  0.1889 -0.4021  0.4902
  269MPD2    H3 4126   0.984   2.981  15.240 -0.1224  2.9708 -1.2409
  269MPD2     N 4127   0.892   3.276  15.580 -0.0745  0.0481  0.1864
  269MPD2    H5 4128   0.861   3.271  15.676  1.3361 -0.8354  0.6031
  269MPD2    N1 4129   0.882   2.795  15.615  0.3108 -0.5436 -0.0023
  269MPD2    H7 4130   0.888   2.712  15.557 -1.9097  0.9199 -2.3683
  270TMC3    C1 4131   0.806   2.641  15.766  0.6282  0.2600  0.9450
  270TMC3    C2 4132   0.683   2.603  15.718  0.8956  0.2556 -0.3632
  270TMC3    C3 4133   0.680   2.476  15.668 -0.4750 -0.2735 -0.4696
  270TMC3    C4 4134   0.913   2.560  15.779  0.1500 -0.1316  0.3979
  270TMC3    C5 4135   0.904   2.432  15.734  0.5791 -0.4998  0.9485
  270TMC3    C6 4136   0.786   2.391  15.680 -0.5780  0.3177  0.1809
  270TMC3     C 4137   0.838   2.780  15.744  0.3919  0.0560 -0.1146
  270TMC3     O 4138   0.817   2.861  15.830 -0.5334 -0.3007 -0.3583
  270TMC3     H 4139   0.607   2.674  15.685  0.3256 -0.8083 -1.3278
  270TMC3    H1 4140   1.003   2.604  15.822  0.4246  0.1830 -0.4972
  270TMC3    H2 4141   0.769   2.288  15.651  2.0839 -0.0648 -0.0127
  270TMC3    C7 4142   1.011   2.338  15.752 -0.0133  0.7351 -0.1781
  270TMC3    C8 4143   0.571   2.453  15.575 -0.4003  0.1217  0.6968
  270TMC3    O1 4144   1.091   2.363  15.841  0.0016  0.0778  0.1606
  270TMC3    O2 4145   0.463   2.495  15.610  0.6548  0.6170 -0.1172
  271MPD2     C 4146   4.677   2.777  13.988 -0.1864  0.2988 -0.1123
  271MPD2    C1 4147   4.632   2.646  14.001 -0.5507 -0.3195 -0.1422
  271MPD2    C2 4148   4.493   2.634  13.997 -0.1634 -0.6447 -0.1410
  271MPD2    C3 4149   4.403   2.741  13.962  0.0273 -0.5523 -0.0330
  271MPD2    C4 4150   4.460   2.862  13.947 -0.1535 -0.2221  0.4154
  271MPD2    C5 4151   4.592   2.885  13.983  0.1495 -0.7645 -0.7789
  271MPD2     H 4152   4.458   2.535  14.022 -0.2963 -1.0499 -1.8945
  271MPD2    H1 4153   4.401   2.948  13.918  1.0795 -0.5250 -2.9986
  271MPD2    H2 4154   0.047   2.802  13.995 -0.1834  0.3049 -0.1835
  271MPD2    H3 4155   4.633   2.986  13.981  0.0022 -0.7006 -0.4753
  271MPD2     N 4156   4.264   2.717  13.938  0.3238  0.1417 -0.0600
  271MPD2    H5 4157   4.206   2.797  13.912  1.3588  0.3684 -1.6822
  271MPD2    N1 4158   4.710   2.534  14.030  0.1765 -0.2176 -0.6345
  271MPD2    H7 4159   4.662   2.446  14.050  1.8072 -0.7517  0.9394
  272TMC3    C1 4160   0.148   2.423  14.131  0.2257 -0.1544  0.0651
  272TMC3    C2 4161   0.267   2.359  14.098  0.1384 -0.2445  0.2791
  272TMC3    C3 4162   0.312   2.265  14.185 -0.5326  0.7227 -0.3964
  272TMC3    C4 4163   0.087   2.412  14.250  0.9794  0.6637  0.8977
  272TMC3    C5 4164   0.147   2.325  14.347  0.0358 -0.1432  0.3900
  272TMC3    C6 4165   0.259   2.250  14.311  0.3471 -0.6628 -0.3570
  272TMC3     C 4166   0.111   2.535  14.053  0.8005 -0.1131 -0.0869
  272TMC3     O 4167   0.192   2.616  14.020 -0.2983  0.5476  0.1294
  272TMC3     H 4168   0.305   2.370  13.997 -1.3891  1.5486 -0.0855
  272TMC3    H1 4169   0.018   2.489  14.283 -1.1217  0.4944 -3.1312
  272TMC3    H2 4170   0.291   2.175  14.382 -0.7131 -1.4032 -0.6765
  272TMC3    C7 4171   0.110   2.335  14.489  0.3764  0.1786  0.4538
  272TMC3    C8 4172   0.392   2.156  14.133 -0.6513  0.0107  0.0639
  272TMC3    O1 4173   0.002   2.388  14.496 -0.4968 -0.1104  0.3070
  272TMC3    O2 4174   0.415   2.156  14.013  0.5697  0.4546  0.4341
  273MPD2     C 4175   1.096   1.365  11.397 -0.8024  0.1651 -0.4704
  273MPD2    C1 4176   1.231   1.363  11.391 -0.3148 -0.1037 -0.4104
  273MPD2    C2 4177   1.294   1.347  11.266  0.0490  0.3903  0.4037
  273MPD2    C3 4178   1.219   1.336  11.152 -0.3429 -0.0004  0.3340
  273MPD2    C4 4179   1.083   1.322  11.169  0.1364 -0.4364  0.1255
  273MPD2    C5 4180   1.023   1.350  11.286 -0.1487  0.4748 -0.2750
  273MPD2     H 4181   1.402   1.341  11.269 -0.0723 -2.1566 -0.0718
  273MPD2    H1 4182   1.023   1.306  11.081  0.9449 -3.3567  0.1303
  273MPD2    H2 4183   1.046   1.364  11.493  0.4455 -1.4797  0.1569
  273MPD2    H3 4184   0.916   1.348  11.298 -0.0638  0.8822  0.5427
  273MPD2     N 4185   1.279   1.309  11.024 -0.2887 -0.2613 -0.8419
  273MPD2    H5 4186   1.223   1.293  10.941 -3.6667 -3.2342  1.9972
  273MPD2    N1 4187   1.296   1.389  11.514 -0.3440 -0.0785  0.3177
  273MPD2    H7 4188   1.230   1.392  11.590 -0.8042  0.6515 -0.1070
  274TMC3    C1 4189   1.450   1.255  10.869  0.9936 -0.4337 -0.0092
  274TMC3    C2 4190   1.369   1.299  10.766 -0.1996 -0.3269  0.5466
  274TMC3    C3 4191   1.417   1.363  10.657  0.3468  0.4999 -0.2991
  274TMC3    C4 4192   1.582   1.281  10.847 -0.2376  0.2757 -0.1382
  274TMC3    C5 4193   1.634   1.359  10.745  0.0588 -0.0307 -0.1542
  274TMC3    C6 4194   1.552   1.396  10.644  0.5202 -0.0952 -0.5047
  274TMC3     C 4195   1.411   1.303  10.999  0.0877  0.2250  0.0407
  274TMC3     O 4196   1.497   1.366  11.058  0.1910 -0.3126 -0.5230
  274TMC3     H 4197   1.263   1.276  10.770  0.2523 -2.1381  2.1890
  274TMC3    H1 4198   1.648   1.256  10.929 -1.9645 -1.9210  0.5613
  274TMC3    H2 4199   1.583   1.477  10.578 -1.0935 -0.0212 -1.1610
  274TMC3    C7 4200   1.720   1.469  10.782 -0.3831  0.0109 -0.5565
  274TMC3    C8 4201   1.319   1.428  10.562 -0.4133  0.4644  0.5203
  274TMC3    O1 4202   1.798   1.513  10.697 -0.3690 -0.4268 -0.0267
  274TMC3    O2 4203   1.210   1.375  10.552  0.0662  0.5195 -0.7061
  275MPD2     C 4204   1.616   3.485  14.494 -0.9248 -0.0040 -0.1326
  275MPD2    C1 4205   1.615   3.347  14.505  0.3753  0.4536 -0.5484
  275MPD2    C2 4206   1.494   3.283  14.477  0.1398 -0.4557  0.3966
  275MPD2    C3 4207   1.387   3.348  14.424 -0.1333  0.0436 -0.0873
  275MPD2    C4 4208   1.397   3.480  14.389  0.8896  0.5475 -0.2511
  275MPD2    C5 4209   1.508   3.553  14.437 -0.2218  0.1186 -1.0610
  275MPD2     H 4210   1.496   3.176  14.495  0.5865 -0.2852  1.3609
  275MPD2    H1 4211   1.305   3.531  14.364  0.2619 -0.3611  0.2084
  275MPD2    H2 4212   1.694   3.558  14.513  0.0978 -1.7114  2.1266
  275MPD2    H3 4213   1.515   3.661  14.434 -1.1002  0.2073 -0.3119
  275MPD2     N 4214   1.263   3.285  14.407  0.2106 -0.3473  0.3459
  275MPD2    H5 4215   1.189   3.350  14.383  0.3809 -1.0377 -2.0365
  275MPD2    N1 4216   1.714   3.268  14.572  0.2552 -0.4718  0.2242
  275MPD2    H7 4217   1.688   3.172  14.593 -3.3699  0.1292 -1.4832
  276TMC3    C1 4218   1.910   3.229  14.706  0.2563 -0.4687 -0.7644
  276TMC3    C2 4219   1.840   3.136  14.779 -0.2848  0.6458  0.8298
  276TMC3    C3 4220   1.888   3.107  14.905  0.8942 -0.0416  0.2416
  276TMC3    C4 4221   2.033   3.270  14.743  0.7695  0.5187  0.4370
  276TMC3    C5 4222   2.084   3.228  14.865  0.5205  0.3979 -0.2708
  276TMC3    C6 4223   2.010   3.146  14.949  0.3129 -0.5994 -0.2339
  276TMC3     C 4224   1.834   3.309  14.610 -0.5561 -1.0515  0.0357
  276TMC3     O 4225   1.894   3.407  14.578  0.4237  0.1346  0.0100
  276TMC3     H 4226   1.742   3.100  14.749 -0.2917  0.6463  0.8520
  276TMC3    H1 4227   2.077   3.336  14.669  0.8720  0.5316  0.5089
  276TMC3    H2 4228   2.049   3.113  15.045 -1.7737 -1.4593  0.3135
  276TMC3    C7 4229   2.196   3.294  14.923  0.2124  0.0333 -0.0034
  276TMC3    C8 4230   1.815   3.021  14.996 -0.0955 -0.2659  0.1843
  276TMC3    O1 4231   2.225   3.257  15.040 -0.4599 -0.1811 -0.2981
  276TMC3    O2 4232   1.832   3.038  15.115  0.1511  0.2131 -0.3745
  277MPD2     C 4233   3.155   2.762  13.338  0.2993 -0.2405  0.5382
  277MPD2    C1 4234   3.016   2.747  13.345 -0.5406  0.2644  0.3983
  277MPD2    C2 4235   2.960   2.696  13.459  0.3746 -0.2470  0.5625
  277MPD2    C3 4236   3.048   2.662  13.561 -0.2499  0.0206  0.4613
  277MPD2    C4 4237   3.185   2.666  13.548 -0.0372  0.0804  0.0478
  277MPD2    C5 4238   3.238   2.719  13.437 -0.5842  0.4702 -0.1150
  277MPD2     H 4239   2.853   2.686  13.477  0.1606  0.5733 -0.2713
  277MPD2    H1 4240   3.250   2.630  13.627 -1.2046  0.7449  1.2950
  277MPD2    H2 4241   3.207   2.800  13.251  1.0083  1.4447  1.7062
  277MPD2    H3 4242   3.345   2.726  13.419 -0.4953  0.4380  0.4254
  277MPD2     N 4243   2.995   2.612  13.682  0.1982 -0.4503 -1.1345
  277MPD2    H5 4244   2.895   2.620  13.697  0.2608 -0.6616 -0.5957
  277MPD2    N1 4245   2.945   2.800  13.232 -0.6722  0.9715 -0.1907
  277MPD2    H7 4246   2.999   2.854  13.164  0.0819 -1.7962 -1.7921
  278TMC3    C1 4247   2.973   2.495  13.874 -0.1528 -0.0708  0.1594
  278TMC3    C2 4248   2.979   2.367  13.908  0.3459  0.0060  0.6135
  278TMC3    C3 4249   2.868   2.305  13.959  0.0474 -0.4259 -0.4378
  278TMC3    C4 4250   2.852   2.554  13.878 -0.4796  0.6626 -0.8971
  278TMC3    C5 4251   2.738   2.490  13.918  1.0908  0.1509 -0.0664
  278TMC3    C6 4252   2.746   2.363  13.968 -0.6102  0.0845 -0.6935
  278TMC3     C 4253   3.060   2.539  13.774  0.4747 -0.3280  0.4430
  278TMC3     O 4254   3.171   2.483  13.769 -0.2445  0.0525  0.2618
  278TMC3     H 4255   3.072   2.312  13.909 -0.7881 -1.9363 -0.5850
  278TMC3    H1 4256   2.844   2.656  13.841 -1.8963  0.3929 -1.3463
  278TMC3    H2 4257   2.657   2.305  13.992 -0.8678  1.3565  1.4491
  278TMC3    C7 4258   2.618   2.520  13.838 -0.0336  0.0591 -0.0192
  278TMC3    C8 4259   2.885   2.168  13.982  1.1041  0.0696  0.2156
  278TMC3    O1 4260   2.653   2.558  13.727  0.1952  0.3853 -0.0046
  278TMC3    O2 4261   2.996   2.128  14.015  0.7057 -0.2834  0.1661
  279MPD2     C 4262   2.584   1.799   0.188 -0.4077  0.1005  0.5424
  279MPD2    C1 4263   2.580   1.926   0.239  0.0889 -0.0362  0.2920
  279MPD2    C2 4264   2.607   2.035   0.159  0.9639 -0.5507 -0.9692
  279MPD2    C3 4265   2.618   2.016   0.025 -0.0310 -0.2084 -0.9367
  279MPD2    C4 4266   2.634   1.888  17.715  0.3580  0.4123 -0.1696
  279MPD2    C5 4267   2.623   1.780   0.056 -0.0423 -0.3528 -0.4607
  279MPD2     H 4268   2.605   2.136   0.198  0.4849 -1.5941  1.7579
  279MPD2    H1 4269   2.659   1.864  17.612  1.0343  0.0154  0.0959
  279MPD2    H2 4270   2.568   1.712   0.251 -0.6994 -1.5468 -1.7563
  279MPD2    H3 4271   2.642   1.678   0.025 -0.3794 -0.6310  0.2468
  279MPD2     N 4272   2.634   2.125  17.673 -0.0052  0.3142  0.3655
  279MPD2    H5 4273   2.634   2.109  17.572 -3.4769 -0.0266  0.4268
  279MPD2    N1 4274   2.526   1.944   0.373 -0.0514  0.2915  0.4164
  279MPD2    H7 4275   2.507   1.874   0.444 -2.3759 -0.0846 -0.5634
  280TMC3    C1 4276   2.395   2.073   0.518 -0.0085 -0.5847 -0.5295
  280TMC3    C2 4277   2.302   1.973   0.493  0.1121 -0.1881  0.1234
  280TMC3    C3 4278   2.172   2.006   0.532  0.0457  0.2528 -0.4458
  280TMC3    C4 4279   2.361   2.195   0.569 -0.7437 -0.1312 -0.2479
  280TMC3    C5 4280   2.233   2.213   0.614  1.0298  0.2329 -0.7498
  280TMC3    C6 4281   2.138   2.122   0.591 -0.4150 -0.0402  0.6780
  280TMC3     C 4282   2.513   2.066   0.428  0.0298  0.2919  0.6531
  280TMC3     O 4283   2.595   2.159   0.432 -0.5943  0.3496 -0.0279
  280TMC3     H 4284   2.323   1.874   0.455  1.2527  0.5376 -1.1146
  280TMC3    H1 4285   2.429   2.280   0.574 -0.4971 -0.2676 -1.3771
  280TMC3    H2 4286   2.038   2.127   0.634 -1.3073  0.3232 -1.3821
  280TMC3    C7 4287   2.198   2.349   0.642  0.4043  0.0788  0.0730
  280TMC3    C8 4288   2.060   1.910   0.496 -0.3180 -0.4486  0.3313
  280TMC3    O1 4289   2.247   2.393   0.743 -0.1577 -0.3341  0.4589
  280TMC3    O2 4290   1.960   1.912   0.566 -0.4516  0.3824  0.3971
  281TMC3    C1 4291   1.272   3.104  13.488 -0.4641  0.0504  0.1499
  281TMC3    C2 4292   1.325   3.196  13.402  0.8841 -0.8378 -0.3535
  281TMC3    C3 4293   1.365   3.159  13.277  0.3266 -0.1473  0.6335
  281TMC3    C4 4294   1.273   2.974  13.453 -0.4755 -1.1356  0.2257
  281TMC3    C5 4295   1.329   2.935  13.336  0.4997  0.4649  0.4256
  281TMC3    C6 4296   1.371   3.022  13.243  0.4038 -0.3929  0.1419
  281TMC3     C 4297   1.164   3.139  13.573 -0.4650  0.1602  0.3160
  281TMC3     O 4298   1.140   3.061  13.664 -0.4632  0.5455 -0.8542
  281TMC3     H 4299   1.326   3.299  13.435  0.8509 -0.9493 -0.0023
  281TMC3    H1 4300   1.234   2.896  13.517 -0.5000 -0.4696  1.0121
  281TMC3    H2 4301   1.407   2.994  13.145 -0.3080  1.5848 -0.6717
  281TMC3    C7 4302   1.299   2.797  13.288  0.3978  0.2888 -0.5573
  281TMC3    C8 4303   1.467   3.236  13.212 -0.4578 -0.1461 -0.8200
  281TMC3    O1 4304   1.227   2.733  13.364 -0.1011 -0.7092 -0.1134
  281TMC3    O2 4305   1.561   3.169  13.170 -0.7254  0.2335 -0.4244
  282MPD2     C 4306   2.880   3.957  14.882 -0.0117  0.3832  0.6472
  282MPD2    C1 4307   2.754   3.992  14.917 -0.5491 -0.5027 -0.7320
  282MPD2    C2 4308   2.663   4.005  14.816  1.0386  0.0666 -0.0485
  282MPD2    C3 4309   2.696   3.977  14.685  0.0704  1.2586 -0.7367
  282MPD2    C4 4310   2.820   3.946  14.649  0.0221  0.8526 -0.3649
  282MPD2    C5 4311   2.917   3.934  14.749 -0.3231  0.1928 -0.3125
  282MPD2     H 4312   2.561   4.031  14.842  1.1729 -0.5172  1.0751
  282MPD2    H1 4313   2.849   3.933  14.545  0.0116  0.5914 -0.3367
  282MPD2    H2 4314   2.958   3.950  14.957  1.2759  0.3536 -0.6953
  282MPD2    H3 4315   3.023   3.927  14.725  0.0872  0.4561  1.4230
  282MPD2     N 4316   2.595   4.000  14.586 -0.6325  0.5916 -0.1814
  282MPD2    H5 4317   2.503   4.022  14.622 -0.2241 -1.5195  2.1439
  282MPD2    N1 4318   2.719   4.014  15.046  0.3651 -0.1434 -0.2748
  282MPD2    H7 4319   2.618   4.006  15.059  0.4497  0.5825  0.9484
  283TMC3    C1 4320   2.728   4.087  15.274  0.0378 -0.2004 -0.4002
  283TMC3    C2 4321   2.626   4.171  15.248  1.0404  1.0278  0.6218
  283TMC3    C3 4322   2.548   4.213  15.357 -0.1051  0.1929 -0.4751
  283TMC3    C4 4323   2.765   4.054  15.403 -0.1887 -0.1249  0.3142
  283TMC3    C5 4324   2.665   4.078  15.504 -0.3397 -0.0086 -0.1007
  283TMC3    C6 4325   2.563   4.160  15.480 -0.2555  0.0864 -0.4966
  283TMC3     C 4326   2.798   4.044  15.153 -0.4665 -0.0990  0.0984
  283TMC3     O 4327   2.918   4.042  15.166 -0.1465 -0.2079  0.5951
  283TMC3     H 4328   2.604   4.203  15.147  2.3612 -1.2570 -0.3974
  283TMC3    H1 4329   2.850   3.990  15.424 -0.7330 -0.3081  2.0091
  283TMC3    H2 4330   2.487   4.180  15.555  1.1351 -2.5605  1.5998
  283TMC3    C7 4331   2.653   4.003  15.625 -0.4404 -0.3085  0.0323
  283TMC3    C8 4332   2.470   4.333  15.349  0.1537 -0.0959  0.6950
  283TMC3    O1 4333   2.565   4.039  15.707  0.3414  0.2911 -0.0780
  283TMC3    O2 4334   2.370   4.355  15.422 -1.0382  0.1709  0.6660
  284MPD2     C 4335   1.000   4.257  12.408 -1.2985 -0.5825 -0.1248
  284MPD2    C1 4336   0.997   4.147  12.333 -0.5264 -0.5100  0.1587
  284MPD2    C2 4337   1.088   4.048  12.363 -0.2716 -0.5863  0.2107
  284MPD2    C3 4338   1.176   4.054  12.465 -0.3717 -0.0031  0.7199
  284MPD2    C4 4339   1.170   4.166  12.546  0.5871  0.3274  0.5657
  284MPD2    C5 4340   1.089   4.273  12.514 -0.5406 -0.0008 -0.0709
  284MPD2     H 4341   1.089   3.965  12.293 -1.2279 -0.5364  0.1332
  284MPD2    H1 4342   1.226   4.173  12.638 -0.7346  0.8383  1.3421
  284MPD2    H2 4343   0.934   4.342  12.394 -1.1898 -0.2205  1.5575
  284MPD2    H3 4344   1.084   4.358  12.580  2.5819  0.9393 -1.0246
  284MPD2     N 4345   1.273   3.952  12.490  0.1638  0.1243 -1.1145
  284MPD2    H5 4346   1.357   3.980  12.539 -1.4693 -1.7149  2.7014
  284MPD2    N1 4347   0.914   4.145  12.213  0.0737  0.1350 -0.7122
  284MPD2    H7 4348   0.915   4.054  12.167  0.3353  0.2601 -0.9534
  285TMC3    C1 4349   0.778   4.221  12.031  0.2501 -0.1935 -1.1678
  285TMC3    C2 4350   0.798   4.101  11.970  0.8801 -0.0108 -0.0487
  285TMC3    C3 4351   0.716   4.069  11.861 -0.6392  0.3699  0.2686
  285TMC3    C4 4352   0.681   4.301  11.989 -1.0822 -0.0288 -0.4057
  285TMC3    C5 4353   0.597   4.278  11.879 -0.8708 -0.3152  0.0468
  285TMC3    C6 4354   0.612   4.152  11.825  0.8635  0.4272 -0.6861
  285TMC3     C 4355   0.839   4.246  12.157 -0.1890  0.2692  0.5384
  285TMC3     O 4356   0.815   4.355  12.205  0.1366  0.0361 -0.9100
  285TMC3     H 4357   0.878   4.032  11.995  0.0957 -1.3933 -1.3459
  285TMC3    H1 4358   0.684   4.399  12.037  1.5858  0.2894 -1.2179
  285TMC3    H2 4359   0.549   4.132  11.739 -1.0371 -2.0919  1.3101
  285TMC3    C7 4360   0.578   4.387  11.788 -0.0726  0.0853  0.5062
  285TMC3    C8 4361   0.773   3.975  11.767 -0.1454  0.2006 -0.7220
  285TMC3    O1 4362   0.645   4.487  11.801 -0.1922  0.0603 -0.7657
  285TMC3    O2 4363   0.864   3.902  11.807  0.0937 -0.4387  0.1518
  286MPD2     C 4364   1.538   2.465   1.799  0.2372 -0.5977 -0.8239
  286MPD2    C1 4365   1.502   2.410   1.681 -0.1652  0.0717 -0.0986
  286MPD2    C2 4366   1.592   2.326   1.612 -0.9185 -0.5689  1.1842
  286MPD2    C3 4367   1.712   2.298   1.676 -0.5212  0.8947  0.2862
  286MPD2    C4 4368   1.746   2.357   1.790  0.6345 -0.1354  0.4384
  286MPD2    C5 4369   1.660   2.440   1.858 -0.6918 -0.4538  0.7100
  286MPD2     H 4370   1.568   2.296   1.511  0.6520  0.7016  0.4361
  286MPD2    H1 4371   1.846   2.361   1.832  0.4797 -0.2601  0.8203
  286MPD2    H2 4372   1.472   2.533   1.850  0.0119 -1.2465 -0.2397
  286MPD2    H3 4373   1.682   2.476   1.958  0.0369  0.3326  0.2653
  286MPD2     N 4374   1.826   2.230   1.612  0.2902 -0.2562 -0.1917
  286MPD2    H5 4375   1.918   2.231   1.656  0.1472  0.6588  0.0939
  286MPD2    N1 4376   1.378   2.432   1.610 -0.8643  0.0309  0.3671
  286MPD2    H7 4377   1.365   2.397   1.516 -1.0772  0.9065  0.0731
  287TMC3    C1 4378   1.946   2.100   1.453  0.2438 -0.0266 -0.0492
  287TMC3    C2 4379   1.958   2.027   1.335 -0.5390 -0.7016 -0.2182
  287TMC3    C3 4380   2.050   1.930   1.314  0.3607  0.3155 -0.4893
  287TMC3    C4 4381   2.046   2.092   1.547 -0.0107  0.0421  0.0363
  287TMC3    C5 4382   2.151   2.000   1.517 -0.4148 -0.6108  0.0674
  287TMC3    C6 4383   2.146   1.912   1.413 -0.1905  0.1868 -0.3948
  287TMC3     C 4384   1.821   2.157   1.492 -0.6119 -0.2419 -0.2041
  287TMC3     O 4385   1.721   2.138   1.422  0.2559  0.0406 -0.0045
  287TMC3     H 4386   1.880   2.046   1.261 -0.0090  0.5980 -0.4396
  287TMC3    H1 4387   2.052   2.160   1.631  3.1747 -0.2161  0.0078
  287TMC3    H2 4388   2.206   1.822   1.417  0.7925  0.7430 -2.5393
  287TMC3    C7 4389   2.259   1.996   1.618  0.6033 -0.2738  0.7643
  287TMC3    C8 4390   2.025   1.828   1.219  0.0061 -0.0431  0.6033
  287TMC3    O1 4391   2.234   2.054   1.725 -0.2163  0.2256  0.1007
  287TMC3    O2 4392   1.909   1.830   1.182  0.3596 -0.1541  0.2372
  288TMC3    C1 4393   3.171   2.014  14.428  0.0161  0.2313 -0.3998
  288TMC3    C2 4394   3.196   1.952  14.547 -0.4090  0.2253 -0.0645
  288TMC3    C3 4395   3.101   1.865  14.595  0.1974  0.2857  0.2340
  288TMC3    C4 4396   3.047   2.017  14.375 -0.4921  0.2461  0.4705
  288TMC3    C5 4397   2.955   1.933  14.435  0.3552  0.1058 -0.9812
  288TMC3    C6 4398   2.978   1.848  14.540 -0.5428  0.3725 -0.7553
  288TMC3     C 4399   3.283   2.075  14.357  0.4147 -0.5018 -0.1771
  288TMC3     O 4400   3.383   2.098  14.420  0.5585 -0.3851  0.0047
  288TMC3     H 4401   3.298   1.943  14.583  0.0491 -0.3766 -1.4827
  288TMC3    H1 4402   3.031   2.067  14.280  1.3409 -0.6462 -0.3049
  288TMC3    H2 4403   2.915   1.767  14.576 -3.3169  1.7827 -2.3883
  288TMC3    C7 4404   2.819   1.940  14.388 -0.1134  0.1918  0.3381
  288TMC3    C8 4405   3.134   1.809  14.719 -0.3384  0.5245  0.8041
  288TMC3    O1 4406   2.746   1.844  14.404 -0.3978 -0.2127  0.0811
  288TMC3    O2 4407   3.203   1.865  14.803  0.1978 -0.6692  0.2722
  289MPD2     C 4408   3.492   1.503  14.178 -0.3344 -0.5755 -0.0880
  289MPD2    C1 4409   3.396   1.561  14.096 -0.2218  0.8938  0.5162
  289MPD2    C2 4410   3.272   1.498  14.084 -0.8042 -0.1972  0.8936
  289MPD2    C3 4411   3.249   1.379  14.158 -0.5188  0.1468  0.5445
  289MPD2    C4 4412   3.345   1.325  14.235  0.1970  0.6255 -0.0257
  289MPD2    C5 4413   3.466   1.386  14.240 -0.5153 -1.1342 -0.1375
  289MPD2     H 4414   3.202   1.535  14.010  0.7029  0.2523 -0.2858
  289MPD2    H1 4415   3.321   1.236  14.293 -0.4881  0.7325 -0.1513
  289MPD2    H2 4416   3.588   1.554  14.186 -0.2758 -0.7387  0.2305
  289MPD2    H3 4417   3.548   1.337  14.291 -0.5446 -2.5891 -1.4968
  289MPD2     N 4418   3.127   1.312  14.147  0.6681  0.0828 -0.0446
  289MPD2    H5 4419   3.125   1.216  14.180 -1.7412  0.9853  2.4361
  289MPD2    N1 4420   3.418   1.690  14.033  0.6224  0.2970 -0.2524
  289MPD2    H7 4421   3.516   1.704  14.010  1.2253 -0.1586  2.0400
  290TMC3    C1 4422   2.901   1.274  14.117 -0.7279  0.1147  0.0617
  290TMC3    C2 4423   2.780   1.337  14.115  0.5359  0.1614 -0.5335
  290TMC3    C3 4424   2.678   1.291  14.033 -0.1154 -0.1609  0.1434
  290TMC3    C4 4425   2.921   1.170  14.033 -0.4545 -0.2312 -0.6478
  290TMC3    C5 4426   2.817   1.121  13.956 -0.5634  0.0011  0.3425
  290TMC3    C6 4427   2.691   1.182  13.957 -0.0692  0.2029 -0.0011
  290TMC3     C 4428   3.005   1.370  14.128  0.5245  0.2687 -0.3356
  290TMC3     O 4429   2.982   1.489  14.119 -0.2841  0.4681  0.7816
  290TMC3     H 4430   2.766   1.430  14.170  1.7836  0.9435 -1.5109
  290TMC3    H1 4431   3.018   1.122  14.027 -1.0368 -1.6012  0.9844
  290TMC3    H2 4432   2.608   1.127  13.913 -0.6850  0.6536  0.5826
  290TMC3    C7 4433   2.834   1.008  13.868  0.0058 -0.2186  0.1912
  290TMC3    C8 4434   2.542   1.348  14.035 -0.1003 -0.6842 -0.0012
  290TMC3    O1 4435   2.941   0.955  13.883 -0.2179  0.3227  0.1571
  290TMC3    O2 4436   2.460   1.287  13.965 -0.0430 -0.7197  0.4090
  291MPD2     C 4437   2.925   0.706   0.342 -0.2810  0.0645 -0.6362
  291MPD2    C1 4438   2.853   0.652   0.237  0.6024 -0.5560 -0.3025
  291MPD2    C2 4439   2.910   0.658   0.110 -0.0813 -0.5910 -0.0312
  291MPD2    C3 4440   3.027   0.725   0.093 -0.3743  0.2432 -0.4494
  291MPD2    C4 4441   3.094   0.788   0.193  0.0643  0.1886 -0.1822
  291MPD2    C5 4442   3.042   0.773   0.323  0.3961 -0.6467 -0.5739
  291MPD2     H 4443   2.860   0.610   0.026 -2.7753  1.6771  0.2571
  291MPD2    H1 4444   3.182   0.842   0.161  1.1681 -0.9090  0.9881
  291MPD2    H2 4445   2.881   0.722   0.440 -0.5987 -0.4434 -0.6995
  291MPD2    H3 4446   3.087   0.815   0.412 -0.8478 -1.4022  0.4169
  291MPD2     N 4447   3.085   0.745  17.707  0.2134  0.1585  0.1023
  291MPD2    H5 4448   3.174   0.794  17.708  0.6653 -0.6341 -1.2175
  291MPD2    N1 4449   2.720   0.597   0.252  0.7677 -0.0557  0.0729
  291MPD2    H7 4450   2.694   0.538   0.174 -0.5029 -0.0624  0.5076
  292TMC3    C1 4451   2.512   0.510   0.344  0.1006 -0.0688 -0.2324
  292TMC3    C2 4452   2.411   0.533   0.432  0.7061 -0.4948 -0.4940
  292TMC3    C3 4453   2.300   0.454   0.438  0.5634 -0.0927  0.2335
  292TMC3    C4 4454   2.504   0.410   0.254 -0.4295  0.6490  0.1726
  292TMC3    C5 4455   2.389   0.331   0.269  0.0576 -0.1147 -0.1890
  292TMC3    C6 4456   2.289   0.348   0.358 -0.4711  0.8954  0.8782
  292TMC3     C 4457   2.630   0.599   0.358 -0.0044 -0.2371  0.0519
  292TMC3     O 4458   2.631   0.683   0.447 -0.1296 -0.0077  0.1400
  292TMC3     H 4459   2.418   0.620   0.496 -1.2556  0.8604 -2.1801
  292TMC3    H1 4460   2.581   0.390   0.181 -1.8605 -2.0671 -0.6150
  292TMC3    H2 4461   2.198   0.289   0.359 -0.8767  1.5225  0.7967
  292TMC3    C7 4462   2.377   0.218   0.179  0.0649  0.6355  0.8891
  292TMC3    C8 4463   2.192   0.490   0.529  0.4637  0.3374  0.0895
  292TMC3    O1 4464   2.485   0.180   0.134  0.4590  0.1241 -0.3180
  292TMC3    O2 4465   2.197   0.599   0.585 -0.3113 -0.6690  0.7975
  293MPD2     C 4466   4.113   2.878  12.618  0.2802 -0.1861  0.2986
  293MPD2    C1 4467   4.049   2.800  12.710  0.4258 -0.2653  0.1977
  293MPD2    C2 4468   4.125   2.756  12.820  0.3538  0.5712  0.6375
  293MPD2    C3 4469   4.255   2.793  12.842 -0.3380 -0.4584 -0.6829
  293MPD2    C4 4470   4.303   2.892  12.757  0.5338 -0.2440  0.0569
  293MPD2    C5 4471   4.234   2.932  12.645 -0.1768 -1.2187 -0.0530
  293MPD2     H 4472   4.089   2.677  12.885  1.5656  0.6460  1.3974
  293MPD2    H1 4473   4.393   2.950  12.776  0.3430 -0.3688  1.3106
  293MPD2    H2 4474   4.064   2.913  12.528  1.8640 -0.1946 -0.5597
  293MPD2    H3 4475   4.274   3.013  12.585 -0.4065 -2.3464 -1.7094
  293MPD2     N 4476   4.328   2.756  12.957  0.3762 -0.4092 -0.2944
  293MPD2    H5 4477   4.277   2.693  13.018 -0.8721  0.5830 -0.2925
  293MPD2    N1 4478   3.915   2.768  12.681 -0.3618 -0.9793  0.8405
  293MPD2    H7 4479   3.867   2.829  12.616 -1.4873 -0.1672  2.4425
  294TMC3    C1 4480   3.700   2.718  12.757  0.3386  0.1576  0.4564
  294TMC3    C2 4481   3.629   2.604  12.729 -0.3137 -0.7218  0.0374
  294TMC3    C3 4482   3.516   2.620  12.647 -0.4826 -1.2895  0.0449
  294TMC3    C4 4483   3.680   2.837  12.697 -0.3313  0.8787 -0.1748
  294TMC3    C5 4484   3.564   2.848  12.627 -0.4097 -0.1076 -0.1702
  294TMC3    C6 4485   3.483   2.740  12.596 -0.1463  0.2061 -0.3185
  294TMC3     C 4486   3.841   2.687  12.769  0.4378 -0.1272 -1.0248
  294TMC3     O 4487   3.878   2.601  12.844 -0.6103 -0.1980  0.2712
  294TMC3     H 4488   3.657   2.507  12.770 -0.5674 -0.3592  1.0564
  294TMC3    H1 4489   3.736   2.929  12.715 -0.6890  1.3764 -1.6235
  294TMC3    H2 4490   3.394   2.746  12.534 -1.1703 -0.6183  1.0601
  294TMC3    C7 4491   3.592   2.941  12.521  0.2531  0.7880 -0.1608
  294TMC3    C8 4492   3.430   2.515  12.605 -0.8224  0.8067 -0.1576
  294TMC3    O1 4493   3.705   2.986  12.503 -0.4871  0.2085 -0.2104
  294TMC3    O2 4494   3.307   2.533  12.590  0.4975 -0.3062  0.0577
  295MPD2     C 4495   4.377   0.971   1.077  0.6313 -0.0875 -0.1289
  295MPD2    C1 4496   4.379   1.087   1.001 -0.5073  0.2476 -0.2982
  295MPD2    C2 4497   4.365   1.209   1.070 -0.1896 -0.0765 -0.1765
  295MPD2    C3 4498   4.340   1.213   1.207 -0.5705  0.1891 -0.4599
  295MPD2    C4 4499   4.341   1.100   1.282  0.0408  0.0062  0.9021
  295MPD2    C5 4500   4.347   0.984   1.217 -0.4785 -0.0830 -0.1261
  295MPD2     H 4501   4.383   1.307   1.027 -1.8158 -0.3528 -1.4611
  295MPD2    H1 4502   4.325   1.095   1.389 -1.5550 -0.7052  0.6399
  295MPD2    H2 4503   4.378   0.877   1.023  0.5464 -0.9492  1.3739
  295MPD2    H3 4504   4.331   0.892   1.273 -2.2692  1.1820  1.4354
  295MPD2     N 4505   4.319   1.335   1.286  0.5898  0.2046 -0.2632
  295MPD2    H5 4506   4.313   1.321   1.386  0.4664  0.6654 -0.2033
  295MPD2    N1 4507   4.423   1.094   0.863 -0.4274  0.8610 -0.5045
  295MPD2    H7 4508   4.419   1.184   0.816  1.3042  1.9604  1.4844
  296TMC3    C1 4509   4.286   1.548   1.360  0.1900 -0.0446 -0.0631
  296TMC3    C2 4510   4.331   1.674   1.362  0.4932  0.8440  0.8062
  296TMC3    C3 4511   4.264   1.773   1.433 -0.2009 -0.5325  1.0459
  296TMC3    C4 4512   4.184   1.508   1.440  0.1465  0.4112  0.1903
  296TMC3    C5 4513   4.130   1.604   1.517 -0.1938  1.0486 -0.0226
  296TMC3    C6 4514   4.159   1.740   1.518  0.1556 -0.5382  0.2167
  296TMC3     C 4515   4.319   1.467   1.243  0.1794  0.7466 -0.2286
  296TMC3     O 4516   4.349   1.525   1.139 -0.2790  0.0078  0.4793
  296TMC3     H 4517   4.408   1.703   1.291 -0.2425  0.1217 -0.2973
  296TMC3    H1 4518   4.118   1.424   1.424  1.4501 -0.2727 -1.7653
  296TMC3    H2 4519   4.102   1.819   1.566  0.8931  1.1332 -1.6120
  296TMC3    C7 4520   4.011   1.568   1.587  0.7356  0.0804 -0.0469
  296TMC3    C8 4521   4.329   1.911   1.444 -0.3769  0.6231 -0.1538
  296TMC3    O1 4522   3.939   1.659   1.612 -0.0821  0.3438 -0.7447
  296TMC3    O2 4523   4.433   1.921   1.380  0.7528  0.1041  0.5045
  297MPD2     C 4524   2.565   2.792  16.558 -0.5777  0.4136 -0.1730
  297MPD2    C1 4525   2.529   2.852  16.447  0.6803 -0.2562 -0.1540
  297MPD2    C2 4526   2.569   2.981  16.430  0.0804  0.2054 -0.1002
  297MPD2    C3 4527   2.652   3.047  16.520  0.0544 -0.0200  0.2838
  297MPD2    C4 4528   2.682   2.986  16.641  1.0170  0.3392 -0.0555
  297MPD2    C5 4529   2.632   2.855  16.662  0.7460 -0.0561 -0.4671
  297MPD2     H 4530   2.545   3.028  16.335  2.9836  2.4771  0.2644
  297MPD2    H1 4531   2.733   3.042  16.719  1.3474  0.8916 -0.6708
  297MPD2    H2 4532   2.536   2.690  16.583  1.5998  0.1571  1.3246
  297MPD2    H3 4533   2.655   2.794  16.749 -3.2474 -1.8360 -0.6560
  297MPD2     N 4534   2.693   3.180  16.488 -0.0117 -0.4104 -0.7621
  297MPD2    H5 4535   2.663   3.221  16.400  0.0851  0.1198 -0.5466
  297MPD2    N1 4536   2.456   2.779  16.354  0.5363 -0.5729  1.0019
  297MPD2    H7 4537   2.412   2.696  16.393 -0.7959  0.3148  1.3935
  298TMC3    C1 4538   2.316   2.745  16.171 -0.0183  0.0546  0.3519
  298TMC3    C2 4539   2.300   2.739  16.034  0.1920  0.5169 -0.3903
  298TMC3    C3 4540   2.182   2.696  15.983  0.2859  0.0416  0.8572
  298TMC3    C4 4541   2.202   2.722  16.252  0.2965 -0.1303  0.1880
  298TMC3    C5 4542   2.082   2.696  16.193 -0.0388 -0.1053 -0.0550
  298TMC3    C6 4543   2.070   2.678  16.055 -0.1902  0.0534  0.6511
  298TMC3     C 4544   2.423   2.820  16.223  0.3574  0.4444 -0.0357
  298TMC3     O 4545   2.480   2.903  16.152  0.0650  0.1207 -0.5585
  298TMC3     H 4546   2.386   2.759  15.972  0.3308  0.9610 -0.0603
  298TMC3    H1 4547   2.204   2.759  16.354 -1.0906 -1.0763  0.5569
  298TMC3    H2 4548   1.976   2.658  16.005  0.0560  0.3818  0.0539
  298TMC3    C7 4549   1.960   2.736  16.261  0.5362 -0.3418  0.0080
  298TMC3    C8 4550   2.164   2.691  15.839  0.0282 -0.3397 -0.2433
  298TMC3    O1 4551   1.967   2.786  16.374 -0.4702 -0.5331  0.4907
  298TMC3    O2 4552   2.061   2.726  15.784  0.3657  0.2636 -0.2065
  299MPD2     C 4553   2.417   3.496  10.797 -0.1040  0.2851 -0.2564
  299MPD2    C1 4554   2.435   3.577  10.690  0.4024 -0.0690  0.0035
  299MPD2    C2 4555   2.327   3.621  10.614  0.2551  0.4274  0.4030
  299MPD2    C3 4556   2.201   3.594  10.662  0.2227 -0.1165 -0.5524
  299MPD2    C4 4557   2.183   3.522  10.779  0.2714 -0.4772  1.3041
  299MPD2    C5 4558   2.291   3.467  10.844  0.2837  0.2772 -0.0820
  299MPD2     H 4559   2.338   3.681  10.524  0.2012  0.7253  0.5944
  299MPD2    H1 4560   2.083   3.509  10.820 -0.7745  1.9753 -0.4377
  299MPD2    H2 4561   2.507   3.470  10.853  1.0407 -0.6135 -2.5087
  299MPD2    H3 4562   2.278   3.410  10.935  0.3935  0.8001  0.2569
  299MPD2     N 4563   2.080   3.631  10.598 -0.5370 -0.5632  0.0738
  299MPD2    H5 4564   1.998   3.622  10.657 -1.4090  2.2951 -0.7037
  299MPD2    N1 4565   2.566   3.583  10.644  0.8717 -0.3007 -0.7302
  299MPD2    H7 4566   2.642   3.536  10.692  0.4438  0.0668  0.3134
  300TMC3    C1 4567   1.930   3.705  10.442 -0.1855  0.3429 -0.0875
  300TMC3    C2 4568   1.907   3.715  10.309 -0.0659  0.3042 -0.0532
  300TMC3    C3 4569   1.796   3.785  10.270  0.1541  0.7597 -0.1196
  300TMC3    C4 4570   1.839   3.749  10.538 -0.2562  0.3643  0.0054
  300TMC3    C5 4571   1.732   3.819  10.488 -0.7920  0.4485 -0.3922
  300TMC3    C6 4572   1.707   3.838  10.359  0.2749 -0.0973 -0.1572
  300TMC3     C 4573   2.068   3.682  10.476  0.1304  0.1500 -0.0593
  300TMC3     O 4574   2.156   3.701  10.393  0.0800 -0.2363  0.7869
  300TMC3     H 4575   1.975   3.672  10.236  0.2643  0.6485  0.0527
  300TMC3    H1 4576   1.883   3.777  10.633 -2.0663  0.4355  0.8120
  300TMC3    H2 4577   1.630   3.910  10.334 -0.7551 -1.2440 -0.2791
  300TMC3    C7 4578   1.683   3.921  10.572 -0.1186 -0.3247 -0.3749
  300TMC3    C8 4579   1.782   3.825  10.133  0.2702 -0.1400  0.0912
  300TMC3    O1 4580   1.642   4.029  10.527 -0.4789 -0.6586 -0.0477
  300TMC3    O2 4581   1.815   3.749  10.044 -0.4230  0.3758  0.3875
  301MPD2     C 4582   4.152   4.448   1.371  0.0105  0.4847 -0.3359
  301MPD2    C1 4583   4.148   4.422   1.237 -0.0024 -0.7053 -0.7199
  301MPD2    C2 4584   4.214   4.315   1.185  0.0115 -0.8578  0.0228
  301MPD2    C3 4585   4.290   4.239   1.270  0.0148 -0.1650  0.0681
  301MPD2    C4 4586   4.279   4.262   1.406 -0.6814  0.4816  0.0281
  301MPD2    C5 4587   4.211   4.362   1.456  0.1940 -0.2536  0.2625
  301MPD2     H 4588   4.210   4.291   1.079  1.2984 -1.5684  0.1287
  301MPD2    H1 4589   4.341   4.200   1.470 -0.4825  0.7397  0.0795
  301MPD2    H2 4590   4.096   4.531   1.412  2.5237  1.6929  0.6455
  301MPD2    H3 4591   4.206   4.374   1.564  0.0865  0.9498  0.1249
  301MPD2     N 4592   4.374   4.136   1.234  0.3582 -0.3278 -0.2433
  301MPD2    H5 4593   4.417   4.082   1.309  0.3062  1.2595  0.9434
  301MPD2    N1 4594   4.084   4.506   1.138  0.6722 -0.1073  0.2198
  301MPD2    H7 4595   4.094   4.469   1.044 -0.1501 -0.2549  0.1994
  302TMC3    C1 4596   4.524   4.016   1.088 -0.2035 -0.2107  0.5741
  302TMC3    C2 4597   4.602   3.977   1.190 -0.2761  0.4208  0.1680
  302TMC3    C3 4598   4.701   3.886   1.167 -0.0487 -0.2233 -0.4363
  302TMC3    C4 4599   4.545   3.973   0.960 -0.3047 -0.2380 -0.1241
  302TMC3    C5 4600   4.638   3.875   0.938  0.0293  0.0470 -0.1493
  302TMC3    C6 4601   4.720   3.832   1.042 -0.5936  1.1698 -0.0606
  302TMC3     C 4602   4.407   4.102   1.109 -0.4202  0.1883 -0.6566
  302TMC3     O 4603   4.355   4.146   1.005  1.1877  0.1321  0.0364
  302TMC3     H 4604   4.583   4.018   1.289  1.3841 -0.1326  0.7188
  302TMC3    H1 4605   4.487   4.023   0.883  1.7222  1.5501 -0.5192
  302TMC3    H2 4606   0.060   3.756   1.020 -1.6277  0.6172 -1.7166
  302TMC3    C7 4607   4.671   3.831   0.802 -0.4562  0.2771 -0.4421
  302TMC3    C8 4608   0.036   3.814   1.272 -0.2784  0.4025  0.1769
  302TMC3    O1 4609   0.017   3.740   0.791 -0.0366  0.1344  0.0096
  302TMC3    O2 4610   0.126   3.740   1.233 -0.3200 -0.4752 -0.4950
  303MPD2     C 4611   0.342   3.386  10.606 -0.5662  0.1196 -0.0714
  303MPD2    C1 4612   0.344   3.250  10.637 -0.4399  0.4132 -0.4483
  303MPD2    C2 4613   0.387   3.168  10.541 -0.3773  0.1016 -0.8533
  303MPD2    C3 4614   0.434   3.213  10.418 -0.3439  0.3358  0.1869
  303MPD2    C4 4615   0.440   3.349  10.397 -0.3638 -0.3893 -0.1008
  303MPD2    C5 4616   0.386   3.438  10.488 -0.4248 -0.4819 -1.2849
  303MPD2     H 4617   0.385   3.063  10.568  3.6865  0.4106  0.6601
  303MPD2    H1 4618   0.475   3.399  10.308  2.3274 -0.1180  1.1155
  303MPD2    H2 4619   0.303   3.465  10.671 -0.9250 -0.3512  0.2838
  303MPD2    H3 4620   0.402   3.542  10.462  1.3271 -0.3179  0.4590
  303MPD2     N 4621   0.467   3.122  10.316 -0.3196  0.7254  0.0535
  303MPD2    H5 4622   0.517   3.149  10.232  1.5641 -2.1153  0.2722
  303MPD2    N1 4623   0.279   3.217  10.750 -0.1374 -0.0373  0.1564
  303MPD2    H7 4624   0.229   3.291  10.799  0.2200  0.4448 -0.2176
  304TMC3    C1 4625   0.166   3.068  10.906 -0.0835  0.4695  0.6865
  304TMC3    C2 4626   0.046   3.126  10.884  0.7687  0.2955 -0.0044
  304TMC3    C3 4627   4.669   3.088  10.954  0.3737  0.2407 -0.3175
  304TMC3    C4 4628   0.180   2.965  10.996  0.1666 -0.6431 -0.6289
  304TMC3    C5 4629   0.074   2.931  11.072  0.1458 -0.1475 -0.7172
  304TMC3    C6 4630   4.691   3.000  11.058  0.1311 -0.7302 -0.6630
  304TMC3     C 4631   0.271   3.086  10.805  0.0903 -0.0681  0.3432
  304TMC3     O 4632   0.340   2.991  10.782  0.0914 -0.0950  0.1426
  304TMC3     H 4633   0.037   3.195  10.801  0.4399 -0.3983 -0.5524
  304TMC3    H1 4634   0.271   2.908  11.005 -0.0858 -1.4532 -3.1478
  304TMC3    H2 4635   4.608   2.962  11.117  0.2713 -0.9054 -0.5801
  304TMC3    C7 4636   0.066   2.792  11.116  1.0132 -0.3222 -0.1602
  304TMC3    C8 4637   4.567   3.037  10.867 -0.1759  0.8351  0.1036
  304TMC3    O1 4638   4.691   2.740  11.102  0.6801 -0.0442  0.1394
  304TMC3    O2 4639   4.528   3.104  10.772 -0.2399 -0.5494  0.2156
  305MPD2     C 4640   2.366   4.442  14.423  0.5620 -0.4744 -0.1871
  305MPD2    C1 4641   2.489   4.433  14.374 -0.0342  0.4688 -0.6010
  305MPD2    C2 4642   2.511   4.386  14.247  0.2483  0.1910  0.5294
  305MPD2    C3 4643   2.405   4.358  14.158  0.5799 -0.1191 -0.4837
  305MPD2    C4 4644   2.280   4.365  14.213  0.4127  0.1250 -1.1156
  305MPD2    C5 4645   2.267   4.396  14.346  0.3056 -0.6230 -0.3525
  305MPD2     H 4646   2.610   4.374  14.204 -1.0917 -2.4019 -1.8644
  305MPD2    H1 4647   2.192   4.338  14.156 -1.0294 -1.7837  1.9909
  305MPD2    H2 4648   2.335   4.472  14.522 -0.0867 -1.8987  0.0412
  305MPD2    H3 4649   2.170   4.407  14.393  0.2357 -1.6913 -0.2623
  305MPD2     N 4650   2.416   4.330  14.018 -0.0880 -0.2536 -0.2164
  305MPD2    H5 4651   2.334   4.344  13.960 -0.8088 -0.5188  0.7222
  305MPD2    N1 4652   2.603   4.466  14.443 -0.1673 -0.3701 -0.5358
  305MPD2    H7 4653   2.691   4.445  14.396  0.6342  0.2685  0.6682
  306TMC3    C1 4654   2.748   4.510  14.625 -0.0914 -0.1099  1.2356
  306TMC3    C2 4655   2.838   4.420  14.568 -0.3727 -0.3451  0.3598
  306TMC3    C3 4656   2.958   4.398  14.635  0.0178 -0.7976 -0.4151
  306TMC3    C4 4657   2.776   4.583  14.732 -0.2157 -0.2526  0.5734
  306TMC3    C5 4658   2.902   4.568  14.792 -0.2541 -0.7163  0.7129
  306TMC3    C6 4659   2.985   4.463  14.754 -0.4379  0.3809 -0.1166
  306TMC3     C 4660   2.609   4.507  14.577 -0.2901  0.0593  0.3025
  306TMC3     O 4661   2.519   4.526  14.654  0.0542  0.3340  0.0082
  306TMC3     H 4662   2.816   4.351  14.488  2.1326  0.7359 -1.2542
  306TMC3    H1 4663   2.707   4.656  14.772 -0.2552  0.0041  0.0359
  306TMC3    H2 4664   3.083   4.454  14.801 -0.0258  1.2230 -0.8070
  306TMC3    C7 4665   2.928   4.648  14.909  0.7799  0.9757  0.6530
  306TMC3    C8 4666   3.028   4.277  14.600  0.1194 -1.0710 -0.2612
  306TMC3    O1 4667   2.825   4.700  14.956 -0.3842  0.4543  0.2695
  306TMC3    O2 4668   2.985   4.211  14.503 -0.7025  0.0117  0.5074
  307MPD2     C 4669   1.091   1.945   0.443 -0.3121 -0.2382 -0.6879
  307MPD2    C1 4670   1.002   2.050   0.451  0.6048 -0.0471 -0.1542
  307MPD2    C2 4671   0.999   2.126   0.564  0.7665 -0.6112 -0.0570
  307MPD2    C3 4672   1.068   2.080   0.672 -0.3350 -0.2823  0.0272
  307MPD2    C4 4673   1.146   1.966   0.668 -0.2397 -1.0023  0.7854
  307MPD2    C5 4674   1.162   1.907   0.554 -0.3784 -0.8716 -0.5272
  307MPD2     H 4675   0.929   2.209   0.561  0.0888 -1.1709  0.3718
  307MPD2    H1 4676   1.199   1.929   0.755  1.1687  0.9260  0.7470
  307MPD2    H2 4677   1.109   1.885   0.354  0.1062 -1.5675  0.2941
  307MPD2    H3 4678   1.213   1.813   0.539 -2.9880 -2.0457 -2.1730
  307MPD2     N 4679   1.027   2.130   0.797  0.0619  0.1813  0.0687
  307MPD2    H5 4680   1.049   2.083   0.884 -1.6087 -2.7859 -1.1250
  307MPD2    N1 4681   0.916   2.098   0.341 -0.8269  0.3496 -0.1103
  307MPD2    H7 4682   0.873   2.190   0.351 -3.3857 -0.5092 -3.1427
  308TMC3    C1 4683   0.713   2.180   1.060 -0.5691 -0.4185  0.8108
  308TMC3    C2 4684   0.700   2.304   1.117 -0.4505 -0.3671 -0.2621
  308TMC3    C3 4685   0.779   2.407   1.078 -0.2719 -0.5894  1.0392
  308TMC3    C4 4686   0.816   2.161   0.978 -0.1819  0.4076  0.0800
  308TMC3    C5 4687   0.911   2.257   0.957  0.3409 -0.1474 -0.2659
  308TMC3    C6 4688   0.891   2.387   1.004 -0.2685  0.0029 -0.2780
  308TMC3     C 4689   0.585   2.122   1.005 -0.1635 -0.2263 -0.2170
  308TMC3     O 4690   0.588   2.004   0.961 -0.3445  0.1674  0.3113
  308TMC3     H 4691   0.607   2.327   1.169  0.2507  0.1799  0.7434
  308TMC3    H1 4692   0.832   2.064   0.932  0.4740  0.8670 -0.6598
  308TMC3    H2 4693   0.956   2.465   0.964 -1.5016  1.3085  0.2605
  308TMC3    C7 4694   0.962   2.248   0.820  0.1159 -0.0782 -0.4583
  308TMC3    C8 4695   0.753   2.545   1.123  0.1239 -0.1568 -0.4118
  308TMC3    O1 4696   0.957   2.349   0.754 -0.1827  0.4680 -0.0732
  308TMC3    O2 4697   0.690   2.550   1.226  0.9196 -0.1313 -0.1102
  309MPD2     C 4698   0.351   2.625  17.178 -0.1351  0.9441 -0.0910
  309MPD2    C1 4699   0.323   2.741  17.102 -0.0789 -0.0925  0.7413
  309MPD2    C2 4700   0.217   2.820  17.143 -0.0889  0.1505 -0.1393
  309MPD2    C3 4701   0.144   2.779  17.245 -0.2872 -0.6071  0.2037
  309MPD2    C4 4702   0.173   2.668  17.316 -0.1859 -0.0946  0.1543
  309MPD2    C5 4703   0.286   2.593  17.291  0.1445  0.7519  0.4147
  309MPD2     H 4704   0.199   2.912  17.088 -2.1333  0.5275  1.1684
  309MPD2    H1 4705   0.111   2.647  17.402 -1.3738  0.3446 -0.6018
  309MPD2    H2 4706   0.434   2.558  17.156 -1.3473 -0.4776 -0.3185
  309MPD2    H3 4707   0.306   2.504  17.348 -0.0336 -0.2459 -1.0942
  309MPD2     N 4708   0.043   2.859  17.285  0.0995  0.6066 -0.3813
  309MPD2    H5 4709   4.733   2.837  17.373 -0.2727  0.2066 -0.6717
  309MPD2    N1 4710   0.392   2.774  16.980  0.5713  0.4405  0.2345
  309MPD2    H7 4711   0.355   2.856  16.932  0.9516 -0.0234 -0.8442
  310TMC3    C1 4712   0.522   2.737  16.783  0.2785 -0.3325  0.6108
  310TMC3    C2 4713   0.476   2.857  16.739  0.4532  0.5529 -0.1299
  310TMC3    C3 4714   0.494   2.876  16.603 -0.1119  0.1529  0.4572
  310TMC3    C4 4715   0.590   2.644  16.704  0.3491  0.2190  0.4067
  310TMC3    C5 4716   0.607   2.668  16.569  1.4735  0.5620  0.6928
  310TMC3    C6 4717   0.565   2.788  16.520 -0.1322  0.0800  0.2417
  310TMC3     C 4718   0.487   2.695  16.918 -0.0386  0.0491  0.6204
  310TMC3     O 4719   0.539   2.590  16.955 -0.5983 -0.4245  0.5952
  310TMC3     H 4720   0.408   2.919  16.796  0.8163 -0.2087  1.1125
  310TMC3    H1 4721   0.626   2.553  16.749 -3.1533 -0.2920  2.1599
  310TMC3    H2 4722   0.574   2.794  16.412  0.3276 -1.7133  0.1807
  310TMC3    C7 4723   0.673   2.575  16.478  0.2103 -0.2252 -0.1043
  310TMC3    C8 4724   0.391   2.941  16.526 -0.5865 -0.5218  0.0041
  310TMC3    O1 4725   0.686   2.602  16.358 -0.0495  0.1363  0.4225
  310TMC3    O2 4726   0.380   2.895  16.412 -0.0092 -0.1505  0.4585
  311MPD2     C 4727   1.262   0.282  12.516 -0.5068 -0.4164 -0.1294
  311MPD2    C1 4728   1.349   0.236  12.614  0.2196 -0.8456  0.3566
  311MPD2    C2 4729   1.296   0.162  12.719  0.3301 -0.4654 -0.2473
  311MPD2    C3 4730   1.163   0.141  12.737  0.8973  0.5253 -0.1137
  311MPD2    C4 4731   1.074   0.195  12.648 -0.0846  0.0145  0.1151
  311MPD2    C5 4732   1.125   0.255  12.531  0.4774  0.0885  0.0905
  311MPD2     H 4733   1.358   0.120  12.797  1.5811  2.3550  0.2935
  311MPD2    H1 4734   0.968   0.183  12.670 -0.4374  4.2662  0.6524
  311MPD2    H2 4735   1.290   0.338  12.428 -1.8409 -1.3554 -1.1592
  311MPD2    H3 4736   1.059   0.294  12.454 -1.3906  1.6503  2.5007
  311MPD2     N 4737   1.127   0.063  12.851  0.8143  0.6781 -0.3262
  311MPD2    H5 4738   1.205   0.037  12.910  0.0079 -2.1906 -0.5605
  311MPD2    N1 4739   1.487   0.255  12.600 -0.2591 -0.4218  0.5635
  311MPD2    H7 4740   1.542   0.225  12.679  0.0073  0.0329  0.5487
  312TMC3    C1 4741   0.984   4.688  13.003  0.1473  0.5764  0.4424
  312TMC3    C2 4742   0.871   4.620  13.035  0.4187  0.5868 -0.4255
  312TMC3    C3 4743   0.864   4.555  13.151  0.1658 -0.6894  0.2436
  312TMC3    C4 4744   1.087   4.682  13.097 -0.2987 -0.4228 -0.6233
  312TMC3    C5 4745   1.092   4.599  13.200  0.1657  0.4212  0.1924
  312TMC3    C6 4746   0.976   4.534  13.229  0.0240  0.2029  0.2036
  312TMC3     C 4747   0.998   0.021  12.880 -0.5477  0.1439  0.2836
  312TMC3     O 4748   0.895   0.024  12.816  0.2024 -0.2487 -0.1964
  312TMC3     H 4749   0.788   4.634  12.966 -1.2451 -0.2043  1.4126
  312TMC3    H1 4750   1.181   4.727  13.065 -1.7990  2.4878 -0.9024
  312TMC3    H2 4751   0.980   4.465  13.312 -0.2138  1.3705  1.1962
  312TMC3    C7 4752   1.214   4.566  13.263  0.1855 -0.0083 -0.0778
  312TMC3    C8 4753   0.744   4.490  13.183 -0.5253  0.1957  0.2340
  312TMC3    O1 4754   1.290   4.664  13.273  0.4017 -0.2507 -0.1890
  312TMC3    O2 4755   0.743   4.385  13.248  0.0262  0.8866  0.1904
  313MPD2     C 4756   1.255   3.518  11.032  0.5238  0.2754 -0.1403
  313MPD2    C1 4757   1.278   3.598  10.919  0.3242 -0.0060  0.2090
  313MPD2    C2 4758   1.355   3.544  10.816  0.6327  0.0257 -0.2370
  313MPD2    C3 4759   1.411   3.414  10.815 -0.3463  0.2996 -0.1983
  313MPD2    C4 4760   1.380   3.333  10.930 -0.2383 -0.3297  0.8398
  313MPD2    C5 4761   1.317   3.390  11.037 -0.6134  0.0647 -0.3076
  313MPD2     H 4762   1.378   3.607  10.731  2.4050  1.0512  1.0116
  313MPD2    H1 4763   1.412   3.230  10.940  0.6580 -0.1393 -0.0140
  313MPD2    H2 4764   1.191   3.544  11.116 -0.7613 -0.6589 -0.8347
  313MPD2    H3 4765   1.306   3.338  11.132 -2.5453  0.7027 -0.1892
  313MPD2     N 4766   1.486   3.365  10.706  0.0479 -0.0832  0.0470
  313MPD2    H5 4767   1.502   3.431  10.631 -3.7448  0.3991 -0.3156
  313MPD2    N1 4768   1.223   3.723  10.898  0.0165  0.3562 -0.8175
  313MPD2    H7 4769   1.249   3.769  10.811  1.1440  0.7620 -0.2639
  314TMC3    C1 4770   1.120   3.924  10.946  0.0695  0.8289 -0.5753
  314TMC3    C2 4771   1.123   4.033  11.029 -0.4705 -0.1495  0.1210
  314TMC3    C3 4772   1.081   4.157  10.984  1.0419 -0.0613 -0.0198
  314TMC3    C4 4773   1.062   3.932  10.821  0.0103  0.5405  0.3663
  314TMC3    C5 4774   1.024   4.059  10.781  0.4512  0.5844 -0.3883
  314TMC3    C6 4775   1.035   4.171  10.859 -0.5251 -0.4284  0.3173
  314TMC3     C 4776   1.153   3.789  10.992  0.3926 -0.3459  0.4256
  314TMC3     O 4777   1.139   3.762  11.110  0.4463 -0.0741  0.5013
  314TMC3     H 4778   1.155   4.026  11.132 -0.5070 -0.5708  0.1021
  314TMC3    H1 4779   1.056   3.849  10.752  1.7240  1.0257 -0.3736
  314TMC3    H2 4780   1.020   4.270  10.816  0.7937 -0.0310  0.7724
  314TMC3    C7 4781   1.033   4.086  10.646  0.0036 -0.2630 -0.1908
  314TMC3    C8 4782   1.162   4.269  11.019  0.1134  0.6946  0.1087
  314TMC3    O1 4783   0.972   4.019  10.563  0.0844  0.8513  0.4311
  314TMC3    O2 4784   1.234   4.311  10.932  0.1289  0.1283  0.6718
  315MPD2     C 4785   1.256   2.376   0.134  0.0312  0.3889  0.1899
  315MPD2    C1 4786   1.367   2.377   0.222  0.8715 -0.2418  0.3147
  315MPD2    C2 4787   1.445   2.496   0.227 -0.4735 -0.3530 -0.0670
  315MPD2    C3 4788   1.423   2.602   0.143  0.3160  0.4356 -0.6626
  315MPD2    C4 4789   1.307   2.606   0.074  0.0268  0.0441 -0.4538
  315MPD2    C5 4790   1.238   2.488   0.059 -0.4886  0.1508 -0.0638
  315MPD2     H 4791   1.529   2.506   0.294 -1.8623 -0.1443  1.6429
  315MPD2    H1 4792   1.275   2.688   0.010 -1.9912 -0.1435  0.3031
  315MPD2    H2 4793   1.188   2.292   0.129  0.8517 -0.2393 -0.3589
  315MPD2    H3 4794   1.142   2.493   0.009  0.1869  4.1514 -0.9419
  315MPD2     N 4795   1.526   2.697   0.117 -0.5231 -0.5729  0.0830
  315MPD2    H5 4796   1.618   2.676   0.155 -0.2117  1.0572  0.2334
  315MPD2    N1 4797   1.403   2.267   0.308  0.3408  0.7583  0.5244
  315MPD2    H7 4798   1.480   2.280   0.372  0.1100 -0.0788  0.9715
  316TMC3    C1 4799   1.641   2.891   0.035  0.4207  0.2331  0.2817
  316TMC3    C2 4800   1.727   2.873   0.133 -0.0955 -0.1353  0.8718
  316TMC3    C3 4801   1.850   2.926   0.128 -0.2962 -0.1544  0.3964
  316TMC3    C4 4802   1.658   2.969  17.670  0.1026 -0.5749 -0.3544
  316TMC3    C5 4803   1.784   3.025  17.661 -0.0220  0.0480  0.3954
  316TMC3    C6 4804   1.881   3.012   0.021  0.4100 -0.1776 -0.0956
  316TMC3     C 4805   1.523   2.803   0.024 -0.8910  0.2370 -0.6028
  316TMC3     O 4806   1.435   2.828  17.683  0.3423  0.3273  0.5023
  316TMC3     H 4807   1.694   2.819   0.221  3.9539 -1.2254  1.6974
  316TMC3    H1 4808   1.584   2.975  17.591 -1.9572 -0.4457  1.5917
  316TMC3    H2 4809   1.976   3.062   0.005  0.7303 -1.3282 -1.7454
  316TMC3    C7 4810   1.825   3.082  17.530  0.4620 -0.7365 -0.5418
  316TMC3    C8 4811   1.939   2.910   0.235  0.5469 -0.1789 -0.2281
  316TMC3    O1 4812   1.926   3.147  17.531 -0.4725  0.1149 -0.0835
  316TMC3    O2 4813   2.036   2.987   0.235 -0.6813 -0.0583  1.0685
  317MPD2     C 4814   3.339   1.512  13.280 -0.3318 -0.6083 -0.0692
  317MPD2    C1 4815   3.280   1.448  13.169  0.7735 -0.2617  0.4842
  317MPD2    C2 4816   3.274   1.313  13.183 -0.6072 -0.1550  0.4356
  317MPD2    C3 4817   3.327   1.234  13.278 -0.5664  0.2797 -0.1728
  317MPD2    C4 4818   3.363   1.297  13.395 -0.1939 -0.5532  0.3404
  317MPD2    C5 4819   3.364   1.436  13.393 -0.2171 -0.3732 -0.1341
  317MPD2     H 4820   3.236   1.270  13.091 -0.5968  0.7725 -0.0009
  317MPD2    H1 4821   3.379   1.237  13.483  4.5461  0.7530  0.3476
  317MPD2    H2 4822   3.344   1.619  13.295 -1.3012 -0.3612 -1.4313
  317MPD2    H3 4823   3.396   1.475  13.489  0.0352 -0.3388 -0.2340
  317MPD2     N 4824   3.351   1.096  13.243 -0.2172 -0.1403 -0.7246
  317MPD2    H5 4825   3.308   1.067  13.155 -0.7620  0.8007 -0.7676
  317MPD2    N1 4826   3.228   1.523  13.062  0.3158  0.1512 -0.4214
  317MPD2    H7 4827   3.204   1.459  12.987  0.4369  1.3396 -1.4574
  318TMC3    C1 4828   3.426   0.863  13.260  0.2621  0.0077  0.9245
  318TMC3    C2 4829   3.385   0.844  13.126  0.3923 -0.0081  1.1232
  318TMC3    C3 4830   3.385   0.717  13.079  0.2375 -0.6502 -0.8536
  318TMC3    C4 4831   3.480   0.763  13.334  0.2805  0.4123 -0.6167
  318TMC3    C5 4832   3.474   0.638  13.286 -0.4130  0.2608  0.0072
  318TMC3    C6 4833   3.416   0.615  13.160 -0.0586 -0.3867 -0.2360
  318TMC3     C 4834   3.420   1.000  13.317 -0.7050  0.2933 -0.0052
  318TMC3     O 4835   3.468   1.017  13.433  0.1800 -0.0232  0.0878
  318TMC3     H 4836   3.375   0.923  13.053 -2.5066 -1.0630  0.3780
  318TMC3    H1 4837   3.506   0.772  13.439  0.4509 -1.5298 -0.4987
  318TMC3    H2 4838   3.420   0.514  13.122  0.1771 -0.7290  0.7176
  318TMC3    C7 4839   3.487   0.524  13.375 -0.2267 -0.0375  0.5806
  318TMC3    C8 4840   3.329   0.683  12.949 -0.3605  1.0164  0.4268
  318TMC3    O1 4841   3.426   0.420  13.342 -0.1473  0.2935  0.3681
  318TMC3    O2 4842   3.376   0.592  12.882  0.2927  0.5359 -0.3659
  319MPD2     C 4843   4.414   2.486  16.431 -0.2544  0.3185  0.2135
  319MPD2    C1 4844   4.297   2.463  16.496 -0.1335 -0.6305 -0.6226
  319MPD2    C2 4845   4.178   2.446  16.423 -0.4384 -0.4826  0.0978
  319MPD2    C3 4846   4.175   2.455  16.284 -1.0148 -0.1045  0.5230
  319MPD2    C4 4847   4.299   2.464  16.217 -0.0115  0.4452  0.4292
  319MPD2    C5 4848   4.411   2.488  16.294  0.0793 -0.1111  0.4453
  319MPD2     H 4849   4.086   2.426  16.476 -0.6827 -0.8345 -0.4618
  319MPD2    H1 4850   4.305   2.461  16.109 -0.2650 -1.5138  0.4548
  319MPD2    H2 4851   4.500   2.516  16.489  0.5625 -0.5260 -0.5630
  319MPD2    H3 4852   4.505   2.518  16.249  1.9394 -2.0822  3.0642
  319MPD2     N 4853   4.057   2.448  16.201  0.4604  0.1402 -0.3839
  319MPD2    H5 4854   4.076   2.465  16.103 -2.9902  0.1321 -1.0456
  319MPD2    N1 4855   4.290   2.445  16.641 -0.4812  0.2344 -0.2673
  319MPD2    H7 4856   4.199   2.414  16.674  0.6158 -1.8703  0.7486
  320TMC3    C1 4857   3.847   2.417  16.123 -0.5436 -0.8479 -0.4796
  320TMC3    C2 4858   3.865   2.513  16.029 -0.5608 -0.6455 -0.6208
  320TMC3    C3 4859   3.773   2.516  15.924 -0.9090  0.6661 -0.0369
  320TMC3    C4 4860   3.751   2.317  16.115 -0.1202 -0.6209 -0.3744
  320TMC3    C5 4861   3.669   2.314  16.003  0.3602 -0.6432 -0.0452
  320TMC3    C6 4862   3.675   2.420  15.910  0.1765  0.2424  0.2125
  320TMC3     C 4863   3.928   2.413  16.241  0.3795 -0.0909  0.1799
  320TMC3     O 4864   3.882   2.362  16.339  0.2595  0.5373 -0.2411
  320TMC3     H 4865   3.936   2.594  16.030 -0.6581 -0.5632 -0.3791
  320TMC3    H1 4866   3.734   2.247  16.195  1.0339 -1.3087 -0.7262
  320TMC3    H2 4867   3.592   2.431  15.841 -1.1209  1.3663  1.9483
  320TMC3    C7 4868   3.578   2.207  15.984  0.4789  0.1868  0.4490
  320TMC3    C8 4869   3.727   2.653  15.880 -0.7867 -0.0401  0.2126
  320TMC3    O1 4870   3.558   2.171  15.873 -0.9027  0.2607  0.4790
  320TMC3    O2 4871   3.731   2.739  15.967  0.5540  0.2754 -0.1879
  321TMC3    C1 4872   4.353   2.421  16.864 -0.0650 -0.5820 -0.1283
  321TMC3    C2 4873   4.295   2.298  16.865  0.2100 -0.6469  0.4996
  321TMC3    C3 4874   4.267   2.240  16.990 -0.3171  0.3158  0.2275
  321TMC3    C4 4875   4.390   2.486  16.978  0.8579  0.3867 -0.3933
  321TMC3    C5 4876   4.351   2.438  17.099  0.5762 -0.0614 -0.9229
  321TMC3    C6 4877   4.280   2.316  17.101 -0.0261  0.2633 -0.5484
  321TMC3     C 4878   4.383   2.479  16.737  0.7022 -0.3550 -0.0914
  321TMC3     O 4879   4.495   2.524  16.723  0.1617  0.1307 -0.0400
  321TMC3     H 4880   4.320   2.220  16.794  1.2478 -0.5007  0.7109
  321TMC3    H1 4881   4.447   2.578  16.965  0.0765  1.0320  0.7472
  321TMC3    H2 4882   4.247   2.281  17.198  0.8574  1.0300  0.0253
  321TMC3    C7 4883   4.455   2.421  17.203  0.0176  0.3105 -0.3422
  321TMC3    C8 4884   4.291   2.096  17.012 -0.3819 -0.0899  0.0241
  321TMC3    O1 4885   4.500   2.307  17.213  0.2476 -0.2682  0.7407
  321TMC3    O2 4886   4.260   2.015  16.924 -0.3145  0.3526 -0.0707
  322MPD2     C 4887   2.456   3.642  13.569 -0.1339 -0.1936 -0.7484
  322MPD2    C1 4888   2.536   3.598  13.674 -0.0580  0.8387  0.5695
  322MPD2    C2 4889   2.623   3.494  13.656  0.1496 -0.1221 -0.2625
  322MPD2    C3 4890   2.631   3.432  13.534 -0.1089  0.6458 -0.2361
  322MPD2    C4 4891   2.546   3.475  13.434 -0.0147  0.0960 -0.3409
  322MPD2    C5 4892   2.464   3.579  13.448 -0.2589 -0.4185 -0.1637
  322MPD2     H 4893   2.691   3.464  13.735 -0.0869  0.6588  0.2416
  322MPD2    H1 4894   2.542   3.428  13.337 -1.1184 -2.5848  0.9938
  322MPD2    H2 4895   2.385   3.723  13.578  0.7835  0.4368  0.7895
  322MPD2    H3 4896   2.395   3.603  13.367  0.6646  1.8149 -0.2767
  322MPD2     N 4897   2.736   3.341  13.519 -0.1168 -0.3120  0.4187
  322MPD2    H5 4898   2.795   3.314  13.598  0.5108 -1.6589 -0.5047
  322MPD2    N1 4899   2.535   3.663  13.795 -0.1855 -0.7588 -0.0741
  322MPD2    H7 4900   2.488   3.752  13.801  0.4091 -0.4987  0.7508
  323TMC3    C1 4901   2.617   3.703  14.014 -0.0299  0.4453 -0.5782
  323TMC3    C2 4902   2.692   3.802  13.954 -0.3921  0.2731 -0.4351
  323TMC3    C3 4903   2.803   3.844  14.012  0.0735  0.0542 -0.3494
  323TMC3    C4 4904   2.658   3.644  14.132 -0.2905  0.2660 -0.4618
  323TMC3    C5 4905   2.771   3.690  14.192 -0.6270 -0.4457  0.0908
  323TMC3    C6 4906   2.846   3.789  14.126 -0.5367 -0.5467 -0.2748
  323TMC3     C 4907   2.562   3.601  13.917 -0.1346 -0.2684 -0.1474
  323TMC3     O 4908   2.580   3.487  13.949 -0.4960 -0.7756  0.1800
  323TMC3     H 4909   2.652   3.855  13.868 -2.1664 -1.1886 -0.5102
  323TMC3    H1 4910   2.603   3.555  14.163 -0.5371  0.8213  0.7062
  323TMC3    H2 4911   2.947   3.813  14.158 -0.0993 -2.6267 -0.1369
  323TMC3    C7 4912   2.816   3.608  14.297 -0.0297 -0.2880  0.0207
  323TMC3    C8 4913   2.914   3.860  13.923  0.5266 -0.4644 -0.2385
  323TMC3    O1 4914   2.787   3.489  14.305  0.8075 -0.4461  0.8592
  323TMC3    O2 4915   3.004   3.939  13.954  0.0044 -0.5015 -0.2262
  324MPD2     C 4916   0.203   0.212  14.622  0.0445  0.3847 -0.9312
  324MPD2    C1 4917   0.168   0.328  14.572  0.1975 -0.2788 -0.0982
  324MPD2    C2 4918   0.036   0.365  14.550 -0.1600  0.0202 -0.4260
  324MPD2    C3 4919   4.669   0.271  14.583 -0.5028 -0.4073 -0.3054
  324MPD2    C4 4920   4.707   0.147  14.619  0.2542  0.3307  0.2648
  324MPD2    C5 4921   0.106   0.116  14.645 -0.3756  0.6773 -0.4403
  324MPD2     H 4922   0.016   0.460  14.501 -1.0543  0.4829  0.8217
  324MPD2    H1 4923   4.633   0.067  14.620 -0.5743  1.0830 -0.8003
  324MPD2    H2 4924   0.305   0.184  14.646 -0.0413 -0.1609 -1.1994
  324MPD2    H3 4925   0.134   0.013  14.663 -0.9197  0.9769  2.2536
  324MPD2     N 4926   4.532   0.294  14.543  0.1679  0.1515  0.0397
  324MPD2    H5 4927   4.467   0.219  14.566 -0.4854  0.6209 -0.2743
  324MPD2    N1 4928   0.274   0.416  14.558 -0.4397 -0.5384 -0.2098
  324MPD2    H7 4929   0.367   0.379  14.572 -0.9419 -1.1621  1.5120
  325TMC3    C1 4930   4.350   0.345  14.415  0.2726  0.5960  0.0105
  325TMC3    C2 4931   4.284   0.239  14.463  0.0866 -0.0943  0.4820
  325TMC3    C3 4932   4.166   0.206  14.411  0.7243 -1.1942  0.4389
  325TMC3    C4 4933   4.291   0.425  14.325 -0.3004  0.2607 -0.4628
  325TMC3    C5 4934   4.164   0.395  14.277 -0.6129 -0.0560 -0.1080
  325TMC3    C6 4935   4.098   0.288  14.323  0.3927 -0.5546  0.0816
  325TMC3     C 4936   4.486   0.393  14.462  0.0334  0.7317 -0.8102
  325TMC3     O 4937   4.538   0.493  14.417 -0.5237  0.3215  0.2943
  325TMC3     H 4938   4.316   0.164  14.534  1.2470  0.5730  0.6545
  325TMC3    H1 4939   4.348   0.508  14.283  1.2841 -0.6842 -0.1847
  325TMC3    H2 4940   4.010   0.251  14.271  1.2406  0.9206 -2.3841
  325TMC3    C7 4941   4.089   0.496  14.199 -0.1338  0.4747 -0.0472
  325TMC3    C8 4942   4.128   0.071  14.415 -0.2215  0.2509 -0.5324
  325TMC3    O1 4943   4.163   0.579  14.144 -0.2501 -0.4550 -0.2909
  325TMC3    O2 4944   4.217   4.722  14.413  0.2568 -0.8608  0.0678
  326MPD2     C 4945   0.742   1.745  11.029 -0.1889 -0.6405  0.2777
  326MPD2    C1 4946   0.805   1.759  10.905  0.0506  0.3331 -0.4407
  326MPD2    C2 4947   0.937   1.772  10.911 -0.3298  0.4396 -0.0957
  326MPD2    C3 4948   1.021   1.743  11.021 -0.5327  0.6293  0.2641
  326MPD2    C4 4949   0.952   1.725  11.139  0.0952  0.8154 -0.3732
  326MPD2    C5 4950   0.813   1.731  11.144  0.8181 -0.1916  0.8254
  326MPD2     H 4951   0.994   1.794  10.821  0.2803  2.7122  0.8357
  326MPD2    H1 4952   1.006   1.720  11.233 -0.7729  0.1675  0.0884
  326MPD2    H2 4953   0.635   1.740  11.040 -0.6169  0.6549 -3.0340
  326MPD2    H3 4954   0.767   1.722  11.241 -0.0300  0.4835  0.4807
  326MPD2     N 4955   1.155   1.732  11.023  0.1445 -0.0910  0.1859
  326MPD2    H5 4956   1.201   1.713  11.111 -0.5932 -1.4783  0.2868
  326MPD2    N1 4957   0.734   1.771  10.783 -0.0678  0.7591 -0.0090
  326MPD2    H7 4958   0.793   1.785  10.701  0.7885 -0.4537  0.3895
  327TMC3    C1 4959   0.565   1.778  10.630 -0.2279 -0.3826  0.0175
  327TMC3    C2 4960   0.481   1.885  10.602 -0.2137  0.3254 -0.5340
  327TMC3    C3 4961   0.508   1.950  10.486  0.1537 -0.4507 -0.0407
  327TMC3    C4 4962   0.674   1.740  10.557 -0.1969  0.2925  0.2777
  327TMC3    C5 4963   0.695   1.813  10.449  0.6238 -0.1185 -0.1116
  327TMC3    C6 4964   0.605   1.910  10.406 -0.1738 -0.0821 -0.5795
  327TMC3     C 4965   0.599   1.770  10.767  0.7988 -0.6888 -0.0413
  327TMC3     O 4966   0.508   1.763  10.849  0.7291 -0.4726 -0.2144
  327TMC3     H 4967   0.401   1.917  10.668  0.2490  0.4929 -0.0647
  327TMC3    H1 4968   0.714   1.640  10.574 -0.0548  0.2208 -0.5063
  327TMC3    H2 4969   0.620   1.966  10.315  1.2898 -0.6074 -0.6581
  327TMC3    C7 4970   0.826   1.822  10.387  0.4962 -0.3134  0.3353
  327TMC3    C8 4971   0.516   2.094  10.500 -0.2992 -0.0957 -0.0927
  327TMC3    O1 4972   0.855   1.923  10.325 -0.5171  0.2459 -0.0502
  327TMC3    O2 4973   0.589   2.152  10.422  0.2003 -0.4832  0.0963
  328MPD2     C 4974   3.252   0.104  16.669  0.2528 -0.1823  0.1471
  328MPD2    C1 4975   3.143   0.144  16.744 -0.1413  0.5302  0.0623
  328MPD2    C2 4976   3.100   0.276  16.733  0.1498 -0.0453 -0.1200
  328MPD2    C3 4977   3.162   0.362  16.640  0.4090 -0.7533  0.0412
  328MPD2    C4 4978   3.276   0.323  16.573 -0.4597  0.4987  0.5519
  328MPD2    C5 4979   3.323   0.194  16.590  0.4314  0.0613  0.6152
  328MPD2     H 4980   3.016   0.308  16.794  0.5176  2.1596 -0.7985
  328MPD2    H1 4981   3.338   0.389  16.513 -0.7395 -0.9176 -1.3034
  328MPD2    H2 4982   3.275   4.734  16.658 -1.4501 -0.6356  0.8040
  328MPD2    H3 4983   3.411   0.154  16.541 -0.6222  0.5827 -1.6758
  328MPD2     N 4984   3.098   0.489  16.616 -0.5295  0.5268  0.1321
  328MPD2    H5 4985   3.001   0.500  16.643 -0.9019  0.3747 -1.1305
  328MPD2    N1 4986   3.072   0.050  16.818 -0.2031  0.1828 -0.2249
  328MPD2    H7 4987   3.104   4.689  16.817  0.4645  0.3992 -0.2702
  329TMC3    C1 4988   2.885   4.702  16.912  0.9689  0.7640 -0.6695
  329TMC3    C2 4989   2.790   4.718  17.009 -0.1366 -0.7371 -0.7670
  329TMC3    C3 4990   2.661   4.712  16.967  0.1629 -0.0201  0.6560
  329TMC3    C4 4991   2.862   4.652  16.782  0.4980 -0.9113  0.1923
  329TMC3    C5 4992   2.730   4.644  16.753 -0.3407 -0.2836 -0.1453
  329TMC3    C6 4993   2.630   4.668  16.841 -0.0671  0.0578  0.5248
  329TMC3     C 4994   2.981   0.075  16.912 -0.2519  0.0836  0.1566
  329TMC3     O 4995   2.941   0.176  16.965  0.1276 -0.1862  0.1056
  329TMC3     H 4996   2.831   0.013  17.104 -3.0666 -2.3977  1.0001
  329TMC3    H1 4997   2.927   4.638  16.696 -0.0716 -0.2731 -0.3428
  329TMC3    H2 4998   2.528   4.683  16.806 -0.3981  1.1111  1.8936
  329TMC3    C7 4999   2.684   4.609  16.612  1.3178  0.3888 -0.4140
  329TMC3    C8 5000   2.577   0.087  17.012  0.4463  0.1824  0.3358
  329TMC3    O1 5001   2.575   4.655  16.586 -0.3598 -0.1662  0.3768
  329TMC3    O2 5002   2.456   0.073  16.997 -0.6079 -1.1343 -0.1919
  330TMC3    C1 5003   1.095   1.057   9.667 -0.0393  0.5449 -0.3572
  330TMC3    C2 5004   1.020   0.953   9.611 -0.3014  0.3656 -0.1950
  330TMC3    C3 5005   1.078   0.831   9.586 -0.3188  0.7669 -0.0876
  330TMC3    C4 5006   1.225   1.030   9.704  0.7707  0.0884 -0.4180
  330TMC3    C5 5007   1.279   0.905   9.669 -0.1965 -0.4989  0.1025
  330TMC3    C6 5008   1.211   0.808   9.602  0.4505  0.4792 -0.2132
  330TMC3     C 5009   1.035   1.188   9.692  0.6247 -0.4910 -0.4745
  330TMC3     O 5010   1.110   1.282   9.711  0.3780 -0.4554  0.3717
  330TMC3     H 5011   0.917   0.974   9.585 -0.0087 -0.3160 -1.8593
  330TMC3    H1 5012   1.289   1.106   9.745 -0.5339  0.9719 -0.0133
  330TMC3    H2 5013   1.263   0.720   9.568  0.3850 -0.5520  2.3815
  330TMC3    C7 5014   1.421   0.880   9.703  0.1762  0.3693  0.3180
  330TMC3    C8 5015   0.986   0.752   9.508  0.0977  0.6346 -0.4138
  330TMC3    O1 5016   1.488   0.975   9.735  0.5339 -0.1342  0.0258
  330TMC3    O2 5017   0.905   0.807   9.436 -0.2205 -0.1501 -0.0373
  331MPD2     C 5018   3.286   4.064  12.585  0.5540 -0.4881  0.2305
  331MPD2    C1 5019   3.407   4.118  12.549 -0.6019 -0.6823  0.0961
  331MPD2    C2 5020   3.518   4.048  12.559  0.2051  0.3202  0.8878
  331MPD2    C3 5021   3.521   3.921  12.599 -0.3280 -0.1953  0.1735
  331MPD2    C4 5022   3.402   3.866  12.627  0.6888  0.5754 -0.4778
  331MPD2    C5 5023   3.281   3.934  12.614  0.1676 -0.4081 -0.4701
  331MPD2     H 5024   3.612   4.092  12.527 -1.0633  1.5908 -1.1152
  331MPD2    H1 5025   3.384   3.764  12.659 -1.0107  1.3297  0.9976
  331MPD2    H2 5026   3.198   4.127  12.594  0.8424 -0.0922  0.3151
  331MPD2    H3 5027   3.187   3.883  12.633 -0.7209  1.2230 -0.5050
  331MPD2     N 5028   3.641   3.849  12.594  0.0277  0.0334 -0.1433
  331MPD2    H5 5029   3.723   3.905  12.574  0.2680  0.1821  1.2814
  331MPD2    N1 5030   3.424   4.251  12.494 -0.3459 -0.0235 -0.2636
  331MPD2    H7 5031   3.521   4.280  12.485 -0.0090 -1.9656 -3.0953
  332TMC3    C1 5032   3.805   3.692  12.622  0.5459 -0.2209 -0.1642
  332TMC3    C2 5033   3.864   3.719  12.502 -0.1840  0.3186  0.3916
  332TMC3    C3 5034   3.996   3.689  12.491 -0.1075 -0.6986  0.3322
  332TMC3    C4 5035   3.875   3.623  12.717  0.0848 -0.2056 -0.2955
  332TMC3    C5 5036   4.010   3.605  12.706  0.1553 -0.6584 -0.3175
  332TMC3    C6 5037   4.069   3.638  12.597  0.0767 -0.7310 -0.1210
  332TMC3     C 5038   3.665   3.727  12.646  0.6896  0.3913  0.0162
  332TMC3     O 5039   3.600   3.656  12.721  0.1333  0.2071 -0.4938
  332TMC3     H 5040   3.809   3.765  12.421 -0.6555 -2.7303 -1.0409
  332TMC3    H1 5041   3.825   3.581  12.803  0.0737  1.9958  0.7615
  332TMC3    H2 5042   4.175   3.620  12.582  0.4609  0.8201  0.7375
  332TMC3    C7 5043   4.072   3.593  12.839  0.0061 -0.5843  0.1099
  332TMC3    C8 5044   4.063   3.766  12.384 -0.2523  0.0135  0.6400
  332TMC3    O1 5045   4.005   3.546  12.928  0.3456 -0.0919  0.5788
  332TMC3    O2 5046   4.022   3.879  12.363  0.2123 -0.1344  0.1314
  333MPD2     C 5047   4.356   4.523  11.269 -0.7615  0.4556 -0.0890
  333MPD2    C1 5048   4.435   4.411  11.237 -0.5008 -0.3667  0.3566
  333MPD2    C2 5049   4.395   4.289  11.276 -0.2524 -0.0649 -0.5746
  333MPD2    C3 5050   4.286   4.262  11.353 -0.3034 -0.0708 -0.3477
  333MPD2    C4 5051   4.212   4.370  11.382  0.7844  0.3862  0.0278
  333MPD2    C5 5052   4.244   4.497  11.343 -0.3519 -0.7900 -0.0183
  333MPD2     H 5053   4.455   4.204  11.245  1.1173  0.5236  0.4660
  333MPD2    H1 5054   4.127   4.350  11.445  0.5402  1.6431  0.0971
  333MPD2    H2 5055   4.383   4.625  11.241  1.4507 -0.4313 -1.1925
  333MPD2    H3 5056   4.194   4.586  11.379 -0.2394  0.5631 -3.1596
  333MPD2     N 5057   4.260   4.127  11.396 -0.7871 -0.1940  0.0692
  333MPD2    H5 5058   4.322   4.056  11.359  0.2001  0.9008 -0.3766
  333MPD2    N1 5059   4.552   4.428  11.153 -0.4965  0.4241 -0.2725
  333MPD2    H7 5060   4.578   4.524  11.133 -2.0549  0.8135 -0.3842
  334TMC3    C1 5061   0.004   4.386  11.021  0.1782 -0.0537  0.2071
  334TMC3    C2 5062   0.128   4.334  11.023 -0.1297 -0.1048 -0.2069
  334TMC3    C3 5063   0.232   4.416  10.995 -0.3258 -0.2979  0.5103
  334TMC3    C4 5064   4.716   4.510  10.962 -0.3685  0.1449  0.0169
  334TMC3    C5 5065   0.089   4.594  10.946  0.2589  0.1138 -0.3342
  334TMC3    C6 5066   0.211   4.544  10.964  0.1794  0.1236 -0.2018
  334TMC3     C 5067   4.633   4.329  11.100  0.3000  0.1946 -0.1772
  334TMC3     O 5068   4.618   4.207  11.096 -0.0428  0.1457  0.2339
  334TMC3     H 5069   0.152   4.236  11.063  0.8122 -0.2655 -1.1704
  334TMC3    H1 5070   4.615   4.548  10.955 -0.5930 -0.8909 -2.2825
  334TMC3    H2 5071   0.297   4.610  10.970 -0.6691  1.2190 -0.0632
  334TMC3    C7 5072   0.076   4.732  10.907 -0.7687  0.4227 -0.6950
  334TMC3    C8 5073   0.351   4.344  10.934  1.0968  0.3031  0.0477
  334TMC3    O1 5074   0.182   0.063  10.909 -0.2516 -1.0859 -0.1661
  334TMC3    O2 5075   0.358   4.223  10.940 -0.1567 -0.2747 -0.1193
  335TMC3    C1 5076   4.018   1.469  17.175  0.5805  0.3895  0.4494
  335TMC3    C2 5077   3.911   1.430  17.091 -0.1163  0.3673 -0.0268
  335TMC3    C3 5078   3.906   1.295  17.059 -0.7361 -0.3996  0.5066
  335TMC3    C4 5079   4.117   1.387  17.211 -0.2817  0.0324 -0.3000
  335TMC3    C5 5080   4.105   1.248  17.179  0.5417 -0.2502  0.1293
  335TMC3    C6 5081   4.000   1.205  17.097  0.2510 -0.4042 -0.7027
  335TMC3     C 5082   4.043   1.611  17.196  0.2440 -0.3486 -0.1666
  335TMC3     O 5083   4.105   1.631  17.301  0.1760 -0.1453 -0.3629
  335TMC3     H 5084   3.829   1.495  17.061 -1.2527 -0.8837  0.3975
  335TMC3    H1 5085   4.206   1.428  17.258 -2.1433  1.5354  1.9214
  335TMC3    H2 5086   4.001   1.104  17.057 -2.0312 -1.2368  1.3703
  335TMC3    C7 5087   4.216   1.162  17.178  0.0461  0.8295 -0.0355
  335TMC3    C8 5088   3.806   1.250  16.968  0.0962  0.2997 -0.3987
  335TMC3    O1 5089   4.197   1.066  17.104 -0.0999  0.5668 -0.5162
  335TMC3    O2 5090   3.800   1.313  16.861  0.6719  0.0490  0.3583
  336MPD2     C 5091   4.152   3.545  16.068 -0.3360  0.4664 -1.0943
  336MPD2    C1 5092   4.042   3.524  15.988 -0.2161  0.0487 -0.3679
  336MPD2    C2 5093   3.995   3.388  15.976 -0.5486 -0.4844 -0.2895
  336MPD2    C3 5094   4.063   3.291  16.051 -0.4987 -0.5849 -0.0426
  336MPD2    C4 5095   4.181   3.322  16.129  0.0547  0.1677 -0.4208
  336MPD2    C5 5096   4.219   3.451  16.134 -0.1351 -0.9305  0.5266
  336MPD2     H 5097   3.923   3.371  15.897 -0.0083 -0.7358 -0.7301
  336MPD2    H1 5098   4.239   3.258  16.195  0.0164 -0.6947 -1.2274
  336MPD2    H2 5099   4.186   3.648  16.078  0.7630  0.1513 -1.6013
  336MPD2    H3 5100   4.299   3.473  16.204  1.0006  2.1315 -1.7651
  336MPD2     N 5101   4.015   3.157  16.057  0.6786  0.4584 -0.1043
  336MPD2    H5 5102   4.053   3.091  16.124 -3.3794 -1.0757  0.6712
  336MPD2    N1 5103   3.975   3.620  15.909  0.0697 -0.5444  0.1764
  336MPD2    H7 5104   3.904   3.587  15.844 -1.0439 -0.5491  1.4178
  337TMC3    C1 5105   3.913   3.839  15.830  0.8597  0.4061  0.1769
  337TMC3    C2 5106   3.784   3.807  15.813 -0.6208  0.6882  0.0063
  337TMC3    C3 5107   3.709   3.878  15.717 -0.0596  0.4498  0.5593
  337TMC3    C4 5108   3.974   3.942  15.760  0.1217  0.2799 -0.7496
  337TMC3    C5 5109   3.895   4.012  15.668  0.2827  0.5831  0.3287
  337TMC3    C6 5110   3.765   3.980  15.644 -0.0616 -0.0681 -0.0183
  337TMC3     C 5111   3.996   3.756  15.926 -0.3238 -0.2128  0.2697
  337TMC3     O 5112   4.075   3.820  15.995 -0.0301 -0.3465  0.5114
  337TMC3     H 5113   3.733   3.733  15.874 -1.6398  0.7894 -0.7290
  337TMC3    H1 5114   4.076   3.974  15.778 -1.2121  2.3177  3.2992
  337TMC3    H2 5115   3.699   4.028  15.572 -2.0493  0.8566  2.4248
  337TMC3    C7 5116   3.951   4.143  15.628 -0.1257 -0.0854 -0.1978
  337TMC3    C8 5117   3.567   3.858  15.722 -0.4950 -1.0377 -0.5678
  337TMC3    O1 5118   3.871   4.236  15.620 -0.0948  0.1243  0.2511
  337TMC3    O2 5119   3.522   3.833  15.837  0.6078  0.0478  0.1774
  338MPD2     C 5120   4.652   3.019   1.157 -0.3728  0.3634  0.0942
  338MPD2    C1 5121   4.547   3.020   1.061 -0.0368  0.7013 -0.2060
  338MPD2    C2 5122   4.435   3.091   1.092  0.3409 -0.0855  0.0476
  338MPD2    C3 5123   4.423   3.167   1.210 -0.1211  0.4217  0.3326
  338MPD2    C4 5124   4.529   3.168   1.294 -0.7398 -0.5170 -0.0277
  338MPD2    C5 5125   4.644   3.101   1.262  0.3433 -0.5373  0.0493
  338MPD2     H 5126   4.354   3.103   1.020 -0.0566 -0.4763  0.4295
  338MPD2    H1 5127   4.529   3.220   1.389 -1.1266  0.0917 -0.3604
  338MPD2    H2 5128   4.734   2.948   1.149 -0.8122 -0.3412  1.8440
  338MPD2    H3 5129   4.717   3.099   1.342 -1.4214 -1.7295  1.6305
  338MPD2     N 5130   4.300   3.241   1.230  0.0713  0.2912  0.0112
  338MPD2    H5 5131   4.234   3.233   1.154  0.4824 -1.3891 -0.1775
  338MPD2    N1 5132   4.554   2.945   0.945 -0.0483 -0.4483 -0.3332
  338MPD2    H7 5133   4.473   2.937   0.885  0.2587  0.5892 -0.8851
  339TMC3    C1 5134   4.132   3.371   1.336  0.0339  0.0492 -0.3180
  339TMC3    C2 5135   4.046   3.322   1.429 -0.3345 -0.0165 -0.3250
  339TMC3    C3 5136   3.918   3.289   1.390 -0.0111 -0.6420 -0.3756
  339TMC3    C4 5137   4.088   3.392   1.211 -0.3028 -0.3508  0.6904
  339TMC3    C5 5138   3.964   3.348   1.167  0.1327  0.1351 -0.1548
  339TMC3    C6 5139   3.874   3.298   1.256 -0.2045 -0.5050 -0.2876
  339TMC3     C 5140   4.262   3.298   1.348 -0.0789  0.3255 -0.1683
  339TMC3     O 5141   4.313   3.276   1.456  0.2438 -0.0666  0.0073
  339TMC3     H 5142   4.080   3.303   1.530  2.1380 -3.8454 -1.8893
  339TMC3    H1 5143   4.154   3.436   1.137 -1.2900 -0.1775 -0.0871
  339TMC3    H2 5144   3.771   3.279   1.232  0.0596 -1.1367 -0.9073
  339TMC3    C7 5145   3.980   3.255   1.054 -0.3377 -0.7713  0.0625
  339TMC3    C8 5146   3.815   3.277   1.484 -0.0037  0.1555 -0.2566
  339TMC3    O1 5147   4.096   3.237   1.022  0.2518 -0.2167  0.0311
  339TMC3    O2 5148   3.706   3.329   1.454  0.1086 -0.7352  0.6253
  340MPD2     C 5149   3.901   1.659  10.194  0.4375  0.2203 -0.2244
  340MPD2    C1 5150   3.954   1.603  10.305  0.2426 -0.0849 -0.0980
  340MPD2    C2 5151   3.973   1.675  10.421 -0.2670  0.8529  0.3978
  340MPD2    C3 5152   3.939   1.809  10.413  0.3655  0.1625  0.5150
  340MPD2    C4 5153   3.879   1.862  10.302 -0.1454 -0.7484  0.3984
  340MPD2    C5 5154   3.861   1.786  10.187  0.2721 -0.4794  0.3977
  340MPD2     H 5155   4.018   1.621  10.503 -0.5055  0.2655  0.1444
  340MPD2    H1 5156   3.847   1.965  10.297  0.7171 -0.4052  1.9999
  340MPD2    H2 5157   3.870   1.595  10.112 -0.2396 -0.6914  0.7559
  340MPD2    H3 5158   3.805   1.822  10.102  1.3899  0.4516  0.0614
  340MPD2     N 5159   3.984   1.897  10.510 -0.4911  0.1189  0.3161
  340MPD2    H5 5160   3.988   1.996  10.486  1.5976 -0.6338 -2.4225
  340MPD2    N1 5161   3.983   1.468  10.294 -0.1605 -0.4762 -0.0755
  340MPD2    H7 5162   3.976   1.423  10.203  1.4168  2.3410 -1.5735
  341TMC3    C1 5163   4.097   1.272  10.374  0.1392  0.5545 -0.4960
  341TMC3    C2 5164   4.070   1.156  10.443 -0.4058  0.3693 -0.4757
  341TMC3    C3 5165   4.139   1.046  10.407 -0.2872  0.0075 -0.1537
  341TMC3    C4 5166   4.192   1.285  10.280 -0.0085  0.0207  0.1956
  341TMC3    C5 5167   4.263   1.175  10.248  0.2262  0.6652 -0.3008
  341TMC3    C6 5168   4.230   1.056  10.303 -0.4711  0.6841 -0.1759
  341TMC3     C 5169   4.015   1.389  10.399  0.3535  0.3600 -0.2438
  341TMC3     O 5170   3.982   1.405  10.515  0.3594  0.3373  0.1813
  341TMC3     H 5171   4.003   1.148  10.527  1.0682 -0.1157  0.6508
  341TMC3    H1 5172   4.197   1.378  10.225 -1.4889  0.1906  0.3486
  341TMC3    H2 5173   4.291   0.970  10.276  0.3146  1.1731  0.0382
  341TMC3    C7 5174   4.346   1.170  10.131  0.1777  0.0342  0.0116
  341TMC3    C8 5175   4.057   0.930  10.397  0.2226 -0.0683 -0.2060
  341TMC3    O1 5176   4.443   1.096  10.144  0.2935  0.1956  0.1198
  341TMC3    O2 5177   4.016   0.891  10.292 -0.0263  0.4813  0.1260
  342MPD2     C 5178   2.298   3.580  17.714 -0.4771  0.0200 -0.0595
  342MPD2    C1 5179   2.430   3.591  17.681  0.2175 -0.0960  0.9666
  342MPD2    C2 5180   2.484   3.722  17.673  0.1590  0.4313 -0.5129
  342MPD2    C3 5181   2.416   3.838  17.712 -0.4263  0.1796 -0.1358
  342MPD2    C4 5182   2.287   3.821   0.007  0.2638 -0.5338 -0.5158
  342MPD2    C5 5183   2.227   3.694   0.012  0.5900  0.0968 -0.4384
  342MPD2     H 5184   2.585   3.731  17.637  0.1010 -0.2232 -0.8464
  342MPD2    H1 5185   2.234   3.909   0.042  2.0041  0.2476  0.1485
  342MPD2    H2 5186   2.242   3.489  17.696 -1.7470  0.9312 -0.7214
  342MPD2    H3 5187   2.125   3.677   0.046  0.9181  2.2589  1.6184
  342MPD2     N 5188   2.473   3.968  17.718 -0.6013 -0.3046  0.2743
  342MPD2    H5 5189   2.398   4.036  17.730 -0.0718  0.3750 -0.2308
  342MPD2    N1 5190   2.514   3.483  17.649 -0.2872 -0.8944  0.3642
  342MPD2    H7 5191   2.608   3.516  17.628 -0.5981  0.0062  0.3502
  343TMC3    C1 5192   2.587   3.258  17.604  1.0668 -0.0626  0.2523
  343TMC3    C2 5193   2.693   3.314  17.533 -0.3197  0.4134 -0.5511
  343TMC3    C3 5194   2.778   3.220  17.478  0.7362 -0.1628  0.2593
  343TMC3    C4 5195   2.574   3.125  17.621 -0.0562  0.1614 -0.0157
  343TMC3    C5 5196   2.655   3.039  17.556 -0.3581 -0.3838 -0.5251
  343TMC3    C6 5197   2.762   3.088  17.494 -0.2031  0.0528  0.7888
  343TMC3     C 5198   2.479   3.348  17.648 -0.1404 -0.0564 -0.3201
  343TMC3     O 5199   2.375   3.291  17.679 -0.6432 -0.0131 -0.1770
  343TMC3     H 5200   2.699   3.420  17.511  3.8697  0.4900  1.0849
  343TMC3    H1 5201   2.480   3.092  17.664  0.8058 -2.2746  0.0396
  343TMC3    H2 5202   2.820   3.006  17.452 -1.2869 -0.7627  0.8705
  343TMC3    C7 5203   2.588   2.935  17.492 -0.4574  0.8452  0.6488
  343TMC3    C8 5204   2.909   3.269  17.445  0.1525 -0.1203  0.6538
  343TMC3    O1 5205   2.518   2.872  17.571 -0.0642 -0.0152  0.1757
  343TMC3    O2 5206   2.943   3.375  17.493  0.2632  0.2677 -0.1548
  344MPD2     C 5207   3.355   3.737  10.595 -0.8439  0.4146  0.8219
  344MPD2    C1 5208   3.275   3.810  10.512  0.8617  0.1183  0.2148
  344MPD2    C2 5209   3.312   3.944  10.485 -0.1655  0.1756  0.5938
  344MPD2    C3 5210   3.427   4.002  10.530 -1.1011 -1.0659  0.4613
  344MPD2    C4 5211   3.504   3.923  10.611 -0.8868 -0.2766  0.4764
  344MPD2    C5 5212   3.467   3.798  10.648  0.1789  0.0398 -0.1741
  344MPD2     H 5213   3.241   3.999  10.423  0.5594 -2.0656 -2.2370
  344MPD2    H1 5214   3.598   3.950  10.657 -1.0218  1.2280 -0.1211
  344MPD2    H2 5215   3.332   3.636  10.626  0.3621 -1.1956 -3.4950
  344MPD2    H3 5216   3.536   3.747  10.715  0.5406 -0.2891 -0.7960
  344MPD2     N 5217   3.467   4.135  10.501 -0.9017  0.3959  0.1255
  344MPD2    H5 5218   3.545   4.181  10.549 -0.6720 -1.8169  1.8615
  344MPD2    N1 5219   3.149   3.760  10.467 -0.0513 -0.3467 -0.5153
  344MPD2    H7 5220   3.100   3.819  10.401  0.7413  1.5720  0.6000
  345TMC3    C1 5221   3.422   4.358  10.436 -0.6528  0.6431  0.4514
  345TMC3    C2 5222   3.417   4.395  10.569 -0.2686  0.0912 -1.2102
  345TMC3    C3 5223   3.388   4.524  10.595 -0.0371  0.1892  0.2044
  345TMC3    C4 5224   3.386   4.452  10.339  0.2745 -0.4498  0.2597
  345TMC3    C5 5225   3.362   4.583  10.378 -0.2245 -0.6381 -0.8638
  345TMC3    C6 5226   3.351   4.618  10.510 -0.2806  0.6025  0.2285
  345TMC3     C 5227   3.393   4.217  10.411 -0.7285 -0.0246 -1.0967
  345TMC3     O 5228   3.344   4.184  10.307  0.1141  0.3815 -0.3601
  345TMC3     H 5229   3.399   4.338  10.659  0.3958  0.8913 -0.5720
  345TMC3    H1 5230   3.387   4.412  10.238  1.7207 -1.0888  0.5266
  345TMC3    H2 5231   3.342   4.722  10.538 -0.6284  0.9196 -1.0576
  345TMC3    C7 5232   3.342   4.684  10.280  0.1126 -0.1217  0.0062
  345TMC3    C8 5233   3.362   4.555  10.734  0.5115  0.0844  0.6320
  345TMC3    O1 5234   3.353   0.064  10.314 -0.2631 -0.7002 -0.0041
  345TMC3    O2 5235   3.442   4.502  10.811 -0.2695  0.4059  1.3071
  346MPD2     C 5236   3.291   4.664  13.564 -0.0618 -0.4644  0.3583
  346MPD2    C1 5237   3.249   0.058  13.538 -0.4262 -0.0937  0.5111
  346MPD2    C2 5238   3.202   0.133  13.646  0.1914 -0.7214  0.0160
  346MPD2    C3 5239   3.228   0.091  13.777  0.1841 -0.2132 -0.3940
  346MPD2    C4 5240   3.279   4.702  13.798 -0.0271  0.0602 -0.3333
  346MPD2    C5 5241   3.306   4.620  13.692  0.0279  0.0957  0.1744
  346MPD2     H 5242   3.168   0.236  13.634  1.7926 -0.0929  0.8206
  346MPD2    H1 5243   3.294   4.658  13.896  2.5174  1.2958 -0.1745
  346MPD2    H2 5244   3.336   4.583  13.508 -1.4073 -0.6561 -0.4363
  346MPD2    H3 5245   3.354   4.523  13.702  1.1323  0.7176  0.9815
  346MPD2     N 5246   3.208   0.184  13.887  0.2308  0.3189  0.4052
  346MPD2    H5 5247   3.208   0.284  13.873  2.1215  0.3684  0.8319
  346MPD2    N1 5248   3.254   0.122  13.415  0.4888  0.4845 -0.4915
  346MPD2    H7 5249   3.213   0.214  13.406 -0.6581 -0.0672 -0.9064
  347TMC3    C1 5250   3.193   0.266  14.106 -0.4142  0.0860  0.1169
  347TMC3    C2 5251   3.276   0.369  14.078  0.4123 -0.3515  0.4113
  347TMC3    C3 5252   3.305   0.464  14.173  0.2344  0.3700  0.4125
  347TMC3    C4 5253   3.144   0.249  14.234  0.3007 -0.2545  0.3706
  347TMC3    C5 5254   3.171   0.346  14.331 -0.1229 -0.2694  0.1034
  347TMC3    C6 5255   3.257   0.451  14.299 -0.1170 -0.1731  0.1985
  347TMC3     C 5256   3.200   0.150  14.020 -0.3783  0.0072  0.2448
  347TMC3     O 5257   3.208   0.041  14.076  0.3074 -0.7295  0.0175
  347TMC3     H 5258   3.326   0.365  13.982 -0.6741  1.2212 -0.2146
  347TMC3    H1 5259   3.081   0.165  14.258  2.8643 -2.3142 -0.1269
  347TMC3    H2 5260   3.276   0.528  14.372  1.1376 -0.3494  0.0432
  347TMC3    C7 5261   3.201   0.286  14.456  0.5604  0.4686  0.0464
  347TMC3    C8 5262   3.437   0.507  14.184 -0.2326  0.2498  0.4717
  347TMC3    O1 5263   3.119   0.210  14.504  0.4610 -0.5570 -0.1808
  347TMC3    O2 5264   3.485   0.454  14.284 -0.0112 -0.0132  0.8242
  348MPD2     C 5265   1.903   0.669  11.996 -0.4172 -0.8416 -0.3171
  348MPD2    C1 5266   1.884   0.566  11.906 -0.2568  0.6228 -0.3664
  348MPD2    C2 5267   1.914   0.589  11.771 -0.2399  0.3134  0.6500
  348MPD2    C3 5268   1.961   0.716  11.736 -1.2516 -0.6867 -0.3420
  348MPD2    C4 5269   1.968   0.820  11.827 -0.5060  0.0398  0.0617
  348MPD2    C5 5270   1.940   0.795  11.957 -0.2325  0.1971 -0.1483
  348MPD2     H 5271   1.906   0.512  11.695 -0.6270  0.6857  0.3175
  348MPD2    H1 5272   1.991   0.921  11.795  0.9402 -0.7364 -1.3502
  348MPD2    H2 5273   1.879   0.647  12.099  0.4633 -1.1090 -0.1675
  348MPD2    H3 5274   1.941   0.873  12.031 -0.3953  1.4751 -1.4984
  348MPD2     N 5275   1.989   0.741  11.597  0.2992 -0.9337  0.1009
  348MPD2    H5 5276   1.960   0.673  11.527  0.8397 -1.3391  0.2645
  348MPD2    N1 5277   1.826   0.435  11.936 -0.9994 -0.8252  0.1655
  348MPD2    H7 5278   1.799   0.379  11.855 -0.7554 -0.7352  0.0225
  349TMC3    C1 5279   1.697   0.271  12.049 -0.5182  0.0519  0.7426
  349TMC3    C2 5280   1.656   0.214  12.163 -0.2794  0.2617 -0.1629
  349TMC3    C3 5281   1.554   0.121  12.164  0.4118  0.1076 -0.1784
  349TMC3    C4 5282   1.629   0.240  11.935 -0.2676  0.1597 -0.3902
  349TMC3    C5 5283   1.540   0.131  11.935 -0.6626  0.0116  0.0658
  349TMC3    C6 5284   1.494   0.078  12.052 -0.5011 -0.6172 -0.2832
  349TMC3     C 5285   1.776   0.394  12.058 -0.3813  0.5636  0.0823
  349TMC3     O 5286   1.815   0.433  12.165 -0.0900 -0.3715 -0.1730
  349TMC3     H 5287   1.693   0.256  12.256  0.0550 -0.7360  0.1507
  349TMC3    H1 5288   1.637   0.292  11.840 -2.8488 -1.2888 -1.4118
  349TMC3    H2 5289   1.425   4.730  12.043 -0.9784 -0.3132  0.5566
  349TMC3    C7 5290   1.477   0.096  11.812 -0.1865 -0.3401  0.0877
  349TMC3    C8 5291   1.555   0.041  12.284  0.0048  0.8881  0.1014
  349TMC3    O1 5292   1.355   0.075  11.802 -0.0037 -0.3293 -0.3955
  349TMC3    O2 5293   1.650   0.049  12.362  0.1899  1.1292 -0.2667
  350MPD2     C 5294   1.463   3.624   9.778 -0.4266  0.8437  0.0797
  350MPD2    C1 5295   1.464   3.485   9.774 -0.8697 -0.8929 -0.0425
  350MPD2    C2 5296   1.456   3.415   9.898  0.5153  0.6753  0.2662
  350MPD2    C3 5297   1.456   3.474  10.027  0.1814 -0.2201 -0.9125
  350MPD2    C4 5298   1.445   3.618  10.026 -0.4362 -0.5897 -0.3920
  350MPD2    C5 5299   1.455   3.688   9.902 -0.7854 -0.3832 -0.3017
  350MPD2     H 5300   1.441   3.308   9.903  2.1005  0.4414 -0.1378
  350MPD2    H1 5301   1.421   3.676  10.114  1.3159 -1.4145  0.6339
  350MPD2    H2 5302   1.473   3.675   9.683 -0.7895 -0.8925 -0.8889
  350MPD2    H3 5303   1.460   3.796   9.897 -0.2272 -0.3789  0.2441
  350MPD2     N 5304   1.460   3.394  10.145 -0.0585 -0.8973  0.1044
  350MPD2    H5 5305   1.445   3.294  10.143  0.1485 -0.9501  0.9612
  350MPD2    N1 5306   1.470   3.404   9.658  0.2031  0.1063  1.0441
  350MPD2    H7 5307   1.465   3.303   9.666  3.3430 -0.1438  0.0103
  351TMC3    C1 5308   1.477   3.347   9.430  0.2227 -0.1185 -0.1418
  351TMC3    C2 5309   1.539   3.227   9.473  1.1699 -0.3592 -0.7683
  351TMC3    C3 5310   1.514   3.126   9.386 -0.1917 -0.3627  0.4765
  351TMC3    C4 5311   1.402   3.365   9.312  0.5900 -0.0169 -0.3015
  351TMC3    C5 5312   1.385   3.259   9.231  0.2193  0.0252 -0.4329
  351TMC3    C6 5313   1.434   3.137   9.277 -0.6509 -0.4969 -0.1099
  351TMC3     C 5314   1.474   3.453   9.530 -0.8363 -0.8921  0.4720
  351TMC3     O 5315   1.450   3.567   9.492 -0.2879 -0.1181  0.3668
  351TMC3     H 5316   1.597   3.211   9.563  0.0562  0.6350  0.1191
  351TMC3    H1 5317   1.363   3.464   9.292  3.0832  1.0425  0.0528
  351TMC3    H2 5318   1.407   3.045   9.228 -0.3590  0.1596 -1.4792
  351TMC3    C7 5319   1.272   3.260   9.134  0.5279  0.0725 -0.1942
  351TMC3    C8 5320   1.520   2.994   9.438  0.4457  0.4588  0.4764
  351TMC3    O1 5321   1.233   3.146   9.099 -0.2978  0.3928 -0.6278
  351TMC3    O2 5322   1.438   2.912   9.403 -0.1850 -0.0210 -0.2710
  352MPD2     C 5323   3.247   0.239   1.048 -0.0298 -0.1350 -0.5747
  352MPD2    C1 5324   3.301   0.248   0.923 -0.5223 -0.2407 -0.6367
  352MPD2    C2 5325   3.438   0.222   0.918 -1.1152  0.2702  0.6613
  352MPD2    C3 5326   3.524   0.201   1.030  0.4089  0.2594  0.0427
  352MPD2    C4 5327   3.463   0.189   1.153 -0.8589 -0.7567 -1.5416
  352MPD2    C5 5328   3.327   0.204   1.160 -0.3088 -0.2726 -0.8354
  352MPD2     H 5329   3.481   0.227   0.818 -1.3525 -0.0430  0.5432
  352MPD2    H1 5330   3.523   0.161   1.239  1.7793  0.1247 -3.1095
  352MPD2    H2 5331   3.147   0.267   1.077 -1.0900 -2.7069 -1.7769
  352MPD2    H3 5332   3.271   0.183   1.250 -1.1500  0.4704 -1.1827
  352MPD2     N 5333   3.660   0.196   1.027 -0.1212 -0.2586  0.5080
  352MPD2    H5 5334   3.711   0.193   1.114 -0.8068  0.4803  0.9351
  352MPD2    N1 5335   3.212   0.278   0.818  0.3318  0.5963  0.6061
  352MPD2    H7 5336   3.117   0.294   0.851  0.4190 -0.6728  1.4742
  353TMC3    C1 5337   3.867   0.131   0.936 -0.3775 -0.2712  0.0738
  353TMC3    C2 5338   3.887   0.044   1.043 -0.3299  0.4775 -0.1218
  353TMC3    C3 5339   3.992   4.692   1.035  0.1840  0.4346 -0.4771
  353TMC3    C4 5340   3.956   0.137   0.833 -0.2109  0.0989 -0.3023
  353TMC3    C5 5341   4.057   0.050   0.822  0.0887  0.4761 -0.2053
  353TMC3    C6 5342   4.075   4.696   0.927  0.4670  0.1340 -0.1070
  353TMC3     C 5343   3.735   0.186   0.911 -0.3048  0.3440 -1.1746
  353TMC3     O 5344   3.696   0.203   0.798 -0.1917 -0.3631 -0.1421
  353TMC3     H 5345   3.812   0.020   1.117  2.3152 -0.8406  2.1397
  353TMC3    H1 5346   3.927   0.206   0.755 -2.9100  0.2402  0.7965
  353TMC3    H2 5347   4.160   4.630   0.927 -0.3620 -0.9444  2.5198
  353TMC3    C7 5348   4.098   0.004   0.690  0.2808 -0.0626 -0.2595
  353TMC3    C8 5349   4.013   4.625   1.158 -0.3193 -1.1685 -0.4558
  353TMC3    O1 5350   4.113   4.618   0.683 -0.6393  0.2873 -0.6344
  353TMC3    O2 5351   3.971   4.674   1.261 -0.2196  0.2411  0.0210
  354TMC3    C1 5352   0.963   1.087  13.329  0.5186 -0.2133  0.0141
  354TMC3    C2 5353   0.879   1.128  13.225 -0.3669  0.3653 -0.3497
  354TMC3    C3 5354   0.933   1.140  13.100  0.1825 -0.3767 -0.6362
  354TMC3    C4 5355   1.097   1.064  13.308  0.9836  0.5631  0.3077
  354TMC3    C5 5356   1.147   1.089  13.183  1.0466 -0.3809  0.5452
  354TMC3    C6 5357   1.068   1.116  13.078  0.4239 -0.1445 -0.2403
  354TMC3     C 5358   0.902   1.067  13.455 -0.2083 -0.3587 -0.1393
  354TMC3     O 5359   0.792   1.113  13.488 -0.1303 -0.2060 -0.1105
  354TMC3     H 5360   0.773   1.140  13.243 -0.2628  5.0343 -2.7250
  354TMC3    H1 5361   1.168   1.070  13.390 -0.4947  0.2030  1.6060
  354TMC3    H2 5362   1.104   1.130  12.976  3.1659 -0.2862  0.7185
  354TMC3    C7 5363   1.286   1.141  13.183 -0.1961  0.3467  0.9204
  354TMC3    C8 5364   0.853   1.159  12.978  0.1024 -0.6583  0.2850
  354TMC3    O1 5365   1.359   1.084  13.265 -0.4823  0.0754  0.4164
  354TMC3    O2 5366   0.897   1.115  12.874  0.4159 -0.0913  0.1786
  355MPD2     C 5367   1.098   2.186  11.684  0.2282  0.3466  0.0796
  355MPD2    C1 5368   1.165   2.257  11.779  0.6288 -0.1052 -0.0652
  355MPD2    C2 5369   1.191   2.210  11.904 -0.1283  0.3019 -0.5780
  355MPD2    C3 5370   1.154   2.086  11.937 -0.9461 -0.3842 -0.3473
  355MPD2    C4 5371   1.068   2.017  11.846 -0.1245 -0.0364  0.1589
  355MPD2    C5 5372   1.048   2.062  11.722 -0.6150 -0.3237 -0.7497
  355MPD2     H 5373   1.248   2.273  11.972  0.1806 -0.7678  0.1623
  355MPD2    H1 5374   1.025   1.922  11.873 -0.3996 -0.3740 -1.4567
  355MPD2    H2 5375   1.092   2.206  11.578  2.9399  1.4758  0.1372
  355MPD2    H3 5376   0.989   2.003  11.653 -2.9671  1.5726 -0.3594
  355MPD2     N 5377   1.190   2.014  12.053  0.3214 -0.3103 -0.1197
  355MPD2    H5 5378   1.131   1.932  12.070 -0.5735 -0.2841 -3.0965
  355MPD2    N1 5379   1.218   2.379  11.725  0.2264 -0.4505  0.3264
  355MPD2    H7 5380   1.187   2.406  11.632  2.5722  0.0143 -0.3050
  356TMC3    C1 5381   1.393   2.121  12.126 -0.0543  0.7071 -0.4795
  356TMC3    C2 5382   1.458   2.138  12.008 -0.2208  0.2024  0.1884
  356TMC3    C3 5383   1.564   2.230  12.003 -0.0009 -0.5455 -0.4605
  356TMC3    C4 5384   1.432   2.185  12.240  0.0232  0.3900  0.1487
  356TMC3    C5 5385   1.538   2.269  12.244  0.3792  0.3520  0.6128
  356TMC3    C6 5386   1.605   2.295  12.119  0.0814 -0.5783  0.3095
  356TMC3     C 5387   1.288   2.029  12.149 -0.2079 -0.3633 -0.4943
  356TMC3     O 5388   1.291   1.990  12.268 -0.3443  0.2584 -0.1453
  356TMC3     H 5389   1.429   2.091  11.915 -0.3198 -0.2892  0.4674
  356TMC3    H1 5390   1.390   2.165  12.337 -2.1736 -2.2027 -1.3317
  356TMC3    H2 5391   1.691   2.360  12.113  0.2490 -0.8050  0.2279
  356TMC3    C7 5392   1.573   2.336  12.370 -0.1658 -0.1934  0.3786
  356TMC3    C8 5393   1.620   2.271  11.869 -1.0225 -0.0677 -0.5144
  356TMC3    O1 5394   1.548   2.275  12.473 -0.1940  0.2678 -0.1133
  356TMC3    O2 5395   1.617   2.180  11.785  0.2492 -0.1758 -0.1518
  357MPD2     C 5396   0.301   2.390   1.915  0.4833  0.3827 -0.3266
  357MPD2    C1 5397   0.336   2.327   1.794  0.4936 -0.1894  0.8616
  357MPD2    C2 5398   0.239   2.244   1.741 -0.0083 -0.5586  0.8224
  357MPD2    C3 5399   0.118   2.212   1.813 -0.8465  0.2554 -0.5327
  357MPD2    C4 5400   0.093   2.274   1.932 -0.1468  1.2987 -0.0719
  357MPD2    C5 5401   0.177   2.373   1.983  0.2459 -0.6862  0.8202
  357MPD2     H 5402   0.258   2.186   1.652  0.9196  1.3180 -0.2100
  357MPD2    H1 5403   0.003   2.249   1.987  0.4103  0.7269  0.5758
  357MPD2    H2 5404   0.374   2.452   1.967 -0.7726  1.1084  0.5711
  357MPD2    H3 5405   0.158   2.426   2.076  0.5608  1.6641 -0.4598
  357MPD2     N 5406   0.022   2.120   1.765 -0.2194 -0.0319  0.1771
  357MPD2    H5 5407   4.672   2.112   1.821 -1.7235 -0.2008 -2.1089
  357MPD2    N1 5408   0.464   2.348   1.732  0.1662 -0.7016  0.3322
  357MPD2    H7 5409   0.527   2.413   1.778 -0.5577 -0.5845  1.1625
  358TMC3    C1 5410   0.652   2.321   1.585 -0.3149  0.0624 -0.2203
  358TMC3    C2 5411   0.686   2.260   1.467  0.0898 -0.0605 -0.1974
  358TMC3    C3 5412   0.814   2.205   1.461  0.2214 -0.5481 -0.7256
  358TMC3    C4 5413   0.735   2.333   1.688  0.8668  0.0469  0.7304
  358TMC3    C5 5414   0.867   2.286   1.681 -0.4422  0.3851  0.1646
  358TMC3    C6 5415   0.907   2.228   1.565  0.3478 -0.0231 -0.4216
  358TMC3     C 5416   0.509   2.299   1.612 -0.5042 -0.5821  0.4796
  358TMC3     O 5417   0.448   2.236   1.528  0.1229 -0.2021 -0.0612
  358TMC3     H 5418   0.617   2.260   1.384 -1.2372  0.2791  0.9142
  358TMC3    H1 5419   0.703   2.385   1.777 -0.3706 -0.6765  0.7010
  358TMC3    H2 5420   1.003   2.178   1.562  0.0230 -0.6133 -0.9012
  358TMC3    C7 5421   0.968   2.290   1.789  0.3861 -0.2089  1.0592
  358TMC3    C8 5422   0.823   2.076   1.402  1.0721 -0.6044 -1.1805
  358TMC3    O1 5423   1.079   2.296   1.737 -0.3120  0.0484  0.1430
  358TMC3    O2 5424   0.935   2.034   1.368 -0.4331  0.6881 -0.1843
  359MPD2     C 5425   1.142   1.152  12.181  0.5839  0.0170 -0.2185
  359MPD2    C1 5426   1.132   1.186  12.047 -0.4654 -0.4723 -0.0453
  359MPD2    C2 5427   1.007   1.163  11.983  0.4967  0.1672  0.0034
  359MPD2    C3 5428   0.900   1.120  12.052  0.2326 -0.7590 -0.3614
  359MPD2    C4 5429   0.913   1.091  12.186  0.0828  0.0867 -0.4091
  359MPD2    C5 5430   1.030   1.108  12.251  0.6527 -0.4596 -0.0467
  359MPD2     H 5431   0.997   1.188  11.878  0.7721 -1.7560 -0.4860
  359MPD2    H1 5432   0.830   1.065  12.252  1.6737 -2.2619  0.6775
  359MPD2    H2 5433   1.230   1.185  12.236  3.3792 -4.9914 -1.6828
  359MPD2    H3 5434   1.026   1.100  12.359  0.4139  2.8410  0.1840
  359MPD2     N 5435   0.773   1.096  11.994  0.2728 -0.3271 -0.3515
  359MPD2    H5 5436   0.700   1.055  12.051  0.5372 -0.7842 -0.3391
  359MPD2    N1 5437   1.231   1.244  11.972 -0.3435  0.0562 -0.4358
  359MPD2    H7 5438   1.207   1.277  11.879  0.4158  1.6978 -0.0421
  360TMC3    C1 5439   1.451   1.298  11.896  0.4201 -0.8353 -0.6345
  360TMC3    C2 5440   1.553   1.377  11.937  0.2539 -0.5812 -0.1593
  360TMC3    C3 5441   1.628   1.425  11.839 -0.5486 -0.0258 -0.2803
  360TMC3    C4 5442   1.398   1.317  11.770 -0.0209  0.0292  0.0090
  360TMC3    C5 5443   1.468   1.389  11.673  0.8243  0.0456  0.3038
  360TMC3    C6 5444   1.593   1.441  11.708 -0.1914 -0.0570 -0.3632
  360TMC3     C 5445   1.366   1.257  12.003  0.4245  0.8655 -0.6436
  360TMC3     O 5446   1.424   1.222  12.105  0.1999 -0.1184 -0.6819
  360TMC3     H 5447   1.596   1.369  12.036  0.1544 -0.9799 -0.1464
  360TMC3    H1 5448   1.311   1.262  11.734 -0.3557 -0.8267  2.1391
  360TMC3    H2 5449   1.658   1.493  11.639  2.5799 -1.5281  1.1244
  360TMC3    C7 5450   1.433   1.391  11.538  0.6939  0.0263  0.7311
  360TMC3    C8 5451   1.746   1.494  11.877  0.2317  0.1542 -0.0721
  360TMC3    O1 5452   1.524   1.417  11.463  0.5820  0.3166  0.0065
  360TMC3    O2 5453   1.752   1.540  11.988 -0.1043  0.4333 -0.0400
  361MPD2     C 5454   3.094   3.876  16.564 -0.1295 -0.5719  0.2174
  361MPD2    C1 5455   3.083   3.938  16.691  1.1576  0.3780 -0.7074
  361MPD2    C2 5456   3.170   3.898  16.789  0.6466  0.0571 -0.5667
  361MPD2    C3 5457   3.287   3.815  16.753 -0.0815 -0.0940 -0.0135
  361MPD2    C4 5458   3.301   3.763  16.625  0.9530 -0.4505  0.5831
  361MPD2    C5 5459   3.197   3.791  16.538  0.1264  0.1464  0.2661
  361MPD2     H 5460   3.155   3.932  16.891 -1.5563  0.1000 -0.9102
  361MPD2    H1 5461   3.384   3.704  16.588  0.3615 -0.3358 -0.9279
  361MPD2    H2 5462   3.031   3.901  16.480  1.0509  0.6983 -0.3079
  361MPD2    H3 5463   3.202   3.756  16.436 -0.7244 -2.0009  0.9665
  361MPD2     N 5464   3.395   3.792  16.839  0.2447 -0.0979  0.4734
  361MPD2    H5 5465   3.468   3.733  16.801 -0.0114 -0.0945 -0.0269
  361MPD2    N1 5466   2.982   4.037  16.726  0.4435 -0.6569  0.1810
  361MPD2    H7 5467   2.986   4.074  16.820  0.5111 -0.2019 -0.0000
  362TMC3    C1 5468   2.763   4.144  16.725 -0.3538 -0.2535  0.3727
  362TMC3    C2 5469   2.776   4.188  16.853 -0.7189  0.6486 -0.5638
  362TMC3    C3 5470   2.672   4.266  16.904  0.0497  0.2037 -0.3985
  362TMC3    C4 5471   2.648   4.167  16.647 -0.0728  0.3175 -0.2734
  362TMC3    C5 5472   2.543   4.233  16.702  0.0474  0.2249 -0.5794
  362TMC3    C6 5473   2.557   4.288  16.830 -0.1605 -0.4788 -0.6155
  362TMC3     C 5474   2.874   4.076  16.651 -0.1603 -0.1786  0.1975
  362TMC3     O 5475   2.854   4.037  16.538 -0.6387  0.9061  0.6588
  362TMC3     H 5476   2.876   4.185  16.894 -1.6657  0.8180  1.8059
  362TMC3    H1 5477   2.634   4.101  16.562  2.9213 -0.2542 -0.3198
  362TMC3    H2 5478   2.479   4.350  16.871  0.1136  0.4267 -1.4679
  362TMC3    C7 5479   2.441   4.289  16.612 -0.5551  0.3004 -0.8556
  362TMC3    C8 5480   2.697   4.332  17.030 -0.5256  0.2017  0.1565
  362TMC3    O1 5481   2.391   4.392  16.652 -0.0852 -0.1132 -0.0371
  362TMC3    O2 5482   2.810   4.324  17.075  0.0611 -0.2250  0.0578
  363TMC3    C1 5483   1.095   2.136   9.120  0.0693  0.1310 -0.9619
  363TMC3    C2 5484   1.226   2.171   9.156  0.0939 -0.1362 -0.4272
  363TMC3    C3 5485   1.286   2.276   9.093  1.0840 -0.5878  0.0093
  363TMC3    C4 5486   1.026   2.217   9.037  0.5411 -0.1564 -0.2414
  363TMC3    C5 5487   1.077   2.337   8.994  0.2467 -0.5928  0.5383
  363TMC3    C6 5488   1.209   2.364   9.022  0.0696 -0.0176 -0.0802
  363TMC3     C 5489   1.063   1.999   9.123  0.1628 -0.5468 -0.2257
  363TMC3     O 5490   1.166   1.934   9.139 -0.2546 -0.4026 -0.1082
  363TMC3     H 5491   1.289   2.098   9.206  1.3430  0.7811 -0.6846
  363TMC3    H1 5492   0.918   2.202   9.034  0.7698 -1.7028 -0.4091
  363TMC3    H2 5493   1.249   2.463   9.003 -0.2044 -0.0396 -0.7604
  363TMC3    C7 5494   0.994   2.449   8.979  0.1861 -0.2706 -0.3919
  363TMC3    C8 5495   1.418   2.331   9.140  0.2563 -0.0115 -1.3194
  363TMC3    O1 5496   1.054   2.554   8.991 -0.7051 -0.0872 -0.1011
  363TMC3    O2 5497   1.444   2.451   9.138 -0.1093 -0.2086  0.5626
  364MPD2     C 5498   0.447   2.532  10.747  0.4418 -0.0934  0.4920
  364MPD2    C1 5499   0.521   2.507  10.629 -0.0026 -0.0050 -0.0517
  364MPD2    C2 5500   0.515   2.381  10.574  0.0925 -0.2919  0.8001
  364MPD2    C3 5501   0.445   2.278  10.644 -0.3499 -0.3300  0.3008
  364MPD2    C4 5502   0.360   2.310  10.751 -0.5093  0.6943 -1.2214
  364MPD2    C5 5503   0.362   2.438  10.802  0.0207  0.2199  0.4065
  364MPD2     H 5504   0.590   2.353  10.500 -0.2038  0.0918  0.3578
  364MPD2    H1 5505   0.305   2.231  10.801 -0.3409  0.7122 -1.0067
  364MPD2    H2 5506   0.437   2.633  10.786  1.7394  0.8266 -1.5420
  364MPD2    H3 5507   0.306   2.470  10.890 -1.7205  1.4049 -1.1335
  364MPD2     N 5508   0.449   2.141  10.612  0.3846 -0.1033 -0.1574
  364MPD2    H5 5509   0.387   2.083  10.667  1.6012 -0.1627  1.1877
  364MPD2    N1 5510   0.582   2.616  10.573 -0.1352  0.1150  0.4619
  364MPD2    H7 5511   0.586   2.700  10.631 -1.1040 -0.2929  1.1204
  365TMC3    C1 5512   0.726   2.722  10.419  0.5942  0.4041 -0.0504
  365TMC3    C2 5513   0.824   2.696  10.323  1.0097  0.1798 -0.2335
  365TMC3    C3 5514   0.927   2.790  10.309 -0.1655  0.6398 -0.4768
  365TMC3    C4 5515   0.714   2.841  10.485 -0.2733  0.7054 -0.2865
  365TMC3    C5 5516   0.814   2.929  10.466  0.7080  0.3176 -0.3095
  365TMC3    C6 5517   0.918   2.902  10.382  0.0549 -0.6282  0.0004
  365TMC3     C 5518   0.649   2.611  10.453 -0.1351 -0.9124  0.1743
  365TMC3     O 5519   0.646   2.524  10.370  0.5607  0.4172  0.4227
  365TMC3     H 5520   0.815   2.606  10.263  3.8193  1.2678 -2.2844
  365TMC3    H1 5521   0.622   2.873  10.532 -0.5462  1.4879 -1.3469
  365TMC3    H2 5522   0.995   2.979  10.383 -0.6885  0.1023  0.8771
  365TMC3    C7 5523   0.803   3.059  10.529  0.2886 -0.1163 -0.2710
  365TMC3    C8 5524   1.050   2.757  10.241  0.5970 -0.2704 -0.1939
  365TMC3    O1 5525   0.870   3.154  10.488  0.4804 -0.8902 -0.1424
  365TMC3    O2 5526   1.132   2.848  10.223  0.0815 -0.5197  0.1959
  366MPD2     C 5527   3.671   2.328  15.203  0.6967  0.1062  0.4376
  366MPD2    C1 5528   3.774   2.414  15.199  0.0325 -0.1535 -0.2971
  366MPD2    C2 5529   3.883   2.383  15.120 -0.2357 -0.5003 -0.5523
  366MPD2    C3 5530   3.880   2.281  15.029  0.5030  0.6005 -0.0999
  366MPD2    C4 5531   3.781   2.180  15.047  0.5022 -0.4195 -0.2885
  366MPD2    C5 5532   3.683   2.211  15.136 -0.5626  0.0784 -0.2137
  366MPD2     H 5533   3.972   2.445  15.118 -1.4184  1.2338  0.6529
  366MPD2    H1 5534   3.774   2.088  14.990  0.4064 -0.5616 -0.0457
  366MPD2    H2 5535   3.593   2.336  15.278 -0.4642 -0.5354 -0.7115
  366MPD2    H3 5536   3.606   2.138  15.157 -1.5169  0.7557 -1.4156
  366MPD2     N 5537   3.986   2.260  14.937  0.3227 -0.2139 -0.2855
  366MPD2    H5 5538   3.994   2.161  14.917 -1.3237 -0.2639 -0.7083
  366MPD2    N1 5539   3.769   2.548  15.247 -0.8056  0.7659  1.1256
  366MPD2    H7 5540   3.845   2.613  15.229  1.3182 -2.4186 -1.4499
  367TMC3    C1 5541   3.673   2.753  15.295 -0.1814  0.2358  0.5064
  367TMC3    C2 5542   3.755   2.795  15.398  0.1625  0.4873 -0.2221
  367TMC3    C3 5543   3.788   2.928  15.405 -0.0123  0.0461  0.0120
  367TMC3    C4 5544   3.589   2.837  15.229 -0.1444  0.4063  0.2161
  367TMC3    C5 5545   3.594   2.967  15.269 -0.6848 -0.3071 -0.0850
  367TMC3    C6 5546   3.697   3.014  15.344  0.2626 -0.2823  0.6399
  367TMC3     C 5547   3.654   2.610  15.286  0.3860 -0.0219  0.1370
  367TMC3     O 5548   3.539   2.568  15.300  0.2227 -0.1449 -0.5446
  367TMC3     H 5549   3.811   2.716  15.447  1.1517  0.2041 -1.7914
  367TMC3    H1 5550   3.515   2.789  15.165  0.9161  0.4418 -1.0357
  367TMC3    H2 5551   3.692   3.119  15.370 -0.5264  0.2842 -1.8609
  367TMC3    C7 5552   3.491   3.062  15.239 -0.6298 -0.4983 -0.1296
  367TMC3    C8 5553   3.900   2.974  15.488 -0.1609  0.5519  0.0971
  367TMC3    O1 5554   3.518   3.177  15.232 -0.2275  0.7727 -0.1831
  367TMC3    O2 5555   3.947   2.899  15.572  0.3936  0.7043  0.1972
  368MPD2     C 5556   4.701   4.557  12.871  0.0522 -0.3224  0.0308
  368MPD2    C1 5557   4.684   4.691  12.888  0.6957 -0.4761 -0.2914
  368MPD2    C2 5558   4.686   0.044  12.785  0.1440  1.1722 -0.2106
  368MPD2    C3 5559   4.706   4.734  12.658  0.0647  0.2353 -0.2245
  368MPD2    C4 5560   4.705   4.594  12.634 -0.6367 -0.4532 -0.2882
  368MPD2    C5 5561   4.702   4.510  12.740 -0.0507 -0.2560 -0.4929
  368MPD2     H 5562   4.684   0.149  12.813 -4.2363  1.2698 -0.8961
  368MPD2    H1 5563   4.706   4.550  12.535 -0.4113  0.6040 -0.7501
  368MPD2    H2 5564   4.688   4.486  12.951  1.2110 -0.1135  0.4011
  368MPD2    H3 5565   4.693   4.403  12.722 -1.3852 -0.2600  0.1991
  368MPD2     N 5566   4.712   0.086  12.546 -0.3687 -0.0312 -0.4474
  368MPD2    H5 5567   4.720   0.047  12.453 -2.6057  2.8447 -1.8551
  368MPD2    N1 5568   4.647   0.018  13.013  0.6178  0.2643  0.4353
  368MPD2    H7 5569   4.622   0.116  13.003 -1.7550 -0.4692 -0.9835
  369TMC3    C1 5570   4.587   0.066  13.227 -0.1183  0.0284 -0.3901
  369TMC3    C2 5571   4.569   0.186  13.166  0.5519  0.0218  0.4831
  369TMC3    C3 5572   4.445   0.244  13.171 -0.2743  1.2604  0.5208
  369TMC3    C4 5573   4.495   0.009  13.303 -0.4641 -0.0774  0.6101
  369TMC3    C5 5574   4.370   0.071  13.308 -0.3446  0.2247  0.1780
  369TMC3    C6 5575   4.344   0.190  13.245  0.1875  0.5754 -0.2165
  369TMC3     C 5576   4.647   4.698  13.137 -0.0522  0.7914  0.1577
  369TMC3     O 5577   4.663   4.583  13.176 -0.4978 -0.0216  0.5273
  369TMC3     H 5578   4.654   0.233  13.120  0.2853 -0.5817 -0.6489
  369TMC3    H1 5579   4.498   4.643  13.344  1.0077 -0.1707  0.2852
  369TMC3    H2 5580   4.240   0.220  13.235  0.8094  2.1071 -2.2300
  369TMC3    C7 5581   4.251   4.724  13.343 -0.9478  0.1039  0.4102
  369TMC3    C8 5582   4.411   0.310  13.048  0.2064 -0.3910 -0.3777
  369TMC3    O1 5583   4.147   0.042  13.302 -0.1631 -0.1075  0.3684
  369TMC3    O2 5584   4.483   0.293  12.948 -0.4248 -0.0517  0.3237
  370TMC3    C1 5585   4.205   0.702  16.124 -0.4055 -0.1795 -0.2034
  370TMC3    C2 5586   4.132   0.635  16.215  0.1426 -0.6974 -0.1123
  370TMC3    C3 5587   4.117   0.497  16.203 -0.3377  0.3105  0.3710
  370TMC3    C4 5588   4.259   0.642  16.015 -0.6176 -0.0095  0.4274
  370TMC3    C5 5589   4.241   0.500  16.014 -0.3186 -0.0628  0.4026
  370TMC3    C6 5590   4.169   0.431  16.100 -0.2241  0.8630  0.2699
  370TMC3     C 5591   4.274   0.819  16.180  0.5993 -0.0019  0.5272
  370TMC3     O 5592   4.260   0.854  16.298 -0.0865 -0.5408  0.3785
  370TMC3     H 5593   4.100   0.675  16.311  0.7528 -0.9310  0.1880
  370TMC3    H1 5594   4.311   0.689  15.932  0.1701 -0.1454  0.8420
  370TMC3    H2 5595   4.173   0.323  16.091 -1.3539  1.0647 -2.7753
  370TMC3    C7 5596   4.281   0.436  15.890 -0.0308 -0.7818 -0.4861
  370TMC3    C8 5597   4.041   0.421  16.305 -0.2166 -0.7635  0.3659
  370TMC3    O1 5598   4.283   0.502  15.788 -0.0620 -0.1353  0.0233
  370TMC3    O2 5599   4.041   0.300  16.288 -0.3205 -0.7171 -0.2423
  371TMC3    C1 5600   0.871   3.508  15.592 -0.3508 -0.4095 -0.0813
  371TMC3    C2 5601   0.743   3.500  15.647 -0.2757 -0.0033  0.7461
  371TMC3    C3 5602   0.671   3.612  15.647 -0.3442  0.1862 -0.2939
  371TMC3    C4 5603   0.929   3.625  15.554 -0.3330  0.3108  0.5395
  371TMC3    C5 5604   0.849   3.740  15.562  0.0237 -0.4033 -0.0238
  371TMC3    C6 5605   0.726   3.739  15.616  0.1143 -0.2405  0.0233
  371TMC3     C 5606   0.917   3.393  15.514 -0.5495 -1.0234  0.3238
  371TMC3     O 5607   0.966   3.413  15.408  0.5220  0.2597  0.8100
  371TMC3     H 5608   0.716   3.402  15.685 -3.0096  0.1111 -0.9403
  371TMC3    H1 5609   1.030   3.621  15.516 -0.7541  0.0212 -0.5486
  371TMC3    H2 5610   0.671   3.833  15.614  1.0208  0.2644 -1.2639
  371TMC3    C7 5611   0.907   3.864  15.528 -0.5513 -0.7143 -0.9116
  371TMC3    C8 5612   0.529   3.607  15.697  0.4813  0.1860  0.4511
  371TMC3    O1 5613   0.854   3.962  15.574 -0.1993  0.4719  0.2831
  371TMC3    O2 5614   0.478   3.499  15.708  0.1306 -0.1726 -0.4800
  372MPD2     C 5615   4.540   0.235  13.628 -0.3875  0.1881  0.4388
  372MPD2    C1 5616   4.675   0.238  13.650  0.4186  0.1511  0.1120
  372MPD2    C2 5617   4.731   0.164  13.750 -0.1877  0.0511 -0.6009
  372MPD2    C3 5618   4.658   0.073  13.822  0.2366  0.3923  0.1867
  372MPD2    C4 5619   4.522   0.065  13.802 -0.0163  0.7104 -0.7204
  372MPD2    C5 5620   4.464   0.153  13.709 -0.4171 -0.1689  0.5238
  372MPD2     H 5621   0.104   0.168  13.755 -0.2912  1.6739  0.3327
  372MPD2    H1 5622   4.459   4.724  13.847  0.1824  1.6466  1.1798
  372MPD2    H2 5623   4.488   0.283  13.546 -0.5939 -1.4762 -0.3857
  372MPD2    H3 5624   4.356   0.161  13.696 -0.5006 -0.4076  1.0825
  372MPD2     N 5625   4.726   0.003  13.926 -0.3080  0.1138  0.3602
  372MPD2    H5 5626   0.083   0.035  13.955 -0.5688  2.2615 -1.1875
  372MPD2    N1 5627   0.035   0.306  13.564 -0.1832  0.2872 -0.1198
  372MPD2    H7 5628   0.130   0.297  13.597 -0.9981 -2.8232  1.2972
  373TMC3    C1 5629   0.016   4.555  14.067 -0.0060  0.4169 -0.1277
  373TMC3    C2 5630   0.072   4.634  14.164  0.0204  0.0538 -0.4653
  373TMC3    C3 5631   0.146   4.571  14.267  0.3932  0.1010 -0.4869
  373TMC3    C4 5632   0.054   4.432  14.065 -0.3338 -0.8642 -0.5836
  373TMC3    C5 5633   0.118   4.366  14.163  0.2036  0.5078 -0.6409
  373TMC3    C6 5634   0.164   4.435  14.276  0.0432 -0.1229  0.0512
  373TMC3     C 5635   4.682   4.610  13.957  0.2366 -0.0863  0.5071
  373TMC3     O 5636   4.601   4.535  13.901  0.0802  0.4403  0.2929
  373TMC3     H 5637   0.057   0.006  14.167 -0.6487 -0.0831  1.4538
  373TMC3    H1 5638   0.029   4.369  13.980  2.0637 -0.8917 -1.2448
  373TMC3    H2 5639   0.224   4.385  14.351 -0.5070 -1.4671 -0.4033
  373TMC3    C7 5640   0.193   4.254  14.114  0.2636 -0.4873 -0.8012
  373TMC3    C8 5641   0.245   4.652  14.336 -0.2796 -0.1792  0.2349
  373TMC3    O1 5642   0.307   4.242  14.153 -0.1060  0.8929 -0.3916
  373TMC3    O2 5643   0.254   0.031  14.296  0.3507 -0.0896  0.2068
  374TMC3    C1 5644   0.777   0.377   9.789 -0.0478  0.9549 -0.8375
  374TMC3    C2 5645   0.851   0.477   9.826 -0.5838 -0.2085 -0.9855
  374TMC3    C3 5646   0.823   0.600   9.782  0.2830  0.0225  0.5625
  374TMC3    C4 5647   0.679   0.385   9.689 -0.3044 -0.2067  0.0616
  374TMC3    C5 5648   0.667   0.509   9.632 -0.7821 -0.5031  0.1338
  374TMC3    C6 5649   0.733   0.618   9.675  0.6436 -0.1481  0.6789
  374TMC3     C 5650   0.820   0.253   9.843  0.1357 -0.0847 -0.2474
  374TMC3     O 5651   0.930   0.239   9.890 -0.2404 -0.0420 -0.6340
  374TMC3     H 5652   0.910   0.468   9.917 -0.8852  1.5466 -0.6307
  374TMC3    H1 5653   0.633   0.297   9.645 -0.6083 -0.5001  0.9723
  374TMC3    H2 5654   0.710   0.718   9.640 -1.7676  0.1527  3.1804
  374TMC3    C7 5655   0.575   0.517   9.528 -0.4039  0.0359 -0.5106
  374TMC3    C8 5656   0.875   0.716   9.855  0.1956 -0.6405 -0.2375
  374TMC3    O1 5657   0.507   0.418   9.500  0.1524  0.5461 -0.0825
  374TMC3    O2 5658   0.821   0.823   9.833 -0.0121  0.5389  0.4879
  375MPD2     C 5659   0.582   0.367  16.857  0.0586  0.0347  0.7776
  375MPD2    C1 5660   0.551   0.454  16.756  0.1683  0.1912 -0.2339
  375MPD2    C2 5661   0.622   0.461  16.644 -0.2620 -1.2889 -0.1828
  375MPD2    C3 5662   0.715   0.360  16.623 -0.2613 -0.6035 -0.3475
  375MPD2    C4 5663   0.742   0.269  16.719 -0.4830 -0.0086 -0.5302
  375MPD2    C5 5664   0.676   0.271  16.840  0.4879  0.2407 -0.3167
  375MPD2     H 5665   0.595   0.533  16.567  1.4446 -1.0126 -0.5183
  375MPD2    H1 5666   0.830   0.206  16.709  0.6448  1.6664 -1.1926
  375MPD2    H2 5667   0.539   0.369  16.956 -0.3878  2.5253  0.5291
  375MPD2    H3 5668   0.708   0.205  16.920  1.5941 -0.0016 -0.9651
  375MPD2     N 5669   0.798   0.346  16.510 -0.3409 -0.9970  0.0311
  375MPD2    H5 5670   0.866   0.271  16.515  0.7888  0.0868  0.6725
  375MPD2    N1 5671   0.445   0.546  16.770  0.1044  0.2283 -0.3800
  375MPD2    H7 5672   0.435   0.611  16.694 -2.9105  1.6922  1.2950
  376TMC3    C1 5673   0.881   0.398  16.298  0.7997 -0.0717 -0.3455
  376TMC3    C2 5674   1.009   0.370  16.339  0.6699  0.2804  0.0616
  376TMC3    C3 5675   1.104   0.354  16.239  0.0461 -0.6052  0.5593
  376TMC3    C4 5676   0.843   0.425  16.164 -0.3036  0.4342  0.0566
  376TMC3    C5 5677   0.942   0.399  16.071  0.2835 -0.6067  0.1554
  376TMC3    C6 5678   1.072   0.368  16.111 -0.8768  0.1235  0.1112
  376TMC3     C 5679   0.776   0.420  16.393  0.1028  0.4048  0.5904
  376TMC3     O 5680   0.672   0.469  16.356  0.1266  0.0124  0.2716
  376TMC3     H 5681   1.035   0.380  16.443  1.8616  0.7733 -0.2873
  376TMC3    H1 5682   0.745   0.451  16.127 -0.3259 -0.0900 -0.2489
  376TMC3    H2 5683   1.158   0.365  16.044 -2.8315 -1.7023 -2.3078
  376TMC3    C7 5684   0.936   0.453  15.940  0.3988  0.0230 -0.4997
  376TMC3    C8 5685   1.245   0.359  16.278  0.2222  1.0381  0.4006
  376TMC3    O1 5686   0.953   0.380  15.844  0.2520 -0.0161 -0.3676
  376TMC3    O2 5687   1.322   0.355  16.182 -0.1881  0.8046  0.2241
  377MPD2     C 5688   3.182   0.073  12.627  0.2052  0.4318  0.1556
  377MPD2    C1 5689   3.309   0.013  12.632  0.0747 -0.3178 -0.5685
  377MPD2    C2 5690   3.319   4.621  12.684  0.3782 -0.1854 -0.1329
  377MPD2    C3 5691   3.203   4.550  12.719  0.1747  0.5000 -0.6926
  377MPD2    C4 5692   3.078   4.609  12.703 -0.4961 -0.6082 -0.2088
  377MPD2    C5 5693   3.068   0.005  12.659 -0.5325 -0.4656 -0.3315
  377MPD2     H 5694   3.420   4.584  12.698  1.4289  1.3904 -3.4793
  377MPD2    H1 5695   2.997   4.546  12.738 -0.6635 -0.3678 -0.1667
  377MPD2    H2 5696   3.158   0.167  12.579  1.1761 -0.2113 -1.6227
  377MPD2    H3 5697   2.972   0.055  12.663  0.0159  0.7750 -2.3377
  377MPD2     N 5698   3.204   4.417  12.772  0.6064 -0.3714 -0.0844
  377MPD2    H5 5699   3.116   4.367  12.767  1.2773 -1.5472 -0.0800
  377MPD2    N1 5700   3.409   0.095  12.581  0.0107 -0.1830  0.0703
  377MPD2    H7 5701   3.384   0.187  12.545 -1.9635 -0.9065 -0.4374
  378TMC3    C1 5702   3.637   0.281  12.298 -0.1070  0.4333  1.0682
  378TMC3    C2 5703   3.561   0.227  12.398 -0.1965 -0.9499  0.4408
  378TMC3    C3 5704   3.619   0.165  12.503 -0.0679 -0.7271 -0.4893
  378TMC3    C4 5705   3.772   0.276  12.297 -0.3494 -0.4918 -0.6235
  378TMC3    C5 5706   3.822   0.198  12.399  0.1880  0.6172  0.8603
  378TMC3    C6 5707   3.754   0.153  12.510 -0.0633 -0.0312  0.4345
  378TMC3     C 5708   3.572   0.404  12.243  1.3330  0.3775  0.2606
  378TMC3     O 5709   3.460   0.426  12.276 -0.1249 -0.7082 -0.0099
  378TMC3     H 5710   3.453   0.233  12.388  0.0252  0.2383 -1.2021
  378TMC3    H1 5711   3.832   0.327  12.222 -0.5071  1.7991  0.8118
  378TMC3    H2 5712   3.806   0.119  12.598  0.6313  1.1909  0.4955
  378TMC3    C7 5713   3.964   0.163  12.399 -0.2151 -1.7841  0.4492
  378TMC3    C8 5714   3.540   0.064  12.569 -0.0441  0.0839 -0.1175
  378TMC3    O1 5715   4.025   0.145  12.503 -0.1858 -0.3008  0.1735
  378TMC3    O2 5716   3.597   4.694  12.592  0.0371 -0.2028 -0.3362
  379MPD2     C 5717   4.671   3.169  16.459 -0.2969 -0.0469 -0.4154
  379MPD2    C1 5718   0.001   3.089  16.380  0.1113 -0.4684 -0.7638
  379MPD2    C2 5719   0.119   3.034  16.435 -0.4212 -0.7685 -0.2967
  379MPD2    C3 5720   0.185   3.079  16.546  0.0770  0.0268 -0.0888
  379MPD2    C4 5721   0.110   3.166  16.624 -0.1661  0.6617  0.4855
  379MPD2    C5 5722   4.718   3.208  16.582  0.7837 -0.3826 -0.3130
  379MPD2     H 5723   0.161   2.945  16.391  0.9368 -0.9663  1.3662
  379MPD2    H1 5724   0.148   3.198  16.720  2.0664  1.8423 -0.7735
  379MPD2    H2 5725   4.573   3.210  16.440  0.2298  1.8058  0.8335
  379MPD2    H3 5726   4.657   3.274  16.643  1.7553  1.7573 -1.6695
  379MPD2     N 5727   0.303   3.023  16.599  0.1333  0.2063  0.1563
  379MPD2    H5 5728   0.328   3.049  16.693 -1.8339  1.2676  0.3702
  379MPD2    N1 5729   4.671   3.053  16.260 -0.1125  0.5775  0.3061
  379MPD2    H7 5730   4.574   3.079  16.245 -0.4469 -0.6963  0.2821
  380TMC3    C1 5731   4.646   2.990  16.031  0.4364  0.0805 -0.3730
  380TMC3    C2 5732   4.691   2.912  15.934  0.3699  0.0664  0.0559
  380TMC3    C3 5733   4.654   2.931  15.803  0.4907 -0.4267 -0.5994
  380TMC3    C4 5734   4.549   3.083  16.007 -0.9577 -0.1748 -0.2420
  380TMC3    C5 5735   4.495   3.078  15.885 -0.7623 -0.3614 -0.7784
  380TMC3    C6 5736   4.543   3.008  15.779 -0.1674  0.5037  0.3848
  380TMC3     C 5737   4.729   2.996  16.152  0.2369 -0.0280  0.3254
  380TMC3     O 5738   0.101   2.938  16.145  0.1144 -0.0154  0.4610
  380TMC3     H 5739   0.020   2.828  15.959  1.5555  0.4337 -1.7519
  380TMC3    H1 5740   4.501   3.137  16.088 -2.3422 -0.7591 -0.6623
  380TMC3    H2 5741   4.528   3.038  15.676  2.4123  2.1124  0.4758
  380TMC3    C7 5742   4.383   3.168  15.860 -0.1291  0.6035 -1.2028
  380TMC3    C8 5743   0.023   2.925  15.700  0.7444 -0.0551  0.1574
  380TMC3    O1 5744   4.383   3.277  15.913 -0.0223 -0.2445 -0.2644
  380TMC3    O2 5745   4.722   2.953  15.586  0.4252  0.6701 -0.0768
  381TMC3    C1 5746   4.176   4.461  16.242  0.5577 -0.6740 -0.0454
  381TMC3    C2 5747   4.204   4.585  16.192 -0.0472  0.9745  0.0002
  381TMC3    C3 5748   4.186   4.700  16.270 -0.5118  0.0095 -0.5710
  381TMC3    C4 5749   4.115   4.451  16.364  0.4005 -0.2076 -0.3810
  381TMC3    C5 5750   4.093   4.569  16.433 -0.3873  0.4505  0.0159
  381TMC3    C6 5751   4.125   4.698  16.394 -0.3339  0.4301  0.0322
  381TMC3     C 5752   4.190   4.336  16.175 -0.2127  0.1370 -0.7375
  381TMC3     O 5753   4.134   4.241  16.217 -0.6823 -0.0274 -0.8992
  381TMC3     H 5754   4.243   4.604  16.093  2.0433  1.5254  0.9438
  381TMC3    H1 5755   4.098   4.354  16.408 -1.9529 -0.4391 -1.8041
  381TMC3    H2 5756   4.095   0.054  16.444 -2.8539 -0.6818  0.5228
  381TMC3    C7 5757   4.019   4.547  16.555 -0.0149  0.5136 -0.2732
  381TMC3    C8 5758   4.271   0.078  16.226  0.0351 -0.6000  0.8053
  381TMC3    O1 5759   4.033   4.438  16.604 -0.0119 -0.2676  0.0047
  381TMC3    O2 5760   4.319   0.071  16.112  0.0938  0.0544  0.0431
  382MPD2     C 5761   3.556   1.685  16.842  0.5250  0.3670  0.2494
  382MPD2    C1 5762   3.556   1.669  16.978  0.1778  0.0694 -0.2168
  382MPD2    C2 5763   3.535   1.538  17.030 -0.4279 -1.2583  0.5205
  382MPD2    C3 5764   3.497   1.434  16.945  0.0379 -0.5252  0.3325
  382MPD2    C4 5765   3.493   1.453  16.814 -0.2987  0.1167  0.0319
  382MPD2    C5 5766   3.518   1.580  16.759 -0.3217  0.6381 -0.1069
  382MPD2     H 5767   3.533   1.527  17.138  0.8162 -1.4447  0.5191
  382MPD2    H1 5768   3.461   1.381  16.739 -0.5252  1.3170 -1.0225
  382MPD2    H2 5769   3.557   1.784  16.799  0.1059  0.0399 -0.5148
  382MPD2    H3 5770   3.482   1.592  16.657  1.1512 -2.4266 -1.0014
  382MPD2     N 5771   3.443   1.313  16.989 -0.2197  0.0055  0.0380
  382MPD2    H5 5772   3.399   1.246  16.927 -0.8185 -0.4305  0.9388
  382MPD2    N1 5773   3.577   1.773  17.070 -0.5722 -0.2834 -0.1138
  382MPD2    H7 5774   3.582   1.751  17.169 -0.2940  1.5292  0.2633
  383TMC3    C1 5775   3.412   1.125  17.125 -0.5211  0.0432 -0.0903
  383TMC3    C2 5776   3.316   1.086  17.032 -0.6677 -0.0522 -0.2633
  383TMC3    C3 5777   3.283   0.960  17.025  0.2847 -0.3718  0.7968
  383TMC3    C4 5778   3.475   1.038  17.207  0.4634  0.2907 -0.3461
  383TMC3    C5 5779   3.438   0.906  17.200  0.1479 -0.5271 -0.4762
  383TMC3    C6 5780   3.338   0.868  17.115 -0.6593  0.6654  0.2631
  383TMC3     C 5781   3.472   1.262  17.115 -0.1363 -0.0379  0.0123
  383TMC3     O 5782   3.547   1.307  17.200 -0.7237 -0.0961  0.0373
  383TMC3     H 5783   3.268   1.147  16.957 -0.4393 -1.5318 -1.6131
  383TMC3    H1 5784   3.553   1.078  17.272  1.7383 -1.6667 -0.6883
  383TMC3    H2 5785   3.310   0.764  17.126  3.4584 -0.3179  1.5057
  383TMC3    C7 5786   3.483   0.818  17.300  0.9827  0.0963 -1.0103
  383TMC3    C8 5787   3.149   0.937  16.979 -0.0064  0.1217  0.2581
  383TMC3    O1 5788   3.473   0.701  17.274  0.0455 -0.2854  0.0905
  383TMC3    O2 5789   3.068   1.024  16.998 -0.1072  0.4133  0.6953
  384MPD2     C 5790   0.793   3.516  12.516  0.0855 -0.0858 -0.2227
  384MPD2    C1 5791   0.761   3.398  12.578  0.7144 -0.5987 -0.0827
  384MPD2    C2 5792   0.839   3.286  12.564 -0.2662 -0.5618 -0.0585
  384MPD2    C3 5793   0.943   3.282  12.472 -0.7358  0.5003 -0.4417
  384MPD2    C4 5794   0.979   3.401  12.416  0.5839  0.1887  0.4434
  384MPD2    C5 5795   0.908   3.518  12.444  0.3098 -0.0582 -0.0203
  384MPD2     H 5796   0.814   3.200  12.625  1.4884 -1.3005 -0.4104
  384MPD2    H1 5797   1.060   3.404  12.344  0.5459 -0.1097  0.3880
  384MPD2    H2 5798   0.736   3.607  12.534 -2.2734 -0.9935 -3.1308
  384MPD2    H3 5799   0.921   3.613  12.393  0.0970  0.3154  0.6218
  384MPD2     N 5800   1.019   3.162  12.465 -0.0839  0.1396 -0.4606
  384MPD2    H5 5801   0.985   3.084  12.520 -0.4193  0.2002 -0.5811
  384MPD2    N1 5802   0.653   3.385  12.664 -0.9454 -0.6118 -0.0401
  384MPD2    H7 5803   0.643   3.297  12.714 -0.3562 -1.9730 -2.2797
  385TMC3    C1 5804   1.138   2.992  12.353  0.2777 -0.4548 -0.2306
  385TMC3    C2 5805   1.115   2.936  12.232 -0.0274  0.3462 -0.7826
  385TMC3    C3 5806   1.054   2.812  12.235 -0.0966  0.0737 -0.5004
  385TMC3    C4 5807   1.111   2.927  12.475  0.1772  0.1358 -0.7301
  385TMC3    C5 5808   1.039   2.813  12.467  0.2124  0.1581 -0.1024
  385TMC3    C6 5809   1.017   2.747  12.350  0.5539 -0.0768  0.2909
  385TMC3     C 5810   1.106   3.135  12.363  0.6853  0.3795  0.0636
  385TMC3     O 5811   1.115   3.189  12.253 -0.2271  0.0994 -0.3337
  385TMC3     H 5812   1.141   2.981  12.137 -0.0158  0.3357 -0.7844
  385TMC3    H1 5813   1.132   2.971  12.572  1.8860 -1.6286 -0.2992
  385TMC3    H2 5814   0.959   2.655  12.344 -1.7672  1.4862 -1.4498
  385TMC3    C7 5815   0.920   2.833  12.544 -1.1728  0.1932 -0.2443
  385TMC3    C8 5816   1.032   2.737  12.112 -0.0166 -1.1012  0.7766
  385TMC3    O1 5817   0.904   2.952  12.573  0.0434  0.3606 -0.3268
  385TMC3    O2 5818   1.060   2.619  12.122  0.0415  0.0362 -0.6658
  386TMC3    C1 5819   0.207   0.012  11.488  0.2845  0.1028  0.1450
  386TMC3    C2 5820   0.284   0.069  11.388  0.0931  0.3251 -0.2555
  386TMC3    C3 5821   0.308   0.203  11.399 -0.7368  0.2127  0.2072
  386TMC3    C4 5822   0.172   0.078  11.602  0.1241  0.0532  0.3191
  386TMC3    C5 5823   0.190   0.216  11.605  0.1581 -0.3611  0.1335
  386TMC3    C6 5824   0.256   0.281  11.504 -0.4408  0.5709  0.0658
  386TMC3     C 5825   0.152   4.616  11.445  0.2982  0.0130 -0.0749
  386TMC3     O 5826   0.143   4.583  11.328  0.1539 -0.3141  0.1333
  386TMC3     H 5827   0.320   0.013  11.303  0.9222 -1.0066  0.9795
  386TMC3    H1 5828   0.117   0.028  11.681 -1.7151 -0.9658 -1.6312
  386TMC3    H2 5829   0.278   0.387  11.506  1.3015  0.2355 -2.5342
  386TMC3    C7 5830   0.085   0.287  11.678  0.7258  0.6330 -0.2374
  386TMC3    C8 5831   0.368   0.259  11.282 -0.4790  0.5334 -0.5724
  386TMC3    O1 5832   0.026   0.231  11.766  0.3222 -0.3555 -0.6828
  386TMC3    O2 5833   0.313   0.240  11.173 -0.2496  0.1184 -0.4812
  387MPD2     C 5834   2.860   1.385   9.914 -0.6874 -0.3132 -0.6034
  387MPD2    C1 5835   2.892   1.338  10.038  0.5101  0.1044  0.1135
  387MPD2    C2 5836   2.914   1.206  10.052 -0.2421 -0.2859  0.9380
  387MPD2    C3 5837   2.910   1.112   9.945  0.3170 -0.3700 -0.4942
  387MPD2    C4 5838   2.855   1.160   9.828  0.2313  0.1864 -0.9574
  387MPD2    C5 5839   2.846   1.294   9.811 -0.9051  0.0251  0.1294
  387MPD2     H 5840   2.973   1.170  10.136  2.6769 -0.3952 -1.1352
  387MPD2    H1 5841   2.858   1.093   9.743 -0.0126  0.4525 -1.1730
  387MPD2    H2 5842   2.844   1.492   9.908 -0.3796 -0.2254  0.0696
  387MPD2    H3 5843   2.845   1.339   9.713  1.9371 -0.6459 -0.2105
  387MPD2     N 5844   2.965   0.991   9.965  0.5847 -0.0702 -0.2657
  387MPD2    H5 5845   2.995   0.961  10.057  1.1466 -0.1490 -0.4711
  387MPD2    N1 5846   2.910   1.420  10.152  0.5100 -0.0157  0.0417
  387MPD2    H7 5847   2.943   1.376  10.238  0.6960  2.1164  1.0732
  388TMC3    C1 5848   2.993   1.593  10.289  0.4184 -0.2332 -0.7336
  388TMC3    C2 5849   3.017   1.728  10.304 -0.0503 -0.2971 -0.0210
  388TMC3    C3 5850   3.131   1.766  10.379 -0.4695  0.9344  0.6314
  388TMC3    C4 5851   3.072   1.498  10.349 -0.1497 -0.2510 -0.0037
  388TMC3    C5 5852   3.192   1.541  10.410  0.7778 -0.0835  0.5343
  388TMC3    C6 5853   3.218   1.673  10.437 -0.4557 -0.3791  0.0489
  388TMC3     C 5854   2.908   1.559  10.166  0.8009 -0.2213 -0.0210
  388TMC3     O 5855   2.858   1.639  10.089  0.1992  0.0607 -0.2874
  388TMC3     H 5856   2.947   1.799  10.262 -1.0619 -1.6164 -0.5802
  388TMC3    H1 5857   3.045   1.394  10.355  1.4475 -0.7426 -1.4143
  388TMC3    H2 5858   3.304   1.710  10.492  1.8738 -1.9959 -2.4890
  388TMC3    C7 5859   3.270   1.432  10.470 -0.2348 -0.7427 -0.6145
  388TMC3    C8 5860   3.164   1.903  10.361 -0.5153 -0.4003  0.5209
  388TMC3    O1 5861   3.325   1.454  10.574  0.4159  0.4835 -0.2827
  388TMC3    O2 5862   3.073   1.980  10.342  0.0617  1.0111 -0.1580
  389MPD2     C 5863   2.610   3.775  11.006 -0.0653 -0.1178 -0.0088
  389MPD2    C1 5864   2.473   3.783  10.985 -0.1242 -0.0959  0.2582
  389MPD2    C2 5865   2.395   3.701  11.061  0.3154  0.0305 -0.1148
  389MPD2    C3 5866   2.436   3.636  11.174 -0.9974  0.3661 -0.7696
  389MPD2    C4 5867   2.570   3.625  11.198 -0.1753 -0.3511 -0.9410
  389MPD2    C5 5868   2.651   3.693  11.110 -0.0340  0.2886 -0.0236
  389MPD2     H 5869   2.290   3.699  11.037  0.2142  0.5971  0.2754
  389MPD2    H1 5870   2.605   3.563  11.279 -0.5393 -1.8853 -1.9512
  389MPD2    H2 5871   2.681   3.837  10.953 -0.9520 -0.5261 -1.6733
  389MPD2    H3 5872   2.755   3.689  11.142  1.1395 -0.0965 -3.8844
  389MPD2     N 5873   2.347   3.581  11.265 -0.4063 -0.8720 -0.4179
  389MPD2    H5 5874   2.391   3.549  11.351 -0.7068  0.3495  0.1974
  389MPD2    N1 5875   2.436   3.875  10.882  0.2638  0.0498 -0.2745
  389MPD2    H7 5876   2.512   3.919  10.831 -0.4153  1.1707 -0.3124
  390TMC3    C1 5877   2.151   3.524  11.373 -0.0851 -0.6756  0.1680
  390TMC3    C2 5878   2.056   3.433  11.391 -0.0068 -0.8305 -0.3617
  390TMC3    C3 5879   1.982   3.426  11.509 -0.8924 -1.0532  0.5603
  390TMC3    C4 5880   2.174   3.610  11.476  0.6390  0.1986  0.2802
  390TMC3    C5 5881   2.092   3.612  11.587  0.1393  0.6269 -0.2143
  390TMC3    C6 5882   1.999   3.515  11.614  1.2265 -0.1033 -0.2125
  390TMC3     C 5883   2.209   3.565  11.255 -0.2571 -0.0209  0.5093
  390TMC3     O 5884   2.128   3.571  11.163 -0.2006  0.4793  0.7095
  390TMC3     H 5885   2.036   3.367  11.307 -1.0523  0.5780 -1.2329
  390TMC3    H1 5886   2.228   3.702  11.458 -2.1237  1.0503 -3.6040
  390TMC3    H2 5887   1.957   3.502  11.713 -0.5616  1.2814 -0.7860
  390TMC3    C7 5888   2.123   3.705  11.688  0.6969  0.0230 -0.8733
  390TMC3    C8 5889   1.874   3.331  11.521  0.4875 -0.5974  0.8042
  390TMC3    O1 5890   2.237   3.735  11.716  0.8643  0.0561  0.5626
  390TMC3    O2 5891   1.878   3.218  11.476  0.1882  0.5589  0.5023
  391MPD2     C 5892   1.703   0.423  11.100 -0.1525  0.4768  0.4138
  391MPD2    C1 5893   1.805   0.501  11.043  0.5206 -0.1216  0.6066
  391MPD2    C2 5894   1.813   0.528  10.907 -0.0728  0.6850 -0.5141
  391MPD2    C3 5895   1.717   0.481  10.825  0.8025 -0.1422 -0.1935
  391MPD2    C4 5896   1.621   0.393  10.878 -1.1755  0.3272  0.5068
  391MPD2    C5 5897   1.618   0.358  11.010 -0.0731 -0.7598  0.8160
  391MPD2     H 5898   1.885   0.597  10.865 -0.9720  2.1079  0.2877
  391MPD2    H1 5899   1.541   0.360  10.812 -0.6592  0.4508 -0.1811
  391MPD2    H2 5900   1.693   0.403  11.206 -0.1045  1.9765  0.6982
  391MPD2    H3 5901   1.542   0.290  11.048 -0.9791  0.6747  1.5487
  391MPD2     N 5902   1.712   0.519  10.689  0.2946  0.1251 -0.2074
  391MPD2    H5 5903   1.794   0.570  10.657  0.9799 -1.3434 -0.7775
  391MPD2    N1 5904   1.885   0.566  11.137 -0.1931 -0.1558 -0.6082
  391MPD2    H7 5905   1.858   0.559  11.234 -0.7677  0.6229 -0.7127
  392TMC3    C1 5906   1.636   0.557  10.465 -0.4075  0.2919 -0.3537
  392TMC3    C2 5907   1.542   0.555  10.371 -0.1502  0.1564  1.0755
  392TMC3    C3 5908   1.562   0.622  10.253 -0.0327 -0.1552  0.0020
  392TMC3    C4 5909   1.751   0.625  10.444  1.0426  0.1358 -0.8135
  392TMC3    C5 5910   1.770   0.689  10.319 -0.6296 -0.3551 -0.3846
  392TMC3    C6 5911   1.674   0.688  10.224  0.0733 -0.1730 -0.1765
  392TMC3     C 5912   1.605   0.503  10.602  0.2986  0.6790 -0.2707
  392TMC3     O 5913   1.490   0.466  10.618  0.2696 -0.2012  0.1879
  392TMC3     H 5914   1.446   0.508  10.391 -2.4383  3.5907 -1.8588
  392TMC3    H1 5915   1.816   0.644  10.529  1.0137  0.0993 -0.7832
  392TMC3    H2 5916   1.681   0.749  10.135 -0.3902  1.6618  1.0597
  392TMC3    C7 5917   1.863   0.800  10.314  0.5178  0.0542 -0.4367
  392TMC3    C8 5918   1.452   0.623  10.157  0.9659  0.5117  0.3129
  392TMC3    O1 5919   1.891   0.851  10.422 -0.6221  0.7634  0.4306
  392TMC3    O2 5920   1.384   0.523  10.145 -0.0242  0.4438 -0.0577
  393TMC3    C1 5921   0.915   3.456  11.110 -0.5662 -0.0239  0.0702
  393TMC3    C2 5922   0.927   3.461  11.250  0.5413  0.6394 -0.0443
  393TMC3    C3 5923   0.975   3.348  11.312 -0.5493 -0.2132  0.1284
  393TMC3    C4 5924   0.925   3.339  11.045 -0.3292 -0.4011  0.5360
  393TMC3    C5 5925   0.947   3.223  11.119 -0.6348 -0.1879  0.7031
  393TMC3    C6 5926   0.987   3.227  11.248 -0.0267  0.3622  0.5611
  393TMC3     C 5927   0.846   3.565  11.056  0.8802  0.3565 -0.2698
  393TMC3     O 5928   0.787   3.638  11.140 -0.3132  0.4609 -0.1894
  393TMC3     H 5929   0.905   3.554  11.303 -1.4419 -0.5034  1.1169
  393TMC3    H1 5930   0.879   3.333  10.947  1.7637  1.1503 -0.5453
  393TMC3    H2 5931   1.018   3.131  11.287  1.5393  0.1150 -1.2800
  393TMC3    C7 5932   0.964   3.096  11.055 -0.2339  0.2000 -0.5943
  393TMC3    C8 5933   0.937   3.327  11.454  0.3249  0.3051 -0.2099
  393TMC3    O1 5934   0.952   2.995  11.119  0.2821 -0.1928  0.1997
  393TMC3    O2 5935   0.892   3.222  11.486 -0.0721 -0.0645  0.1814
  394TMC3    C1 5936   2.300   3.936  10.693  0.1089 -0.0909  0.0854
  394TMC3    C2 5937   2.178   3.986  10.665 -0.2170  0.4816  0.1912
  394TMC3    C3 5938   2.172   4.080  10.566  0.5030  0.0774  0.1954
  394TMC3    C4 5939   2.414   3.953  10.620 -0.2977  0.7066 -0.3321
  394TMC3    C5 5940   2.393   4.010  10.500  0.0947  0.7105 -0.0798
  394TMC3    C6 5941   2.276   4.071  10.473 -0.3085 -0.1826 -0.7057
  394TMC3     C 5942   2.310   3.893  10.834  0.5179  0.2810 -0.7354
  394TMC3     O 5943   2.208   3.859  10.892  0.1933  0.3782  0.1105
  394TMC3     H 5944   2.102   3.968  10.740 -1.6938  0.6972 -1.2640
  394TMC3    H1 5945   2.498   3.889  10.644  0.0262  1.8877  1.6516
  394TMC3    H2 5946   2.264   4.119  10.377 -1.1405 -2.6627 -1.8341
  394TMC3    C7 5947   2.506   4.069  10.431  0.1297  0.8982 -0.2049
  394TMC3    C8 5948   2.036   4.090  10.510  0.2546 -0.7831  0.0469
  394TMC3    O1 5949   2.476   4.173  10.369  0.6288 -0.3838 -0.2186
  394TMC3    O2 5950   1.956   4.011  10.553 -0.0272 -0.0324 -0.3020
  395TMC3    C1 5951   1.812   0.439  14.294  0.3379  0.0080 -0.1158
  395TMC3    C2 5952   1.693   0.491  14.336 -0.6233 -0.4608  0.1753
  395TMC3    C3 5953   1.691   0.587  14.435  0.2518 -0.2722  0.1709
  395TMC3    C4 5954   1.933   0.490  14.350 -0.3286 -0.2917 -0.4021
  395TMC3    C5 5955   1.929   0.601  14.427 -0.2351 -0.1895  0.4747
  395TMC3    C6 5956   1.809   0.653  14.473  0.8318  0.3812  0.2134
  395TMC3     C 5957   1.814   0.293  14.315  0.1832 -0.4847 -0.4552
  395TMC3     O 5958   1.905   0.258  14.391  0.1513 -0.0537 -0.0713
  395TMC3     H 5959   1.605   0.446  14.291 -0.7042  1.6835 -1.8252
  395TMC3    H1 5960   2.030   0.443  14.335 -0.5185 -0.2049 -1.8389
  395TMC3    H2 5961   1.802   0.729  14.550 -0.3938  0.0559  0.4242
  395TMC3    C7 5962   2.047   0.652  14.494 -0.0765 -0.2090 -0.6983
  395TMC3    C8 5963   1.608   0.565  14.550  0.2332 -0.5524 -0.6406
  395TMC3    O1 5964   2.025   0.727  14.586 -0.1524 -0.5643  0.1686
  395TMC3    O2 5965   1.605   0.643  14.645  0.4779  0.1341  0.0085
  396MPD2     C 5966   1.716   1.676  17.118  0.2402 -0.1125  0.1719
  396MPD2    C1 5967   1.857   1.687  17.124  0.0366 -0.1008  0.2343
  396MPD2    C2 5968   1.914   1.776  17.036 -0.2776 -0.4153  0.2586
  396MPD2    C3 5969   1.839   1.847  16.945  1.1909  0.7582  0.8245
  396MPD2    C4 5970   1.701   1.832  16.935  0.1030 -0.2169 -1.4549
  396MPD2    C5 5971   1.642   1.753  17.026  0.2061  0.2003  0.4586
  396MPD2     H 5972   2.020   1.798  17.044 -0.5921  1.0583  0.2843
  396MPD2    H1 5973   1.635   1.896  16.878 -1.5872  0.6549  1.4496
  396MPD2    H2 5974   1.653   1.617  17.183  1.1456  0.5716  1.6616
  396MPD2    H3 5975   1.534   1.738  17.029  0.2741 -1.1946 -3.0428
  396MPD2     N 5976   1.903   1.949  16.866 -0.7295 -0.0962 -0.2953
  396MPD2    H5 5977   2.003   1.955  16.881 -0.8049  1.2270 -0.3667
  396MPD2    N1 5978   1.927   1.620  17.222  0.2406 -0.1756  0.4188
  396MPD2    H7 5979   1.866   1.557  17.274 -1.3763 -0.2223 -1.5280
  397TMC3    C1 5980   2.096   1.552  17.367  0.6287  0.3901 -0.0760
  397TMC3    C2 5981   2.190   1.456  17.346  0.1934  0.0660 -0.4557
  397TMC3    C3 5982   2.157   1.321  17.375  0.0641  0.8059 -0.0210
  397TMC3    C4 5983   1.986   1.527  17.443 -0.0739 -0.6349 -0.2673
  397TMC3    C5 5984   1.971   1.401  17.492 -0.0420 -0.0430 -0.7415
  397TMC3    C6 5985   2.057   1.298  17.469  0.2725 -0.0374 -0.0323
  397TMC3     C 5986   2.068   1.619  17.241  0.7398 -0.1663  0.5317
  397TMC3     O 5987   2.162   1.661  17.169  0.6156  0.0077 -0.0330
  397TMC3     H 5988   2.257   1.489  17.267  0.2756  0.8221 -0.0727
  397TMC3    H1 5989   1.911   1.602  17.459  0.4548  0.0207 -0.8742
  397TMC3    H2 5990   2.035   1.198  17.505 -0.6686  1.1075  2.5870
  397TMC3    C7 5991   1.845   1.394  17.557  0.0333 -0.0100  0.7486
  397TMC3    C8 5992   2.107   1.262  17.251  0.3053 -0.5145  0.5926
  397TMC3    O1 5993   1.753   1.451  17.502  0.3172 -0.6351 -0.5972
  397TMC3    O2 5994   1.986   1.267  17.221 -0.3231 -0.6201  0.2671
  398MPD2     C 5995   0.104   2.906   0.376 -0.7518 -0.3408  0.0615
  398MPD2    C1 5996   0.225   2.832   0.367 -0.1734  0.2535 -0.1338
  398MPD2    C2 5997   0.344   2.903   0.390  0.3957 -0.2290 -0.5309
  398MPD2    C3 5998   0.339   3.032   0.429  0.1049 -1.1059  0.3735
  398MPD2    C4 5999   0.221   3.100   0.445  0.1104  0.3326  0.2497
  398MPD2    C5 6000   0.101   3.035   0.415  0.7468  0.1697  0.2021
  398MPD2     H 6001   0.437   2.848   0.380  0.9866  0.8100 -0.7384
  398MPD2    H1 6002   0.205   3.204   0.473  2.0083  1.9938 -4.7903
  398MPD2    H2 6003   0.008   2.856   0.385 -2.8387  3.2680 -2.0429
  398MPD2    H3 6004   0.003   3.072   0.445 -0.3298 -2.0361 -0.5691
  398MPD2     N 6005   0.459   3.096   0.444  0.0395 -0.4083 -0.2545
  398MPD2    H5 6006   0.545   3.054   0.409  0.7525  2.6523 -2.1955
  398MPD2    N1 6007   0.230   2.696   0.332 -0.0033 -0.2925 -0.6187
  398MPD2    H7 6008   0.319   2.651   0.316 -1.1079 -2.3897 -0.8995
  399TMC3    C1 6009   0.132   2.482   0.299  1.1522 -0.2735  0.0430
  399TMC3    C2 6010   0.246   2.424   0.360  0.0914  0.4097  0.2069
  399TMC3    C3 6011   0.232   2.303   0.422 -0.1447  0.2107  0.1158
  399TMC3    C4 6012   0.014   2.411   0.284  0.0844 -0.3292 -0.5185
  399TMC3    C5 6013   0.010   2.289   0.343  0.4519  1.0269  0.3060
  399TMC3    C6 6014   0.114   2.232   0.412 -0.3048 -0.2482  0.5387
  399TMC3     C 6015   0.115   2.626   0.294  0.6173  0.4282 -0.6830
  399TMC3     O 6016   0.003   2.668   0.277  0.0466 -0.1278 -0.2476
  399TMC3     H 6017   0.346   2.465   0.351  0.3323 -0.4023 -0.8486
  399TMC3    H1 6018   4.658   2.456   0.246  0.2469  1.2322  0.8881
  399TMC3    H2 6019   0.095   2.135   0.457  0.4794 -1.0680 -0.8792
  399TMC3    C7 6020   4.663   2.192   0.278 -0.2030 -0.5405  0.0112
  399TMC3    C8 6021   0.354   2.250   0.486  0.3042  0.0616  0.2340
  399TMC3    O1 6022   4.643   2.084   0.340 -0.6673 -0.0243  0.4280
  399TMC3    O2 6023   0.440   2.330   0.522 -0.0095  0.1394  0.1761
  400TMC3    C1 6024   3.071   0.712  16.543 -0.6571  0.0601  0.5734
  400TMC3    C2 6025   2.938   0.700  16.502  0.0475 -0.1933 -0.2022
  400TMC3    C3 6026   2.854   0.806  16.510 -0.4310  0.3123  0.2314
  400TMC3    C4 6027   3.123   0.831  16.589  0.2766  0.3837  0.6118
  400TMC3    C5 6028   3.031   0.932  16.594  0.4206 -0.1756  0.2568
  400TMC3    C6 6029   2.902   0.927  16.551 -0.2132 -0.5612 -0.2434
  400TMC3     C 6030   3.160   0.592  16.550  0.1739 -0.1556  0.3862
  400TMC3     O 6031   3.278   0.608  16.524  0.0834  0.2494  0.1055
  400TMC3     H 6032   2.902   0.600  16.480 -0.3656  0.1728 -1.1681
  400TMC3    H1 6033   3.215   0.842  16.644  2.8291 -1.0632 -3.3587
  400TMC3    H2 6034   2.836   1.013  16.552  1.3620  0.6385  0.1723
  400TMC3    C7 6035   3.086   1.056  16.650  0.2080 -0.7678 -0.5427
  400TMC3    C8 6036   2.709   0.790  16.508 -0.8455 -0.1005  0.5249
  400TMC3    O1 6037   3.207   1.068  16.673  0.0397 -0.4798 -0.0775
  400TMC3    O2 6038   2.644   0.890  16.515  0.1276  0.2122 -0.0811
  401MPD2     C 6039   1.158   4.262   0.613 -0.3520  0.2872 -0.1587
  401MPD2    C1 6040   1.296   4.240   0.616  0.2641 -1.2696  0.5765
  401MPD2    C2 6041   1.345   4.119   0.575  0.0022 -0.3003 -0.7555
  401MPD2    C3 6042   1.263   4.011   0.548  0.2922 -0.5509  0.3041
  401MPD2    C4 6043   1.126   4.031   0.563  0.1878  0.0658 -0.3366
  401MPD2    C5 6044   1.075   4.159   0.584 -0.0974 -0.3195  0.4418
  401MPD2     H 6045   1.451   4.099   0.579  0.0719  0.5237  1.7063
  401MPD2    H1 6046   1.057   3.947   0.558  1.6297 -1.1348  0.0837
  401MPD2    H2 6047   1.115   4.362   0.620 -0.8970  0.2843 -3.5689
  401MPD2    H3 6048   0.968   4.177   0.579 -0.3257 -1.1118  2.1571
  401MPD2     N 6049   1.327   3.889   0.527 -0.1065  0.1890  0.2791
  401MPD2    H5 6050   1.428   3.890   0.522 -0.2206  1.6888 -1.6721
  401MPD2    N1 6051   1.391   4.330   0.667 -0.1429 -0.1280  0.2597
  401MPD2    H7 6052   1.483   4.296   0.696  0.1845  0.1195 -0.4678
  402TMC3    C1 6053   1.340   3.658   0.518  0.0313 -0.7425 -0.4869
  402TMC3    C2 6054   1.410   3.650   0.633 -0.3634 -0.3084 -0.0218
  402TMC3    C3 6055   1.451   3.526   0.666  0.2228 -0.4828 -0.0877
  402TMC3    C4 6056   1.298   3.548   0.450  0.0118 -0.0227  0.3104
  402TMC3    C5 6057   1.354   3.430   0.476  0.3932 -0.1822  0.2009
  402TMC3    C6 6058   1.432   3.419   0.587  0.1670  0.1431 -0.8419
  402TMC3     C 6059   1.255   3.772   0.508  0.1572  0.6040 -0.0088
  402TMC3     O 6060   1.145   3.757   0.463  0.5397 -0.0642  0.1121
  402TMC3     H 6061   1.444   3.736   0.689 -1.0123  0.7906 -1.3112
  402TMC3    H1 6062   1.235   3.563   0.362  0.4554  1.9222  0.3131
  402TMC3    H2 6063   1.476   3.324   0.615  1.5422  1.1333  0.3485
  402TMC3    C7 6064   1.413   3.387   0.349 -0.2080  0.5047 -0.2984
  402TMC3    C8 6065   1.592   3.523   0.701 -0.2426  0.1347  0.1381
  402TMC3    O1 6066   1.343   3.342   0.263 -0.2624 -0.1185 -0.3760
  402TMC3    O2 6067   1.674   3.492   0.613 -0.0925 -0.0859  0.0454
  403MPD2     C 6068   0.158   2.385  13.356 -0.3065  0.4265 -0.2358
  403MPD2    C1 6069   0.174   2.526  13.357  0.2901 -0.3681 -0.1713
  403MPD2    C2 6070   0.300   2.581  13.397 -0.4312 -0.1793 -0.4754
  403MPD2    C3 6071   0.403   2.481  13.434  0.1567  0.1247 -0.3270
  403MPD2    C4 6072   0.373   2.346  13.438 -0.2490 -0.8694  0.0483
  403MPD2    C5 6073   0.252   2.298  13.400 -0.8887  0.2476  0.3590
  403MPD2     H 6074   0.326   2.685  13.391  0.4642 -0.4206 -0.7255
  403MPD2    H1 6075   0.454   2.281  13.468 -0.5303 -1.4661 -0.5010
  403MPD2    H2 6076   0.058   2.349  13.337  0.1678 -0.1356 -1.6596
  403MPD2    H3 6077   0.222   2.194  13.391 -0.7629  0.2304  0.1586
  403MPD2     N 6078   0.525   2.524  13.489  0.2696  0.4448 -0.0416
  403MPD2    H5 6079   0.575   2.454  13.543  0.2420  0.1778 -0.3619
  403MPD2    N1 6080   0.059   2.599  13.316  0.7461  0.0771 -0.2568
  403MPD2    H7 6081   4.713   2.541  13.298 -0.1375  0.9106  0.9780
  404TMC3    C1 6082   4.644   2.769  13.310 -0.0233  0.1840 -0.4033
  404TMC3    C2 6083   4.559   2.686  13.379  0.5631 -0.7592  0.5669
  404TMC3    C3 6084   4.453   2.623  13.319 -0.7940  0.3033 -0.0718
  404TMC3    C4 6085   4.620   2.789  13.177  0.6967 -0.6287 -0.5093
  404TMC3    C5 6086   4.506   2.732  13.112  0.6393 -0.7741 -0.1633
  404TMC3    C6 6087   4.426   2.642  13.183 -0.3675 -0.2844 -0.7437
  404TMC3     C 6088   0.049   2.733  13.316  0.9133  0.8868 -0.0260
  404TMC3     O 6089   0.129   2.820  13.337 -0.4312 -0.3719 -0.7050
  404TMC3     H 6090   4.597   2.641  13.470  0.3205  0.8547  1.4642
  404TMC3    H1 6091   4.690   2.852  13.124 -0.1690  1.0577  0.3445
  404TMC3    H2 6092   4.356   2.579  13.130 -0.7633 -0.7717  0.3631
  404TMC3    C7 6093   4.457   2.789  12.987  0.4674 -0.2101 -0.8443
  404TMC3    C8 6094   4.460   2.489  13.356 -0.7407 -0.2449 -0.5365
  404TMC3    O1 6095   4.537   2.871  12.935 -0.5184  0.2749 -0.9923
  404TMC3    O2 6096   4.534   2.423  13.281 -0.2850 -0.3252 -0.4376
  405MPD2     C 6097   0.496   3.363  14.708 -0.3950 -0.1582 -0.2004
  405MPD2    C1 6098   0.422   3.314  14.602  0.9283 -0.4890  0.0067
  405MPD2    C2 6099   0.319   3.392  14.558  0.7854  0.0428 -0.2065
  405MPD2    C3 6100   0.282   3.511  14.618  0.4461  0.1294  0.4131
  405MPD2    C4 6101   0.367   3.569  14.707 -0.1489 -0.7301  0.3851
  405MPD2    C5 6102   0.473   3.490  14.753  0.6044  0.0186 -0.3495
  405MPD2     H 6103   0.266   3.356  14.470 -0.9762  0.7511  0.5654
  405MPD2    H1 6104   0.351   3.653  14.774 -0.2473  0.8390 -1.6214
  405MPD2    H2 6105   0.580   3.305  14.743  0.1595  0.7854  0.0123
  405MPD2    H3 6106   0.546   3.526  14.825  0.2749 -0.9931  0.4978
  405MPD2     N 6107   0.154   3.561  14.579 -0.0886  0.3002 -0.0468
  405MPD2    H5 6108   0.107   3.514  14.503  0.0913  1.0422 -0.6096
  405MPD2    N1 6109   0.453   3.182  14.555  0.0907  0.0416 -0.1068
  405MPD2    H7 6110   0.538   3.135  14.585  0.8905  0.6542 -1.4045
  406TMC3    C1 6111   4.461   3.753  14.567 -0.3268 -0.4711  0.1087
  406TMC3    C2 6112   4.406   3.634  14.529 -0.6173  0.1139 -0.0686
  406TMC3    C3 6113   4.489   3.533  14.527  0.0713  0.3694 -0.1810
  406TMC3    C4 6114   4.595   3.771  14.588  0.4087 -0.3832 -0.8130
  406TMC3    C5 6115   4.673   3.659  14.588 -0.7194 -0.8324  0.4761
  406TMC3    C6 6116   4.620   3.538  14.558 -0.2696  0.4687  0.0089
  406TMC3     C 6117   4.392   3.871  14.542  0.4232  0.3195 -0.4566
  406TMC3     O 6118   4.447   3.977  14.558  0.3525  0.2838 -0.4201
  406TMC3     H 6119   4.301   3.611  14.509  0.1827 -2.5103 -1.2011
  406TMC3    H1 6120   4.631   3.858  14.642  0.4536 -2.0929  1.8879
  406TMC3    H2 6121   4.673   3.450  14.593  0.8011  1.5200  0.9903
  406TMC3    C7 6122   0.076   3.656  14.646  0.3271  0.1294 -0.5262
  406TMC3    C8 6123   4.443   3.403  14.486  0.6095 -0.4357 -0.2167
  406TMC3    O1 6124   0.099   3.732  14.740  0.5176  0.1312 -0.3887
  406TMC3    O2 6125   4.325   3.370  14.502  0.2978 -0.0331 -0.3108
  407MPD2     C 6126   2.487   0.642   9.679  0.6876  0.5395  0.1857
  407MPD2    C1 6127   2.609   0.671   9.738 -0.1786  0.2043  0.4635
  407MPD2    C2 6128   2.604   0.747   9.847 -0.9801  0.0934  0.0314
  407MPD2    C3 6129   2.489   0.779   9.914  0.2830 -0.2790 -0.0113
  407MPD2    C4 6130   2.372   0.732   9.861  0.9473  0.1103  0.0912
  407MPD2    C5 6131   2.373   0.672   9.737  0.8215  0.0203 -0.6804
  407MPD2     H 6132   2.693   0.803   9.875 -2.1254  1.3976  1.0688
  407MPD2    H1 6133   2.275   0.762   9.900 -0.7876 -3.4595 -1.4820
  407MPD2    H2 6134   2.482   0.594   9.581  0.6823 -2.2541  1.5561
  407MPD2    H3 6135   2.284   0.646   9.681  0.9916 -1.0902 -0.4306
  407MPD2     N 6136   2.484   0.869  10.026 -0.5459 -0.2883 -0.2219
  407MPD2    H5 6137   2.393   0.886  10.068 -0.5533 -1.7980  0.3657
  407MPD2    N1 6138   2.742   0.647   9.686 -0.0415  0.2935 -0.1395
  407MPD2    H7 6139   2.816   0.704   9.725  1.5450 -2.0610  0.3175
  408TMC3    C1 6140   2.894   0.562   9.528  0.3782 -0.0611  0.1882
  408TMC3    C2 6141   2.943   0.438   9.490  0.2767 -0.6771 -0.3568
  408TMC3    C3 6142   3.070   0.447   9.442 -0.2852 -0.2082  0.1672
  408TMC3    C4 6143   2.958   0.683   9.532  0.2909 -0.5726  0.3287
  408TMC3    C5 6144   3.091   0.672   9.477  0.2076 -0.1325  0.1885
  408TMC3    C6 6145   3.152   0.558   9.435 -0.4174 -0.8719 -0.3570
  408TMC3     C 6146   2.761   0.562   9.582  0.3207  0.6588 -0.2633
  408TMC3     O 6147   2.689   0.484   9.523 -0.4076 -0.3816  0.0180
  408TMC3     H 6148   2.891   0.346   9.514  0.0522 -0.4722 -0.0554
  408TMC3    H1 6149   2.906   0.774   9.558 -0.0025 -0.2505 -1.3656
  408TMC3    H2 6150   3.253   0.559   9.396 -1.0092 -2.6643 -1.9370
  408TMC3    C7 6151   3.185   0.775   9.514 -0.2127 -0.2029 -0.1144
  408TMC3    C8 6152   3.134   0.319   9.444  0.0135  0.3545  0.1302
  408TMC3    O1 6153   3.299   0.760   9.468 -0.2140  0.0729  0.2221
  408TMC3    O2 6154   3.061   0.221   9.431 -0.1620 -0.3621 -0.3628
  409MPD2     C 6155   1.808   0.536  17.065 -0.3388 -0.9309  0.8076
  409MPD2    C1 6156   1.940   0.534  17.109 -0.4978 -0.6625 -0.1713
  409MPD2    C2 6157   2.027   0.641  17.076 -0.4881 -0.7102  0.4671
  409MPD2    C3 6158   1.978   0.738  16.982 -0.0211  0.5056  0.4898
  409MPD2    C4 6159   1.851   0.726  16.927  0.4342 -0.4657  0.1634
  409MPD2    C5 6160   1.766   0.632  16.972 -0.1708  0.3797 -0.4929
  409MPD2     H 6161   2.128   0.641  17.115  0.8083 -2.9647 -2.8773
  409MPD2    H1 6162   1.830   0.790  16.842 -2.7478  1.8033  2.6402
  409MPD2    H2 6163   1.733   0.467  17.100  0.5124 -2.1795  0.1568
  409MPD2    H3 6164   1.664   0.625  16.934 -1.0457  0.1087  1.8828
  409MPD2     N 6165   2.061   0.837  16.924 -0.5626 -0.7161 -0.7431
  409MPD2    H5 6166   2.029   0.884  16.840 -1.6670  0.2566  0.2262
  409MPD2    N1 6167   1.984   0.452  17.214  0.2250 -0.2424  0.9336
  409MPD2    H7 6168   2.061   0.486  17.270 -0.6045  0.7788  1.4496
  410TMC3    C1 6169   2.280   0.918  16.861  0.1583  0.3622  0.3955
  410TMC3    C2 6170   2.411   0.928  16.892 -0.1860  0.4944  0.1184
  410TMC3    C3 6171   2.493   1.002  16.812 -0.8425  0.1583 -0.1535
  410TMC3    C4 6172   2.228   0.982  16.751 -0.4880 -0.0227  0.5173
  410TMC3    C5 6173   2.319   1.045  16.672  0.2306 -0.3996 -0.1330
  410TMC3    C6 6174   2.451   1.063  16.700  0.4113  0.3422 -0.0921
  410TMC3     C 6175   2.193   0.855  16.960  0.6473  0.2988 -0.3211
  410TMC3     O 6176   2.241   0.840  17.070 -0.1760  0.4491  0.2717
  410TMC3     H 6177   2.446   0.864  16.972  0.8153  1.3410  0.3551
  410TMC3    H1 6178   2.124   0.972  16.723 -0.1521 -0.8246 -0.4316
  410TMC3    H2 6179   2.527   1.086  16.627  0.1475 -0.6144 -0.6794
  410TMC3    C7 6180   2.301   1.036  16.526 -0.3081  0.0136 -0.6670
  410TMC3    C8 6181   2.635   0.972  16.821  0.2636 -0.0832 -0.6511
  410TMC3    O1 6182   2.225   0.951  16.487 -0.0975  0.3970 -0.2501
  410TMC3    O2 6183   2.725   1.046  16.790  0.2802 -0.4023 -0.9717
  411MPD2     C 6184   2.582   1.129  14.337  0.7651  0.3665 -0.6567
  411MPD2    C1 6185   2.450   1.101  14.301  0.0982  0.5027  0.4967
  411MPD2    C2 6186   2.424   0.988  14.234  0.6097  0.1604  0.0704
  411MPD2    C3 6187   2.519   0.912  14.171 -1.0755 -0.1836 -0.3642
  411MPD2    C4 6188   2.648   0.943  14.191 -0.1058  0.0083 -0.5458
  411MPD2    C5 6189   2.672   1.043  14.279  0.1913  0.6145 -0.1963
  411MPD2     H 6190   2.322   0.953  14.221  0.8739 -0.2729 -0.8540
  411MPD2    H1 6191   2.732   0.880  14.164  0.8660  0.8602  0.4581
  411MPD2    H2 6192   2.616   1.218  14.388  1.9522  0.5008 -1.6902
  411MPD2    H3 6193   2.775   1.058  14.310  0.4585 -0.3936 -0.6199
  411MPD2     N 6194   2.475   0.808  14.089 -0.0950 -1.0014 -0.1084
  411MPD2    H5 6195   2.374   0.797  14.078 -0.6137  0.6568  3.1878
  411MPD2    N1 6196   2.347   1.199  14.327  0.1116 -0.5965 -1.0353
  411MPD2    H7 6197   2.363   1.261  14.406  1.1660 -1.5159 -0.5263
  412TMC3    C1 6198   2.474   0.646  13.927  0.3725 -0.0793  0.5279
  412TMC3    C2 6199   2.383   0.576  14.000  0.3428 -0.7316  0.1135
  412TMC3    C3 6200   2.293   0.506  13.934 -0.8957 -0.4020  0.2404
  412TMC3    C4 6201   2.464   0.659  13.795  0.2375 -0.2460  0.7534
  412TMC3    C5 6202   2.368   0.593  13.729 -0.0487  0.0849 -0.6765
  412TMC3    C6 6203   2.287   0.510  13.797  0.5254  1.1471  0.2921
  412TMC3     C 6204   2.553   0.739  14.001  0.0168 -0.2666  0.2401
  412TMC3     O 6205   2.654   0.769  13.946 -0.6084  0.0098  0.2371
  412TMC3     H 6206   2.399   0.574  14.108  1.6882  0.9839 -0.0586
  412TMC3    H1 6207   2.539   0.712  13.738 -1.4017 -0.9549 -2.0904
  412TMC3    H2 6208   2.218   0.438  13.753  0.4616  0.1692  1.9648
  412TMC3    C7 6209   2.279   0.673  13.646  0.1314  0.3043 -0.5661
  412TMC3    C8 6210   2.170   0.537  13.998  0.1773  0.1585 -0.3902
  412TMC3    O1 6211   2.178   0.618  13.615 -0.0783 -0.8224 -0.0834
  412TMC3    O2 6212   2.171   0.544  14.122  0.1760 -0.1946  0.2765
  413MPD2     C 6213   4.347   0.187  15.237 -0.1674 -0.4290 -0.4601
  413MPD2    C1 6214   4.244   0.112  15.189  0.3534 -0.3558 -0.5728
  413MPD2    C2 6215   4.288   4.711  15.159 -0.0693 -0.0654  0.4477
  413MPD2    C3 6216   4.409   4.668  15.195 -0.2281 -0.1810  0.0172
  413MPD2    C4 6217   4.500   0.012  15.262  0.4039 -0.5760  0.4302
  413MPD2    C5 6218   4.471   0.142  15.274  0.1128 -0.7875  0.0940
  413MPD2     H 6219   4.227   4.639  15.107  1.7359 -0.7071 -0.7788
  413MPD2    H1 6220   4.594   4.716  15.307  1.4245 -0.2962 -1.5168
  413MPD2    H2 6221   4.330   0.293  15.252  1.2459 -0.8764  4.3841
  413MPD2    H3 6222   4.551   0.207  15.307  2.2770 -2.6742 -1.4327
  413MPD2     N 6223   4.445   4.535  15.167  0.7146  0.4440  0.1995
  413MPD2    H5 6224   4.381   4.486  15.105  1.9191 -2.2603  1.0805
  413MPD2    N1 6225   4.115   0.172  15.182  0.0602 -0.4931  0.2557
  413MPD2    H7 6226   4.097   0.266  15.216  1.3421  0.0874 -0.6856
  414TMC3    C1 6227   4.581   4.352  15.129 -0.3083  0.4132  0.1949
  414TMC3    C2 6228   4.668   4.260  15.183 -0.3097 -0.0535  0.0548
  414TMC3    C3 6229   4.693   4.148  15.107 -0.0513  0.4602  0.2356
  414TMC3    C4 6230   4.512   4.333  15.008 -0.3359  0.3962  0.2458
  414TMC3    C5 6231   4.557   4.232  14.932  0.1310  0.0320  0.3230
  414TMC3    C6 6232   4.630   4.129  14.987  0.4022  0.2862 -0.2239
  414TMC3     C 6233   4.572   4.480  15.196 -0.3729 -0.5677  1.1640
  414TMC3     O 6234   4.647   4.509  15.288  0.2132 -0.7104 -0.0149
  414TMC3     H 6235   4.703   4.262  15.285 -1.0961 -0.2177  0.3281
  414TMC3    H1 6236   4.468   4.416  14.953  0.4230  1.9308  1.9720
  414TMC3    H2 6237   4.644   4.038  14.931  0.2383  0.3724 -0.4010
  414TMC3    C7 6238   4.511   4.229  14.797 -0.1889 -1.0555  0.0669
  414TMC3    C8 6239   0.034   4.034  15.161 -0.0333  0.1845 -0.5434
  414TMC3    O1 6240   4.394   4.249  14.780  0.3729  0.3023  0.6535
  414TMC3    O2 6241   0.020   3.927  15.105  0.3463  0.2846 -0.0318
  415TMC3    C1 6242   0.442   2.916  10.186 -0.3172 -0.2295 -0.1395
  415TMC3    C2 6243   0.461   2.986  10.068 -0.1694 -0.0835 -0.1090
  415TMC3    C3 6244   0.455   2.912   9.952  0.5282  0.5844 -0.0745
  415TMC3    C4 6245   0.421   2.780  10.185 -0.1456  0.3623  0.2068
  415TMC3    C5 6246   0.427   2.708  10.072 -1.2465  0.3081 -0.2014
  415TMC3    C6 6247   0.436   2.775   9.949 -0.5418 -0.0837 -0.2288
  415TMC3     C 6248   0.429   2.987  10.314 -0.5642  0.0763  1.1198
  415TMC3     O 6249   0.375   2.914  10.398  0.4039  0.1233 -0.6676
  415TMC3     H 6250   0.451   3.094  10.065 -0.0328 -0.0759 -0.2785
  415TMC3    H1 6251   0.429   2.723  10.277  0.2912 -0.2554 -0.2144
  415TMC3    H2 6252   0.424   2.727   9.852  1.7804 -2.9829  0.9235
  415TMC3    C7 6253   0.413   2.558  10.071  0.9536 -0.5547 -0.0815
  415TMC3    C8 6254   0.449   2.983   9.824 -0.7664 -0.2114 -0.2410
  415TMC3    O1 6255   0.427   2.497   9.968 -0.5776  0.9336 -0.4450
  415TMC3    O2 6256   0.388   2.928   9.730 -0.3136  0.3252  0.0208
  416MPD2     C 6257   1.842   1.865  11.093  0.6130 -0.9714  0.0281
  416MPD2    C1 6258   1.752   1.785  11.162  0.2146  0.8797  0.5146
  416MPD2    C2 6259   1.706   1.668  11.096  0.0427 -0.1487  0.5140
  416MPD2    C3 6260   1.742   1.629  10.967 -0.1500  0.5266 -0.1178
  416MPD2    C4 6261   1.809   1.723  10.899 -0.1810  0.5976  0.9163
  416MPD2    C5 6262   1.867   1.830  10.964 -0.5473 -0.3930  0.1993
  416MPD2     H 6263   1.646   1.593  11.146 -0.1817 -0.6339 -0.4703
  416MPD2    H1 6264   1.854   1.708  10.801 -1.5727  2.2636  0.0233
  416MPD2    H2 6265   1.872   1.957  11.143  2.3053 -1.1028 -0.7522
  416MPD2    H3 6266   1.933   1.894  10.906  0.4216 -0.1520  1.5504
  416MPD2     N 6267   1.693   1.513  10.910 -0.2390 -0.4655  0.2086
  416MPD2    H5 6268   1.633   1.450  10.962 -0.3028 -0.2294  0.4180
  416MPD2    N1 6269   1.700   1.821  11.287  0.0063  0.0329  0.8270
  416MPD2    H7 6270   1.754   1.894  11.332  1.9023 -0.0370 -1.3467
  417TMC3    C1 6271   1.569   1.835  11.474 -0.5267  0.7435 -0.0080
  417TMC3    C2 6272   1.494   1.749  11.551  0.5540  0.6503 -0.6154
  417TMC3    C3 6273   1.393   1.810  11.620 -0.4153 -0.3234  0.0636
  417TMC3    C4 6274   1.552   1.972  11.467 -0.4067 -0.8420 -0.7212
  417TMC3    C5 6275   1.460   2.021  11.554  0.9194 -0.3590  0.1437
  417TMC3    C6 6276   1.374   1.945  11.624  0.4152  0.5469 -0.1956
  417TMC3     C 6277   1.585   1.768  11.342 -0.3140  0.3431 -0.4751
  417TMC3     O 6278   1.498   1.696  11.295  0.0975 -0.1003 -1.1849
  417TMC3     H 6279   1.488   1.646  11.519  1.5026  0.8612 -1.4691
  417TMC3    H1 6280   1.599   2.034  11.391  2.2376 -1.1145  0.7225
  417TMC3    H2 6281   1.308   1.986  11.700 -1.6232  1.3335 -2.3882
  417TMC3    C7 6282   1.397   2.127  11.491 -0.0918 -0.1614 -0.4288
  417TMC3    C8 6283   1.324   1.735  11.720  0.3435  0.0089 -0.2778
  417TMC3    O1 6284   1.452   2.230  11.463  0.1925 -0.1020  0.6867
  417TMC3    O2 6285   1.224   1.670  11.693  0.3687 -0.1691 -0.6777
  418TMC3    C1 6286   0.789   3.158   0.353  0.1759 -0.0333  0.1566
  418TMC3    C2 6287   0.667   3.222   0.368 -0.1986 -0.1031 -0.0775
  418TMC3    C3 6288   0.617   3.243   0.493  0.2044 -0.0682  0.2536
  418TMC3    C4 6289   0.853   3.111   0.461 -0.4378  0.1775  0.4456
  418TMC3    C5 6290   0.794   3.125   0.579  0.2197  0.3610  0.3360
  418TMC3    C6 6291   0.683   3.202   0.602 -0.5403  0.2981  0.6570
  418TMC3     C 6292   0.846   3.132   0.220 -0.2745  0.2322 -0.0147
  418TMC3     O 6293   0.917   3.219   0.175 -0.4685  0.2422  0.3977
  418TMC3     H 6294   0.612   3.242   0.276  0.1329 -2.3338 -0.7677
  418TMC3    H1 6295   0.944   3.054   0.447 -1.4607 -1.5007  0.6516
  418TMC3    H2 6296   0.628   3.205   0.695  0.5490 -2.4838  1.4120
  418TMC3    C7 6297   0.829   3.035   0.692  0.0192  0.4385  0.6764
  418TMC3    C8 6298   0.477   3.216   0.506 -0.1433  0.0826  0.1321
  418TMC3    O1 6299   0.881   2.933   0.650 -0.1378  0.4091 -0.3868
  418TMC3    O2 6300   0.403   3.279   0.573 -0.8739 -0.2083  0.0748
  419MPD2     C 6301   3.815   1.494  12.703 -0.3585  0.8395  0.2820
  419MPD2    C1 6302   3.757   1.615  12.666 -0.4967  0.8974  0.0926
  419MPD2    C2 6303   3.697   1.694  12.765 -0.5993  0.4295 -0.5643
  419MPD2    C3 6304   3.705   1.663  12.895 -0.2793 -0.2398 -0.2178
  419MPD2    C4 6305   3.756   1.537  12.928  0.5580  0.3282 -0.1577
  419MPD2    C5 6306   3.811   1.458  12.836  0.8679 -0.2559  0.2302
  419MPD2     H 6307   3.621   1.767  12.738  0.6056  1.0445 -2.3316
  419MPD2    H1 6308   3.778   1.509  13.030  0.3212  0.1318 -0.1592
  419MPD2    H2 6309   3.861   1.422  12.636 -1.7109  1.6349 -1.5133
  419MPD2    H3 6310   3.846   1.361  12.868  0.4696  0.0955  1.7471
  419MPD2     N 6311   3.654   1.762  12.987 -0.6177 -0.4351 -0.0731
  419MPD2    H5 6312   3.612   1.846  12.948 -2.4921 -1.6475 -0.7045
  419MPD2    N1 6313   3.758   1.661  12.539  0.0838  0.0815 -0.0149
  419MPD2    H7 6314   3.696   1.738  12.518  1.1884  0.7638 -0.8019
  420TMC3    C1 6315   3.573   1.843  13.198 -0.1773  0.6429 -0.1074
  420TMC3    C2 6316   3.499   1.935  13.132 -1.0008 -0.9524 -0.8164
  420TMC3    C3 6317   3.403   1.995  13.208  0.1561  0.3694 -0.1152
  420TMC3    C4 6318   3.553   1.810  13.328 -0.2745  0.4637  0.4853
  420TMC3    C5 6319   3.459   1.878  13.402  0.3208  0.4405  0.5071
  420TMC3    C6 6320   3.384   1.972  13.343 -0.7768  0.4122  0.6337
  420TMC3     C 6321   3.649   1.744  13.119  0.3233 -0.3327  0.8665
  420TMC3     O 6322   3.681   1.641  13.172  0.2796  0.8466  0.4902
  420TMC3     H 6323   3.514   1.957  13.027 -1.4812 -0.3231 -0.7502
  420TMC3    H1 6324   3.615   1.733  13.372  0.7081  1.1390  0.2815
  420TMC3    H2 6325   3.324   2.048  13.392 -1.5167  0.0749  0.2501
  420TMC3    C7 6326   3.411   1.805  13.514 -0.0272  0.0611 -0.6564
  420TMC3    C8 6327   3.303   2.065  13.127  0.7576  0.6950  1.0697
  420TMC3    O1 6328   3.469   1.696  13.547 -0.2524  0.3921 -0.4550
  420TMC3    O2 6329   3.327   2.086  13.006 -0.6530  0.2649 -0.3463
  421TMC3    C1 6330   0.663   2.670  13.603  0.4826 -0.4286  0.8673
  421TMC3    C2 6331   0.627   2.782  13.678  0.5368  0.0085  0.6109
  421TMC3    C3 6332   0.697   2.792  13.797  0.5137 -0.3200  0.4861
  421TMC3    C4 6333   0.752   2.572  13.642  0.0098  0.6032  0.3900
  421TMC3    C5 6334   0.805   2.587  13.760 -0.0400  0.4384  0.0519
  421TMC3    C6 6335   0.791   2.700  13.839 -0.0669 -0.0687 -0.4968
  421TMC3     C 6336   0.578   2.650  13.490  0.4424  1.2600  0.3039
  421TMC3     O 6337   0.546   2.751  13.427 -0.1463  0.6315 -0.0249
  421TMC3     H 6338   0.553   2.849  13.634 -1.0427 -1.8895  0.3948
  421TMC3    H1 6339   0.761   2.489  13.574 -0.7470  0.6926  0.1801
  421TMC3    H2 6340   0.840   2.707  13.936  1.4985 -1.0953 -1.2071
  421TMC3    C7 6341   0.910   2.495  13.815  0.4877  1.4609  0.2461
  421TMC3    C8 6342   0.656   2.892  13.889 -0.1243 -0.2669  0.5584
  421TMC3    O1 6343   0.958   2.513  13.926 -0.0272 -0.3416 -0.6227
  421TMC3    O2 6344   0.734   2.934  13.972  0.4463  0.3668 -0.2982
  422TMC3    C1 6345   1.891   0.231  12.590 -0.9540 -0.2780  0.1456
  422TMC3    C2 6346   1.964   0.339  12.551  0.5921 -0.6168  0.2789
  422TMC3    C3 6347   1.891   0.443  12.497  0.0523  0.1926  0.8724
  422TMC3    C4 6348   1.753   0.219  12.571  0.3842 -0.2789  0.7170
  422TMC3    C5 6349   1.688   0.327  12.524  0.2070  0.0853 -0.2374
  422TMC3    C6 6350   1.753   0.444  12.485  0.5902 -0.2490 -0.6895
  422TMC3     C 6351   1.971   0.111  12.570  0.0369  0.1835  0.2313
  422TMC3     O 6352   2.083   0.094  12.626  0.8905  0.1664  0.4338
  422TMC3     H 6353   2.072   0.340  12.555  0.4838 -1.3536  3.9752
  422TMC3    H1 6354   1.707   0.128  12.608  0.5718 -0.7528 -0.2261
  422TMC3    H2 6355   1.693   0.525  12.444  0.7309 -0.1418 -0.6829
  422TMC3    C7 6356   1.543   0.342  12.517 -0.0591 -0.2070 -0.5173
  422TMC3    C8 6357   1.973   0.555  12.456  0.4150 -0.8485 -0.2042
  422TMC3    O1 6358   1.513   0.411  12.422  0.2796 -0.1101 -0.4201
  422TMC3    O2 6359   2.092   0.549  12.490  0.0752 -0.5065 -0.0446
  423MPD2     C 6360   3.185   0.392  17.686 -0.4888  0.0168  0.5695
  423MPD2    C1 6361   3.259   0.339   0.048 -0.2261  0.0342 -0.1143
  423MPD2    C2 6362   3.387   0.295   0.022 -0.3009  0.6370  0.6204
  423MPD2    C3 6363   3.441   0.297  17.627  0.9312  0.3309 -0.4447
  423MPD2    C4 6364   3.364   0.348  17.530  0.1883 -0.2763  0.1380
  423MPD2    C5 6365   3.240   0.398  17.557 -0.2422  0.4693  0.2938
  423MPD2     H 6366   3.443   0.250   0.104 -0.6321 -1.5331 -0.3588
  423MPD2    H1 6367   3.399   0.346  17.428 -0.0418 -1.5049  0.0885
  423MPD2    H2 6368   3.085   0.433  17.691  0.0697  1.2570  1.4866
  423MPD2    H3 6369   3.179   0.424  17.471  0.9169 -0.2325 -0.7580
  423MPD2     N 6370   3.561   0.232  17.589  0.3471  0.2286 -0.0827
  423MPD2    H5 6371   3.592   0.233  17.493  0.6038  2.1037  0.0260
  423MPD2    N1 6372   3.209   0.335   0.184  0.2590 -0.0226  0.3252
  423MPD2    H7 6373   3.278   0.325   0.259 -0.2714  0.1181  0.8345
  424TMC3    C1 6374   3.065   0.350   0.375 -0.1629  0.1769 -0.1439
  424TMC3    C2 6375   3.169   0.339   0.457  0.3118 -0.1649  0.7236
  424TMC3    C3 6376   3.137   0.299   0.585  0.5491 -0.1720 -1.4478
  424TMC3    C4 6377   2.935   0.343   0.411 -0.0094  0.4102 -0.4550
  424TMC3    C5 6378   2.909   0.306   0.541  0.2710 -0.9445 -0.4455
  424TMC3    C6 6379   3.010   0.276   0.629 -0.2074  0.1414 -0.5048
  424TMC3     C 6380   3.079   0.336   0.226 -0.2139  0.9724 -0.2614
  424TMC3     O 6381   2.977   0.331   0.154 -0.5892  0.1197  0.2163
  424TMC3     H 6382   3.273   0.353   0.428 -0.1923 -3.1999 -2.4896
  424TMC3    H1 6383   2.854   0.353   0.340 -0.2281  4.1611  0.3667
  424TMC3    H2 6384   2.982   0.227   0.722  1.0591 -0.9501 -0.6963
  424TMC3    C7 6385   2.772   0.271   0.574  0.0005 -0.3007  0.3768
  424TMC3    C8 6386   3.243   0.279   0.683 -0.4791  0.8672 -0.5784
  424TMC3    O1 6387   2.695   0.264   0.477  0.0343 -0.4719  0.0449
  424TMC3    O2 6388   3.355   0.256   0.635 -0.1402  0.6000 -1.0670
  425MPD2     C 6389   3.442   4.114  17.694 -0.2561  0.1374  0.7271
  425MPD2    C1 6390   3.355   4.065  17.603 -0.7847  0.4255 -0.0258
  425MPD2    C2 6391   3.224   4.112  17.591  0.2199  0.1158 -0.2388
  425MPD2    C3 6392   3.182   4.202  17.682 -0.3167 -0.4846 -0.7420
  425MPD2    C4 6393   3.266   4.240   0.045  0.3785  0.7715  0.3826
  425MPD2    C5 6394   3.394   4.202   0.047 -0.5394 -0.1575 -0.1449
  425MPD2     H 6395   3.156   4.076  17.515 -0.2779 -0.9492  0.7113
  425MPD2    H1 6396   3.224   4.301   0.124 -0.7347  2.3014 -1.3899
  425MPD2    H2 6397   3.540   4.071  17.711  0.0260 -0.8349 -3.2978
  425MPD2    H3 6398   3.458   4.235   0.128 -1.1795 -0.3212  0.4350
  425MPD2     N 6399   3.044   4.232  17.672  0.1202 -0.2327 -0.9411
  425MPD2    H5 6400   2.987   4.192  17.598 -0.5344  1.0139 -1.1044
  425MPD2    N1 6401   3.399   3.961  17.516  0.6629 -0.3838 -0.1229
  425MPD2    H7 6402   3.489   3.927  17.548  0.5963  0.8564  1.4049
  426TMC3    C1 6403   3.379   3.767  17.386  0.2854 -0.8863  0.0876
  426TMC3    C2 6404   3.327   3.698  17.280 -0.4772  0.5291  0.1002
  426TMC3    C3 6405   3.366   3.570  17.260 -0.4443  0.2796 -0.5269
  426TMC3    C4 6406   3.476   3.711  17.469  0.3220 -0.1826  0.0846
  426TMC3    C5 6407   3.518   3.584  17.443 -0.4248  0.8210  0.5085
  426TMC3    C6 6408   3.466   3.513  17.338  0.1415  0.4130 -0.2002
  426TMC3     C 6409   3.318   3.893  17.426  0.0878  0.7717  0.6667
  426TMC3     O 6410   3.210   3.925  17.376  0.4079  0.1328 -0.0768
  426TMC3     H 6411   3.246   3.741  17.222 -1.7117  0.1413  1.5565
  426TMC3    H1 6412   3.509   3.755  17.562 -2.1486  0.9110  0.4597
  426TMC3    H2 6413   3.484   3.406  17.334  0.4260  0.4336  0.5612
  426TMC3    C7 6414   3.569   3.508  17.549  0.1141  0.5364  0.0217
  426TMC3    C8 6415   3.325   3.487  17.151  0.1970  0.8460 -0.4759
  426TMC3    O1 6416   3.659   3.428  17.520  0.3561 -0.5706  0.0870
  426TMC3    O2 6417   3.411   3.410  17.106 -0.2043  0.4850 -0.4353
  427MPD2     C 6418   1.345   1.167  14.469 -0.3379 -0.1705 -0.3838
  427MPD2    C1 6419   1.345   1.194  14.602  0.0136  0.3503 -0.7017
  427MPD2    C2 6420   1.258   1.288  14.657  0.0119  0.7169  0.3376
  427MPD2    C3 6421   1.166   1.352  14.575 -0.3229 -0.5998  0.3596
  427MPD2    C4 6422   1.160   1.319  14.438 -0.4043 -0.3793 -0.4878
  427MPD2    C5 6423   1.245   1.226  14.387 -0.1960  0.4008 -0.9925
  427MPD2     H 6424   1.273   1.324  14.758 -1.1805  0.7199  0.5120
  427MPD2    H1 6425   1.088   1.368  14.374  0.2629  2.0497  0.5967
  427MPD2    H2 6426   1.413   1.096  14.424 -2.1166 -1.1788 -1.5147
  427MPD2    H3 6427   1.236   1.189  14.285  1.6757 -0.0118 -1.0156
  427MPD2     N 6428   1.080   1.460  14.621  0.0489  0.0811 -0.3924
  427MPD2    H5 6429   1.012   1.496  14.554 -0.7426  1.0473  0.9209
  427MPD2    N1 6430   1.433   1.127  14.694 -0.9425 -0.1587 -0.1979
  427MPD2    H7 6431   1.403   1.134  14.791 -1.2437  0.6596 -0.3532
  428TMC3    C1 6432   1.613   0.981  14.754 -0.4886 -0.2016  0.4942
  428TMC3    C2 6433   1.550   0.921  14.861 -0.4951  1.2318  0.5282
  428TMC3    C3 6434   1.622   0.833  14.929 -0.2395  0.7283 -0.3626
  428TMC3    C4 6435   1.744   0.963  14.727 -0.1848 -0.2559 -0.4581
  428TMC3    C5 6436   1.814   0.893  14.814 -0.0817  0.1838 -0.2398
  428TMC3    C6 6437   1.755   0.819  14.912 -0.0935  0.1239 -0.7198
  428TMC3     C 6438   1.544   1.061  14.657  0.2894 -0.3781  0.1841
  428TMC3     O 6439   1.606   1.071  14.554  0.5077  0.3678  0.6060
  428TMC3     H 6440   1.446   0.940  14.885 -1.2031 -2.8091  0.5987
  428TMC3    H1 6441   1.796   1.023  14.653 -0.0822  0.2210 -0.0019
  428TMC3    H2 6442   1.811   0.746  14.968 -1.4362 -1.0479 -0.9245
  428TMC3    C7 6443   1.943   0.948  14.848  0.1586 -0.1475  0.8217
  428TMC3    C8 6444   1.556   0.752  15.024 -0.3140 -0.5663 -0.2870
  428TMC3    O1 6445   1.973   0.924  14.965  0.1344  0.8102  0.5651
  428TMC3    O2 6446   1.446   0.791  15.056  0.1689 -0.2473 -0.4891
  429MPD2     C 6447   2.366   1.527   0.006  0.2868  0.0335 -0.1678
  429MPD2    C1 6448   2.448   1.436  17.672  0.5887  0.4862  0.2081
  429MPD2    C2 6449   2.494   1.481  17.551  0.5156 -0.3160 -0.7128
  429MPD2    C3 6450   2.474   1.604  17.496  0.0702 -0.3975 -0.2213
  429MPD2    C4 6451   2.399   1.693  17.574  0.1078  0.4617  0.3060
  429MPD2    C5 6452   2.345   1.655  17.694  0.3638 -0.1152  0.3897
  429MPD2     H 6453   2.568   1.415  17.506  1.3588  0.3185 -0.2670
  429MPD2    H1 6454   2.355   1.789  17.549 -0.4019  0.0038 -0.5393
  429MPD2    H2 6455   2.330   1.503   0.105 -2.6040  1.8023 -0.7951
  429MPD2    H3 6456   2.294   1.727   0.018 -1.9142 -1.2122 -0.2084
  429MPD2     N 6457   2.514   1.631  17.364 -0.4581  0.1246 -0.0249
  429MPD2    H5 6458   2.560   1.555  17.315 -0.6577 -0.9128  1.4182
  429MPD2    N1 6459   2.500   1.317  17.730 -0.0201 -0.2219  0.0813
  429MPD2    H7 6460   2.573   1.270  17.677 -0.8107 -1.7998  0.4123
  430TMC3    C1 6461   2.561   1.752  17.160 -0.2653  0.2968  0.0333
  430TMC3    C2 6462   2.556   1.867  17.086  0.1361 -0.0866  0.4218
  430TMC3    C3 6463   2.586   1.857  16.953  0.2072  0.7542  0.2048
  430TMC3    C4 6464   2.593   1.629  17.103  0.5064 -0.2184  0.1270
  430TMC3    C5 6465   2.637   1.633  16.977 -0.0130 -0.0519 -0.0127
  430TMC3    C6 6466   2.640   1.745  16.902 -0.4280 -0.0733 -0.6709
  430TMC3     C 6467   2.505   1.753  17.298  0.1568  0.8592 -0.9888
  430TMC3     O 6468   2.469   1.864  17.345 -0.5908  0.8171  0.5583
  430TMC3     H 6469   2.531   1.962  17.132 -2.3409 -0.9888  0.9238
  430TMC3    H1 6470   2.580   1.539  17.161 -1.2130 -0.5698 -0.7913
  430TMC3    H2 6471   2.671   1.738  16.799 -0.4431 -3.5537 -0.4609
  430TMC3    C7 6472   2.728   1.519  16.932 -0.4938 -0.7945 -0.3910
  430TMC3    C8 6473   2.606   1.966  16.867  0.0407  0.6304 -1.0794
  430TMC3    O1 6474   2.718   1.420  16.999 -0.2631  0.1875  0.2216
  430TMC3    O2 6475   2.658   2.060  16.922  0.1578 -0.3380  0.2537
  431MPD2     C 6476   3.307   2.244  12.532  0.1328  0.4740 -0.1154
  431MPD2    C1 6477   3.438   2.290  12.512 -0.4827 -0.1049 -0.0738
  431MPD2    C2 6478   3.521   2.208  12.443  0.8558  0.4220  0.5943
  431MPD2    C3 6479   3.475   2.086  12.394 -0.2803  0.5817  0.4108
  431MPD2    C4 6480   3.345   2.038  12.423 -0.2627  0.1558 -0.0077
  431MPD2    C5 6481   3.263   2.119  12.488  0.0261 -0.2788 -0.2971
  431MPD2     H 6482   3.623   2.239  12.425  0.6165  1.7980  1.5496
  431MPD2    H1 6483   3.312   1.939  12.394 -2.0139  0.0753  2.3845
  431MPD2    H2 6484   3.245   2.314  12.587  1.9487  0.5302  1.8480
  431MPD2    H3 6485   3.156   2.100  12.494  0.0546  0.1301  1.4441
  431MPD2     N 6486   3.550   2.014  12.299 -0.3733  0.9163 -0.6397
  431MPD2    H5 6487   3.506   1.929  12.262  1.9965 -0.7359  0.3577
  431MPD2    N1 6488   3.499   2.405  12.564 -0.2634  0.0091 -0.2019
  431MPD2    H7 6489   3.600   2.399  12.560 -0.2527  0.0713 -0.0376
  432TMC3    C1 6490   3.765   1.911  12.243  0.2003 -0.6992  0.1320
  432TMC3    C2 6491   3.890   1.931  12.184  0.0009 -0.3637  0.5834
  432TMC3    C3 6492   3.976   1.829  12.198 -0.3165  1.1192  0.4202
  432TMC3    C4 6493   3.728   1.803  12.317 -0.5555 -0.0003  0.0040
  432TMC3    C5 6494   3.815   1.697  12.319  0.5020 -0.5711 -0.6649
  432TMC3    C6 6495   3.941   1.716  12.263 -0.5050 -0.6915 -0.9788
  432TMC3     C 6496   3.685   2.033  12.269  0.0265 -0.1740  0.6411
  432TMC3     O 6497   3.751   2.135  12.264 -0.2818  0.2039 -0.1073
  432TMC3     H 6498   3.903   2.021  12.124  1.3729 -0.5410  0.6193
  432TMC3    H1 6499   3.631   1.801  12.365  0.2286  0.0930  1.5857
  432TMC3    H2 6500   4.020   1.642  12.268  0.9047  0.7956 -1.2027
  432TMC3    C7 6501   3.825   1.606  12.433 -0.7657  0.1452 -0.8432
  432TMC3    C8 6502   4.106   1.831  12.137 -0.1014 -0.3523  0.4883
  432TMC3    O1 6503   3.907   1.514  12.437 -0.0092 -0.4159  0.0641
  432TMC3    O2 6504   4.156   1.727  12.112 -0.5848  0.4338 -0.0347
  433MPD2     C 6505   2.440   0.989  10.606 -0.1751  0.8469  0.2606
  433MPD2    C1 6506   2.486   0.890  10.693 -0.4430  0.0532 -0.5629
  433MPD2    C2 6507   2.485   0.917  10.826 -0.4279 -0.1418 -0.1752
  433MPD2    C3 6508   2.429   1.041  10.879  0.0931  0.1021  0.0987
  433MPD2    C4 6509   2.377   1.129  10.789  0.2592 -0.2561 -0.4005
  433MPD2    C5 6510   2.389   1.108  10.653  0.2204 -0.1893  0.4773
  433MPD2     H 6511   2.514   0.832  10.886  2.8821 -0.7276 -2.5988
  433MPD2    H1 6512   2.322   1.215  10.824 -0.8082 -0.4990 -1.4676
  433MPD2    H2 6513   2.439   0.971  10.499 -1.5630  0.2547  0.3647
  433MPD2    H3 6514   2.346   1.173  10.577 -2.4454 -1.1966  1.1221
  433MPD2     N 6515   2.432   1.054  11.022 -0.8159 -0.1491  0.1855
  433MPD2    H5 6516   2.481   0.985  11.078  1.7382 -0.6186 -2.7165
  433MPD2    N1 6517   2.537   0.768  10.650  0.3450 -0.4795 -0.5089
  433MPD2    H7 6518   2.575   0.714  10.727  0.7948  1.1480  0.4203
  434TMC3    C1 6519   2.592   0.572  10.534 -0.1760 -0.1497  1.1311
  434TMC3    C2 6520   2.611   0.513  10.652 -0.0595 -0.7613  0.3048
  434TMC3    C3 6521   2.592   0.381  10.666 -0.0958  0.2798 -0.3005
  434TMC3    C4 6522   2.562   0.495  10.418 -0.1099  0.3394 -0.3440
  434TMC3    C5 6523   2.544   0.360  10.445 -0.5841  0.3178 -0.4765
  434TMC3    C6 6524   2.564   0.293  10.564 -0.0585  0.0305 -0.0506
  434TMC3     C 6525   2.546   0.711  10.526 -0.2803 -0.3548 -0.5309
  434TMC3     O 6526   2.509   0.756  10.421  0.1889 -0.2509 -0.6895
  434TMC3     H 6527   2.649   0.566  10.739 -0.1952  1.2137 -0.8456
  434TMC3    H1 6528   2.566   0.519  10.312 -1.9721 -0.0928 -0.5097
  434TMC3    H2 6529   2.535   0.190  10.582 -0.2456 -0.4173 -2.8910
  434TMC3    C7 6530   2.532   0.275  10.332 -0.6992 -0.5612  0.0439
  434TMC3    C8 6531   2.558   0.339  10.808  0.4291  0.3950  0.4948
  434TMC3    O1 6532   2.463   0.313  10.238  0.2217  0.0593 -0.5199
  434TMC3    O2 6533   2.590   0.407  10.905  0.2311  0.1399  0.0930
  435MPD2     C 6534   4.507   0.505  15.324  0.1649  0.6065  0.3994
  435MPD2    C1 6535   4.465   0.506  15.455 -0.0835 -0.6634  0.1608
  435MPD2    C2 6536   4.553   0.485  15.553 -0.4980  0.0630  0.0236
  435MPD2    C3 6537   4.688   0.448  15.525  0.0173 -0.4049 -0.2515
  435MPD2    C4 6538   4.726   0.435  15.386  0.0051  0.9399 -0.1144
  435MPD2    C5 6539   4.640   0.479  15.295  0.3607  0.0222 -0.1506
  435MPD2     H 6540   4.516   0.474  15.654  0.0816 -1.3277  0.0795
  435MPD2    H1 6541   0.091   0.406  15.355  0.7700  1.0888  2.1671
  435MPD2    H2 6542   4.432   0.528  15.249  0.0023 -1.0581  0.0563
  435MPD2    H3 6543   4.664   0.448  15.194 -0.1303 -0.8881  0.0086
  435MPD2     N 6544   0.028   0.401  15.631 -0.4938 -0.3145  0.7194
  435MPD2    H5 6545   4.707   0.395  15.715  0.6449 -1.6907  1.3836
  435MPD2    N1 6546   4.338   0.551  15.490 -0.5483  0.2286 -0.1106
  435MPD2    H7 6547   4.324   0.581  15.586  1.5444  0.1973  0.2047
  436TMC3    C1 6548   4.070   0.810  15.590  0.3613 -0.3435 -0.9982
  436TMC3    C2 6549   4.150   0.708  15.561  0.5676  0.4118 -0.1158
  436TMC3    C3 6550   4.123   0.642  15.445 -0.2336  0.0950 -0.0576
  436TMC3    C4 6551   3.983   0.868  15.500  0.1116  0.2306 -0.1343
  436TMC3    C5 6552   3.973   0.807  15.377  0.4836  0.5958 -0.5359
  436TMC3    C6 6553   4.039   0.694  15.348  0.2879 -0.1627  0.1362
  436TMC3     C 6554   4.124   0.898  15.689  0.8500  0.0068 -0.2163
  436TMC3     O 6555   4.238   0.883  15.725 -0.0097  0.1626  0.1484
  436TMC3     H 6556   4.200   0.656  15.642 -0.5451 -0.5616 -0.0651
  436TMC3    H1 6557   3.943   0.968  15.514  0.4189  0.5041 -1.2092
  436TMC3    H2 6558   4.026   0.648  15.251 -2.3700 -1.4044  1.0897
  436TMC3    C7 6559   3.857   0.833  15.284 -0.1645  0.0289  0.0202
  436TMC3    C8 6560   4.223   0.546  15.411 -0.8580  0.1287 -0.0065
  436TMC3    O1 6561   3.842   0.756  15.186  0.4612 -0.5232  0.0394
  436TMC3    O2 6562   4.201   0.481  15.312  0.6252  0.1483 -0.4231
  437TMC3    C1 6563   3.033   3.062  12.507  0.6679  0.2387  0.0480
  437TMC3    C2 6564   2.897   3.096  12.491 -0.1166  0.1353  0.0965
  437TMC3    C3 6565   2.868   3.208  12.419 -0.0818 -0.6697  0.6457
  437TMC3    C4 6566   3.128   3.143  12.459  0.0696  0.2330 -0.5274
  437TMC3    C5 6567   3.099   3.253  12.387  0.4308  0.7460  0.3506
  437TMC3    C6 6568   2.970   3.283  12.360  0.7188 -0.8195  0.1069
  437TMC3     C 6569   3.081   2.946  12.578  0.6566 -0.4544  0.5500
  437TMC3     O 6570   3.199   2.926  12.604  0.3163 -0.0788  0.1764
  437TMC3     H 6571   2.820   3.037  12.540 -0.7652 -0.1933 -1.3105
  437TMC3    H1 6572   3.232   3.115  12.473  0.5344  1.2949 -1.8693
  437TMC3    H2 6573   2.956   3.381  12.315  1.1591 -0.5086  0.6582
  437TMC3    C7 6574   3.201   3.358  12.362  0.1374  0.1201 -0.5893
  437TMC3    C8 6575   2.734   3.268  12.414  0.4771 -0.4286  0.2639
  437TMC3    O1 6576   3.171   3.445  12.279  0.1098  0.1368  0.0275
  437TMC3    O2 6577   2.710   3.359  12.340 -0.1389 -0.3068  0.1255
  438MPD2     C 6578   0.798   2.977  16.825 -0.1856  0.2130  0.7310
  438MPD2    C1 6579   0.842   2.857  16.872  0.2370 -0.5130  0.2211
  438MPD2    C2 6580   0.796   2.809  17.000 -0.2164  0.0201  0.1885
  438MPD2    C3 6581   0.710   2.888  17.080  0.2039  0.0939 -0.2610
  438MPD2    C4 6582   0.675   3.008  17.026 -0.0459 -0.2358  0.1193
  438MPD2    C5 6583   0.716   3.052  16.903 -0.0629 -0.4239 -0.1449
  438MPD2     H 6584   0.829   2.709  17.025  1.1603  0.9139  1.9423
  438MPD2    H1 6585   0.593   3.065  17.068 -0.6796  0.0869 -1.5440
  438MPD2    H2 6586   0.833   3.024  16.733 -1.5214  1.9528  1.1109
  438MPD2    H3 6587   0.673   3.147  16.872 -0.4711 -0.0636  1.5473
  438MPD2     N 6588   0.666   2.850  17.207  0.5378 -0.4452  0.8253
  438MPD2    H5 6589   0.617   2.917  17.266 -1.8057 -0.2734 -1.3403
  438MPD2    N1 6590   0.934   2.781  16.800  0.9964  0.3634 -0.0082
  438MPD2    H7 6591   0.960   2.697  16.850 -1.4107 -0.7493 -0.6701
  439TMC3    C1 6592   1.079   2.712  16.620  0.5325  0.6791 -0.4460
  439TMC3    C2 6593   1.067   2.666  16.493  0.1490 -0.0274  0.0714
  439TMC3    C3 6594   1.152   2.562  16.452  0.0608 -0.5978  0.5791
  439TMC3    C4 6595   1.165   2.660  16.711 -0.2700 -0.8397 -1.6056
  439TMC3    C5 6596   1.250   2.560  16.673  0.3390  0.0875  0.4929
  439TMC3    C6 6597   1.239   2.508  16.544  0.9870 -0.1842 -0.2492
  439TMC3     C 6598   0.983   2.806  16.668  0.3822 -0.0284  0.6057
  439TMC3     O 6599   0.945   2.887  16.585 -0.6397 -0.0325 -0.1300
  439TMC3     H 6600   0.995   2.708  16.425 -1.1162  0.4053  1.6893
  439TMC3    H1 6601   1.181   2.702  16.810 -1.3245  0.8179 -2.1474
  439TMC3    H2 6602   1.317   2.442  16.506 -0.2821 -0.9505 -1.4999
  439TMC3    C7 6603   1.374   2.554  16.744 -0.3548 -0.0401  0.3316
  439TMC3    C8 6604   1.166   2.524  16.314 -0.8191  0.1832 -0.4377
  439TMC3    O1 6605   1.375   2.591  16.861 -0.0342 -1.0662  0.4919
  439TMC3    O2 6606   1.240   2.431  16.280  0.2595 -0.1918 -0.5723
  440MPD2     C 6607   4.403   3.363  14.807 -0.1166  0.7863  0.2892
  440MPD2    C1 6608   4.458   3.474  14.865 -0.1907 -0.0846  0.0634
  440MPD2    C2 6609   4.593   3.465  14.899  0.8443  0.2685  0.0153
  440MPD2    C3 6610   4.673   3.352  14.883  0.4064  0.4342  0.0592
  440MPD2    C4 6611   4.616   3.248  14.817  0.3845 -0.4237 -0.4753
  440MPD2    C5 6612   4.484   3.254  14.779 -0.2772  0.0128 -0.0028
  440MPD2     H 6613   4.624   3.552  14.955 -0.7399  0.7744  0.1094
  440MPD2    H1 6614   4.665   3.156  14.788 -1.4292 -0.7246 -2.5885
  440MPD2    H2 6615   4.305   3.354  14.763 -0.2756 -0.4480  0.9060
  440MPD2    H3 6616   4.441   3.166  14.732  1.1304 -0.6976  0.0582
  440MPD2     N 6617   0.080   3.351  14.918  0.5174 -0.6405 -0.5166
  440MPD2    H5 6618   0.133   3.274  14.877 -2.8317 -1.5353 -3.1756
  440MPD2    N1 6619   4.389   3.595  14.893  0.5436 -0.1165 -0.5134
  440MPD2    H7 6620   4.455   3.667  14.917  0.0219 -0.2885  1.4233
  441TMC3    C1 6621   0.276   3.388  15.035 -0.7539  0.3055  0.5171
  441TMC3    C2 6622   0.355   3.483  15.091  0.5083  0.1675  0.0535
  441TMC3    C3 6623   0.432   3.458  15.197 -0.4257  0.6599 -0.0599
  441TMC3    C4 6624   0.267   3.263  15.096 -0.1663  0.0498 -0.5403
  441TMC3    C5 6625   0.351   3.237  15.206 -0.6085 -0.1309  0.2909
  441TMC3    C6 6626   0.450   3.329  15.246  0.0536 -0.1831 -1.2057
  441TMC3     C 6627   0.148   3.448  14.989  0.3190  0.3927 -0.1501
  441TMC3     O 6628   0.103   3.549  15.041  0.3004  0.6033 -0.0523
  441TMC3     H 6629   0.356   3.581  15.046 -3.4848  0.8143  1.3582
  441TMC3    H1 6630   0.184   3.195  15.085 -0.5535  0.3214  0.7081
  441TMC3    H2 6631   0.514   3.317  15.333 -3.1538 -0.0093  1.1461
  441TMC3    C7 6632   0.307   3.140  15.298  0.2733 -0.4082  0.2811
  441TMC3    C8 6633   0.444   3.565  15.291 -0.5149  0.3345  0.7691
  441TMC3    O1 6634   0.190   3.104  15.287 -0.2209 -0.0778 -0.1448
  441TMC3    O2 6635   0.526   3.560  15.382  0.3265  0.5245  0.6195
  442MPD2     C 6636   2.873   3.954  17.154 -0.4710  0.4948 -1.1976
  442MPD2    C1 6637   2.747   3.936  17.094 -0.0064 -0.1227  0.1740
  442MPD2    C2 6638   2.732   3.856  16.982  1.2264 -0.4304  0.0928
  442MPD2    C3 6639   2.838   3.784  16.932  0.3155  0.2095  0.3621
  442MPD2    C4 6640   2.954   3.782  17.011 -0.1631  0.1158 -0.6806
  442MPD2    C5 6641   2.977   3.873  17.106 -1.1805  0.1583  0.5587
  442MPD2     H 6642   2.637   3.843  16.932  1.5040 -2.9609  0.2055
  442MPD2    H1 6643   3.033   3.714  16.982 -0.1859  0.5102 -1.6567
  442MPD2    H2 6644   2.895   4.026  17.233 -1.1295  0.4972 -1.0183
  442MPD2    H3 6645   3.076   3.878  17.149  0.2179 -2.2881 -2.3840
  442MPD2     N 6646   2.836   3.708  16.814 -0.3473  0.1117 -0.0380
  442MPD2    H5 6647   2.921   3.656  16.795  0.2352  0.9700  0.2150
  442MPD2    N1 6648   2.634   4.005  17.137 -0.2137 -0.7005 -0.4958
  442MPD2    H7 6649   2.552   4.003  17.077 -1.2398 -1.6077  0.9246
  443TMC3    C1 6650   2.494   4.111  17.290 -0.8374 -0.4983  0.2124
  443TMC3    C2 6651   2.420   4.155  17.185 -0.9751 -0.4582 -0.0376
  443TMC3    C3 6652   2.298   4.115  17.160 -0.5084 -0.5242  0.8418
  443TMC3    C4 6653   2.432   4.015  17.372 -1.0483 -0.3775  0.2727
  443TMC3    C5 6654   2.303   3.978  17.353  0.2533 -0.3216  0.3097
  443TMC3    C6 6655   2.229   4.032  17.245 -0.1276  0.1573  0.1935
  443TMC3     C 6656   2.626   4.063  17.265  0.3283 -0.0390 -1.1345
  443TMC3     O 6657   2.696   4.048  17.365  0.1314  0.4013  0.6384
  443TMC3     H 6658   2.470   4.214  17.109 -1.7353 -1.7266 -1.5286
  443TMC3    H1 6659   2.487   3.977  17.458 -1.4020 -0.7689  0.3280
  443TMC3    H2 6660   2.125   4.006  17.227 -0.5011  0.9484  1.1980
  443TMC3    C7 6661   2.278   3.835  17.386 -0.1178  0.6862 -0.9118
  443TMC3    C8 6662   2.288   4.077  17.025 -0.0689  0.2455 -0.8523
  443TMC3    O1 6663   2.373   3.760  17.376  0.1132 -0.0940 -0.5082
  443TMC3    O2 6664   2.391   4.049  16.962 -0.4157 -0.3986 -0.1698
  444MPD2     C 6665   3.206   3.258  17.462 -0.0543  0.2144  0.6956
  444MPD2    C1 6666   3.131   3.191  17.364  0.3648  0.6602  0.4461
  444MPD2    C2 6667   3.181   3.097  17.276  0.0079 -0.4318  0.1497
  444MPD2    C3 6668   3.319   3.078  17.284 -0.0563 -0.2197  0.0972
  444MPD2    C4 6669   3.396   3.141  17.372  0.3171  0.5646  0.1407
  444MPD2    C5 6670   3.342   3.233  17.459  0.1287 -0.4949 -0.0187
  444MPD2     H 6671   3.116   3.046  17.206 -1.6697 -0.3127  1.6142
  444MPD2    H1 6672   3.499   3.117  17.394 -0.5059 -1.1277  2.1955
  444MPD2    H2 6673   3.171   3.326  17.539  1.1144  0.5267  0.9380
  444MPD2    H3 6674   3.408   3.278  17.533  0.8623 -1.5643 -0.0311
  444MPD2     N 6675   3.372   2.977  17.197 -1.1145 -0.9049  0.3498
  444MPD2    H5 6676   3.312   2.928  17.132 -1.3191  0.5624 -0.5648
  444MPD2    N1 6677   2.988   3.187  17.371  0.4266 -0.5880 -0.1065
  444MPD2    H7 6678   2.948   3.105  17.326 -1.8534  0.3374  0.2155
  445TMC3    C1 6679   3.519   2.831  17.097  0.9823 -0.6438  0.1620
  445TMC3    C2 6680   3.435   2.730  17.118 -0.1839  0.0404  0.1160
  445TMC3    C3 6681   3.457   2.615  17.043  0.7158 -0.2740 -0.7145
  445TMC3    C4 6682   3.622   2.828  17.013 -0.1072  0.9867  0.5084
  445TMC3    C5 6683   3.626   2.722  16.921  0.0043  0.2170  0.6507
  445TMC3    C6 6684   3.546   2.614  16.938  0.7593  0.0981 -0.1028
  445TMC3     C 6685   3.505   2.945  17.181 -0.2414 -0.7200 -0.6557
  445TMC3     O 6686   3.608   2.997  17.230  0.1812  0.3873 -0.3868
  445TMC3     H 6687   3.359   2.728  17.196  0.7824  0.6729  1.0813
  445TMC3    H1 6688   3.691   2.912  17.009 -0.1677  1.0459  0.7076
  445TMC3    H2 6689   3.576   2.519  16.896  0.5261  0.2002 -0.5083
  445TMC3    C7 6690   3.727   2.728  16.815 -0.6157  0.1484  0.9405
  445TMC3    C8 6691   3.397   2.491  17.078 -0.1251  0.8639  0.2219
  445TMC3    O1 6692   3.700   2.664  16.718  0.4312  0.2804 -0.2758
  445TMC3    O2 6693   3.417   2.397  17.008  0.5064  0.7378  0.1182
  446MPD2     C 6694   2.105   0.358  11.323  0.5898  0.1777 -0.4395
  446MPD2    C1 6695   2.140   0.323  11.194  0.1584  0.3441 -0.2899
  446MPD2    C2 6696   2.258   0.378  11.140 -0.9461 -0.3541 -0.9039
  446MPD2    C3 6697   2.347   0.453  11.214  0.1067 -0.4566 -0.3223
  446MPD2    C4 6698   2.312   0.487  11.344 -0.0391 -0.3134 -0.2456
  446MPD2    C5 6699   2.192   0.438  11.399 -0.4037  0.3086 -0.1204
  446MPD2     H 6700   2.279   0.333  11.044  3.3865  0.8072 -0.4828
  446MPD2    H1 6701   2.375   0.550  11.405 -0.4632 -0.2274  0.0983
  446MPD2    H2 6702   2.015   0.323  11.372  1.6918 -1.2793  0.5368
  446MPD2    H3 6703   2.167   0.449  11.504 -1.2689  0.2908 -0.3190
  446MPD2     N 6704   2.484   0.473  11.171  0.6358 -0.6482  0.3691
  446MPD2    H5 6705   2.510   0.464  11.073 -0.1474 -1.3855  0.2315
  446MPD2    N1 6706   2.056   0.243  11.112  0.4386  0.1428  0.6404
  446MPD2    H7 6707   2.081   0.238  11.014  1.4597  0.7597  0.8657
  447TMC3    C1 6708   2.709   0.526  11.206 -0.0131  0.3401 -0.1049
  447TMC3    C2 6709   2.703   0.621  11.107 -0.4504  0.2301 -0.3275
  447TMC3    C3 6710   2.824   0.685  11.077  0.2987 -0.0441 -0.2307
  447TMC3    C4 6711   2.823   0.498  11.273  0.3620  0.2240 -0.0129
  447TMC3    C5 6712   2.935   0.580  11.256  0.4660  0.0197  0.0063
  447TMC3    C6 6713   2.939   0.671  11.152  0.0660 -0.0221 -0.5944
  447TMC3     C 6714   2.590   0.485  11.260 -0.3046 -0.2122 -0.0424
  447TMC3     O 6715   2.600   0.462  11.380  0.4614  0.9429  0.1765
  447TMC3     H 6716   2.615   0.652  11.052  0.4652  0.2819 -1.7474
  447TMC3    H1 6717   2.823   0.425  11.353  2.3375 -0.4578 -0.6332
  447TMC3    H2 6718   3.032   0.719  11.124  0.5841 -0.1516  0.8794
  447TMC3    C7 6719   3.068   0.529  11.296  0.3279 -0.3369 -0.3439
  447TMC3    C8 6720   2.818   0.778  10.964 -0.0161 -0.0126  0.0169
  447TMC3    O1 6721   3.158   0.544  11.215 -0.0354 -0.2586  0.0539
  447TMC3    O2 6722   2.748   0.744  10.876 -0.4343  0.0126 -0.5983
  448TMC3    C1 6723   0.607   3.972  16.834  0.0698  0.1593  0.2059
  448TMC3    C2 6724   0.636   3.846  16.789 -0.3975  0.4853 -0.2244
  448TMC3    C3 6725   0.663   3.754  16.878 -1.1485  0.6110 -0.1393
  448TMC3    C4 6726   0.596   4.003  16.969 -0.5349  0.5396  0.4729
  448TMC3    C5 6727   0.601   3.900  17.059 -0.5538 -0.7508 -0.1193
  448TMC3    C6 6728   0.644   3.779  17.010  0.2995 -0.3779  0.4756
  448TMC3     C 6729   0.585   4.079  16.738  0.1948 -0.1395  0.1014
  448TMC3     O 6730   0.560   4.188  16.790  0.0745  0.0287 -0.1527
  448TMC3     H 6731   0.664   3.824  16.687 -1.8248  2.1905 -0.9968
  448TMC3    H1 6732   0.575   4.104  17.001 -0.1944 -0.1205  2.7824
  448TMC3    H2 6733   0.641   3.693  17.076  0.1993 -2.7138 -2.5786
  448TMC3    C7 6734   0.666   3.929  17.185 -0.3133 -0.4621  0.5562
  448TMC3    C8 6735   0.694   3.625  16.825 -0.1646 -0.1517 -0.0762
  448TMC3    O1 6736   0.701   4.045  17.203 -0.7011 -0.4221  0.3800
  448TMC3    O2 6737   0.699   3.539  16.913  0.8561  0.5600 -0.1442
  449MPD2     C 6738   2.358   3.245  14.022 -0.2421 -0.2043 -0.2204
  449MPD2    C1 6739   2.233   3.215  13.977 -1.1022 -0.5005  0.1990
  449MPD2    C2 6740   2.190   3.081  13.984 -0.1826  0.0002  0.9834
  449MPD2    C3 6741   2.271   2.982  14.042 -0.1265 -0.1181 -0.2033
  449MPD2    C4 6742   2.387   3.021  14.105 -0.1229 -0.2835 -0.5472
  449MPD2    C5 6743   2.429   3.150  14.095 -0.0539 -0.6005 -0.6951
  449MPD2     H 6744   2.095   3.043  13.946 -0.7187  2.7865 -0.4194
  449MPD2    H1 6745   2.454   2.955  14.160  1.3347  0.9008 -0.8889
  449MPD2    H2 6746   2.406   3.342  14.018 -1.6660  0.5537  1.2373
  449MPD2    H3 6747   2.527   3.175  14.136 -0.2293 -0.8341 -0.1405
  449MPD2     N 6748   2.202   2.856  14.055  0.9375 -0.2678 -0.5970
  449MPD2    H5 6749   2.112   2.847  14.010  1.7024 -2.3377 -1.7151
  449MPD2    N1 6750   2.150   3.305  13.916 -0.6395 -0.1026  0.0502
  449MPD2    H7 6751   2.060   3.264  13.890  0.7169 -2.9115 -0.2204
  450TMC3    C1 6752   2.047   3.493  13.824  0.0154  0.5761  0.6844
  450TMC3    C2 6753   2.078   3.504  13.692  0.1039  0.3612 -0.2561
  450TMC3    C3 6754   1.977   3.475  13.603  0.3336  0.8883 -0.0542
  450TMC3    C4 6755   1.932   3.439  13.864 -0.8123 -0.1894 -0.2485
  450TMC3    C5 6756   1.830   3.401  13.776 -0.5268  0.3440  0.7504
  450TMC3    C6 6757   1.851   3.430  13.644 -0.6810  0.6097  0.3267
  450TMC3     C 6758   2.166   3.439  13.890  0.1229  0.0074 -0.3193
  450TMC3     O 6759   2.259   3.517  13.883 -0.0497 -0.0988  0.4094
  450TMC3     H 6760   2.167   3.557  13.662  0.0885  0.5408  0.0181
  450TMC3    H1 6761   1.915   3.430  13.970 -0.9056  1.3943 -0.1236
  450TMC3    H2 6762   1.784   3.389  13.569  0.3497 -2.9793  1.3200
  450TMC3    C7 6763   1.797   3.267  13.814  0.2991  0.1166 -0.3521
  450TMC3    C8 6764   1.995   3.483  13.459  0.3754 -0.1224 -0.6574
  450TMC3    O1 6765   1.879   3.223  13.894 -0.0788 -0.0279 -0.0906
  450TMC3    O2 6766   1.899   3.519  13.394 -0.3848  0.4232 -0.5525
  451MPD2     C 6767   4.242   2.147   1.150 -0.3231  0.0682 -0.3535
  451MPD2    C1 6768   4.132   2.098   1.218 -0.0761 -0.0219 -0.8227
  451MPD2    C2 6769   4.086   1.970   1.204 -0.4385  0.0440 -0.1759
  451MPD2    C3 6770   4.154   1.881   1.122 -0.0754 -0.2874 -0.7955
  451MPD2    C4 6771   4.261   1.928   1.044 -0.8919 -0.2626 -0.1649
  451MPD2    C5 6772   4.296   2.063   1.057  0.1320  0.3358 -0.3974
  451MPD2     H 6773   4.001   1.935   1.262 -0.7852  1.6642  0.3063
  451MPD2    H1 6774   4.313   1.856   0.982 -0.8669 -1.7701  1.6069
  451MPD2    H2 6775   4.264   2.254   1.150  1.1675 -0.2360 -0.5149
  451MPD2    H3 6776   4.374   2.098   0.990  1.1409  0.3693  0.7953
  451MPD2     N 6777   4.117   1.744   1.107  0.8032  0.4221 -0.2417
  451MPD2    H5 6778   4.179   1.693   1.045 -2.2106 -2.7323 -0.6400
  451MPD2    N1 6779   4.065   2.196   1.279 -0.3235  0.5038 -0.1937
  451MPD2    H7 6780   4.108   2.285   1.257  1.8120 -0.1950  1.2098
  452TMC3    C1 6781   4.010   1.540   1.120  0.1509 -0.5622 -0.0970
  452TMC3    C2 6782   3.924   1.455   1.196 -0.0434 -0.2041  0.4535
  452TMC3    C3 6783   3.896   1.338   1.145 -0.0100  0.2261  0.1705
  452TMC3    C4 6784   4.059   1.504   1.000  0.6794 -0.0645  0.5648
  452TMC3    C5 6785   4.028   1.376   0.957  0.4382  0.8185 -0.0921
  452TMC3    C6 6786   3.955   1.288   1.036 -0.0145  0.1082 -0.4289
  452TMC3     C 6787   4.013   1.680   1.165 -0.1588 -0.1590  0.5118
  452TMC3     O 6788   3.948   1.710   1.269  0.0061 -0.0654 -0.0525
  452TMC3     H 6789   3.890   1.491   1.292 -0.3580  0.2614  0.1664
  452TMC3    H1 6790   4.117   1.566   0.933 -3.6720  1.0969 -2.1387
  452TMC3    H2 6791   3.938   1.187   1.002  1.4688 -1.4859  3.5629
  452TMC3    C7 6792   4.063   1.336   0.815  0.3776  0.5490 -0.0262
  452TMC3    C8 6793   3.785   1.263   1.203  0.5278 -0.0138  0.0793
  452TMC3    O1 6794   4.079   1.431   0.738 -0.3136  0.6507  0.4379
  452TMC3    O2 6795   3.784   1.141   1.185  0.2478 -0.7650  0.1368
  453TMC3    C1 6796   0.143   4.005  11.616  0.0821 -0.2219 -0.2797
  453TMC3    C2 6797   0.050   3.905  11.645  0.0867 -1.0663  0.5229
  453TMC3    C3 6798   0.016   3.824  11.538  0.0123  0.4780 -0.1092
  453TMC3    C4 6799   0.201   4.018  11.488  0.5108 -0.0814 -0.4080
  453TMC3    C5 6800   0.157   3.926  11.396  0.4549  0.1464  0.1248
  453TMC3    C6 6801   0.069   3.827  11.415 -0.2130 -0.0199  0.4082
  453TMC3     C 6802   0.233   4.031  11.723 -0.5476 -0.4656 -0.3425
  453TMC3     O 6803   0.294   4.142  11.728 -0.5033  0.1123 -0.0901
  453TMC3     H 6804   0.010   3.898  11.745 -1.1656  1.3642  0.1780
  453TMC3    H1 6805   0.294   4.071  11.476  0.9505 -0.3114  1.9650
  453TMC3    H2 6806   0.023   3.768  11.336  0.3109  1.3040 -0.8826
  453TMC3    C7 6807   0.221   3.924  11.267  0.3641  0.0574 -0.1706
  453TMC3    C8 6808   4.637   3.732  11.556  0.4883  0.0420 -0.3020
  453TMC3    O1 6809   0.283   4.027  11.235  0.1058 -0.1299 -0.0976
  453TMC3    O2 6810   4.565   3.706  11.458  0.7239  0.1553  0.1251
  454MPD2     C 6811   3.851   3.338  16.297  0.0371 -0.1697 -0.5818
  454MPD2    C1 6812   3.739   3.275  16.248 -0.1068 -0.2927 -0.4386
  454MPD2    C2 6813   3.693   3.165  16.313  0.6637  0.4770 -0.2332
  454MPD2    C3 6814   3.750   3.137  16.435 -0.4677 -0.1599  0.1843
  454MPD2    C4 6815   3.864   3.196  16.481  0.1421  0.0865  0.1163
  454MPD2    C5 6816   3.923   3.291  16.402  0.3288 -0.1569 -0.8361
  454MPD2     H 6817   3.604   3.114  16.277  0.9850 -0.4088  0.2195
  454MPD2    H1 6818   3.916   3.164  16.571  0.5430  2.1066  0.6049
  454MPD2    H2 6819   3.883   3.433  16.255 -2.0464  1.5741  1.8047
  454MPD2    H3 6820   4.010   3.344  16.440 -2.4279  4.1293 -0.5776
  454MPD2     N 6821   3.695   3.045  16.527  0.2764  0.3393 -0.2491
  454MPD2    H5 6822   3.724   3.053  16.624  1.6442 -1.9989 -0.4529
  454MPD2    N1 6823   3.668   3.317  16.137  0.2373  0.0375  0.0625
  454MPD2    H7 6824   3.602   3.248  16.102 -1.0090  0.5157  1.4687
  455TMC3    C1 6825   3.536   2.894  16.605  0.0276 -0.5867  0.3249
  455TMC3    C2 6826   3.483   2.985  16.692 -0.1375  0.7881  0.4351
  455TMC3    C3 6827   3.364   2.959  16.758 -0.4360  0.5432  0.1766
  455TMC3    C4 6828   3.459   2.778  16.582 -0.8531 -0.3396 -0.1606
  455TMC3    C5 6829   3.343   2.755  16.650 -0.2443 -0.1160  0.0781
  455TMC3    C6 6830   3.299   2.837  16.749  0.2975  0.6321  0.0904
  455TMC3     C 6831   3.613   2.943  16.493  0.1532  0.0636  0.5828
  455TMC3     O 6832   3.578   2.902  16.382 -0.2673 -0.4731  0.0491
  455TMC3     H 6833   3.546   3.072  16.707 -0.0211  0.7189  0.3393
  455TMC3    H1 6834   3.512   2.706  16.520 -1.1662 -0.6522 -0.0591
  455TMC3    H2 6835   3.215   2.821  16.816 -0.3897  2.9170 -0.1995
  455TMC3    C7 6836   3.267   2.633  16.625 -0.5540  0.8703  0.0623
  455TMC3    C8 6837   3.324   3.065  16.843 -0.0425  0.7286 -0.3869
  455TMC3    O1 6838   3.176   2.612  16.703  0.0527 -0.4147  0.4256
  455TMC3    O2 6839   3.414   3.122  16.904 -0.1101 -0.6626  0.1939
  456MPD2     C 6840   1.625   2.658  16.183 -0.1384 -1.0032  0.0111
  456MPD2    C1 6841   1.725   2.726  16.242  0.4255  0.1374 -0.3867
  456MPD2    C2 6842   1.688   2.813  16.349  0.3004 -0.4390 -0.9847
  456MPD2    C3 6843   1.557   2.822  16.392  0.0309  0.2040  0.5739
  456MPD2    C4 6844   1.462   2.748  16.321 -0.2818 -0.0908 -0.1703
  456MPD2    C5 6845   1.495   2.667  16.220  0.7362 -0.2671 -0.1362
  456MPD2     H 6846   1.756   2.881  16.400 -1.4152  0.8085 -0.3785
  456MPD2    H1 6847   1.356   2.752  16.344 -0.1244 -0.0279  0.5211
  456MPD2    H2 6848   1.647   2.607  16.090 -0.1987 -3.1040  1.1509
  456MPD2    H3 6849   1.429   2.608  16.157  1.2450 -0.8326 -0.1433
  456MPD2     N 6850   1.516   2.909  16.492  0.2725  0.3006 -0.2694
  456MPD2    H5 6851   1.588   2.950  16.551  0.2093 -0.4243  0.3118
  456MPD2    N1 6852   1.849   2.701  16.191 -0.3322 -0.1127  0.4366
  456MPD2    H7 6853   1.857   2.639  16.111  2.3028  1.6349 -0.6543
  457TMC3    C1 6854   1.354   3.030  16.625 -0.1933 -0.2875 -0.2931
  457TMC3    C2 6855   1.229   3.095  16.627 -0.6461  0.1328  0.2523
  457TMC3    C3 6856   1.172   3.133  16.748 -0.3787 -0.0688  0.2276
  457TMC3    C4 6857   1.422   3.013  16.744  0.4281 -0.1474  0.1041
  457TMC3    C5 6858   1.357   3.048  16.865 -0.8046 -1.0646 -0.6398
  457TMC3    C6 6859   1.231   3.100  16.868  0.2902 -0.2253 -0.2963
  457TMC3     C 6860   1.382   2.944  16.509 -0.5891  0.1374 -0.6652
  457TMC3     O 6861   1.284   2.927  16.438  0.4770 -0.0384  0.0521
  457TMC3     H 6862   1.189   3.118  16.529 -0.8483 -0.1352  0.2738
  457TMC3    H1 6863   1.523   2.974  16.748  0.0740 -1.2522 -1.7505
  457TMC3    H2 6864   1.194   3.137  16.963  1.4641 -2.3844  0.9999
  457TMC3    C7 6865   1.434   3.061  16.990 -0.4113  0.1932  0.1181
  457TMC3    C8 6866   1.051   3.210  16.753  0.4308 -0.1679 -0.1479
  457TMC3    O1 6867   1.377   3.053  17.099  0.0727 -0.6554  0.2046
  457TMC3    O2 6868   1.017   3.253  16.860  0.5745 -0.6040  1.1060
  458MPD2     C 6869   3.710   3.417  12.312  0.1529 -0.5814  0.2042
  458MPD2    C1 6870   3.678   3.365  12.439  0.1349  0.8186  0.5808
  458MPD2    C2 6871   3.546   3.345  12.477  0.3512  0.6485  0.1267
  458MPD2    C3 6872   3.447   3.369  12.384  0.0463  0.4357 -0.3453
  458MPD2    C4 6873   3.476   3.431  12.266  0.6155 -0.5288  0.5803
  458MPD2    C5 6874   3.607   3.443  12.229  0.7504  0.3346  0.0191
  458MPD2     H 6875   3.524   3.300  12.573 -0.4391 -1.6024 -1.1032
  458MPD2    H1 6876   3.398   3.457  12.194  0.6259 -0.4829  0.5853
  458MPD2    H2 6877   3.815   3.427  12.287  0.5846 -0.0424  2.1915
  458MPD2    H3 6878   3.648   3.481  12.136 -0.5434  1.4277 -0.1047
  458MPD2     N 6879   3.317   3.332  12.432 -0.3359 -0.0887 -0.5717
  458MPD2    H5 6880   3.303   3.281  12.519 -0.0721 -2.6777 -2.0456
  458MPD2    N1 6881   3.789   3.339  12.528  0.2322  0.3158  0.1594
  458MPD2    H7 6882   3.882   3.339  12.487  0.0852  1.1511 -0.1718
  459TMC3    C1 6883   3.906   3.240  12.716  0.0851 -0.0521 -0.0318
  459TMC3    C2 6884   4.027   3.271  12.671 -0.4934 -0.1537  0.2160
  459TMC3    C3 6885   4.140   3.232  12.738 -0.0706  0.2777  0.0959
  459TMC3    C4 6886   3.898   3.177  12.831 -0.6438  0.3280 -0.1617
  459TMC3    C5 6887   4.006   3.142  12.897  0.4575 -0.1065 -0.2924
  459TMC3    C6 6888   4.137   3.173  12.864  0.2430 -0.0218 -0.2208
  459TMC3     C 6889   3.778   3.273  12.655  0.0337 -0.4394  0.3142
  459TMC3     O 6890   3.675   3.227  12.710  0.1070  0.2309 -0.6999
  459TMC3     H 6891   4.036   3.339  12.587  1.7064 -0.5798  0.1152
  459TMC3    H1 6892   3.805   3.158  12.884 -0.1933  0.2697  0.6123
  459TMC3    H2 6893   4.227   3.137  12.912 -1.2669 -1.6456  1.4230
  459TMC3    C7 6894   3.989   3.058  13.005 -0.2323  0.4699 -0.3930
  459TMC3    C8 6895   4.273   3.282  12.707 -0.1115 -0.4360  0.4782
  459TMC3    O1 6896   3.885   2.995  13.018  0.0462  0.8451 -0.1568
  459TMC3    O2 6897   4.349   3.286  12.801 -0.5862 -0.2120  0.2275
  460MPD2     C 6898   3.069   1.036  10.848  0.4546 -0.1740 -0.0515
  460MPD2    C1 6899   2.954   0.959  10.842 -0.3887 -0.3322 -0.0811
  460MPD2    C2 6900   2.862   0.978  10.740 -0.1114 -0.1523 -0.6972
  460MPD2    C3 6901   2.892   1.060  10.634  0.3912  0.1723  0.0917
  460MPD2    C4 6902   3.009   1.135  10.643  0.2072  0.3465  0.6141
  460MPD2    C5 6903   3.096   1.120  10.744  0.0643  0.1244 -0.7347
  460MPD2     H 6904   2.758   0.952  10.749  0.2389 -0.6674  1.7816
  460MPD2    H1 6905   3.041   1.210  10.571  0.7992 -1.3371 -0.9004
  460MPD2    H2 6906   3.132   1.027  10.936 -1.2289  0.0579  1.1719
  460MPD2    H3 6907   3.181   1.187  10.750  0.4618 -0.4736  0.4458
  460MPD2     N 6908   2.794   1.065  10.527 -0.5318 -0.8535 -0.0849
  460MPD2    H5 6909   2.732   0.985  10.520 -0.9830 -0.4990 -0.1533
  460MPD2    N1 6910   2.923   0.874  10.958  1.0921  0.0856 -0.2422
  460MPD2    H7 6911   2.988   0.867  11.035  2.7171  1.2032 -1.5308
  461TMC3    C1 6912   2.692   1.144  10.339 -1.2947  1.1766  1.0980
  461TMC3    C2 6913   2.648   1.017  10.300  0.1305  0.0428  0.8588
  461TMC3    C3 6914   2.546   1.001  10.208  0.5605 -0.4976 -0.2351
  461TMC3    C4 6915   2.652   1.253  10.281 -0.4584  0.7038  0.1260
  461TMC3    C5 6916   2.547   1.236  10.186 -0.6890  0.5403 -0.4880
  461TMC3    C6 6917   2.489   1.115  10.153 -0.2488  0.8720 -0.1385
  461TMC3     C 6918   2.807   1.155  10.423 -0.1791  0.0273  0.7747
  461TMC3     O 6919   2.891   1.247  10.415 -0.2511 -0.1547  0.5783
  461TMC3     H 6920   2.686   0.923  10.340  1.1415  0.0555 -0.0643
  461TMC3    H1 6921   2.693   1.353  10.293  0.1974  0.8294 -3.2438
  461TMC3    H2 6922   2.408   1.097  10.084 -0.1337  0.5527 -0.1916
  461TMC3    C7 6923   2.490   1.353  10.113 -0.5044 -0.0862  0.0041
  461TMC3    C8 6924   2.587   0.910  10.103 -0.4489  0.2451 -0.0158
  461TMC3    O1 6925   2.407   1.327  10.023  0.2015 -0.4949 -0.0476
  461TMC3    O2 6926   2.706   0.899  10.080 -0.0638  0.0052  0.3814
  462TMC3    C1 6927   3.070   0.966  17.381 -0.1128 -1.3295 -0.0528
  462TMC3    C2 6928   3.003   0.917  17.276  0.2177 -0.2439  0.0158
  462TMC3    C3 6929   2.976   0.784  17.272 -0.5009 -0.2022  0.0082
  462TMC3    C4 6930   3.121   0.884  17.481  0.1203 -0.1148  0.1153
  462TMC3    C5 6931   3.097   0.754  17.473  0.2412 -0.1474 -0.1027
  462TMC3    C6 6932   3.043   0.699  17.359 -0.1543 -0.4326 -0.4937
  462TMC3     C 6933   3.092   1.110  17.400  0.8709  0.4211  0.0277
  462TMC3     O 6934   3.140   1.148  17.509  0.1900  0.0294 -0.0094
  462TMC3     H 6935   2.948   0.981  17.208 -1.2442 -0.6466  0.8296
  462TMC3    H1 6936   3.168   0.921  17.572  0.6520 -0.7573  0.0989
  462TMC3    H2 6937   3.017   0.593  17.363  0.3245 -0.4826  1.4423
  462TMC3    C7 6938   3.034   0.705  17.588 -0.6176 -0.4300  0.3275
  462TMC3    C8 6939   2.841   0.739  17.233  0.4114  0.5036 -0.2720
  462TMC3    O1 6940   2.917   0.668  17.572  0.2201 -0.2033  0.0599
  462TMC3    O2 6941   2.749   0.818  17.258  0.6914 -0.5577  0.2397
  463MPD2     C 6942   3.222   0.311   2.109  0.1245 -0.0056  0.3624
  463MPD2    C1 6943   3.287   0.262   1.990 -0.2323  0.5925 -0.8931
  463MPD2    C2 6944   3.404   0.320   1.946  0.4371  0.0883  0.1799
  463MPD2    C3 6945   3.469   0.423   2.017  0.6684 -0.0789  0.3523
  463MPD2    C4 6946   3.405   0.476   2.128 -0.2693  0.7988  0.3566
  463MPD2    C5 6947   3.284   0.420   2.174 -0.0241  0.2493 -0.4785
  463MPD2     H 6948   3.447   0.270   1.860  0.2141 -1.9949  1.2850
  463MPD2    H1 6949   3.449   0.561   2.180  2.9722 -1.0576  0.6928
  463MPD2    H2 6950   3.127   0.275   2.144 -0.1796  0.5895  0.1494
  463MPD2    H3 6951   3.230   0.466   2.256  0.6517  0.8296 -0.3536
  463MPD2     N 6952   3.598   0.474   1.989  0.2875 -0.4361 -0.2443
  463MPD2    H5 6953   3.631   0.551   2.046  2.3038 -0.3329 -1.5401
  463MPD2    N1 6954   3.221   0.174   1.907  0.9037 -0.2240 -0.5352
  463MPD2    H7 6955   3.270   0.150   1.821 -0.7937 -0.4164 -1.4408
  464TMC3    C1 6956   3.067   0.045   1.807 -0.4592 -0.5558  0.2417
  464TMC3    C2 6957   2.937   0.045   1.762 -0.6177 -0.1872 -0.5390
  464TMC3    C3 6958   2.915   4.704   1.649 -0.5841 -0.3350 -0.1459
  464TMC3    C4 6959   3.164   4.692   1.769 -0.4282  0.4042  0.3599
  464TMC3    C5 6960   3.132   4.604   1.669 -0.1146 -0.0945 -0.0866
  464TMC3    C6 6961   3.011   4.614   1.603  0.1241 -0.8428  0.0597
  464TMC3     C 6962   3.092   0.134   1.918  0.2506  0.4886  0.3945
  464TMC3     O 6963   2.999   0.155   1.993 -0.4677  0.3070 -0.0056
  464TMC3     H 6964   2.875   0.125   1.800  0.0951 -0.8802  2.0924
  464TMC3    H1 6965   3.266   4.705   1.802 -0.5264 -1.6807  1.5048
  464TMC3    H2 6966   2.988   4.540   1.527  0.0961 -1.0147  0.2352
  464TMC3    C7 6967   3.234   4.525   1.607  0.2672 -0.6461 -0.2318
  464TMC3    C8 6968   2.800   4.731   1.564  0.3035  0.5652  0.0179
  464TMC3    O1 6969   3.349   4.544   1.647 -0.4680  0.1618 -0.0949
  464TMC3    O2 6970   2.810   4.681   1.447 -0.1122 -0.1220 -0.1693
  465MPD2     C 6971   0.437   3.309  16.588  0.4679 -0.2973 -0.1776
  465MPD2    C1 6972   0.348   3.381  16.669 -0.3066 -0.4022  0.0530
  465MPD2    C2 6973   0.273   3.478  16.607 -0.9007 -0.3673 -0.5763
  465MPD2    C3 6974   0.287   3.516  16.478 -0.3667 -0.0298 -0.6478
  465MPD2    C4 6975   0.375   3.443  16.400 -0.7032 -0.2880  0.3876
  465MPD2    C5 6976   0.444   3.336  16.452  0.8068  0.8802  0.4831
  465MPD2     H 6977   0.206   3.531  16.673 -1.2673 -0.4663 -0.8722
  465MPD2    H1 6978   0.369   3.454  16.292 -0.9122  0.6640  0.5029
  465MPD2    H2 6979   0.504   3.231  16.620  0.3884  0.1871  1.1854
  465MPD2    H3 6980   0.510   3.278  16.389  1.7650  1.5564  0.8717
  465MPD2     N 6981   0.194   3.609  16.429 -0.3779 -0.1202  0.0710
  465MPD2    H5 6982   0.111   3.622  16.486 -0.3884 -0.5101  0.1419
  465MPD2    N1 6983   0.326   3.370  16.808  0.2644 -0.0550 -0.0994
  465MPD2    H7 6984   0.263   3.435  16.855 -0.9382 -0.4195 -1.2094
  466TMC3    C1 6985   4.576   3.726  16.282 -0.7546 -0.2276  0.1877
  466TMC3    C2 6986   4.569   3.862  16.255  0.3083  0.4622  0.7265
  466TMC3    C3 6987   4.687   3.933  16.244  0.0675 -0.4737  1.0502
  466TMC3    C4 6988   4.695   3.663  16.284 -0.3073 -0.0756 -0.0422
  466TMC3    C5 6989   0.071   3.736  16.272  0.5526 -0.5039  0.2390
  466TMC3    C6 6990   0.070   3.867  16.239 -0.1010  0.1293  0.3290
  466TMC3     C 6991   4.467   3.660  16.344 -0.0067  0.2565 -0.7119
  466TMC3     O 6992   4.504   3.581  16.432  0.1638  0.4511  0.2654
  466TMC3     H 6993   4.480   3.924  16.245  0.3894  0.3665 -0.6782
  466TMC3    H1 6994   4.703   3.560  16.318 -2.0904 -0.6760 -1.3993
  466TMC3    H2 6995   0.165   3.908  16.205 -1.5895  1.3365 -2.3718
  466TMC3    C7 6996   0.196   3.671  16.308 -0.1115 -0.2838 -0.2467
  466TMC3    C8 6997   4.685   4.070  16.223 -0.6244 -0.5232 -0.0796
  466TMC3    O1 6998   0.289   3.675  16.229 -0.2807  0.0565  0.3216
  466TMC3    O2 6999   0.041   4.120  16.151 -0.3588  0.3438  0.3436
  467TMC3    C1 7000   0.967   1.981  13.311 -0.4656  0.1861 -0.4018
  467TMC3    C2 7001   1.035   2.070  13.230  0.7510  0.0820 -1.1189
  467TMC3    C3 7002   0.963   2.181  13.197 -0.4192 -0.2263 -0.5088
  467TMC3    C4 7003   0.841   2.002  13.361  0.2604  0.1300 -0.3796
  467TMC3    C5 7004   0.772   2.111  13.310  0.5286  0.0967  0.4688
  467TMC3    C6 7005   0.827   2.197  13.219  0.3057 -0.8122  0.3314
  467TMC3     C 7006   1.042   1.884  13.389  0.1068  0.0394 -0.5783
  467TMC3     O 7007   0.979   1.807  13.457  0.7395  0.1091 -0.0863
  467TMC3     H 7008   1.136   2.054  13.194  1.3509 -0.9661  1.0481
  467TMC3    H1 7009   0.792   1.922  13.413  0.5116 -0.8912 -1.7137
  467TMC3    H2 7010   0.778   2.288  13.188  3.0501  1.0003  1.3727
  467TMC3    C7 7011   0.632   2.100  13.294 -0.1300 -0.0456  0.1087
  467TMC3    C8 7012   1.043   2.306  13.189  0.1114 -0.2939 -0.4827
  467TMC3    O1 7013   0.574   2.164  13.206  0.2663 -0.0038  0.1231
  467TMC3    O2 7014   0.984   2.408  13.234  0.2288  0.4683 -0.5055
  468MPD2     C 7015   4.576   0.381  10.676  0.7886  1.0837 -0.3711
  468MPD2    C1 7016   4.707   0.363  10.696 -0.1878  0.0687 -0.3661
  468MPD2    C2 7017   0.007   0.247  10.758  0.1650 -0.2509  0.1601
  468MPD2    C3 7018   4.656   0.142  10.788  0.1880 -0.4601  0.0247
  468MPD2    C4 7019   4.527   0.158  10.749 -0.1613  0.3552  0.4625
  468MPD2    C5 7020   4.488   0.281  10.700  0.4828  0.3569  0.1115
  468MPD2     H 7021   0.113   0.239  10.779  0.2033 -0.0069  0.0587
  468MPD2    H1 7022   4.443   0.090  10.752  0.3606 -0.3551 -1.1037
  468MPD2    H2 7023   4.531   0.466  10.624  1.4481  2.0138  0.5763
  468MPD2    H3 7024   4.385   0.287  10.669 -0.2079 -2.7154  1.8071
  468MPD2     N 7025   4.695   0.021  10.847  0.3668 -0.0389  0.6238
  468MPD2    H5 7026   4.621   4.687  10.858  0.8783 -1.0428 -2.2425
  468MPD2    N1 7027   0.077   0.454  10.659  0.0421  0.6213 -0.0218
  468MPD2    H7 7028   0.172   0.424  10.678  0.6374  3.2905  1.2723
  469TMC3    C1 7029   0.188   0.641  10.592 -0.1039  0.0349 -0.1216
  469TMC3    C2 7030   0.302   0.570  10.622 -0.0164 -0.0703  0.3887
  469TMC3    C3 7031   0.407   0.624  10.689  0.1527 -0.1974 -0.6676
  469TMC3    C4 7032   0.188   0.773  10.630  0.0652  0.7794 -0.5074
  469TMC3    C5 7033   0.299   0.822  10.692 -0.1514 -0.0842  0.4723
  469TMC3    C6 7034   0.418   0.759  10.706 -0.1100 -0.9080  0.4815
  469TMC3     C 7035   0.060   0.578  10.603 -0.3414  0.0147 -0.6634
  469TMC3     O 7036   4.691   0.641  10.592 -0.7743 -0.5819  0.4603
  469TMC3     H 7037   0.306   0.465  10.595 -0.1042  0.2526 -0.8827
  469TMC3    H1 7038   0.102   0.832  10.600  0.8805  2.6915  0.9082
  469TMC3    H2 7039   0.495   0.796  10.774 -0.4359  1.3254 -0.3642
  469TMC3    C7 7040   0.292   0.957  10.737 -1.1662  0.5142 -0.8023
  469TMC3    C8 7041   0.421   0.544  10.814  0.1470  0.1694  0.3125
  469TMC3    O1 7042   0.396   1.017  10.751 -0.5671  0.5585  0.3675
  469TMC3    O2 7043   0.358   0.440  10.822 -0.4544 -0.1327  0.7362
  470TMC3    C1 7044   2.438   1.160   1.228  0.1468  0.5550 -0.1515
  470TMC3    C2 7045   2.531   1.246   1.279  0.8292  0.0225  0.1804
  470TMC3    C3 7046   2.485   1.358   1.351  0.0113  0.8305 -0.2705
  470TMC3    C4 7047   2.305   1.169   1.265 -0.2508 -0.2872  0.0593
  470TMC3    C5 7048   2.258   1.268   1.343  0.4688  0.0066  0.3459
  470TMC3    C6 7049   2.348   1.370   1.382  0.1797  0.4409 -0.1794
  470TMC3     C 7050   2.492   1.045   1.161 -1.2935  0.0050  0.3302
  470TMC3     O 7051   2.614   1.033   1.155 -0.1930 -0.0906  0.3870
  470TMC3     H 7052   2.636   1.238   1.254  1.1333  1.7663  0.8722
  470TMC3    H1 7053   2.228   1.099   1.235 -0.9309  0.4125  0.1669
  470TMC3    H2 7054   2.323   1.452   1.448  1.7449 -0.8377  2.0034
  470TMC3    C7 7055   2.116   1.297   1.339  0.0840  0.2355 -0.1910
  470TMC3    C8 7056   2.560   1.479   1.358 -0.7926 -0.4795  0.4671
  470TMC3    O1 7057   2.042   1.222   1.279 -0.4897  0.2058  0.5256
  470TMC3    O2 7058   2.494   1.585   1.356  0.4263  0.4820 -0.1057
  471MPD2     C 7059   2.660   2.163  16.398  0.6545 -0.4515 -0.6854
  471MPD2    C1 7060   2.601   2.037  16.385 -0.5384  0.3775 -0.2435
  471MPD2    C2 7061   2.568   1.967  16.497  0.5797  0.0316  0.2045
  471MPD2    C3 7062   2.608   2.011  16.621 -0.0439 -0.1674 -0.1108
  471MPD2    C4 7063   2.686   2.122  16.634  0.5696 -0.1149 -0.7382
  471MPD2    C5 7064   2.703   2.202  16.524 -0.6265 -0.0947 -0.0166
  471MPD2     H 7065   2.514   1.874  16.482 -0.0661  0.5059 -0.4219
  471MPD2    H1 7066   2.710   2.160  16.733  0.4362 -1.5267 -0.1595
  471MPD2    H2 7067   2.679   2.230  16.315  2.1546 -0.7135 -0.5583
  471MPD2    H3 7068   2.760   2.292  16.544 -1.5112  0.5260 -0.2892
  471MPD2     N 7069   2.567   1.938  16.736 -0.3591  0.5747 -0.1723
  471MPD2    H5 7070   2.506   1.860  16.714  1.7167 -1.1155  0.0865
  471MPD2    N1 7071   2.547   1.984  16.271 -0.3003 -0.0462 -0.3516
  471MPD2    H7 7072   2.491   1.901  16.289  1.0159 -0.6394  0.9698
  472TMC3    C1 7073   2.537   1.915  16.053  0.4888 -0.2892  0.3648
  472TMC3    C2 7074   2.443   1.938  15.958  0.5355  0.3332  0.8155
  472TMC3    C3 7075   2.342   1.852  15.928  0.0481 -0.3103 -0.2717
  472TMC3    C4 7076   2.550   1.788  16.113 -0.7852  0.2451 -0.9393
  472TMC3    C5 7077   2.453   1.701  16.085 -0.6834 -0.4130  0.5104
  472TMC3    C6 7078   2.345   1.730  15.998 -0.0485 -0.2717  1.0131
  472TMC3     C 7079   2.569   2.025  16.144 -0.4923 -0.4761 -0.3067
  472TMC3     O 7080   2.631   2.122  16.095  0.2399  0.1037  0.3100
  472TMC3     H 7081   2.444   2.034  15.909  1.6694 -0.5187 -0.8145
  472TMC3    H1 7082   2.632   1.772  16.181  0.0279 -0.1550 -2.0093
  472TMC3    H2 7083   2.251   1.676  16.001 -0.9945  1.4770  2.9048
  472TMC3    C7 7084   2.437   1.580  16.162 -0.5675  0.4077 -0.7526
  472TMC3    C8 7085   2.206   1.906  15.932  0.8185  0.0135  0.0018
  472TMC3    O1 7086   2.510   1.570  16.259 -0.3516 -0.3201 -0.2390
  472TMC3    O2 7087   2.170   1.962  15.828 -0.2545 -0.3601 -0.2473
  473MPD2     C 7088   2.205   4.634  13.917 -0.1748 -0.7354  0.1043
  473MPD2    C1 7089   2.239   4.660  13.791 -0.1812  0.3520  0.0944
  473MPD2    C2 7090   2.358   4.723  13.767  0.4589 -0.2134 -0.0293
  473MPD2    C3 7091   2.452   0.008  13.869 -0.0747  0.5846  0.0456
  473MPD2    C4 7092   2.417   4.699  13.993  0.2125 -0.7331 -0.4476
  473MPD2    C5 7093   2.291   4.656  14.021 -0.5164  0.4365  0.8231
  473MPD2     H 7094   2.376   0.026  13.667 -2.3605  2.0162  0.3124
  473MPD2    H1 7095   2.489   4.710  14.074 -0.3727 -0.5189  0.0384
  473MPD2    H2 7096   2.110   4.587  13.939 -0.9548  0.4246 -0.8787
  473MPD2    H3 7097   2.262   4.635  14.123  1.8401 -0.5474  1.2929
  473MPD2     N 7098   2.575   0.069  13.845 -0.3600 -0.2634  0.6051
  473MPD2    H5 7099   2.637   0.074  13.925 -0.6202  0.2231  0.7817
  473MPD2    N1 7100   2.156   4.646  13.680 -0.7355 -0.1244  0.0779
  473MPD2    H7 7101   2.191   4.673  13.589 -1.7012 -0.4995 -0.4083
  474TMC3    C1 7102   2.744   0.174  13.718  0.4010  0.0187  0.0758
  474TMC3    C2 7103   2.768   0.229  13.591 -0.3702 -0.1385  0.2580
  474TMC3    C3 7104   2.854   0.336  13.581  0.0901 -0.6581  0.7575
  474TMC3    C4 7105   2.797   0.234  13.831  0.7795 -0.4834 -0.6929
  474TMC3    C5 7106   2.887   0.332  13.805 -0.1393 -0.0381  0.3982
  474TMC3    C6 7107   2.932   0.380  13.681 -0.4499  0.4702  0.5628
  474TMC3     C 7108   2.616   0.102  13.716  0.2507  0.1280 -0.2855
  474TMC3     O 7109   2.583   0.048  13.609 -0.0497  0.7455  0.3703
  474TMC3     H 7110   2.699   0.206  13.511  0.7708  1.0588 -1.0672
  474TMC3    H1 7111   2.769   0.200  13.930 -1.9106 -0.0466 -1.2833
  474TMC3    H2 7112   3.024   0.436  13.670 -0.0159 -0.3046  0.2372
  474TMC3    C7 7113   2.905   0.433  13.910  0.3913 -0.4343 -0.3354
  474TMC3    C8 7114   2.804   0.453  13.517  0.0348 -0.8740  0.0963
  474TMC3    O1 7115   2.941   0.541  13.872 -0.5518 -0.0172  0.3605
  474TMC3    O2 7116   2.724   0.436  13.424 -0.4689 -0.2289 -0.2618
  475MPD2     C 7117   1.118   2.822  10.655  0.1465  0.6335  0.2771
  475MPD2    C1 7118   1.161   2.950  10.642  0.0130  0.2374 -0.4905
  475MPD2    C2 7119   1.113   3.046  10.733  0.1601 -0.0622  0.2228
  475MPD2    C3 7120   1.032   3.011  10.842 -0.2755  0.4979 -0.3122
  475MPD2    C4 7121   0.999   2.879  10.860  0.2344 -0.0707 -0.3956
  475MPD2    C5 7122   1.041   2.785  10.766 -1.6986  0.0432 -0.1125
  475MPD2     H 7123   1.152   3.147  10.730 -1.1409  0.4226 -0.5303
  475MPD2    H1 7124   0.938   2.843  10.943  0.5399  2.7645  1.0526
  475MPD2    H2 7125   1.151   2.743  10.587 -0.8808  1.0683 -0.7412
  475MPD2    H3 7126   1.018   2.679  10.775 -2.7408  0.1943 -0.9727
  475MPD2     N 7127   0.998   3.110  10.927  0.0682 -0.3629  0.4053
  475MPD2    H5 7128   1.026   3.207  10.914 -0.4624 -0.2377  0.2238
  475MPD2    N1 7129   1.252   2.985  10.543  0.0499 -0.2022  0.7477
  475MPD2    H7 7130   1.306   2.914  10.495  1.1460  0.7999  0.5060
  476TMC3    C1 7131   1.388   3.139  10.428 -0.0183  0.1543  0.4654
  476TMC3    C2 7132   1.389   3.251  10.349 -0.3875 -0.0586  0.4080
  476TMC3    C3 7133   1.493   3.334  10.369 -0.3380  0.0206 -0.4997
  476TMC3    C4 7134   1.487   3.105  10.516 -0.7417  0.2087 -0.6309
  476TMC3    C5 7135   1.570   3.209  10.552  0.1266 -0.7050  0.3703
  476TMC3    C6 7136   1.581   3.317  10.472  0.8964  0.7910  0.8540
  476TMC3     C 7137   1.257   3.110  10.489 -0.4041 -0.0254 -0.8556
  476TMC3     O 7138   1.186   3.208  10.513 -0.0792  0.2835 -0.0085
  476TMC3     H 7139   1.306   3.282  10.287  1.6211  0.7497 -1.9082
  476TMC3    H1 7140   1.486   3.026  10.591 -0.1330 -0.3033 -1.1734
  476TMC3    H2 7141   1.657   3.393  10.490  0.1275  1.3406  1.7881
  476TMC3    C7 7142   1.537   3.242  10.690  0.3992 -0.1472  0.6929
  476TMC3    C8 7143   1.512   3.434  10.264 -0.4961 -0.1407 -0.3295
  476TMC3    O1 7144   1.540   3.153  10.768 -0.2167  0.0754  0.1774
  476TMC3    O2 7145   1.567   3.542  10.297 -0.3661 -0.0112 -0.4860
  477MPD2     C 7146   3.207   4.630  11.497 -0.0134 -0.3321  0.1547
  477MPD2    C1 7147   3.120   4.665  11.601  0.3202  0.6746 -0.3757
  477MPD2    C2 7148   3.134   4.602  11.720  0.1912 -0.5144 -0.3237
  477MPD2    C3 7149   3.244   4.522  11.748 -0.0298  0.2736  0.9933
  477MPD2    C4 7150   3.330   4.499  11.648  0.1672  0.0005  0.1016
  477MPD2    C5 7151   3.304   4.536  11.518 -0.1602  0.3610 -0.5953
  477MPD2     H 7152   3.068   4.610  11.806  2.0515  2.3868  0.8242
  477MPD2    H1 7153   3.406   4.423  11.663  0.3044 -0.1811 -1.5033
  477MPD2    H2 7154   3.200   4.677  11.399  1.8740  0.5970  0.4525
  477MPD2    H3 7155   3.378   4.504  11.444  1.4634  2.0938  0.2647
  477MPD2     N 7156   3.255   4.457  11.876 -0.1845 -0.4404 -0.5891
  477MPD2    H5 7157   3.172   4.478  11.931  0.1949 -1.9427  0.5787
  477MPD2    N1 7158   3.010   0.019  11.570  0.1564  0.3068 -0.2397
  477MPD2    H7 7159   2.997   0.039  11.471 -0.9774  0.5235 -0.0456
  478TMC3    C1 7160   2.815   0.145  11.609 -0.1648 -0.0461  0.5114
  478TMC3    C2 7161   2.726   0.194  11.690 -0.1022  0.6111 -0.3979
  478TMC3    C3 7162   2.604   0.228  11.643  0.6290  0.0509  0.4920
  478TMC3    C4 7163   2.792   0.148  11.475  0.7325 -0.3686 -0.0108
  478TMC3    C5 7164   2.666   0.179  11.435  0.6184 -0.0204  0.1357
  478TMC3    C6 7165   2.563   0.220  11.515 -0.2560  0.2141 -0.8669
  478TMC3     C 7166   2.918   0.059  11.660 -0.5608 -0.0945 -0.4097
  478TMC3     O 7167   2.908   0.037  11.781 -0.5373 -0.5847  0.6313
  478TMC3     H 7168   2.744   0.205  11.797 -1.1864  1.8291 -0.3238
  478TMC3    H1 7169   2.873   0.120  11.408  1.2918  0.8758  0.1556
  478TMC3    H2 7170   2.467   0.252  11.477 -0.6755 -1.0870 -0.8823
  478TMC3    C7 7171   2.640   0.162  11.292 -0.6984 -0.1224 -0.0869
  478TMC3    C8 7172   2.524   0.313  11.727  0.1548  0.4476  0.0257
  478TMC3    O1 7173   2.732   0.175  11.212  0.0050  0.2280  0.2021
  478TMC3    O2 7174   2.508   0.284  11.843  0.0309  0.0918  0.4125
  479MPD2     C 7175   2.224   1.098  14.657  0.0560  0.2141  0.7037
  479MPD2    C1 7176   2.145   1.065  14.764  0.6363 -0.1140 -0.1111
  479MPD2    C2 7177   2.182   1.100  14.896 -0.2077  0.2621 -0.1592
  479MPD2    C3 7178   2.294   1.176  14.920  0.0267  0.1761  0.5907
  479MPD2    C4 7179   2.368   1.218  14.814 -0.3121  0.5873  0.1661
  479MPD2    C5 7180   2.332   1.186  14.684  0.5353  0.5944 -0.3670
  479MPD2     H 7181   2.125   1.075  14.984 -0.8502  1.8796 -0.1172
  479MPD2    H1 7182   2.457   1.279  14.827 -0.0302 -0.1983  1.9009
  479MPD2    H2 7183   2.203   1.069  14.554 -0.6616  2.3411  0.2526
  479MPD2    H3 7184   2.396   1.220  14.604 -0.4864 -0.7449 -1.7469
  479MPD2     N 7185   2.335   1.201  15.050 -0.3942 -0.1453 -0.5896
  479MPD2    H5 7186   2.420   1.256  15.053 -0.2472 -0.1991 -3.6407
  479MPD2    N1 7187   2.018   1.001  14.741 -0.0072  0.0453 -0.2636
  479MPD2    H7 7188   1.976   1.005  14.648 -1.7757  0.4955  0.5490
  480TMC3    C1 7189   2.184   1.219  15.463  0.9068  0.5854 -0.4524
  480TMC3    C2 7190   2.127   1.339  15.420  0.5173 -0.0776 -0.6023
  480TMC3    C3 7191   2.201   1.411  15.331  0.6620  0.3784  0.4777
  480TMC3    C4 7192   2.294   1.164  15.401  0.1111 -0.4494  0.3553
  480TMC3    C5 7193   2.340   1.223  15.284  0.4987 -0.4827  0.0672
  480TMC3    C6 7194   2.310   1.355  15.269 -0.4564  0.2021  0.2264
  480TMC3     C 7195   2.131   1.137  15.567 -0.1503  0.5973  0.6973
  480TMC3     O 7196   2.175   1.022  15.572  0.2645  0.2282 -0.0778
  480TMC3     H 7197   2.032   1.375  15.459  0.5233  0.6304 -1.2273
  480TMC3    H1 7198   2.335   1.066  15.425  1.0305 -0.3631 -0.8335
  480TMC3    H2 7199   2.344   1.410  15.182  1.1148  2.8405  2.4984
  480TMC3    C7 7200   2.286   1.155  15.171 -0.4212  0.5517 -0.1153
  480TMC3    C8 7201   2.129   1.518  15.267  0.1042 -0.6276 -0.1266
  480TMC3    O1 7202   2.188   1.085  15.190  0.2199 -0.1984  1.1976
  480TMC3    O2 7203   2.057   1.580  15.340 -0.2535  0.1167  0.1985
  481MPD2     C 7204   3.631   1.252  13.949  0.7492  0.1926 -0.5050
  481MPD2    C1 7205   3.541   1.152  13.974  0.3921  0.4505 -0.2459
  481MPD2    C2 7206   3.557   1.072  14.089 -0.9534 -0.2915  0.3420
  481MPD2    C3 7207   3.663   1.100  14.174  0.1641 -0.4341 -0.0695
  481MPD2    C4 7208   3.753   1.199  14.142 -0.1838  0.1599 -0.4337
  481MPD2    C5 7209   3.734   1.273  14.033 -0.0381  0.0415 -0.2631
  481MPD2     H 7210   3.488   0.990  14.103  0.3086 -1.4322 -0.2083
  481MPD2    H1 7211   3.840   1.215  14.204  0.6926 -1.0219 -1.3618
  481MPD2    H2 7212   3.623   1.327  13.872 -0.8947 -0.6611 -1.1575
  481MPD2    H3 7213   3.791   1.363  14.014  0.5210 -0.2638 -0.0297
  481MPD2     N 7214   3.690   1.016  14.292  0.2667 -0.3857 -0.1211
  481MPD2    H5 7215   3.770   1.044  14.348 -0.4452  0.9895  0.2013
  481MPD2    N1 7216   3.421   1.147  13.895 -0.4676 -0.3343 -0.1267
  481MPD2    H7 7217   3.391   1.237  13.858  0.4931 -0.3755 -0.9904
  482TMC3    C1 7218   3.252   1.050  13.763 -0.7437 -0.6955 -0.3057
  482TMC3    C2 7219   3.233   0.950  13.668 -0.3118 -0.4065 -0.5167
  482TMC3    C3 7220   3.123   0.965  13.578  0.1291  0.6498  0.4360
  482TMC3    C4 7221   3.175   1.159  13.762 -0.0831 -0.5824  0.2113
  482TMC3    C5 7222   3.078   1.177  13.667 -0.7561 -0.2238 -0.7929
  482TMC3    C6 7223   3.040   1.072  13.585 -0.1138 -0.3160 -0.4754
  482TMC3     C 7224   3.364   1.034  13.861 -0.3482 -0.0265  0.6962
  482TMC3     O 7225   3.417   0.927  13.851 -0.1234  0.0003 -0.0826
  482TMC3     H 7226   3.295   0.862  13.665 -0.5924 -0.5407 -2.6739
  482TMC3    H1 7227   3.197   1.240  13.831 -2.8694  1.3421 -1.1765
  482TMC3    H2 7228   2.964   1.100  13.513 -0.0605 -1.1157 -0.8452
  482TMC3    C7 7229   3.023   1.306  13.650 -0.5606 -0.0206  0.8741
  482TMC3    C8 7230   3.119   0.865  13.475 -0.4298  0.2649  0.5038
  482TMC3    O1 7231   2.915   1.309  13.590 -0.3129  0.3856 -0.0680
  482TMC3    O2 7232   3.213   0.788  13.468  0.0735 -0.0994  0.4630
  483TMC3    C1 7233   1.489   4.521   0.770  0.1280  0.0234 -0.5118
  483TMC3    C2 7234   1.494   4.659   0.777  0.3418  0.0292  0.3718
  483TMC3    C3 7235   1.608   4.717   0.829  0.5049 -0.0949 -0.4453
  483TMC3    C4 7236   1.591   4.443   0.830 -0.1933 -0.6827 -0.1930
  483TMC3    C5 7237   1.701   4.504   0.883  1.0421  0.4150 -0.8978
  483TMC3    C6 7238   1.711   4.641   0.879  0.1078  0.6295 -0.5530
  483TMC3     C 7239   1.372   4.464   0.704 -0.0509  0.0086  0.1603
  483TMC3     O 7240   1.277   4.529   0.669  0.4929 -0.1797 -0.3655
  483TMC3     H 7241   1.418   4.723   0.734 -0.4756 -1.1869  0.0140
  483TMC3    H1 7242   1.589   4.334   0.832  0.3506 -0.6548  1.1938
  483TMC3    H2 7243   1.799   4.693   0.913  1.2012  0.1392 -2.6093
  483TMC3    C7 7244   1.814   4.423   0.920 -0.8369 -0.2485 -0.0210
  483TMC3    C8 7245   1.628   0.121   0.794 -0.4846 -0.0680  0.6788
  483TMC3    O1 7246   1.845   4.330   0.850  0.6877  0.5122 -0.3729
  483TMC3    O2 7247   1.531   0.196   0.799  0.0573 -0.1623 -0.0114
  484MPD2     C 7248   4.420   3.407  12.395 -0.3437  0.0272 -1.0335
  484MPD2    C1 7249   4.422   3.358  12.520  0.0327 -0.0959 -0.5272
  484MPD2    C2 7250   4.539   3.346  12.587 -0.1212 -0.0151  0.3335
  484MPD2    C3 7251   4.658   3.377  12.528  0.5255  0.2440  0.1948
  484MPD2    C4 7252   4.654   3.439  12.406 -0.0241 -0.0848 -0.5547
  484MPD2    C5 7253   4.538   3.445  12.340  0.6406  0.9254  0.1556
  484MPD2     H 7254   4.541   3.301  12.685  2.3173 -1.0045 -0.1939
  484MPD2    H1 7255   0.005   3.466  12.345  1.1251 -0.5598  0.8639
  484MPD2    H2 7256   4.334   3.406  12.330 -0.0209 -0.3363 -1.4541
  484MPD2    H3 7257   4.541   3.478  12.237 -1.7861  0.4170 -0.0892
  484MPD2     N 7258   0.050   3.356  12.578  0.1149  0.2290  0.1158
  484MPD2    H5 7259   0.125   3.405  12.530  1.9449  0.2425  2.9707
  484MPD2    N1 7260   4.294   3.315  12.577 -0.4626  0.2791 -0.0226
  484MPD2    H7 7261   4.215   3.306  12.515 -1.3898  1.1936  1.0123
  485TMC3    C1 7262   0.240   3.276  12.707  0.2287 -0.6229  0.0120
  485TMC3    C2 7263   0.289   3.161  12.776  0.2745 -0.4249  0.0883
  485TMC3    C3 7264   0.412   3.170  12.839  0.6356 -0.5199  0.2813
  485TMC3    C4 7265   0.314   3.391  12.691 -0.4391  0.0855  0.4391
  485TMC3    C5 7266   0.437   3.397  12.754  0.1603  0.1182  0.1870
  485TMC3    C6 7267   0.479   3.296  12.833 -0.0581 -0.1497 -0.8989
  485TMC3     C 7268   0.096   3.279  12.683  0.9167 -0.7043  0.1857
  485TMC3     O 7269   0.029   3.210  12.758 -0.0592 -0.2933 -0.0056
  485TMC3     H 7270   0.224   3.075  12.787 -0.6922  0.3710  0.6144
  485TMC3    H1 7271   0.284   3.475  12.628  0.4847  0.1121  0.0442
  485TMC3    H2 7272   0.568   3.320  12.891  0.4691  1.1189 -2.2281
  485TMC3    C7 7273   0.546   3.468  12.676  0.0852  0.0720 -0.9197
  485TMC3    C8 7274   0.512   3.071  12.799  0.2981 -0.1401  0.3392
  485TMC3    O1 7275   0.506   3.565  12.615 -0.2751 -0.6713 -0.6239
  485TMC3    O2 7276   0.624   3.114  12.770  0.4150  0.3165  0.1366
  486MPD2     C 7277   0.869   2.090  12.849  0.0237  0.6647 -0.8037
  486MPD2    C1 7278   1.005   2.075  12.864 -0.1716  0.4698  0.3481
  486MPD2    C2 7279   1.082   2.181  12.826  0.4582  1.3453 -0.5890
  486MPD2    C3 7280   1.032   2.298  12.772  0.2820  0.2639 -0.7103
  486MPD2    C4 7281   0.902   2.313  12.751 -0.1750 -1.2131  0.1271
  486MPD2    C5 7282   0.820   2.206  12.797  0.4045  0.4016  0.4776
  486MPD2     H 7283   1.187   2.167  12.849 -0.5819 -1.7488  2.4712
  486MPD2    H1 7284   0.857   2.397  12.699  2.9550 -0.1107 -0.8145
  486MPD2    H2 7285   0.796   2.011  12.862  1.5054 -0.8366 -1.6394
  486MPD2    H3 7286   0.715   2.216  12.773  0.5853  3.7313  1.1504
  486MPD2     N 7287   1.132   2.394  12.738  0.1084  0.2265  0.2804
  486MPD2    H5 7288   1.229   2.380  12.764  0.1836  1.3246  0.5926
  486MPD2    N1 7289   1.076   1.956  12.903 -0.5565  0.1257 -0.1159
  486MPD2    H7 7290   1.176   1.953  12.921  0.0702  1.7547 -3.3623
  487TMC3    C1 7291   1.105   1.744  12.985  0.4302 -0.0195  0.1314
  487TMC3    C2 7292   1.207   1.738  12.893 -0.6985 -0.4073  0.2655
  487TMC3    C3 7293   1.326   1.695  12.945  0.1377  0.4662  0.4371
  487TMC3    C4 7294   1.106   1.693  13.114 -0.1714 -0.3149 -0.0977
  487TMC3    C5 7295   1.228   1.659  13.161  0.0320 -0.5895  1.0960
  487TMC3    C6 7296   1.341   1.665  13.082  0.2779  0.6002 -0.2990
  487TMC3     C 7297   1.013   1.845  12.959 -0.1512  0.4972 -0.2236
  487TMC3     O 7298   0.899   1.838  12.991 -0.2424  0.2907 -0.0627
  487TMC3     H 7299   1.193   1.750  12.786  0.3232  0.8690  0.2747
  487TMC3    H1 7300   1.018   1.691  13.177  1.0414  1.5720  1.6665
  487TMC3    H2 7301   1.435   1.632  13.125  0.8082  2.0143 -0.3739
  487TMC3    C7 7302   1.255   1.581  13.286  0.0991  0.1038 -0.3052
  487TMC3    C8 7303   1.440   1.680  12.855 -0.1719  0.8245  0.0274
  487TMC3    O1 7304   1.364   1.598  13.336  0.4937  0.3170 -0.4549
  487TMC3    O2 7305   1.421   1.751  12.758 -0.5326 -0.0161 -0.1779
  488MPD2     C 7306   2.285   3.163  16.528 -0.4237  0.1578  0.4930
  488MPD2    C1 7307   2.315   3.278  16.605 -0.3525  0.6650 -0.0612
  488MPD2    C2 7308   2.291   3.275  16.739 -0.0753 -0.1694 -0.6362
  488MPD2    C3 7309   2.269   3.156  16.803  0.0051 -0.4728  0.0053
  488MPD2    C4 7310   2.298   3.044  16.724  0.6124 -0.2994  0.5465
  488MPD2    C5 7311   2.286   3.044  16.591 -0.1281  0.0096 -1.3471
  488MPD2     H 7312   2.300   3.369  16.793  1.3159 -0.4207 -0.4336
  488MPD2    H1 7313   2.295   2.950  16.778  0.7918 -0.6908 -0.1260
  488MPD2    H2 7314   2.276   3.176  16.420  0.4041  0.3017  0.4437
  488MPD2    H3 7315   2.278   2.953  16.534  1.8005 -1.2235  0.3452
  488MPD2     N 7316   2.250   3.147  16.945  0.2838 -0.6356  0.4597
  488MPD2    H5 7317   2.247   3.237  16.992  1.2387 -0.2264 -0.2780
  488MPD2    N1 7318   2.342   3.402  16.545 -0.0091 -0.3432  0.3551
  488MPD2    H7 7319   2.340   3.476  16.614 -0.6909  0.2878 -0.3446
  489TMC3    C1 7320   2.200   3.043  17.158  0.4176 -0.0466  0.0008
  489TMC3    C2 7321   2.266   3.154  17.214 -0.4139  0.5642  0.1478
  489TMC3    C3 7322   2.267   3.155  17.349 -0.0225  0.3450 -0.6241
  489TMC3    C4 7323   2.145   2.943  17.239 -0.2631 -0.0937 -0.6518
  489TMC3    C5 7324   2.141   2.965  17.368  0.1529 -0.9940  0.8888
  489TMC3    C6 7325   2.198   3.073  17.425 -0.6025 -0.2993 -0.8849
  489TMC3     C 7326   2.210   3.033  17.016  0.6776 -0.1603 -0.0254
  489TMC3     O 7327   2.182   2.924  16.964 -0.2895  0.2003 -0.0800
  489TMC3     H 7328   2.327   3.223  17.157 -0.0596 -0.1597 -0.3490
  489TMC3    H1 7329   2.125   2.848  17.191 -0.3669 -0.3170 -0.1752
  489TMC3    H2 7330   2.196   3.089  17.532 -0.8352  3.7017 -1.5053
  489TMC3    C7 7331   2.078   2.870  17.456 -0.0107 -0.1302  0.1268
  489TMC3    C8 7332   2.257   3.286  17.401  0.2161  0.0876  0.5649
  489TMC3    O1 7333   2.093   2.897  17.578 -0.0845 -0.3245  0.1765
  489TMC3    O2 7334   2.342   3.367  17.363 -0.4885 -0.0733  0.1958
  490MPD2     C 7335   3.061   2.861  17.598 -0.0558 -0.2114 -0.0955
  490MPD2    C1 7336   3.012   2.768  17.691 -1.1656 -0.2821 -0.7606
  490MPD2    C2 7337   3.068   2.766   0.080  0.8981 -0.0054 -0.0188
  490MPD2    C3 7338   3.176   2.841   0.114  0.2594 -0.0436 -0.7683
  490MPD2    C4 7339   3.230   2.926   0.015  0.4235  0.1918  0.7984
  490MPD2    C5 7340   3.168   2.944  17.635  0.2940 -0.1673 -0.3615
  490MPD2     H 7341   3.025   2.700   0.154 -1.8861  0.5203 -1.1588
  490MPD2    H1 7342   3.314   2.992   0.033 -0.6864  1.6143  0.7309
  490MPD2    H2 7343   3.030   2.882  17.496 -1.1771  0.7840  0.4462
  490MPD2    H3 7344   3.209   3.014  17.564  1.8343  0.9172  1.5862
  490MPD2     N 7345   3.248   2.823   0.234 -0.3495 -0.0496  0.3595
  490MPD2    H5 7346   3.314   2.898   0.253 -1.5665  1.3335 -0.8739
  490MPD2    N1 7347   2.912   2.668  17.657 -0.1796  0.7408  0.1594
  490MPD2    H7 7348   2.872   2.621  17.737  1.9810  1.9972  1.9757
  491TMC3    C1 7349   2.756   2.547  17.524 -0.4079 -1.1982 -0.2979
  491TMC3    C2 7350   2.736   2.456  17.628 -0.4520  0.1855  0.2280
  491TMC3    C3 7351   2.661   2.348  17.601 -0.4216  0.0402  0.4643
  491TMC3    C4 7352   2.696   2.532  17.399 -0.4471  0.1864 -0.0674
  491TMC3    C5 7353   2.614   2.421  17.387  0.4365 -1.2228 -0.5083
  491TMC3    C6 7354   2.595   2.328  17.482 -0.5757  0.0873  0.2767
  491TMC3     C 7355   2.843   2.666  17.538  0.0376  0.2536 -0.4367
  491TMC3     O 7356   2.848   2.735  17.437 -0.1418  0.4141  0.0570
  491TMC3     H 7357   2.794   2.452  17.720 -1.2171  0.2407  0.7124
  491TMC3    H1 7358   2.703   2.604  17.319  0.2942 -1.0078 -1.0623
  491TMC3    H2 7359   2.540   2.237  17.460 -0.5393  0.2189 -0.3718
  491TMC3    C7 7360   2.563   2.393  17.260  0.1190  0.5487  0.3423
  491TMC3    C8 7361   2.635   2.255  17.712 -0.1308  0.2452  1.0286
  491TMC3    O1 7362   2.463   2.323  17.263  0.8166  0.0630  0.0388
  491TMC3    O2 7363   2.591   2.299   0.074 -0.7558  0.2121  0.1012
  492MPD2     C 7364   3.190   3.301  10.755  0.4456 -0.1602  0.5832
  492MPD2    C1 7365   3.063   3.259  10.732 -0.0928  0.3607  0.0726
  492MPD2    C2 7366   3.007   3.156  10.809  0.3692  0.4004  0.1726
  492MPD2    C3 7367   3.070   3.112  10.923 -0.6403 -0.1843  0.0234
  492MPD2    C4 7368   3.193   3.164  10.942 -0.0530 -0.3177  0.3225
  492MPD2    C5 7369   3.259   3.253  10.864 -0.9038 -0.3657  0.2469
  492MPD2     H 7370   2.905   3.122  10.790  1.3706 -1.1843 -2.3992
  492MPD2    H1 7371   3.246   3.128  11.029 -1.4995 -0.5820  1.1024
  492MPD2    H2 7372   3.237   3.380  10.698 -0.0667  0.2908  0.7861
  492MPD2    H3 7373   3.360   3.287  10.883 -1.0271 -0.0255  0.2786
  492MPD2     N 7374   2.998   3.037  11.026  0.1947  0.1417 -0.9187
  492MPD2    H5 7375   3.045   3.030  11.116  0.3832 -0.0856 -1.0328
  492MPD2    N1 7376   3.000   3.326  10.616  0.7826 -0.7401  0.4639
  492MPD2    H7 7377   3.050   3.402  10.572  0.7526 -0.8088  0.3122
  493TMC3    C1 7378   2.854   3.401  10.458 -0.0753 -0.1329 -0.1993
  493TMC3    C2 7379   2.962   3.473  10.418  0.9010  0.2542 -0.4939
  493TMC3    C3 7380   2.963   3.611  10.431 -0.1446 -0.5702  0.2596
  493TMC3    C4 7381   2.736   3.454  10.499 -0.1554  0.4966 -0.1659
  493TMC3    C5 7382   2.747   3.588  10.499 -0.1521 -0.3759 -0.1537
  493TMC3    C6 7383   2.853   3.673  10.475 -0.0219 -0.5197  0.1282
  493TMC3     C 7384   2.881   3.293  10.557 -0.4598  0.3220 -0.2362
  493TMC3     O 7385   2.787   3.229  10.602  1.0780 -0.3031 -0.2538
  493TMC3     H 7386   3.049   3.424  10.377 -0.5162 -0.2263 -2.9084
  493TMC3    H1 7387   2.641   3.403  10.511 -1.4405  3.4600  2.0499
  493TMC3    H2 7388   2.852   3.779  10.495  1.0748 -0.2218 -1.4134
  493TMC3    C7 7389   2.621   3.648  10.543  0.1053  0.2596  0.4179
  493TMC3    C8 7390   3.095   3.641  10.486  0.3970 -0.1231  0.0048
  493TMC3    O1 7391   2.564   3.739  10.478 -0.4583 -0.2307  0.4968
  493TMC3    O2 7392   3.141   3.548  10.551  0.1434 -0.2381 -0.1169
  494TMC3    C1 7393   3.117   4.638   0.301 -0.8016 -0.4707 -0.1662
  494TMC3    C2 7394   3.233   4.566   0.318  0.6938  0.4229  0.1379
  494TMC3    C3 7395   3.322   4.560   0.215 -0.4683 -0.7760  0.0787
  494TMC3    C4 7396   3.089   4.694   0.177 -0.2766 -0.2270 -1.0322
  494TMC3    C5 7397   3.179   4.684   0.077 -0.9862 -0.5619 -0.5924
  494TMC3    C6 7398   3.300   4.621   0.095  0.1085  0.0564 -0.3794
  494TMC3     C 7399   3.024   4.656   0.409  0.0075 -0.1490  0.2003
  494TMC3     O 7400   2.919   4.711   0.383 -0.5775  0.0577 -0.9511
  494TMC3     H 7401   3.256   4.527   0.417 -1.7854 -1.9125 -0.1946
  494TMC3    H1 7402   3.000   0.020   0.169 -1.0673 -1.3327 -0.6146
  494TMC3    H2 7403   3.382   4.620   0.025 -0.3363 -0.5713 -0.8994
  494TMC3    C7 7404   3.136   4.684  17.676  0.0045 -0.0976  0.1243
  494TMC3    C8 7405   3.457   4.499   0.237  0.1004 -0.5326 -0.1150
  494TMC3    O1 7406   3.208   4.635  17.592 -0.6789  0.2826  0.0581
  494TMC3    O2 7407   3.547   4.538   0.163 -0.6872 -0.8121 -0.4199
  495TMC3    C1 7408   2.127   1.281  14.333  0.2236 -0.3560  0.3064
  495TMC3    C2 7409   2.006   1.307  14.268 -0.2735  0.3348 -0.0610
  495TMC3    C3 7410   1.920   1.405  14.315 -0.1037 -1.0001  0.1732
  495TMC3    C4 7411   2.149   1.345  14.448 -0.0290 -0.7018 -1.0860
  495TMC3    C5 7412   2.060   1.431  14.490 -0.0388  0.4503 -1.0118
  495TMC3    C6 7413   1.945   1.466  14.429 -0.4623 -0.1406 -0.5376
  495TMC3     C 7414   2.220   1.192  14.272 -0.7528  0.0500  0.1802
  495TMC3     O 7415   2.180   1.121  14.179  0.4921  0.7616 -0.4752
  495TMC3     H 7416   1.984   1.260  14.173  1.0256  0.3490 -0.3662
  495TMC3    H1 7417   2.242   1.327  14.501 -0.5729  0.3248  0.2173
  495TMC3    H2 7418   1.872   1.533  14.472  0.4927 -0.2496  1.2554
  495TMC3    C7 7419   2.090   1.481  14.624  0.3209 -0.0542 -0.0069
  495TMC3    C8 7420   1.779   1.404  14.268 -0.8056 -0.2110  0.4670
  495TMC3    O1 7421   2.180   1.424  14.688  0.7765  0.6163  0.0982
  495TMC3    O2 7422   1.714   1.506  14.294  0.5564  0.5172 -0.0701
  496MPD2     C 7423   4.296   2.333  15.278 -0.6963 -0.0856  0.1657
  496MPD2    C1 7424   4.289   2.211  15.209 -1.1134 -0.3067 -0.3890
  496MPD2    C2 7425   4.178   2.125  15.233 -0.7646 -0.1204 -0.0436
  496MPD2    C3 7426   4.073   2.164  15.314  0.1023  0.3760 -0.5338
  496MPD2    C4 7427   4.077   2.293  15.357  0.2771 -0.8607  0.2835
  496MPD2    C5 7428   4.183   2.379  15.340 -0.1644  0.6166 -0.0173
  496MPD2     H 7429   4.164   2.029  15.185 -1.9267 -1.3676  2.7763
  496MPD2    H1 7430   3.997   2.325  15.423  0.8219  2.4305 -0.6495
  496MPD2    H2 7431   4.376   2.404  15.260 -0.0126 -1.1379 -0.9824
  496MPD2    H3 7432   4.191   2.473  15.394  0.8594  0.0372  0.8607
  496MPD2     N 7433   3.964   2.077  15.334 -0.5877  0.2182  0.3722
  496MPD2    H5 7434   3.986   1.982  15.305  0.0053  0.5497 -0.2613
  496MPD2    N1 7435   4.401   2.175  15.127  0.1124  0.4313  0.0811
  496MPD2    H7 7436   4.484   2.232  15.127 -1.1696  2.2729  1.8824
  497TMC3    C1 7437   3.767   2.000  15.436  0.2718  0.1785 -0.6582
  497TMC3    C2 7438   3.762   1.894  15.357  0.0258 -0.5118  0.0423
  497TMC3    C3 7439   3.694   1.785  15.410 -0.7134  0.8297 -0.2151
  497TMC3    C4 7440   3.719   1.996  15.565 -0.3675 -0.2596  0.5791
  497TMC3    C5 7441   3.671   1.883  15.618  0.9244 -0.0063 -0.8256
  497TMC3    C6 7442   3.651   1.772  15.543  0.2145 -0.2891 -0.0096
  497TMC3     C 7443   3.857   2.111  15.415  0.1138  0.1263 -0.3212
  497TMC3     O 7444   3.834   2.212  15.476  0.0038 -0.0763 -0.3656
  497TMC3     H 7445   3.794   1.902  15.253 -1.4528  1.3519 -0.2698
  497TMC3    H1 7446   3.744   2.075  15.635 -0.2281  0.2729 -0.0767
  497TMC3    H2 7447   3.605   1.680  15.577  0.9794 -1.3268 -1.7846
  497TMC3    C7 7448   3.699   1.862  15.752 -0.3131  0.8584 -0.0027
  497TMC3    C8 7449   3.703   1.659  15.339 -0.2467 -0.2216  0.7772
  497TMC3    O1 7450   3.627   1.787  15.817  0.2271  0.1055 -0.2656
  497TMC3    O2 7451   3.704   1.562  15.412  0.0759  0.2935  0.1442
  498MPD2     C 7452   0.534   3.399   9.540  0.3472 -0.3089  0.0619
  498MPD2    C1 7453   0.628   3.390   9.646 -0.8519 -0.6835 -0.4455
  498MPD2    C2 7454   0.619   3.289   9.738  0.0228 -0.2842  0.1565
  498MPD2    C3 7455   0.526   3.194   9.720 -0.2473  0.2750  0.3792
  498MPD2    C4 7456   0.440   3.197   9.611 -0.7584 -0.7479  0.7018
  498MPD2    C5 7457   0.439   3.303   9.530  0.1566  0.3229  0.5637
  498MPD2     H 7458   0.692   3.286   9.818 -0.2592 -1.4697  0.3665
  498MPD2    H1 7459   0.368   3.117   9.602 -0.0672 -1.5545  2.2481
  498MPD2    H2 7460   0.547   3.473   9.463 -1.0188 -1.5130 -1.3230
  498MPD2    H3 7461   0.360   3.305   9.456 -0.0025  0.9595  0.7457
  498MPD2     N 7462   0.518   3.100   9.830  0.0521  0.2804  0.0730
  498MPD2    H5 7463   0.579   3.124   9.907  2.1921  0.3125 -1.6438
  498MPD2    N1 7464   0.729   3.492   9.672  0.3670  0.9453 -0.7134
  498MPD2    H7 7465   0.794   3.467   9.745 -0.9684  1.1854  0.5682
  499TMC3    C1 7466   0.867   3.679   9.613  0.2586 -0.0486  0.6345
  499TMC3    C2 7467   0.941   3.656   9.726  0.1210 -0.4001 -1.0806
  499TMC3    C3 7468   1.021   3.752   9.777  0.1780  0.4553 -0.3163
  499TMC3    C4 7469   0.863   3.800   9.548 -0.0192  0.7738 -0.4432
  499TMC3    C5 7470   0.945   3.898   9.598  0.1146 -0.4485 -0.0858
  499TMC3    C6 7471   1.025   3.875   9.712  1.2537  0.9027  0.2789
  499TMC3     C 7472   0.741   3.608   9.595 -0.6539  0.0665  0.1832
  499TMC3     O 7473   0.660   3.661   9.524 -0.0604 -0.0622  0.0236
  499TMC3     H 7474   0.950   3.557   9.770  0.2490  0.1232  0.0708
  499TMC3    H1 7475   0.810   3.816   9.455  1.6861  0.0232 -1.5481
  499TMC3    H2 7476   1.081   3.959   9.753 -1.0347  1.1814  2.7717
  499TMC3    C7 7477   0.976   4.023   9.532 -0.6885  0.1297  0.1856
  499TMC3    C8 7478   1.081   3.740   9.908 -0.5231  0.2147 -0.2553
  499TMC3    O1 7479   1.092   4.062   9.531 -0.0553 -0.0001 -0.5506
  499TMC3    O2 7480   1.061   3.632   9.957 -0.3851  0.1934  0.3992
  500MPD2     C 7481   2.042   4.261  10.850  1.0846  0.6868 -0.5543
  500MPD2    C1 7482   2.111   4.353  10.772 -0.6756  0.0840  0.6118
  500MPD2    C2 7483   2.043   4.440  10.679  0.2711 -0.4810 -0.7658
  500MPD2    C3 7484   1.904   4.429  10.661  0.3853  0.4555 -0.7602
  500MPD2    C4 7485   1.839   4.338  10.741 -0.2655  0.1511 -1.6498
  500MPD2    C5 7486   1.909   4.257  10.828  0.3702  0.2435  0.1909
  500MPD2     H 7487   2.106   4.515  10.634 -1.4217  0.5511 -1.4123
  500MPD2    H1 7488   1.731   4.322  10.741 -0.0269 -1.4833  0.4926
  500MPD2    H2 7489   2.085   4.184  10.913 -2.2511 -1.3112 -0.6855
  500MPD2    H3 7490   1.847   4.179  10.871  1.2710 -0.6566 -0.1624
  500MPD2     N 7491   1.833   4.512  10.572 -0.4179  0.3658 -0.3652
  500MPD2    H5 7492   1.733   4.502  10.588 -0.3864 -0.5665 -0.7331
  500MPD2    N1 7493   2.259   4.369  10.770  0.0830  0.0625  0.1222
  500MPD2    H7 7494   2.299   4.443  10.713 -0.4425 -0.2619 -0.6636
  501TMC3    C1 7495   2.482   4.280  10.780 -0.1035  0.0007 -0.1837
  501TMC3    C2 7496   2.517   4.337  10.658  0.2031  0.3339  0.0389
  501TMC3    C3 7497   2.648   4.337  10.616 -0.1203 -0.0601 -0.3203
  501TMC3    C4 7498   2.579   4.201  10.848  0.6098 -0.0898  0.1674
  501TMC3    C5 7499   2.705   4.219  10.809  0.3996 -0.1064  0.2284
  501TMC3    C6 7500   2.747   4.293  10.699 -0.4917 -0.5408 -0.9032
  501TMC3     C 7501   2.348   4.290  10.839  0.2049 -0.1108 -0.3588
  501TMC3     O 7502   2.334   4.199  10.917 -0.1282  0.3331  0.2230
  501TMC3     H 7503   2.453   4.410  10.610 -1.8542 -1.7122 -0.3479
  501TMC3    H1 7504   2.556   4.131  10.927 -1.8513  1.5564  0.9351
  501TMC3    H2 7505   2.850   4.289  10.664  0.6487 -0.9365  2.4942
  501TMC3    C7 7506   2.770   4.093  10.805  0.2978  1.1174 -0.8487
  501TMC3    C8 7507   2.681   4.427  10.514  0.1757 -0.0934  0.6785
  501TMC3    O1 7508   2.693   4.000  10.796  0.2323 -0.1291  0.1710
  501TMC3    O2 7509   2.776   4.496  10.544 -0.0433  0.1838 -0.3595
  502TMC3    C1 7510   1.645   2.113  14.786  0.1781  0.1663  0.2057
  502TMC3    C2 7511   1.649   2.230  14.712  0.7247 -0.8246  0.6319
  502TMC3    C3 7512   1.549   2.321  14.741 -0.0160 -0.1844  0.7037
  502TMC3    C4 7513   1.539   2.085  14.870 -0.6120 -0.7531  0.4694
  502TMC3    C5 7514   1.435   2.169  14.873  0.3144  0.7448 -0.7386
  502TMC3    C6 7515   1.437   2.290  14.813  1.1212 -0.2663  0.4067
  502TMC3     C 7516   1.761   2.101  14.867 -0.5224 -0.5302  0.5116
  502TMC3     O 7517   1.866   2.097  14.805  0.1814  0.2857 -0.0530
  502TMC3     H 7518   1.741   2.264  14.666 -0.4942 -1.8787 -2.5646
  502TMC3    H1 7519   1.532   1.989  14.919 -0.4431 -0.5673  0.8551
  502TMC3    H2 7520   1.349   2.353  14.818  0.7739 -0.7649  0.5362
  502TMC3    C7 7521   1.379   2.174  15.009 -0.1202  0.3881 -0.4814
  502TMC3    C8 7522   1.598   2.444  14.790  0.1205 -0.7478  0.1714
  502TMC3    O1 7523   1.458   2.146  15.099  0.1821 -0.1011  0.3509
  502TMC3    O2 7524   1.693   2.492  14.733  1.0728  0.6235  0.4166
  503MPD2     C 7525   3.969   3.322  16.850 -0.1387  0.0611  0.0818
  503MPD2    C1 7526   3.972   3.369  16.981  0.1786  0.1502  0.0238
  503MPD2    C2 7527   4.073   3.324  17.069  0.4299  0.0484  0.2481
  503MPD2    C3 7528   4.174   3.236  17.023  0.2125 -0.1515 -0.6960
  503MPD2    C4 7529   4.168   3.188  16.890 -0.0232  0.0430  0.1897
  503MPD2    C5 7530   4.064   3.232  16.807  0.4513  0.1238 -0.0788
  503MPD2     H 7531   4.071   3.362  17.171 -0.0636 -0.1986  0.3317
  503MPD2    H1 7532   4.242   3.120  16.850  0.4135  0.9725 -0.5716
  503MPD2    H2 7533   3.895   3.355  16.779  0.1095 -1.7641 -1.0239
  503MPD2    H3 7534   4.061   3.198  16.705 -2.1255 -0.1853  0.1178
  503MPD2     N 7535   4.277   3.188  17.106 -0.2614 -0.2255 -0.1255
  503MPD2    H5 7536   4.334   3.113  17.066 -1.1563 -1.1542  0.3344
  503MPD2    N1 7537   3.874   3.457  17.028 -0.1577 -0.2506  0.7518
  503MPD2    H7 7538   3.878   3.480  17.127 -0.1610  1.1739  0.4165
  504TMC3    C1 7539   4.418   3.163  17.300 -0.0671  0.7733 -0.5463
  504TMC3    C2 7540   4.407   3.136  17.434  0.7844 -0.3833  0.1075
  504TMC3    C3 7541   4.493   3.047  17.491  0.1246 -0.9304 -0.3165
  504TMC3    C4 7542   4.528   3.124  17.232  0.3181  0.1311  0.5463
  504TMC3    C5 7543   4.625   3.045  17.293  0.1556  0.2630  0.1947
  504TMC3    C6 7544   4.608   3.007  17.427  0.0732  0.3951 -0.3926
  504TMC3     C 7545   4.308   3.231  17.235 -1.0170  0.2788 -0.1789
  504TMC3     O 7546   4.257   3.324  17.298 -0.6203  0.7908  0.3605
  504TMC3     H 7547   4.309   3.143  17.479  1.0332  1.1816  0.4096
  504TMC3    H1 7548   4.541   3.145  17.127 -0.6043 -1.5452  0.0883
  504TMC3    H2 7549   4.674   2.941  17.481  1.8253  1.4261 -1.2830
  504TMC3    C7 7550   4.727   2.973  17.219 -0.1593 -0.3718 -0.1558
  504TMC3    C8 7551   4.427   2.936  17.553  0.1050  0.2525  0.2501
  504TMC3    O1 7552   4.731   3.012  17.104  0.1026 -0.2771 -0.2055
  504TMC3    O2 7553   4.327   2.900  17.496 -0.1209 -0.2156  0.2916
  505MPD2     C 7554   4.374   2.611  10.649  0.1127 -0.3315 -0.1726
  505MPD2    C1 7555   4.448   2.571  10.759  0.1323 -0.7283 -0.2820
  505MPD2    C2 7556   4.504   2.668  10.836 -0.1490 -0.5347 -0.6276
  505MPD2    C3 7557   4.498   2.804  10.804 -0.4890 -0.3534 -0.1125
  505MPD2    C4 7558   4.418   2.836  10.695 -0.2244 -0.1277  0.1402
  505MPD2    C5 7559   4.362   2.742  10.620 -0.1976 -0.1219  0.2757
  505MPD2     H 7560   4.564   2.647  10.924 -0.0281 -0.7577 -0.7648
  505MPD2    H1 7561   4.401   2.936  10.657 -0.4660 -0.9623 -1.9647
  505MPD2    H2 7562   4.329   2.544  10.577 -0.3771  1.7689 -1.8367
  505MPD2    H3 7563   4.289   2.776  10.546  0.0846  0.9097  0.4739
  505MPD2     N 7564   4.561   2.900  10.890 -0.0294  0.6076  0.1962
  505MPD2    H5 7565   4.608   2.871  10.975  0.3688 -1.7148 -0.8196
  505MPD2    N1 7566   4.473   2.434  10.766 -0.2833 -0.1266 -0.2156
  505MPD2    H7 7567   4.446   2.381  10.684 -2.0302  1.0229 -0.4002
  506TMC3    C1 7568   4.590   2.243  10.840  0.6533  0.2999 -0.5605
  506TMC3    C2 7569   4.651   2.228  10.716 -0.4219 -0.2687  0.1587
  506TMC3    C3 7570   0.020   2.148  10.711  0.4839 -0.6620  0.5163
  506TMC3    C4 7571   4.631   2.174  10.949  0.4063  0.0497 -1.2520
  506TMC3    C5 7572   0.013   2.107  10.945  0.0600  0.2942 -0.0284
  506TMC3    C6 7573   0.067   2.076  10.819 -0.0662 -0.6837 -0.2368
  506TMC3     C 7574   4.547   2.378  10.871  0.8130  0.7005  0.1224
  506TMC3     O 7575   4.588   2.424  10.973  0.1458  0.8508  0.4711
  506TMC3     H 7576   4.628   2.283  10.626 -3.1528 -0.1312  0.9360
  506TMC3    H1 7577   4.576   2.185  11.042  0.4976  2.1247 -1.4617
  506TMC3    H2 7578   0.158   2.018  10.809  0.4619  0.0039  0.6477
  506TMC3    C7 7579   0.114   2.152  11.033  0.2741 -0.1273 -1.6817
  506TMC3    C8 7580   0.096   2.132  10.584  0.3667  0.6442 -0.2404
  506TMC3    O1 7581   0.213   2.083  11.057 -0.0555  0.0793  0.6379
  506TMC3    O2 7582   0.161   2.029  10.588 -0.1696 -0.2166  0.2646
  507TMC3    C1 7583   0.374   2.807  14.594 -0.6429  0.3058 -0.0243
  507TMC3    C2 7584   0.280   2.750  14.505 -0.3837 -0.3217  0.1877
  507TMC3    C3 7585   0.258   2.806  14.381 -0.2446  0.1647  0.4335
  507TMC3    C4 7586   0.449   2.915  14.557 -0.0351  0.2115 -0.6908
  507TMC3    C5 7587   0.423   2.978  14.437  0.2048 -0.1256 -0.2504
  507TMC3    C6 7588   0.331   2.915  14.349 -0.4752 -1.3173  0.2652
  507TMC3     C 7589   0.314   2.832  14.728 -0.6373  0.2168  1.1313
  507TMC3     O 7590   0.370   2.912  14.799 -0.2459  0.2833 -0.3930
  507TMC3     H 7591   0.223   2.664  14.539 -2.7940  1.0358 -0.4309
  507TMC3    H1 7592   0.509   2.966  14.631  1.1759  0.4732 -1.8443
  507TMC3    H2 7593   0.310   2.953  14.250 -1.1343 -0.0383  0.9009
  507TMC3    C7 7594   0.394   3.115  14.454 -0.2880 -0.0641  0.1340
  507TMC3    C8 7595   0.113   2.825  14.360 -0.2019 -0.0652 -0.2008
  507TMC3    O1 7596   0.296   3.150  14.393  0.8449  0.1582 -0.2327
  507TMC3    O2 7597   0.042   2.738  14.401 -0.3512 -0.2063 -0.1372
  508MPD2     C 7598   0.868   0.609  15.693  0.3836 -0.0487 -0.6474
  508MPD2    C1 7599   0.865   0.654  15.820 -0.7844 -0.0043  0.3102
  508MPD2    C2 7600   0.838   0.786  15.844 -0.4397 -0.2248 -0.5489
  508MPD2    C3 7601   0.798   0.876  15.746  0.0489 -0.1358 -0.2026
  508MPD2    C4 7602   0.778   0.824  15.620 -0.3615  0.3709  0.4807
  508MPD2    C5 7603   0.817   0.698  15.599  0.1230 -0.0878  0.2116
  508MPD2     H 7604   0.845   0.822  15.946 -0.6041 -2.5403  0.2732
  508MPD2    H1 7605   0.738   0.872  15.532 -1.6294 -1.7541 -0.1207
  508MPD2    H2 7606   0.882   0.505  15.666  0.2749 -0.1378 -0.3545
  508MPD2    H3 7607   0.811   0.665  15.496 -0.3538  0.4843  0.0551
  508MPD2     N 7608   0.776   1.006  15.781  0.3999  0.7596 -0.1260
  508MPD2    H5 7609   0.784   1.028  15.879 -0.0717 -1.1165  0.3417
  508MPD2    N1 7610   0.886   0.581  15.938  0.2297 -0.2646  0.1108
  508MPD2    H7 7611   0.890   0.629  16.027  1.3354 -3.2720  1.6700
  509TMC3    C1 7612   0.717   1.454  15.751 -0.0237 -0.5159  0.1635
  509TMC3    C2 7613   0.783   1.481  15.872 -0.0522 -0.3471  0.2267
  509TMC3    C3 7614   0.857   1.374  15.923  0.8105  0.8606 -0.3388
  509TMC3    C4 7615   0.714   1.335  15.695 -0.6794 -0.6671 -0.1502
  509TMC3    C5 7616   0.772   1.236  15.758 -0.5693 -0.1553  0.7896
  509TMC3    C6 7617   0.854   1.249  15.860  0.3611 -0.2615 -0.6481
  509TMC3     C 7618   0.660   1.563  15.681 -1.3700  0.4041 -1.1033
  509TMC3     O 7619   0.613   1.652  15.747 -0.1564  0.0659  0.7839
  509TMC3     H 7620   0.778   1.582  15.909  0.6306 -0.3651  0.3630
  509TMC3    H1 7621   0.642   1.316  15.616 -0.8130 -1.8462  0.2676
  509TMC3    H2 7622   0.922   1.170  15.888  1.1616  0.2548 -1.1378
  509TMC3    C7 7623   0.766   1.112  15.699 -0.4075 -0.7673 -0.3957
  509TMC3    C8 7624   0.923   1.371  16.052  0.2287  0.3279  0.0229
  509TMC3    O1 7625   0.748   1.111  15.581  0.0154  0.0289 -0.8308
  509TMC3    O2 7626   0.928   1.267  16.106  0.1575 -0.2684 -0.1162
  510MPD2     C 7627   3.745   2.244  14.666  0.2079 -0.4575  0.0604
  510MPD2    C1 7628   3.786   2.115  14.636 -0.1137 -0.1292 -0.1801
  510MPD2    C2 7629   3.895   2.083  14.558 -0.5048  0.3940  0.2206
  510MPD2    C3 7630   3.960   2.187  14.492 -0.4027  0.1247  0.0072
  510MPD2    C4 7631   3.906   2.315  14.498 -0.0501  0.3116 -0.2544
  510MPD2    C5 7632   3.797   2.338  14.583 -0.1439 -0.5910  0.1895
  510MPD2     H 7633   3.924   1.981  14.536 -1.2930  0.6867 -2.2674
  510MPD2    H1 7634   3.935   2.390  14.426  1.4730 -0.4280 -0.4079
  510MPD2    H2 7635   3.657   2.271  14.724  0.2642 -0.9417  0.3728
  510MPD2    H3 7636   3.751   2.437  14.579 -0.0893 -0.4229  3.5613
  510MPD2     N 7637   4.074   2.158  14.415 -0.1737 -0.1416  0.5531
  510MPD2    H5 7638   4.122   2.071  14.433 -2.7433 -1.6213  0.2408
  510MPD2    N1 7639   3.710   2.022  14.710  0.2468  0.5546  0.3941
  510MPD2    H7 7640   3.630   2.053  14.764  0.6064 -0.0704  1.2947
  511TMC3    C1 7641   3.631   1.815  14.780  0.2351  0.0663 -0.0017
  511TMC3    C2 7642   3.592   1.852  14.909 -0.4454  0.6877 -0.0222
  511TMC3    C3 7643   3.476   1.791  14.954  0.3477  0.6227  0.0199
  511TMC3    C4 7644   3.577   1.703  14.716  0.0348 -0.6462  0.0184
  511TMC3    C5 7645   3.476   1.635  14.781 -0.0649 -0.0102 -0.4629
  511TMC3    C6 7646   3.416   1.685  14.894  0.2089 -1.1547 -1.0355
  511TMC3     C 7647   3.741   1.888  14.721  0.2945 -0.7363 -0.0659
  511TMC3     O 7648   3.840   1.823  14.703  0.0249 -0.1790 -0.1790
  511TMC3     H 7649   3.649   1.913  14.978 -0.0891 -1.5783  1.6723
  511TMC3    H1 7650   3.609   1.665  14.620 -0.6597 -1.1852  0.0051
  511TMC3    H2 7651   3.323   1.650  14.939  0.4225 -0.2147  0.1236
  511TMC3    C7 7652   3.422   1.532  14.695  0.2881  0.8771  0.5826
  511TMC3    C8 7653   3.447   1.818  15.091  0.1834  0.1305  0.2711
  511TMC3    O1 7654   3.478   1.511  14.590  0.5952 -0.1714 -0.7617
  511TMC3    O2 7655   3.449   1.932  15.131  0.2159  0.2201  0.7743
  512TMC3    C1 7656   2.194   1.500  13.551 -0.1133  0.4025  0.3574
  512TMC3    C2 7657   2.262   1.526  13.668  0.3751  0.0825 -0.4185
  512TMC3    C3 7658   2.360   1.627  13.659 -0.1470  0.2326  0.1877
  512TMC3    C4 7659   2.209   1.577  13.437 -0.7954  0.0783 -0.3723
  512TMC3    C5 7660   2.310   1.667  13.427 -0.7097 -0.0547 -0.1724
  512TMC3    C6 7661   2.383   1.696  13.542  0.3924  0.5953 -0.4685
  512TMC3     C 7662   2.062   1.436  13.568  0.4958  0.6447  0.2887
  512TMC3     O 7663   1.969   1.499  13.515 -0.2231  0.5467 -0.3976
  512TMC3     H 7664   2.248   1.465  13.756  1.9379  3.0403  1.8540
  512TMC3    H1 7665   2.147   1.539  13.356 -0.3006 -0.1417 -0.6467
  512TMC3    H2 7666   2.466   1.765  13.537 -0.2895  1.0526 -5.1008
  512TMC3    C7 7667   2.355   1.733  13.305 -0.2018 -0.0362  0.4271
  512TMC3    C8 7668   2.478   1.613  13.737 -0.7510 -0.1383  0.2121
  512TMC3    O1 7669   2.403   1.843  13.313  0.2772 -0.2855  0.4002
  512TMC3    O2 7670   2.533   1.507  13.733 -0.5232 -0.6231 -0.1515
  513MPD2     C 7671   3.722   2.187  13.180 -0.3922  0.0229 -0.6934
  513MPD2    C1 7672   3.819   2.137  13.096 -0.1006 -0.1970 -0.4833
  513MPD2    C2 7673   3.945   2.126  13.144  0.3685  0.1234 -0.5331
  513MPD2    C3 7674   3.985   2.135  13.274  0.4749 -0.0565  0.2148
  513MPD2    C4 7675   3.884   2.160  13.368  0.3972  0.3533 -0.4285
  513MPD2    C5 7676   3.758   2.189  13.314 -0.3486 -0.8710  0.3887
  513MPD2     H 7677   4.024   2.121  13.070  1.6944  0.4950  0.8521
  513MPD2    H1 7678   3.900   2.154  13.475 -0.1818  1.0377 -0.3022
  513MPD2    H2 7679   3.621   2.212  13.148 -0.9541 -1.7787 -0.3350
  513MPD2    H3 7680   3.684   2.215  13.390 -1.1008  1.0630 -1.0008
  513MPD2     N 7681   4.118   2.116  13.308  0.2738 -0.2510  1.0377
  513MPD2    H5 7682   4.187   2.100  13.235 -2.2131 -0.1759 -1.3585
  513MPD2    N1 7683   3.787   2.118  12.959  0.3050 -0.4526 -0.1283
  513MPD2    H7 7684   3.694   2.144  12.929 -0.4549 -0.9214  1.7813
  514TMC3    C1 7685   3.822   2.052  12.736 -0.9294  0.0588  0.6260
  514TMC3    C2 7686   3.821   2.182  12.684  0.2039 -0.1174 -0.3043
  514TMC3    C3 7687   3.892   2.207  12.574 -0.0735  0.6719 -1.0522
  514TMC3    C4 7688   3.892   1.959  12.659  0.8367  0.3047 -0.1707
  514TMC3    C5 7689   3.964   1.988  12.547 -0.6182  1.0133  0.2142
  514TMC3    C6 7690   3.960   2.114  12.501  0.6628  0.2900  0.2951
  514TMC3     C 7691   3.855   2.038  12.877 -0.5661  0.3384  0.2136
  514TMC3     O 7692   3.952   1.968  12.905 -0.3332  0.0766 -0.0957
  514TMC3     H 7693   3.789   2.263  12.748  2.3500  3.1629 -3.3285
  514TMC3    H1 7694   3.903   1.855  12.688  1.8181  0.1512 -1.0796
  514TMC3    H2 7695   4.015   2.133  12.410  1.9139 -1.8799  0.5970
  514TMC3    C7 7696   4.093   1.919  12.538 -1.0220 -0.7389  0.1911
  514TMC3    C8 7697   3.866   2.340  12.522  0.2980  0.0134  0.4918
  514TMC3    O1 7698   4.137   1.906  12.427  0.7853  0.0205  0.0956
  514TMC3    O2 7699   3.764   2.398  12.560  0.1681 -0.2347 -0.6834
  515MPD2     C 7700   2.511   3.157  15.339  0.5224 -0.3290  0.9744
  515MPD2    C1 7701   2.517   3.157  15.196  0.8752  0.2517 -0.0159
  515MPD2    C2 7702   2.594   3.250  15.132 -0.5747  0.6789  0.3112
  515MPD2    C3 7703   2.667   3.345  15.200 -0.9329  1.0006 -0.3351
  515MPD2    C4 7704   2.653   3.345  15.340 -0.4540 -0.9993 -0.6464
  515MPD2    C5 7705   2.581   3.248  15.404 -0.0212  0.2377  0.0060
  515MPD2     H 7706   2.626   3.236  15.029 -0.4818  1.6511  0.2075
  515MPD2    H1 7707   2.705   3.416  15.403  0.5644 -1.3277 -1.1206
  515MPD2    H2 7708   2.471   3.077  15.401 -0.3769  1.1622  2.3167
  515MPD2    H3 7709   2.582   3.250  15.512  0.4424  0.8961 -0.0076
  515MPD2     N 7710   2.758   3.440  15.147 -0.1088  0.1087 -0.4207
  515MPD2    H5 7711   2.804   3.502  15.213 -0.7433 -1.7514  1.7600
  515MPD2    N1 7712   2.458   3.060  15.113  0.0366  0.3385 -0.0927
  515MPD2    H7 7713   2.461   3.082  15.014 -0.9689 -1.2171 -0.4696
  516TMC3    C1 7714   2.363   2.863  15.041 -0.6294 -0.2514  0.2862
  516TMC3    C2 7715   2.305   2.917  14.931  0.5541  0.0540  0.4353
  516TMC3    C3 7716   2.250   2.833  14.837  0.1542  0.8281 -1.0263
  516TMC3    C4 7717   2.369   2.731  15.059  0.2660  0.4347 -0.6372
  516TMC3    C5 7718   2.305   2.648  14.971  0.1532 -0.7153  0.1404
  516TMC3    C6 7719   2.245   2.696  14.854  0.2431  0.7007  0.2549
  516TMC3     C 7720   2.406   2.940  15.157  0.7167  0.0331  0.3897
  516TMC3     O 7721   2.418   2.891  15.272  0.3260  0.2673  0.5164
  516TMC3     H 7722   2.309   3.024  14.917  1.9705 -0.2911 -1.7548
  516TMC3    H1 7723   2.410   2.701  15.154 -0.0059 -0.1326 -0.7022
  516TMC3    H2 7724   2.207   2.628  14.779 -0.0886 -2.0557  2.9106
  516TMC3    C7 7725   2.334   2.504  14.994 -0.5728  0.2116  0.0467
  516TMC3    C8 7726   2.208   2.891  14.706 -0.7492 -0.1259  0.7424
  516TMC3    O1 7727   2.413   2.475  15.084  0.2820  0.1560 -0.1395
  516TMC3    O2 7728   2.126   2.828  14.644  0.0540  0.2792  0.1347
  517MPD2     C 7729   2.175   4.576  17.645  0.0711  0.6416  0.2611
  517MPD2    C1 7730   2.290   4.578  17.717  0.9320 -0.5601 -0.0429
  517MPD2    C2 7731   2.321   4.686   0.061  0.5566 -0.6087  0.6535
  517MPD2    C3 7732   2.232   0.053   0.078 -0.2979 -0.3450  0.4889
  517MPD2    C4 7733   2.107   0.039   0.020 -0.2586  0.1710  0.6758
  517MPD2    C5 7734   2.084   4.667  17.673  0.2656  0.2595  0.0276
  517MPD2     H 7735   2.418   4.701   0.107 -0.7335  3.1616  2.1749
  517MPD2    H1 7736   2.023   0.103   0.042 -0.8762 -0.2181 -0.5503
  517MPD2    H2 7737   2.136   4.500  17.579 -2.0659  0.4166  1.8014
  517MPD2    H3 7738   1.994   4.651  17.615  0.7081  0.4933 -0.7207
  517MPD2     N 7739   2.253   0.167   0.160 -0.2225  0.2509 -0.4454
  517MPD2    H5 7740   2.177   0.229   0.185 -1.7554 -1.8703  0.1462
  517MPD2    N1 7741   2.382   4.467  17.706  0.0977  0.2483 -0.7804
  517MPD2    H7 7742   2.357   4.381  17.658  1.6913 -0.0497 -1.0540
  518TMC3    C1 7743   2.592   4.358   0.003 -0.1409 -0.3175 -0.1630
  518TMC3    C2 7744   2.544   4.235  17.707 -0.6431 -0.7216 -0.1971
  518TMC3    C3 7745   2.640   4.135  17.696 -0.2547 -0.1881  0.3867
  518TMC3    C4 7746   2.724   4.383   0.029  0.8406  0.0550  0.5840
  518TMC3    C5 7747   2.818   4.294  17.729  0.5148  0.3749  0.5278
  518TMC3    C6 7748   2.776   4.168  17.698 -0.4150 -0.4556 -0.2602
  518TMC3     C 7749   2.497   4.462   0.046 -0.3210 -0.5500 -0.9618
  518TMC3     O 7750   2.532   4.524   0.146  0.0762 -0.1915  0.5232
  518TMC3     H 7751   2.438   4.216  17.723 -1.1811  0.3475 -2.4984
  518TMC3    H1 7752   2.749   4.485   0.058 -0.0937 -0.0059  1.6127
  518TMC3    H2 7753   2.845   4.090  17.667  0.7837  0.0008  1.2306
  518TMC3    C7 7754   2.964   4.313   0.013 -0.3080 -1.6239  0.3946
  518TMC3    C8 7755   2.603   3.998  17.706  0.1763 -0.5877 -0.3334
  518TMC3    O1 7756   3.002   4.398   0.096  0.2341  0.7909  0.2514
  518TMC3    O2 7757   2.700   3.927  17.692 -0.5714  0.1595 -0.4220
  519MPD2     C 7758   3.757   2.788  14.605 -0.0558 -0.1894 -0.1794
  519MPD2    C1 7759   3.652   2.758  14.524  1.2946  0.6617 -0.1108
  519MPD2    C2 7760   3.665   2.677  14.412  0.0232 -0.9814 -0.6143
  519MPD2    C3 7761   3.786   2.625  14.373  0.2954 -0.0817 -0.4964
  519MPD2    C4 7762   3.895   2.654  14.456  0.7023 -0.4210 -0.0531
  519MPD2    C5 7763   3.880   2.739  14.563 -0.6700 -0.2350  0.9308
  519MPD2     H 7764   3.580   2.673  14.344  1.2332  1.1534 -2.2490
  519MPD2    H1 7765   3.992   2.625  14.418  0.9447  0.1350  0.1408
  519MPD2    H2 7766   3.757   2.850  14.694 -0.8319 -2.0235  1.1123
  519MPD2    H3 7767   3.959   2.780  14.625 -1.1922  2.5415 -0.2413
  519MPD2     N 7768   3.810   2.560  14.243 -0.2447 -0.8266 -0.3439
  519MPD2    H5 7769   3.901   2.520  14.225  0.8120  0.3272  2.3835
  519MPD2    N1 7770   3.540   2.841  14.545 -0.3098 -0.4332 -0.1311
  519MPD2    H7 7771   3.561   2.928  14.593  0.5982 -0.2861 -0.7853
  520TMC3    C1 7772   3.825   2.576  14.013 -0.5381  0.6371  0.6873
  520TMC3    C2 7773   3.779   2.660  13.918 -0.8172  0.3238  0.6085
  520TMC3    C3 7774   3.863   2.718  13.832  0.0267  0.2016  0.0604
  520TMC3    C4 7775   3.960   2.545  14.029  0.5599 -0.2236 -0.2231
  520TMC3    C5 7776   4.041   2.624  13.959  0.4793 -0.2069 -0.5825
  520TMC3    C6 7777   4.001   2.702  13.851 -0.2034  0.1152  0.0677
  520TMC3     C 7778   3.735   2.578  14.125  0.1469  0.2079  0.0790
  520TMC3     O 7779   3.627   2.641  14.114 -0.7756 -0.1944 -0.3253
  520TMC3     H 7780   3.673   2.675  13.897 -0.2965  1.3105 -1.2401
  520TMC3    H1 7781   4.004   2.475  14.100  0.1731 -1.0904 -0.8392
  520TMC3    H2 7782   4.073   2.744  13.782 -0.9638  0.5839 -0.4420
  520TMC3    C7 7783   4.188   2.601  13.955 -0.6462 -0.4138 -0.4892
  520TMC3    C8 7784   3.819   2.803  13.718  0.4031 -0.3318 -0.4448
  520TMC3    O1 7785   4.229   2.487  13.982  0.3047 -0.5576  0.4479
  520TMC3    O2 7786   3.915   2.855  13.658  0.3055 -0.2859  0.2809
  521MPD2     C 7787   4.504   1.139  17.402 -0.0587  0.4492  0.4059
  521MPD2    C1 7788   4.438   1.122  17.280 -0.4647  0.5003  0.4105
  521MPD2    C2 7789   4.500   1.045  17.178  0.1712  0.2815  0.3062
  521MPD2    C3 7790   4.624   0.992  17.202  0.1414  0.3423  0.4848
  521MPD2    C4 7791   4.697   1.025  17.315 -0.3919 -0.0699 -0.2951
  521MPD2    C5 7792   4.635   1.098  17.413  0.1955  0.0536 -0.1599
  521MPD2     H 7793   4.463   1.034  17.076 -2.0366  1.5379  0.9646
  521MPD2    H1 7794   0.065   0.995  17.327 -0.1973  0.6161 -0.2431
  521MPD2    H2 7795   4.465   1.184  17.493 -0.9619 -1.3920  0.9394
  521MPD2    H3 7796   4.698   1.117  17.499 -2.7625  0.0518  2.0153
  521MPD2     N 7797   4.675   0.912  17.095 -0.6167  0.0135 -0.2241
  521MPD2    H5 7798   4.619   0.927  17.012  1.6472  0.5632 -1.6556
  521MPD2    N1 7799   4.312   1.189  17.273  0.5302  0.3268  0.1310
  521MPD2    H7 7800   4.293   1.258  17.345 -0.6246  0.4106 -0.2518
  522TMC3    C1 7801   0.120   0.813  16.978 -0.6939  0.0807  0.5485
  522TMC3    C2 7802   0.205   0.709  16.980 -0.3236  0.2881  0.4570
  522TMC3    C3 7803   0.269   0.678  16.864 -0.2805  0.7464 -1.0415
  522TMC3    C4 7804   0.098   0.885  16.861 -0.3552  0.5971 -0.0807
  522TMC3    C5 7805   0.164   0.854  16.745  0.3723 -0.5007 -0.6885
  522TMC3    C6 7806   0.253   0.752  16.749 -0.6541 -0.6489 -1.0945
  522TMC3     C 7807   0.054   0.835  17.100 -0.4268  0.2266  0.2335
  522TMC3     O 7808   0.104   0.801  17.207  0.6563 -0.4637 -0.2283
  522TMC3     H 7809   0.226   0.652  17.070 -2.2093 -1.4463 -0.1958
  522TMC3    H1 7810   0.035   0.973  16.870  1.2964  1.7500  0.3319
  522TMC3    H2 7811   0.296   0.713  16.658 -1.2990  0.5017 -1.8889
  522TMC3    C7 7812   0.202   0.966  16.656 -0.4032  0.4080  0.3452
  522TMC3    C8 7813   0.350   0.558  16.874 -0.1771 -0.9649  0.5938
  522TMC3    O1 7814   0.288   0.943  16.574 -0.3595 -0.2162 -0.5493
  522TMC3    O2 7815   0.341   0.484  16.970  0.3493  0.2841  0.0045
  523MPD2     C 7816   2.576   1.707  10.128 -0.3176  0.5233 -0.2820
  523MPD2    C1 7817   2.511   1.601  10.085 -0.2710 -0.0729 -0.2057
  523MPD2    C2 7818   2.416   1.617   9.981 -0.7647 -0.1405 -0.3932
  523MPD2    C3 7819   2.398   1.745   9.918  0.5701 -0.1748  0.1231
  523MPD2    C4 7820   2.477   1.847   9.962 -0.6523 -0.6043  0.5484
  523MPD2    C5 7821   2.561   1.827  10.070 -0.3007  0.5135  0.1563
  523MPD2     H 7822   2.346   1.537   9.962 -0.7928 -0.9610  3.1288
  523MPD2    H1 7823   2.479   1.947   9.920 -0.8779 -1.0494 -0.5100
  523MPD2    H2 7824   2.650   1.699  10.208  0.0147 -0.7026 -0.7109
  523MPD2    H3 7825   2.625   1.908  10.102  1.1095  0.8688 -3.5339
  523MPD2     N 7826   2.302   1.773   9.817  0.0992  0.3320  0.1714
  523MPD2    H5 7827   2.289   1.868   9.783 -0.7080  0.0229 -0.3989
  523MPD2    N1 7828   2.537   1.476  10.148 -0.3286 -0.3158  0.5088
  523MPD2    H7 7829   2.592   1.472  10.233  1.3825 -0.2775 -0.5911
  524TMC3    C1 7830   2.138   1.721   9.659 -0.7177 -0.9345  0.4503
  524TMC3    C2 7831   2.085   1.615   9.586 -0.0690  0.5602 -0.1545
  524TMC3    C3 7832   1.986   1.640   9.496 -0.4546 -0.1718  0.0196
  524TMC3    C4 7833   2.088   1.849   9.654  0.0631 -0.4715 -0.3679
  524TMC3    C5 7834   2.002   1.867   9.544  0.1181 -0.0114 -0.4448
  524TMC3    C6 7835   1.952   1.768   9.465 -0.0355  0.0665  0.0678
  524TMC3     C 7836   2.221   1.677   9.768  0.1024  0.7297 -0.6437
  524TMC3     O 7837   2.225   1.555   9.782 -0.2793 -0.1246 -0.0528
  524TMC3     H 7838   2.092   1.514   9.624  1.0672 -0.0994 -2.1263
  524TMC3    H1 7839   2.124   1.928   9.718  0.3637 -1.7800  1.0664
  524TMC3    H2 7840   1.878   1.792   9.390 -0.8416  1.2180  1.2210
  524TMC3    C7 7841   1.945   2.000   9.536 -0.8615  0.3673  0.5254
  524TMC3    C8 7842   1.934   1.533   9.420 -0.1174 -0.1726  0.4725
  524TMC3    O1 7843   1.999   2.078   9.614  0.3015 -0.1501 -0.0050
  524TMC3    O2 7844   1.991   1.427   9.434  0.5291 -0.1181 -0.2458
  525MPD2     C 7845   0.518   2.496  14.311 -0.5873 -0.0457 -0.4112
  525MPD2    C1 7846   0.623   2.516  14.393  0.6650 -0.6382 -0.7820
  525MPD2    C2 7847   0.699   2.630  14.368  0.6666  0.4731 -0.3522
  525MPD2    C3 7848   0.671   2.729  14.269  1.6228 -0.2235  0.2147
  525MPD2    C4 7849   0.560   2.712  14.196  0.2309  0.0734  0.3376
  525MPD2    C5 7850   0.489   2.593  14.212 -0.2397  0.7784 -0.1530
  525MPD2     H 7851   0.780   2.654  14.436  0.8940 -1.8594  0.1994
  525MPD2    H1 7852   0.529   2.778  14.114  0.5896 -2.1389 -1.5685
  525MPD2    H2 7853   0.457   2.407  14.322 -0.4248 -0.2127 -0.9003
  525MPD2    H3 7854   0.419   2.566  14.133 -0.4364  0.8363  0.0001
  525MPD2     N 7855   0.755   2.846  14.250  0.2165  0.3172 -1.0262
  525MPD2    H5 7856   0.720   2.917  14.186  0.6088  1.3598 -0.0760
  525MPD2    N1 7857   0.660   2.426  14.499  0.3488  0.6330  0.1468
  525MPD2    H7 7858   0.742   2.445  14.555  0.4144  0.2901  0.1615
  526TMC3    C1 7859   0.687   2.246  14.624  0.0360 -0.2960  0.1597
  526TMC3    C2 7860   0.633   2.207  14.753  0.1077 -0.2934 -0.3003
  526TMC3    C3 7861   0.726   2.193  14.851 -0.3608 -0.0954 -0.0672
  526TMC3    C4 7862   0.821   2.273  14.591 -0.8979  0.7189  0.0201
  526TMC3    C5 7863   0.904   2.258  14.696  0.0463  0.0208  0.2225
  526TMC3    C6 7864   0.859   2.227  14.823 -0.1047 -0.1325 -0.4394
  526TMC3     C 7865   0.593   2.315  14.537  0.3324  0.5494 -0.1452
  526TMC3     O 7866   0.494   2.259  14.501  0.8577  0.1390 -0.5241
  526TMC3     H 7867   0.526   2.199  14.771 -0.0997  1.0324 -0.8601
  526TMC3    H1 7868   0.853   2.281  14.488 -0.1496  2.5391  0.3889
  526TMC3    H2 7869   0.937   2.203  14.894  1.1425 -1.3516 -2.2325
  526TMC3    C7 7870   1.040   2.205  14.675  0.6177 -0.0393 -0.4661
  526TMC3    C8 7871   0.698   2.218  14.990 -0.0997  0.0634  0.1279
  526TMC3    O1 7872   1.128   2.214  14.758  0.3204 -0.4530  0.1352
  526TMC3    O2 7873   0.794   2.242  15.061  0.3565  0.4881 -0.1436
  527MPD2     C 7874   2.369   0.291   0.897  0.2065 -0.6738 -0.4575
  527MPD2    C1 7875   2.482   0.335   0.966  0.0229 -0.1816  0.2638
  527MPD2    C2 7876   2.606   0.316   0.903  0.4511 -0.0121  0.2720
  527MPD2    C3 7877   2.614   0.278   0.770  0.5198 -1.1408  0.1442
  527MPD2    C4 7878   2.501   0.256   0.694 -0.0425  0.7063 -0.1217
  527MPD2    C5 7879   2.379   0.264   0.760  0.1449 -0.1696 -0.1681
  527MPD2     H 7880   2.697   0.336   0.958  0.9671 -0.2089 -0.5106
  527MPD2    H1 7881   2.502   0.213   0.595  1.0130 -0.7110  0.4997
  527MPD2    H2 7882   2.272   0.289   0.944  1.0370 -2.1428  1.2011
  527MPD2    H3 7883   2.290   0.232   0.708  0.2133 -1.0689  0.2504
  527MPD2     N 7884   2.748   0.284   0.712 -0.2801  0.5603 -0.5441
  527MPD2    H5 7885   2.827   0.315   0.768 -1.8909  0.2786  1.8949
  527MPD2    N1 7886   2.490   0.390   1.092 -0.1244 -0.3095  0.5668
  527MPD2    H7 7887   2.579   0.413   1.136  0.3923 -0.4441 -0.4113
  528TMC3    C1 7888   2.416   0.485   1.290 -0.7571  0.5189 -0.0894
  528TMC3    C2 7889   2.532   0.443   1.350 -0.6970 -0.4988 -0.2886
  528TMC3    C3 7890   2.560   0.489   1.476 -0.8991 -0.3375  0.1390
  528TMC3    C4 7891   2.344   0.595   1.341 -0.2197 -0.2807  0.2274
  528TMC3    C5 7892   2.393   0.653   1.452  0.3429 -0.5370  0.0537
  528TMC3    C6 7893   2.500   0.601   1.523 -0.9340  0.1619 -0.3461
  528TMC3     C 7894   2.377   0.441   1.155  0.6321 -1.0921 -0.3420
  528TMC3     O 7895   2.261   0.418   1.133 -0.3059  0.3826  0.4289
  528TMC3     H 7896   2.581   0.356   1.306 -2.9722 -1.1148 -1.5952
  528TMC3    H1 7897   2.266   0.648   1.287  2.0075  1.9773 -0.8040
  528TMC3    H2 7898   2.540   0.644   1.614 -2.0641 -0.3746  0.4242
  528TMC3    C7 7899   2.337   0.778   1.492 -0.4944 -0.1674  0.3906
  528TMC3    C8 7900   2.691   0.458   1.522  0.0547 -0.1602  0.9229
  528TMC3    O1 7901   2.229   0.819   1.466  0.1891  0.2285 -0.5371
  528TMC3    O2 7902   2.780   0.434   1.444 -0.1321  0.1002  0.7748
  529MPD2     C 7903   0.982   3.390   1.021  0.4192  0.1620  0.2738
  529MPD2    C1 7904   1.019   3.319   0.908  0.5096  0.1201 -0.5671
  529MPD2    C2 7905   0.986   3.370   0.785 -0.1159  0.4364  0.5675
  529MPD2    C3 7906   0.913   3.480   0.777 -0.2825 -0.1735  0.1328
  529MPD2    C4 7907   0.873   3.550   0.892 -0.7669  0.3736  0.4955
  529MPD2    C5 7908   0.903   3.500   1.016  0.1430  0.1562 -0.5746
  529MPD2     H 7909   1.015   3.309   0.700 -0.0829  1.4532 -0.1528
  529MPD2    H1 7910   0.817   3.642   0.877 -2.6483 -0.4309  2.6579
  529MPD2    H2 7911   0.999   3.360   1.123 -0.1975  1.5501  0.7825
  529MPD2    H3 7912   0.874   3.550   1.108 -0.2393 -1.6059  0.2589
  529MPD2     N 7913   0.875   3.544   0.650  0.2472 -0.2703  0.1904
  529MPD2    H5 7914   0.813   3.623   0.662 -1.4219 -1.6170  0.5022
  529MPD2    N1 7915   1.095   3.199   0.912  0.5648 -0.1456 -0.6485
  529MPD2    H7 7916   1.136   3.150   0.833  1.2063  0.2629 -0.5738
  530TMC3    C1 7917   1.199   3.018   1.020  0.2401  0.6301 -0.9003
  530TMC3    C2 7918   1.321   3.063   0.985  0.5017  0.7565  0.7458
  530TMC3    C3 7919   1.426   3.008   1.051  0.2364 -0.5710 -1.1148
  530TMC3    C4 7920   1.180   2.929   1.121 -0.4120 -0.1566 -0.0764
  530TMC3    C5 7921   1.289   2.873   1.187 -0.3521  0.0854  0.0142
  530TMC3    C6 7922   1.410   2.915   1.152  0.3708  0.2783 -0.9291
  530TMC3     C 7923   1.117   3.131   1.032  0.8630  0.0199  0.6026
  530TMC3     O 7924   1.058   3.148   1.139  0.5439 -0.1633 -0.0811
  530TMC3     H 7925   1.333   3.130   0.901  0.6852 -2.4842 -1.8284
  530TMC3    H1 7926   1.081   2.893   1.146  0.1409 -1.6714 -0.0928
  530TMC3    H2 7927   1.494   2.882   1.211  1.0557 -0.9228 -2.5680
  530TMC3    C7 7928   1.271   2.885   1.334 -0.5058 -0.5924  0.0720
  530TMC3    C8 7929   1.548   3.085   1.049 -0.3007 -0.0764  0.3178
  530TMC3    O1 7930   1.350   2.830   1.410 -0.0758 -0.4121 -0.6342
  530TMC3    O2 7931   1.551   3.187   0.986 -0.3954 -0.2364  0.1821
  531MPD2     C 7932   4.543   1.879  12.791  0.1816 -0.4050  0.2675
  531MPD2    C1 7933   4.446   1.923  12.881 -0.4728  0.0514  0.0026
  531MPD2    C2 7934   4.315   1.942  12.837 -0.0268 -0.1232 -0.4592
  531MPD2    C3 7935   4.277   1.916  12.702  0.0218 -0.0119  0.4930
  531MPD2    C4 7936   4.374   1.869  12.618 -0.5658  0.4480  0.3838
  531MPD2    C5 7937   4.499   1.843  12.666 -0.1246  0.2449 -0.2928
  531MPD2     H 7938   4.241   1.964  12.913  0.4725  2.8602 -0.8282
  531MPD2    H1 7939   4.361   1.844  12.513 -2.0746  0.8358  0.4726
  531MPD2    H2 7940   4.643   1.853  12.822 -0.1538 -2.6056 -0.4986
  531MPD2    H3 7941   4.575   1.812  12.595 -0.2072 -0.4182 -0.0823
  531MPD2     N 7942   4.139   1.928  12.664 -0.5486  0.2060  0.3528
  531MPD2    H5 7943   4.073   1.963  12.733 -0.1113  0.8029  0.4651
  531MPD2    N1 7944   4.486   1.949  13.016 -0.2986 -0.4785  0.2118
  531MPD2    H7 7945   4.585   1.943  13.039 -0.0972  0.8800 -0.2962
  532TMC3    C1 7946   4.454   2.048  13.224  0.1210  0.7605 -0.9618
  532TMC3    C2 7947   4.373   2.143  13.287  0.1263  0.3668 -0.2910
  532TMC3    C3 7948   4.323   2.117  13.409 -0.4423  0.6899  0.0786
  532TMC3    C4 7949   4.484   1.933  13.291 -0.5716  0.0836  0.1687
  532TMC3    C5 7950   4.426   1.911  13.412  1.0331  0.1793  0.8577
  532TMC3    C6 7951   4.355   2.003  13.483 -0.0109 -0.5719  0.1533
  532TMC3     C 7952   4.413   2.030  13.090  0.8947 -0.7122 -0.2232
  532TMC3     O 7953   4.303   2.079  13.071  0.2451 -0.2754  0.1899
  532TMC3     H 7954   4.337   2.226  13.228 -0.8114 -0.5641 -1.0256
  532TMC3    H1 7955   4.542   1.856  13.242 -2.8367 -1.9210  0.6233
  532TMC3    H2 7956   4.304   1.991  13.578 -0.1671  1.6297  0.3432
  532TMC3    C7 7957   4.489   1.816  13.500  0.0613  0.3750  0.3704
  532TMC3    C8 7958   4.185   2.150  13.423 -0.2440 -0.3718 -0.4912
  532TMC3    O1 7959   4.496   1.852  13.617  0.1183  0.0423  0.4074
  532TMC3    O2 7960   4.139   2.185  13.528 -0.2283 -0.6854  0.1060
  533TMC3    C1 7961   0.929   2.982  14.341  0.4727  0.5871 -0.2658
  533TMC3    C2 7962   1.060   3.002  14.352 -0.0523 -0.1719 -0.2547
  533TMC3    C3 7963   1.094   3.120  14.416  0.7640  0.1754  0.1325
  533TMC3    C4 7964   0.836   3.067  14.387  0.7304 -0.3975 -0.1458
  533TMC3    C5 7965   0.879   3.170  14.470 -0.1156 -0.6296 -0.5269
  533TMC3    C6 7966   1.010   3.206  14.472 -0.7234 -0.0312  0.1533
  533TMC3     C 7967   0.887   2.850  14.296 -0.7150 -0.0438  0.5621
  533TMC3     O 7968   0.965   2.768  14.340  0.3122 -0.0496 -0.2026
  533TMC3     H 7969   1.137   2.931  14.322  0.0210 -2.1179  4.4740
  533TMC3    H1 7970   0.729   3.062  14.366  1.1813 -1.9298 -2.0116
  533TMC3    H2 7971   1.053   3.276  14.543  0.3606 -0.0775 -0.4421
  533TMC3    C7 7972   0.806   3.174  14.601 -0.4557 -0.2583  0.8909
  533TMC3    C8 7973   1.239   3.154  14.417  0.5029  0.0839  0.2894
  533TMC3    O1 7974   0.720   3.091  14.617 -0.4138 -0.1125 -0.1900
  533TMC3    O2 7975   1.309   3.061  14.396  0.2709 -0.0406 -0.3819
  534MPD2     C 7976   3.426   4.374   1.432  0.3392  0.0529 -0.6226
  534MPD2    C1 7977   3.287   4.372   1.422 -0.6510  0.2796  0.7593
  534MPD2    C2 7978   3.238   4.294   1.312 -1.0294  0.2317  0.0394
  534MPD2    C3 7979   3.316   4.225   1.221  0.1519  0.2149 -0.0136
  534MPD2    C4 7980   3.452   4.234   1.240  0.5651  0.0378 -0.7489
  534MPD2    C5 7981   3.502   4.310   1.335  1.0080  0.0145  1.4966
  534MPD2     H 7982   3.133   4.312   1.293 -0.9222  0.1001 -0.6779
  534MPD2    H1 7983   3.528   4.185   1.179  0.4407 -1.2220  0.1158
  534MPD2    H2 7984   3.474   4.421   1.517  4.1170 -2.9954 -1.0751
  534MPD2    H3 7985   3.610   4.309   1.344  1.4004  2.0290 -3.4443
  534MPD2     N 7986   3.268   4.171   1.102 -0.1749 -0.0016 -0.1128
  534MPD2    H5 7987   3.334   4.143   1.030 -1.0661 -3.3113  0.3534
  534MPD2    N1 7988   3.195   4.442   1.505 -0.7079 -0.2700  0.0076
  534MPD2    H7 7989   3.097   4.432   1.481 -0.6257  0.3137 -0.5793
  535TMC3    C1 7990   3.108   4.087   0.948  0.0335 -0.6080  0.2085
  535TMC3    C2 7991   2.997   4.010   0.937  0.1596 -0.4195  0.2771
  535TMC3    C3 7992   3.004   3.905   0.849 -0.4348 -0.6355  0.1912
  535TMC3    C4 7993   3.212   4.074   0.850  0.0137 -0.0831  0.6163
  535TMC3    C5 7994   3.196   3.978   0.752  0.5414  0.2510 -0.5088
  535TMC3    C6 7995   3.096   3.882   0.754  0.5099 -0.6389 -0.2834
  535TMC3     C 7996   3.132   4.147   1.078  0.0678  0.1715  0.0619
  535TMC3     O 7997   3.040   4.141   1.155  0.2214 -0.3456  0.1062
  535TMC3     H 7998   2.909   4.007   1.001 -1.3317  0.4070 -1.7592
  535TMC3    H1 7999   3.294   4.145   0.851 -1.3226  1.4061  1.5038
  535TMC3    H2 8000   3.100   3.801   0.682 -2.3143 -1.0392  0.0288
  535TMC3    C7 8001   3.294   3.959   0.651  0.0669 -0.2544  0.0481
  535TMC3    C8 8002   2.928   3.786   0.889  0.5436 -0.2572  0.2980
  535TMC3    O1 8003   3.411   3.976   0.686 -0.2783  0.6927 -0.2905
  535TMC3    O2 8004   2.818   3.805   0.938 -0.3200 -0.4163 -0.1104
  536MPD2     C 8005   2.293   2.290  16.191  0.0545  0.0251  0.3916
  536MPD2    C1 8006   2.159   2.299  16.230  0.0563  0.4510  0.4420
  536MPD2    C2 8007   2.069   2.331  16.136  0.0135 -0.4512  0.1040
  536MPD2    C3 8008   2.100   2.336  15.997  0.3343 -1.0492 -0.4932
  536MPD2    C4 8009   2.231   2.311  15.957  0.6078  0.3716 -0.0517
  536MPD2    C5 8010   2.326   2.299  16.057 -0.1578  0.6641  0.2730
  536MPD2     H 8011   1.963   2.341  16.156  0.7469  0.0517  3.6882
  536MPD2    H1 8012   2.266   2.325  15.855 -1.7574 -0.1941 -0.9329
  536MPD2    H2 8013   2.378   2.272  16.256 -0.1127 -4.2215 -0.5207
  536MPD2    H3 8014   2.428   2.282  16.024  0.2330  3.3530  0.1128
  536MPD2     N 8015   1.996   2.355  15.899 -0.0599 -0.1353 -0.0182
  536MPD2    H5 8016   2.018   2.335  15.802  1.2130  0.5318  0.1300
  536MPD2    N1 8017   2.133   2.292  16.364 -0.0604  0.2814  0.1227
  536MPD2    H7 8018   2.214   2.267  16.420 -1.8768  0.0174  2.6704
  537TMC3    C1 8019   2.028   2.248  16.558  0.6495 -0.3343 -0.1979
  537TMC3    C2 8020   2.123   2.305  16.636 -0.4126 -0.0195  0.4642
  537TMC3    C3 8021   2.118   2.281  16.771 -0.3547 -0.0917  0.1546
  537TMC3    C4 8022   1.927   2.172  16.613 -0.6530  0.2384 -0.3646
  537TMC3    C5 8023   1.936   2.141  16.747  0.1496  0.3419  0.0694
  537TMC3    C6 8024   2.024   2.198  16.829 -0.5129  0.0258 -0.1027
  537TMC3     C 8025   2.013   2.301  16.428  0.3731 -1.2971 -0.3350
  537TMC3     O 8026   1.898   2.331  16.395 -0.1031 -0.5573 -0.4515
  537TMC3     H 8027   2.175   2.390  16.594  2.5870 -1.0920  2.0336
  537TMC3    H1 8028   1.856   2.116  16.554 -1.8133  0.1996  1.0648
  537TMC3    H2 8029   2.028   2.183  16.936 -1.6576 -0.1006 -0.0703
  537TMC3    C7 8030   1.842   2.045  16.786 -0.3619  0.4710 -0.0528
  537TMC3    C8 8031   2.226   2.325  16.855 -0.0198  0.2569  0.1458
  537TMC3    O1 8032   1.730   2.052  16.740  0.6094 -0.2334  0.1572
  537TMC3    O2 8033   2.203   2.338  16.973 -1.2512 -0.4850 -0.4443
  538TMC3    C1 8034   2.798   1.244  11.128 -0.3867 -0.0535  0.0263
  538TMC3    C2 8035   2.905   1.314  11.168 -1.0831 -0.3959 -0.1354
  538TMC3    C3 8036   2.998   1.343  11.071 -0.4384 -0.0928  0.2020
  538TMC3    C4 8037   2.765   1.231  10.995 -0.0308 -0.2441  0.3670
  538TMC3    C5 8038   2.847   1.289  10.901 -0.8214 -0.6376  0.6792
  538TMC3    C6 8039   2.966   1.342  10.937 -0.2026  0.0544  0.1175
  538TMC3     C 8040   2.771   1.122  11.210  0.3935  0.2650 -0.0577
  538TMC3     O 8041   2.724   1.027  11.153 -0.0335  0.0377 -0.5430
  538TMC3     H 8042   2.936   1.329  11.271  0.6106  0.3301 -0.7398
  538TMC3    H1 8043   2.679   1.169  10.971 -0.2055 -0.3141  1.1929
  538TMC3    H2 8044   3.043   1.340  10.860 -0.2221  0.0733  0.0977
  538TMC3    C7 8045   2.784   1.348  10.786 -0.2425  0.1715 -0.2375
  538TMC3    C8 8046   3.125   1.275  11.114 -0.2807 -0.6467  0.1814
  538TMC3    O1 8047   2.660   1.340  10.787 -0.0006 -0.8621 -0.0310
  538TMC3    O2 8048   3.121   1.220  11.227 -0.4557  0.2166  0.5183
  539MPD2     C 8049   2.352   0.534  11.824  1.3010  0.0338 -0.1852
  539MPD2    C1 8050   2.432   0.535  11.711  0.5247  0.2974  0.5183
  539MPD2    C2 8051   2.453   0.649  11.644 -0.0417 -0.0312  0.5951
  539MPD2    C3 8052   2.391   0.768  11.677  0.4622  0.4823  0.1034
  539MPD2    C4 8053   2.305   0.768  11.784  0.0957 -0.1064  0.0548
  539MPD2    C5 8054   2.285   0.655  11.857 -0.3775 -0.4195  0.0906
  539MPD2     H 8055   2.531   0.648  11.569 -2.2333 -0.8629 -1.6609
  539MPD2    H1 8056   2.253   0.853  11.828  0.8555  0.5842 -0.3849
  539MPD2    H2 8057   2.321   0.448  11.883 -0.2928 -0.6443 -2.0185
  539MPD2    H3 8058   2.222   0.639  11.944 -0.3059  0.4788  0.3064
  539MPD2     N 8059   2.412   0.886  11.604 -0.2513 -0.3614 -0.9777
  539MPD2    H5 8060   2.369   0.969  11.645 -1.7351 -0.7962 -1.6319
  539MPD2    N1 8061   2.497   0.421  11.655 -0.1641  0.4936  0.5474
  539MPD2    H7 8062   2.543   0.431  11.565 -0.8135 -0.7580  0.0822
  540TMC3    C1 8063   2.449   1.028  11.422  0.0312 -0.1075  0.4419
  540TMC3    C2 8064   2.449   1.041  11.288  0.4118  0.4148  0.5425
  540TMC3    C3 8065   2.422   1.167  11.231 -0.1042 -0.4809  0.0468
  540TMC3    C4 8066   2.405   1.130  11.503 -0.2309 -0.5491  0.1152
  540TMC3    C5 8067   2.372   1.247  11.445  0.5609 -0.2834  0.7769
  540TMC3    C6 8068   2.387   1.272  11.312 -0.2201 -0.3751 -0.0616
  540TMC3     C 8069   2.454   0.888  11.478 -0.8207  0.5785 -0.8590
  540TMC3     O 8070   2.458   0.795  11.400 -0.2970  0.5260 -0.0003
  540TMC3     H 8071   2.481   0.954  11.233  0.4672  0.7185  0.0886
  540TMC3    H1 8072   2.414   1.123  11.611  1.1722  0.3288  0.0580
  540TMC3    H2 8073   2.348   1.359  11.261 -2.7878  0.1858  2.8246
  540TMC3    C7 8074   2.260   1.308  11.504 -0.2774  0.1438 -0.0341
  540TMC3    C8 8075   2.408   1.174  11.094 -0.4101  0.0381 -0.3858
  540TMC3    O1 8076   2.147   1.267  11.470 -0.1992 -0.1785 -0.5757
  540TMC3    O2 8077   2.364   1.282  11.053  0.5482 -0.1572 -0.1597
  541MPD2     C 8078   0.536   1.332  12.949  0.0174  0.5151  0.1044
  541MPD2    C1 8079   0.661   1.301  12.905  0.1638 -0.1888  0.1073
  541MPD2    C2 8080   0.694   1.305  12.771  0.1977 -1.6824  0.3683
  541MPD2    C3 8081   0.611   1.372  12.684  0.3826  0.3626  0.4710
  541MPD2    C4 8082   0.488   1.416  12.733  0.1318 -0.2800  0.2647
  541MPD2    C5 8083   0.452   1.385  12.859  0.7231 -0.4975 -0.9214
  541MPD2     H 8084   0.784   1.260  12.731  0.1372  0.3683 -2.0239
  541MPD2    H1 8085   0.414   1.476  12.680  1.0947  0.4369 -0.2691
  541MPD2    H2 8086   0.502   1.332  13.052 -0.3583 -2.1357  0.0007
  541MPD2    H3 8087   0.352   1.409  12.895  1.1350  0.0833 -0.1469
  541MPD2     N 8088   0.633   1.396  12.548  0.3974  0.0516  0.0027
  541MPD2    H5 8089   0.563   1.460  12.510  0.4628  1.1037  1.6622
  541MPD2    N1 8090   0.745   1.243  12.999  0.8513  0.7468  0.5236
  541MPD2    H7 8091   0.709   1.257  13.092  0.9710  1.1751  0.5028
  542TMC3    C1 8092   0.741   1.360  12.334  0.6301  0.6730  0.3067
  542TMC3    C2 8093   0.855   1.406  12.277  0.6142  0.1346 -0.3845
  542TMC3    C3 8094   0.842   1.449  12.146  0.0679  0.3613 -0.7809
  542TMC3    C4 8095   0.618   1.363  12.272 -0.4780 -0.0482 -0.0852
  542TMC3    C5 8096   0.618   1.404  12.139 -0.2534  0.5612 -0.1090
  542TMC3    C6 8097   0.726   1.455  12.073 -0.5943  0.0541 -0.8781
  542TMC3     C 8098   0.747   1.354  12.483 -0.0206 -0.0084 -0.7098
  542TMC3     O 8099   0.847   1.309  12.534 -0.1790  0.2060  0.5510
  542TMC3     H 8100   0.952   1.393  12.324  0.0298  0.5375  0.9380
  542TMC3    H1 8101   0.531   1.315  12.314 -0.4308  1.2049  1.4421
  542TMC3    H2 8102   0.710   1.521  11.988  1.5246  0.5259 -0.9179
  542TMC3    C7 8103   0.489   1.386  12.076 -0.3545  0.3323  0.4691
  542TMC3    C8 8104   0.964   1.511  12.080 -0.7319  0.0376  0.4077
  542TMC3    O1 8105   0.395   1.332  12.134  0.1650 -0.2133  0.4818
  542TMC3    O2 8106   0.946   1.554  11.966  0.4349 -0.2755 -0.4119
  543TMC3    C1 8107   0.608   2.709  17.393 -0.0199 -1.0402 -0.1354
  543TMC3    C2 8108   0.586   2.582  17.431 -0.0953 -0.9684  0.1119
  543TMC3    C3 8109   0.551   2.553  17.559  0.1250  0.6335  1.4411
  543TMC3    C4 8110   0.605   2.808  17.484  0.0605  0.4332  0.1686
  543TMC3    C5 8111   0.566   2.774  17.610 -0.1016  0.3556  0.3964
  543TMC3    C6 8112   0.527   2.653  17.648  0.7228 -0.4063 -0.7490
  543TMC3     C 8113   0.680   2.726  17.266  0.6962 -0.0375  0.1384
  543TMC3     O 8114   0.765   2.640  17.245  0.7097 -0.7184 -0.1886
  543TMC3     H 8115   0.594   2.499  17.360  1.4138 -0.7080 -0.0242
  543TMC3    H1 8116   0.622   2.913  17.462  0.2763 -0.1387 -2.4019
  543TMC3    H2 8117   0.474   2.626   0.000 -1.3342  0.1230 -1.7813
  543TMC3    C7 8118   0.551   2.876  17.713 -0.7124 -0.4148 -0.3103
  543TMC3    C8 8119   0.509   2.417  17.590  0.3637  0.8296 -0.5780
  543TMC3    O1 8120   0.532   2.835   0.088 -0.0150  0.1460 -0.4712
  543TMC3    O2 8121   0.524   2.333  17.500  0.5845  0.2416 -0.2570
  544MPD2     C 8122   0.539   2.016   0.171 -0.5759 -0.0132  0.6146
  544MPD2    C1 8123   0.517   2.012   0.035  0.5955 -0.2606 -0.0552
  544MPD2    C2 8124   0.503   2.131  17.713  0.1339 -0.3966 -0.7293
  544MPD2    C3 8125   0.516   2.250   0.044 -0.1336  0.6538  0.3586
  544MPD2    C4 8126   0.542   2.246   0.179 -0.0549  0.9510 -0.2502
  544MPD2    C5 8127   0.571   2.127   0.237 -0.2422 -0.7083 -0.3711
  544MPD2     H 8128   0.479   2.139  17.607 -0.3046 -2.1320 -0.7655
  544MPD2    H1 8129   0.565   2.336   0.235  0.8351  1.3688 -1.2776
  544MPD2    H2 8130   0.561   1.924   0.224  1.7011  1.5532  2.4090
  544MPD2    H3 8131   0.621   2.113   0.333 -1.4802  1.6128  0.6052
  544MPD2     N 8132   0.520   2.383  17.728  0.1780  0.5178 -0.2942
  544MPD2    H5 8133   0.538   2.461   0.051  0.5146 -0.4392  0.8301
  544MPD2    N1 8134   0.505   1.889  17.706 -0.0221 -0.9309 -0.3994
  544MPD2    H7 8135   0.513   1.811   0.032  0.0469 -0.0041  0.7021
  545TMC3    C1 8136   0.460   1.715  17.555 -0.3951 -0.2094  0.3583
  545TMC3    C2 8137   0.412   1.680  17.432  0.2036 -0.3255  0.1192
  545TMC3    C3 8138   0.437   1.553  17.399 -0.1851  0.1906  0.4134
  545TMC3    C4 8139   0.512   1.628  17.642  0.4589  0.1835  0.0480
  545TMC3    C5 8140   0.504   1.493  17.615 -0.2464  0.0286  0.5926
  545TMC3    C6 8141   0.485   1.458  17.486  0.3398  0.5254 -0.2110
  545TMC3     C 8142   0.468   1.859  17.576 -0.0888  0.3632  0.1023
  545TMC3     O 8143   0.446   1.936  17.484 -0.1665  0.1463  0.1239
  545TMC3     H 8144   0.388   1.751  17.353 -2.6713  1.1875  2.3485
  545TMC3    H1 8145   0.553   1.660  17.737 -1.1464 -0.2744  0.8870
  545TMC3    H2 8146   0.504   1.358  17.450  2.5291  1.1909 -0.9407
  545TMC3    C7 8147   0.514   1.399  17.721  0.0877  0.4208  0.1504
  545TMC3    C8 8148   0.463   1.532  17.261  0.6513  0.0518 -0.0024
  545TMC3    O1 8149   0.481   1.284  17.687  0.0333 -0.5141  0.9822
  545TMC3    O2 8150   0.568   1.469  17.237 -0.6726 -0.0066  0.5773
  546MPD2     C 8151   2.418   2.712  17.066 -0.3369  0.0152 -0.7110
  546MPD2    C1 8152   2.381   2.691  17.193  0.0560 -0.5234 -0.1015
  546MPD2    C2 8153   2.433   2.774  17.292  0.9440 -1.1119  0.3821
  546MPD2    C3 8154   2.521   2.877  17.256 -0.4532 -0.2787 -0.3494
  546MPD2    C4 8155   2.547   2.898  17.120 -0.6088  0.5434 -0.8529
  546MPD2    C5 8156   2.495   2.812  17.023  0.4725  0.0119  0.2797
  546MPD2     H 8157   2.406   2.755  17.395  2.1761 -2.0943  0.5221
  546MPD2    H1 8158   2.615   2.976  17.086 -0.4608  0.4312 -0.8147
  546MPD2    H2 8159   2.371   2.651  16.989 -2.6115  2.6769 -1.3960
  546MPD2    H3 8160   2.503   2.847  16.921  0.3542 -1.4033 -0.2216
  546MPD2     N 8161   2.585   2.954  17.356 -0.1198 -0.6419  0.2774
  546MPD2    H5 8162   2.627   3.040  17.322  0.6778 -1.1483 -0.0300
  546MPD2    N1 8163   2.286   2.589  17.215  0.0808 -0.1923  0.0887
  546MPD2    H7 8164   2.255   2.541  17.131  0.9944 -0.8171  0.1112
  547TMC3    C1 8165   2.096   2.488  17.312  0.2303 -0.0989  0.3782
  547TMC3    C2 8166   2.026   2.512  17.201 -0.1516 -0.0776 -0.0542
  547TMC3    C3 8167   1.900   2.454  17.206 -0.0823  0.1797  1.0896
  547TMC3    C4 8168   2.054   2.421  17.422 -0.2990 -1.0413  0.5923
  547TMC3    C5 8169   1.936   2.349  17.412  0.1432  0.1642  0.7557
  547TMC3    C6 8170   1.856   2.365  17.307 -0.0658 -0.2079 -0.7191
  547TMC3     C 8171   2.216   2.565  17.334 -0.3431 -0.3434  0.1558
  547TMC3     O 8172   2.261   2.576  17.449 -0.4321  0.4036 -0.0485
  547TMC3     H 8173   2.044   2.595  17.134 -1.6452 -0.2519 -0.6642
  547TMC3    H1 8174   2.116   2.419  17.511  3.4753  0.8772 -2.0268
  547TMC3    H2 8175   1.767   2.305  17.293  0.8256 -2.1626  1.8886
  547TMC3    C7 8176   1.911   2.248  17.510  0.2635 -0.1183 -0.0389
  547TMC3    C8 8177   1.807   2.461  17.095  0.4175 -0.1115 -0.6191
  547TMC3    O1 8178   1.953   2.256  17.623 -0.2128  0.1946  0.0964
  547TMC3    O2 8179   1.688   2.441  17.118 -0.4822 -0.0496 -0.4546
  548MPD2     C 8180   1.825   3.836  12.607 -0.5654  0.0527  0.0406
  548MPD2    C1 8181   1.770   3.716  12.638 -1.0346  0.2663 -0.4090
  548MPD2    C2 8182   1.813   3.598  12.594  0.5889  0.0952  0.1429
  548MPD2    C3 8183   1.932   3.591  12.523  0.2407 -0.2868 -0.1313
  548MPD2    C4 8184   2.003   3.711  12.504  0.3645  0.3967 -0.2316
  548MPD2    C5 8185   1.949   3.827  12.554  0.6711  0.4677 -0.0086
  548MPD2     H 8186   1.748   3.512  12.597  0.1399  0.3607 -1.7101
  548MPD2    H1 8187   2.101   3.711  12.459 -0.3021 -0.7778 -1.6699
  548MPD2    H2 8188   1.802   3.934  12.648  0.2296 -0.3322  1.3994
  548MPD2    H3 8189   2.003   3.920  12.543  0.6113  0.4099 -0.7459
  548MPD2     N 8190   1.970   3.472  12.448 -0.3863 -0.3296 -0.5539
  548MPD2    H5 8191   2.039   3.497  12.378  2.1509 -3.2282  0.9520
  548MPD2    N1 8192   1.655   3.714  12.717 -0.1244 -0.0589  0.0452
  548MPD2    H7 8193   1.623   3.801  12.759 -0.2351 -0.4296  0.7212
  549TMC3    C1 8194   1.465   3.643  12.846 -0.4299  0.1676  0.2258
  549TMC3    C2 8195   1.424   3.775  12.849  0.2654 -0.6770  0.5765
  549TMC3    C3 8196   1.292   3.796  12.840 -0.0640  0.3456  0.5593
  549TMC3    C4 8197   1.372   3.550  12.853 -0.3004  0.2534  0.2916
  549TMC3    C5 8198   1.234   3.573  12.847 -0.4719  0.2782  0.4798
  549TMC3    C6 8199   1.196   3.702  12.831  0.2669  0.7298 -0.3434
  549TMC3     C 8200   1.579   3.606  12.765  0.2867  0.4812  0.1210
  549TMC3     O 8201   1.596   3.485  12.761  0.9050 -0.3058  0.1797
  549TMC3     H 8202   1.487   3.856  12.882 -0.5664  0.9424 -1.8305
  549TMC3    H1 8203   1.408   3.449  12.874  0.7179  0.7862  1.1201
  549TMC3    H2 8204   1.089   3.721  12.837  0.0423 -1.0401  1.2936
  549TMC3    C7 8205   1.139   3.470  12.853  0.5733  0.3540  0.4698
  549TMC3    C8 8206   1.248   3.919  12.895  0.6926  0.1869 -0.5346
  549TMC3    O1 8207   1.024   3.504  12.840  0.0370  0.1206  0.2923
  549TMC3    O2 8208   1.318   3.968  12.989  0.2476  0.2453 -0.1096
  550TMC3    C1 8209   0.588   1.885  12.213 -0.3537 -1.0405 -0.5429
  550TMC3    C2 8210   0.615   1.865  12.346 -0.0457 -0.5867  0.1214
  550TMC3    C3 8211   0.637   1.979  12.423 -0.8695 -0.0492  0.0854
  550TMC3    C4 8212   0.603   2.015  12.158  0.2799 -0.0009  0.1361
  550TMC3    C5 8213   0.629   2.126  12.234 -1.0651 -0.1020  0.3628
  550TMC3    C6 8214   0.648   2.105  12.367  0.3731 -0.1683  0.5752
  550TMC3     C 8215   0.478   1.804  12.156 -0.1559 -0.0399 -0.5990
  550TMC3     O 8216   0.440   1.704  12.210  0.3353 -0.5303 -0.4523
  550TMC3     H 8217   0.598   1.768  12.389  1.7429 -0.6854  0.6052
  550TMC3    H1 8218   0.609   2.023  12.050  1.0636 -1.2201  0.0892
  550TMC3    H2 8219   0.667   2.193  12.427 -0.7499 -0.4659  1.3604
  550TMC3    C7 8220   0.525   2.230  12.203 -0.4181  0.2748  0.1524
  550TMC3    C8 8221   0.543   1.992  12.532 -0.2185  0.3320 -0.2593
  550TMC3    O1 8222   0.438   2.185  12.126  0.5065 -0.5004  0.1748
  550TMC3    O2 8223   0.548   2.095  12.599 -0.0027 -0.1006 -0.0593
  551TMC3    C1 8224   2.498   4.335  13.598  0.1317 -0.5848 -0.2955
  551TMC3    C2 8225   2.574   4.231  13.550 -0.0263  0.0432  0.1994
  551TMC3    C3 8226   2.635   4.150  13.640  0.2535 -0.3555 -0.2857
  551TMC3    C4 8227   2.464   4.343  13.727 -0.5864 -0.7350 -0.8257
  551TMC3    C5 8228   2.527   4.259  13.815  0.5950  0.0548  0.6602
  551TMC3    C6 8229   2.617   4.163  13.774  0.1508  0.9289  0.0167
  551TMC3     C 8230   2.397   4.369  13.500  0.8158 -0.0614  0.1259
  551TMC3     O 8231   2.280   4.366  13.533 -0.3646  0.2973 -0.8126
  551TMC3     H 8232   2.584   4.202  13.446  0.8395 -1.0679  0.5918
  551TMC3    H1 8233   2.385   4.410  13.759  1.6427  0.4642  2.1292
  551TMC3    H2 8234   2.677   4.100  13.839  0.3666 -0.0567 -1.1271
  551TMC3    C7 8235   2.530   4.289  13.951  0.5416  0.1685  0.1702
  551TMC3    C8 8236   2.681   4.026  13.597 -0.4077  0.4336  0.7802
  551TMC3    O1 8237   2.635   4.268  14.013  0.9159  0.1349  0.0458
  551TMC3    O2 8238   2.619   3.932  13.635 -0.0211 -0.2105  0.4305
  552MPD2     C 8239   4.249   1.425  13.956 -0.2075 -0.1514  0.1303
  552MPD2    C1 8240   4.279   1.292  13.977 -0.0233 -0.4787 -0.2159
  552MPD2    C2 8241   4.400   1.255  14.030  0.2606  0.1094 -0.5721
  552MPD2    C3 8242   4.502   1.348  14.055 -1.0041 -0.4473 -0.1420
  552MPD2    C4 8243   4.476   1.481  14.011 -0.1434  0.1156 -0.0162
  552MPD2    C5 8244   4.347   1.515  13.969 -0.1488  0.0826  0.4606
  552MPD2     H 8245   4.424   1.150  14.036  1.9320  0.5423  0.5720
  552MPD2    H1 8246   4.548   1.560  14.026 -0.7203  0.7164 -0.4007
  552MPD2    H2 8247   4.154   1.457  13.914 -0.5516 -0.6457  0.5400
  552MPD2    H3 8248   4.327   1.618  13.942 -1.0366 -1.2157 -3.8150
  552MPD2     N 8249   4.629   1.320  14.109 -0.2101 -0.0993  0.2296
  552MPD2    H5 8250   4.694   1.398  14.106 -0.2440 -0.0968 -0.4144
  552MPD2    N1 8251   4.182   1.191  13.933 -0.1600  0.0469  0.0064
  552MPD2    H7 8252   4.207   1.094  13.949 -3.2222 -0.4142  1.9456
  553TMC3    C1 8253   4.001   1.071  13.842 -0.2086 -0.2021 -0.4541
  553TMC3    C2 8254   3.981   1.072  13.701  1.1902 -0.3121 -0.3021
  553TMC3    C3 8255   4.027   0.966  13.630  0.1485  0.3149  0.1972
  553TMC3    C4 8256   4.073   0.965  13.899  0.0435 -0.3234 -0.1321
  553TMC3    C5 8257   4.120   0.859  13.825 -0.5129 -0.0809  0.4934
  553TMC3    C6 8258   4.085   0.857  13.690  0.6254  0.1560 -0.4095
  553TMC3     C 8259   4.055   1.203  13.880 -0.3115  0.5474  0.0169
  553TMC3     O 8260   4.005   1.302  13.827 -0.1458 -0.2824  0.1538
  553TMC3     H 8261   3.938   1.160  13.655  2.1366  0.1185 -0.3551
  553TMC3    H1 8262   4.105   0.978  14.002  1.7366 -1.9776 -0.4385
  553TMC3    H2 8263   4.105   0.766  13.634 -0.4556  0.5282 -1.3989
  553TMC3    C7 8264   4.265   0.859  13.850 -0.1751  0.5583  0.0836
  553TMC3    C8 8265   4.101   0.999  13.501  0.4903 -0.5387  1.0758
  553TMC3    O1 8266   4.309   0.874  13.963  0.0323  0.4675  0.5345
  553TMC3    O2 8267   4.194   0.921  13.471  0.1493 -0.2274 -0.1788
  554TMC3    C1 8268   2.039   0.861  11.392  0.4343  0.5105 -0.5555
  554TMC3    C2 8269   1.995   0.751  11.318  0.5529 -0.2612  0.0201
  554TMC3    C3 8270   1.996   0.763  11.184  0.2927 -0.3881  0.5624
  554TMC3    C4 8271   2.049   0.984  11.329 -0.5092  0.2235 -0.2171
  554TMC3    C5 8272   2.041   0.983  11.193 -0.0549 -0.3056 -0.5300
  554TMC3    C6 8273   2.008   0.879  11.120  0.1673 -0.0803  0.1487
  554TMC3     C 8274   2.048   0.855  11.541  0.4947  0.5867 -0.5560
  554TMC3     O 8275   2.086   0.962  11.593  0.3823  0.2480  0.3036
  554TMC3     H 8276   1.992   0.655  11.368 -2.5137  0.4147  1.1565
  554TMC3    H1 8277   2.081   1.073  11.382  0.6719 -0.2821 -0.0953
  554TMC3    H2 8278   1.988   0.880  11.014  0.2112  2.5685  0.1689
  554TMC3    C7 8279   2.047   1.105  11.107  0.2082 -0.1745  0.3841
  554TMC3    C8 8280   1.987   0.648  11.098 -0.0177  0.4173  0.2454
  554TMC3    O1 8281   2.056   1.092  10.984 -0.1864 -0.2028  0.0643
  554TMC3    O2 8282   2.054   0.645  10.996  0.2062  0.0546  0.0179
  555TMC3    C1 8283   0.961   0.037  15.173 -0.6803 -0.1320 -0.9855
  555TMC3    C2 8284   1.003   0.083  15.295 -0.2744  0.2800  0.4791
  555TMC3    C3 8285   1.053   4.729  15.388 -0.1628 -0.3851 -0.6971
  555TMC3    C4 8286   0.955   4.641  15.142 -0.2217  0.4204 -0.1102
  555TMC3    C5 8287   1.005   4.551  15.233 -0.2366  0.4265  0.3352
  555TMC3    C6 8288   1.047   4.595  15.360 -0.0885  0.3636 -0.7911
  555TMC3     C 8289   0.955   0.136  15.064 -0.7730 -0.2690 -0.3108
  555TMC3     O 8290   0.856   0.123  14.998 -0.3155 -0.4549  0.4478
  555TMC3     H 8291   0.990   0.188  15.318  1.6786  0.3370  1.3328
  555TMC3    H1 8292   0.931   4.617  15.039 -1.1436  0.1899  0.1553
  555TMC3    H2 8293   1.079   4.521  15.432 -0.7733 -1.0886 -1.9837
  555TMC3    C7 8294   1.033   4.412  15.188 -0.0321  0.2733  0.1458
  555TMC3    C8 8295   1.129   0.042  15.502  0.0270 -0.4484 -0.4359
  555TMC3    O1 8296   1.030   4.390  15.070  0.0203 -0.1796 -0.0099
  555TMC3    O2 8297   1.165   0.160  15.490 -0.4467 -0.8028  0.0377
  556MPD2     C 8298   3.557   1.914  10.709 -0.5444  0.0142 -0.4722
  556MPD2    C1 8299   3.561   1.818  10.809  0.2844  0.9758 -0.2933
  556MPD2    C2 8300   3.595   1.693  10.770  0.4622  0.0328  0.0315
  556MPD2    C3 8301   3.610   1.651  10.640  0.1677  0.3884 -0.0544
  556MPD2    C4 8302   3.593   1.748  10.540 -0.0492  0.6650 -0.6993
  556MPD2    C5 8303   3.569   1.880  10.583  0.5336 -0.6351  0.2990
  556MPD2     H 8304   3.598   1.615  10.846 -0.5130  1.3101  1.3906
  556MPD2    H1 8305   3.623   1.739  10.436  1.4227 -0.3563 -0.1832
  556MPD2    H2 8306   3.556   2.019  10.736 -0.6964  0.4318 -2.1189
  556MPD2    H3 8307   3.578   1.962  10.512  0.6031 -1.3097 -0.4741
  556MPD2     N 8308   3.661   1.525  10.607  0.1409  0.0187  0.0603
  556MPD2    H5 8309   3.698   1.465  10.680  2.0188  0.3082 -0.6574
  556MPD2    N1 8310   3.540   1.839  10.950  0.0731  0.4413  0.8217
  556MPD2    H7 8311   3.573   1.769  11.015  0.0110 -0.9042 -0.5763
  557TMC3    C1 8312   3.707   1.335  10.470  0.1980 -0.5377 -0.2300
  557TMC3    C2 8313   3.706   1.274  10.346 -0.8714 -0.2086  0.4208
  557TMC3    C3 8314   3.711   1.140  10.342  0.1221 -0.3357  0.2108
  557TMC3    C4 8315   3.729   1.269  10.589  0.5691 -0.1634 -0.0176
  557TMC3    C5 8316   3.729   1.130  10.575 -0.1754 -0.3640 -0.0859
  557TMC3    C6 8317   3.710   1.066  10.456  0.0022 -0.1001 -1.5349
  557TMC3     C 8318   3.660   1.467  10.477  0.0622  0.0628 -0.1122
  557TMC3     O 8319   3.607   1.520  10.377  0.0272  0.8413  0.2574
  557TMC3     H 8320   3.698   1.341  10.260 -0.6225  0.7289  1.1269
  557TMC3    H1 8321   3.765   1.323  10.676 -0.1725  1.2909 -0.5979
  557TMC3    H2 8322   3.695   0.959  10.455  0.1101 -0.1093 -1.9977
  557TMC3    C7 8323   3.678   1.071  10.702  0.4459 -0.6195  0.7774
  557TMC3    C8 8324   3.687   1.078  10.213  0.7116 -0.0262  0.2500
  557TMC3    O1 8325   3.690   0.951  10.709 -0.1148  0.0320 -0.0642
  557TMC3    O2 8326   3.649   1.160  10.130 -0.4977  0.2897  0.2631
  558TMC3    C1 8327   1.789   4.635  10.376 -0.1639 -0.6700  0.2500
  558TMC3    C2 8328   1.661   4.587  10.379 -0.2790 -0.2418 -0.0068
  558TMC3    C3 8329   1.584   4.608  10.267  1.0270 -0.3012 -0.1182
  558TMC3    C4 8330   1.841   4.706  10.269 -0.6241 -0.3391  0.8449
  558TMC3    C5 8331   1.763   4.723  10.165 -0.4904 -0.3714  0.0063
  558TMC3    C6 8332   1.636   4.674  10.160 -0.1825 -0.2219 -0.2698
  558TMC3     C 8333   1.885   4.583  10.467 -0.3842  0.1688 -0.4880
  558TMC3     O 8334   2.003   4.590  10.436  0.5029 -0.1966 -0.1256
  558TMC3     H 8335   1.617   4.518  10.451 -2.8633  0.9137 -0.4554
  558TMC3    H1 8336   1.942   0.008  10.259 -0.6458 -0.7538 -1.0521
  558TMC3    H2 8337   1.578   4.686  10.069 -1.7546 -0.6690  0.6686
  558TMC3    C7 8338   1.843   4.727  10.043  0.7414  0.3989  0.4090
  558TMC3    C8 8339   1.456   4.549  10.244 -0.5357 -0.8364  0.9901
  558TMC3    O1 8340   1.957   4.677  10.037 -0.0184 -0.5575  0.4027
  558TMC3    O2 8341   1.408   4.553  10.132  0.3309  0.1533  0.2019
  559MPD2     C 8342   1.493   0.207  10.299  0.4160  0.3284  0.2348
  559MPD2    C1 8343   1.420   0.137  10.393  0.3473  0.7546 -0.4063
  559MPD2    C2 8344   1.485   0.105  10.512 -0.0278 -0.2251 -0.3841
  559MPD2    C3 8345   1.619   0.139  10.531 -0.6033  0.0356 -0.3051
  559MPD2    C4 8346   1.695   0.221  10.441  0.2393  0.1949 -0.5061
  559MPD2    C5 8347   1.628   0.245  10.322 -0.0500 -0.5153 -0.2446
  559MPD2     H 8348   1.422   0.062  10.589  1.6659  1.4807  1.9430
  559MPD2    H1 8349   1.794   0.261  10.463 -0.0804  0.0822  1.1518
  559MPD2    H2 8350   1.446   0.229  10.204 -1.9396 -2.6023  0.7415
  559MPD2    H3 8351   1.682   0.294  10.241 -1.0906 -1.2559 -1.3907
  559MPD2     N 8352   1.687   0.097  10.648  0.0891 -0.0674 -0.2585
  559MPD2    H5 8353   1.618   0.056  10.710  0.5599 -0.1119  0.2307
  559MPD2    N1 8354   1.286   0.094  10.385  0.2456 -0.3054 -0.2386
  559MPD2    H7 8355   1.238   0.065  10.470 -1.6233 -0.6194 -1.4068
  560TMC3    C1 8356   1.837   0.058  10.823  0.5622 -0.5249  0.3055
  560TMC3    C2 8357   1.766   4.682  10.856  0.5234  0.5304 -0.5003
  560TMC3    C3 8358   1.746   4.645  10.990  0.6503 -0.1329  0.4475
  560TMC3    C4 8359   1.906   0.128  10.916  0.7617  0.2198  0.7940
  560TMC3    C5 8360   1.887   0.091  11.048 -0.5575  0.4162 -0.5184
  560TMC3    C6 8361   1.801   4.733  11.085 -0.4014  0.1007 -0.4374
  560TMC3     C 8362   1.819   0.113  10.692 -0.2781  0.3473 -0.5655
  560TMC3     O 8363   1.919   0.174  10.645  0.3341  0.3086 -0.1861
  560TMC3     H 8364   1.720   4.618  10.781  0.9776  0.6501 -0.8784
  560TMC3    H1 8365   1.944   0.221  10.878 -2.6584  1.3380  0.1405
  560TMC3    H2 8366   1.804   4.703  11.189  0.1703 -2.0349 -1.0689
  560TMC3    C7 8367   1.958   0.158  11.159 -0.1354 -0.3386 -0.9260
  560TMC3    C8 8368   1.633   4.557  11.026 -0.1172  0.6515 -0.3916
  560TMC3    O1 8369   1.933   0.131  11.275  0.5396 -0.4698  0.1044
  560TMC3    O2 8370   1.583   4.490  10.937  0.1353  0.5905 -0.2013
  561TMC3    C1 8371   4.179   3.720  11.433 -0.2422 -0.2503  0.3844
  561TMC3    C2 8372   4.132   3.676  11.552  0.4585 -0.4333  0.1462
  561TMC3    C3 8373   4.098   3.771  11.644  0.0189 -0.7932 -0.5560
  561TMC3    C4 8374   4.175   3.850  11.386 -0.4476  0.1861 -0.6587
  561TMC3    C5 8375   4.138   3.938  11.486  0.2780  0.0446 -0.0433
  561TMC3    C6 8376   4.101   3.901  11.609 -0.4087 -0.4349  0.2595
  561TMC3     C 8377   4.237   3.614  11.355 -0.6981  0.3660  0.8494
  561TMC3     O 8378   4.229   3.499  11.393 -0.3612  0.0588  0.8997
  561TMC3     H 8379   4.141   3.572  11.580 -2.5593 -0.8796 -0.4811
  561TMC3    H1 8380   4.189   3.880  11.283 -0.4150  0.5129 -0.5594
  561TMC3    H2 8381   4.086   3.976  11.685 -0.5233 -0.1384 -0.0534
  561TMC3    C7 8382   4.149   4.082  11.467  0.2786  0.1063 -0.2821
  561TMC3    C8 8383   4.041   3.731  11.771 -0.3926 -0.1224  0.7034
  561TMC3    O1 8384   4.061   4.143  11.524 -0.0804  0.2931  0.4882
  561TMC3    O2 8385   4.070   3.623  11.819 -0.0336 -0.2171  0.0135
  562TMC3    C1 8386   0.475   0.242  16.184  0.3564  0.0070 -0.7647
  562TMC3    C2 8387   0.384   0.345  16.173 -1.0230  0.0069  0.1367
  562TMC3    C3 8388   0.393   0.426  16.063  0.1084  0.1039  0.5811
  562TMC3    C4 8389   0.552   0.209  16.072  1.0005  0.6660  0.6223
  562TMC3    C5 8390   0.560   0.296  15.962 -0.3631  0.6843  0.0077
  562TMC3    C6 8391   0.485   0.412  15.963 -0.4113 -0.1339 -0.7859
  562TMC3     C 8392   0.446   0.150  16.291  0.2134  0.5327  0.0445
  562TMC3     O 8393   0.338   0.147  16.346  0.4510 -0.0630  0.3164
  562TMC3     H 8394   0.310   0.361  16.250  0.4676  0.8554  1.3940
  562TMC3    H1 8395   0.612   0.119  16.076 -0.7614 -0.5938 -1.4861
  562TMC3    H2 8396   0.497   0.481  15.881 -1.1559  1.1039  0.1453
  562TMC3    C7 8397   0.610   0.252  15.834  0.1468  0.4253 -0.5913
  562TMC3    C8 8398   0.290   0.529  16.048  0.4517  0.5119  0.0092
  562TMC3    O1 8399   0.574   0.310  15.735 -0.3007 -0.3874  0.1997
  562TMC3    O2 8400   0.205   0.520  16.131  0.2349 -0.4477  0.4843
  563MPD2     C 8401   2.882   1.225  15.506  0.4197  0.1177  0.0887
  563MPD2    C1 8402   2.867   1.220  15.646  0.5482 -1.5642 -0.1430
  563MPD2    C2 8403   2.985   1.212  15.718 -0.0351 -0.2350 -0.2615
  563MPD2    C3 8404   3.107   1.216  15.654 -0.3347 -0.5551 -0.7455
  563MPD2    C4 8405   3.118   1.243  15.520  0.4943  0.6347  0.0771
  563MPD2    C5 8406   3.004   1.242  15.445  0.1345  0.0380  0.1340
  563MPD2     H 8407   2.980   1.202  15.826  2.3534  0.4676 -0.0715
  563MPD2    H1 8408   3.214   1.246  15.469  1.1823 -1.6458  1.2673
  563MPD2    H2 8409   2.792   1.232  15.447 -0.2457 -1.1311  0.9752
  563MPD2    H3 8410   3.013   1.249  15.338  1.7359 -1.8371  0.1515
  563MPD2     N 8411   3.220   1.233  15.736  0.2417 -0.2544 -0.8369
  563MPD2    H5 8412   3.203   1.253  15.834  1.6213 -0.4686 -0.5503
  563MPD2    N1 8413   2.745   1.224  15.712 -0.5585  0.1878  0.4131
  563MPD2    H7 8414   2.750   1.211  15.813 -2.3366 -1.5147  0.2717
  564TMC3    C1 8415   2.517   1.199  15.760 -0.0422 -0.3557 -0.1636
  564TMC3    C2 8416   2.456   1.076  15.739  0.0933  0.3024  0.3190
  564TMC3    C3 8417   2.433   0.998  15.846 -0.3109 -0.3457 -0.5206
  564TMC3    C4 8418   2.561   1.239  15.880 -0.7692  0.5853 -0.4124
  564TMC3    C5 8419   2.547   1.151  15.992  0.0583 -0.0034 -0.0961
  564TMC3    C6 8420   2.469   1.039  15.970 -0.0153  0.0016  0.3278
  564TMC3     C 8421   2.616   1.218  15.652  0.3796 -0.2324  0.1805
  564TMC3     O 8422   2.579   1.202  15.535  0.0634 -0.2745  0.8740
  564TMC3     H 8423   2.465   1.029  15.642  1.6844 -2.9437  2.0419
  564TMC3    H1 8424   2.622   1.327  15.892  2.1838 -1.8622  2.5720
  564TMC3    H2 8425   2.440   0.986  16.060  1.5854 -0.7043  0.4224
  564TMC3    C7 8426   2.684   1.109  16.040  0.0238  1.3035 -1.0664
  564TMC3    C8 8427   2.415   0.850  15.824  0.6606 -0.4150 -0.2902
  564TMC3    O1 8428   2.775   1.184  16.017  1.0509  0.0426  0.0495
  564TMC3    O2 8429   2.450   0.792  15.925  0.0092  0.3751  0.2377
  565TMC3    C1 8430   3.688   3.334  10.131 -0.2786 -0.4262  0.0461
  565TMC3    C2 8431   3.706   3.300  10.260 -0.2141  0.0336 -0.7017
  565TMC3    C3 8432   3.649   3.183  10.308 -0.7594  0.2221  0.3311
  565TMC3    C4 8433   3.613   3.259  10.043 -0.1972 -0.2014 -0.3548
  565TMC3    C5 8434   3.551   3.144  10.094  0.8929 -0.7003 -0.0545
  565TMC3    C6 8435   3.578   3.104  10.221 -0.0084 -0.1714  0.1645
  565TMC3     C 8436   3.750   3.455  10.073  0.3081  0.4467  0.5018
  565TMC3     O 8437   3.723   3.494   9.964  0.4835  0.0453  0.2000
  565TMC3     H 8438   3.761   3.372  10.319 -2.2564 -0.1840  1.4329
  565TMC3    H1 8439   3.601   3.286   9.939  1.4232  0.0524 -0.4815
  565TMC3    H2 8440   3.529   3.021  10.271  0.9738 -0.2658  0.9657
  565TMC3    C7 8441   3.524   3.048   9.994  0.8793 -0.7820  0.5204
  565TMC3    C8 8442   3.663   3.145  10.449 -0.2070  0.1284 -0.5808
  565TMC3    O1 8443   3.509   3.088   9.878  0.9325  0.0605 -0.3805
  565TMC3    O2 8444   3.664   3.024  10.474 -0.3441  0.5888  0.1506
  566MPD2     C 8445   0.586   0.017  14.702 -0.3172 -0.0389 -0.5585
  566MPD2    C1 8446   0.558   0.077  14.579 -0.8197 -0.7674 -0.2611
  566MPD2    C2 8447   0.452   0.026  14.499 -0.1958  0.0042  0.0336
  566MPD2    C3 8448   0.378   4.654  14.544 -0.2465 -0.6830 -0.5308
  566MPD2    C4 8449   0.397   4.596  14.669  0.0858  0.5615  0.3870
  566MPD2    C5 8450   0.510   4.649  14.744 -0.1183 -0.6299 -0.3818
  566MPD2     H 8451   0.436   0.078  14.406  0.3452 -0.4678 -0.3245
  566MPD2    H1 8452   0.339   4.512  14.704 -0.7837  1.0647  0.1444
  566MPD2    H2 8453   0.664   0.059  14.766 -1.7090  1.2401  0.2890
  566MPD2    H3 8454   0.524   4.623  14.848  1.7739  0.9401 -0.2424
  566MPD2     N 8455   0.280   4.600  14.462  0.0703  0.0991  0.4498
  566MPD2    H5 8456   0.237   4.515  14.497  0.7119  0.0610  1.1514
  566MPD2    N1 8457   0.642   0.185  14.541 -0.1619  0.0001  0.1842
  566MPD2    H7 8458   0.731   0.196  14.588 -0.4395  0.8288  0.5245
  567TMC3    C1 8459   0.725   0.318  14.364 -0.1186 -0.2749 -0.1464
  567TMC3    C2 8460   0.675   0.369  14.247 -0.6126  0.5716  0.8021
  567TMC3    C3 8461   0.720   0.312  14.132  0.6133 -0.3341  0.4315
  567TMC3    C4 8462   0.821   0.212  14.352  0.3446  0.3246  0.6116
  567TMC3    C5 8463   0.849   0.151  14.238  0.0238 -1.2502  0.2872
  567TMC3    C6 8464   0.812   0.205  14.125  0.1408  0.2545  0.7588
  567TMC3     C 8465   0.614   0.278  14.445 -0.3329  0.3102  0.1612
  567TMC3     O 8466   0.503   0.296  14.403 -0.2091  0.1727 -0.3375
  567TMC3     H 8467   0.616   0.459  14.235  0.2599  0.9854 -0.3664
  567TMC3    H1 8468   0.880   0.189  14.440 -1.8000 -1.8794  1.4765
  567TMC3    H2 8469   0.832   0.149  14.035 -1.2897 -0.4941  0.9074
  567TMC3    C7 8470   0.856   0.010  14.245 -0.3223 -0.7374  0.0002
  567TMC3    C8 8471   0.672   0.369  14.007  0.3524  0.2632  0.1567
  567TMC3    O1 8472   0.869   4.682  14.138  0.3348  0.5107 -0.1472
  567TMC3    O2 8473   0.557   0.414  14.004 -0.3690 -0.5304  0.1288
  568MPD2     C 8474   2.355   4.157  16.277 -0.6110  0.3155 -0.1901
  568MPD2    C1 8475   2.351   4.248  16.382 -0.4562 -0.2150 -0.5598
  568MPD2    C2 8476   2.311   4.380  16.352  0.2016 -0.0849  0.2887
  568MPD2    C3 8477   2.262   4.409  16.227 -0.3338  0.5335 -1.1605
  568MPD2    C4 8478   2.249   4.311  16.133  0.2495 -0.1314 -0.2594
  568MPD2    C5 8479   2.299   4.184  16.157 -0.4771  0.7034 -0.0838
  568MPD2     H 8480   2.317   4.450  16.434  1.6759  0.2142 -0.0751
  568MPD2    H1 8481   2.213   4.323  16.031 -1.6559  0.7013  0.5154
  568MPD2    H2 8482   2.383   4.053  16.292  0.1643  0.3841 -1.1625
  568MPD2    H3 8483   2.295   4.103  16.085  0.7792 -0.6118  1.3326
  568MPD2     N 8484   2.219   4.541  16.208 -0.5961  0.2852 -0.1406
  568MPD2    H5 8485   2.242   4.607  16.282 -0.1902 -0.9388  0.8327
  568MPD2    N1 8486   2.413   4.207  16.508 -0.0598 -0.2913 -0.4641
  568MPD2    H7 8487   2.448   4.112  16.511 -0.8776 -0.5895 -0.2795
  569TMC3    C1 8488   2.135   4.731  16.101 -0.4769  0.1047  0.2118
  569TMC3    C2 8489   2.149   0.066  16.215 -0.1532 -1.1867  0.1075
  569TMC3    C3 8490   2.223   0.178  16.211 -0.1474  1.0415  0.6807
  569TMC3    C4 8491   2.164   0.046  15.975  0.4479  0.6653  0.3447
  569TMC3    C5 8492   2.235   0.161  15.979  0.2922  0.5424  0.5136
  569TMC3    C6 8493   2.272   0.223  16.091  0.1463  0.3955  0.7549
  569TMC3     C 8494   2.147   4.586  16.101 -0.9052 -0.1232 -0.4243
  569TMC3     O 8495   2.110   4.523  16.002  0.2796 -0.0033  0.6880
  569TMC3     H 8496   2.111   0.024  16.308 -1.7915  2.1485  0.9475
  569TMC3    H1 8497   2.146   4.732  15.880  1.6405 -1.7636  1.3833
  569TMC3    H2 8498   2.319   0.321  16.085 -1.6344  1.1166 -1.4873
  569TMC3    C7 8499   2.235   0.225  15.845 -0.1872 -0.3698  1.0770
  569TMC3    C8 8500   2.236   0.264  16.317 -0.0310  0.3229  0.1340
  569TMC3    O1 8501   2.209   0.162  15.743  0.4593 -0.3794 -0.5796
  569TMC3    O2 8502   2.143   0.269  16.396  0.2048 -0.6263  0.2288
  570TMC3    C1 8503   2.399   3.569  16.375 -0.1891 -0.6620 -0.7732
  570TMC3    C2 8504   2.451   3.589  16.248  0.4524  0.3606  0.2799
  570TMC3    C3 8505   2.405   3.693  16.172 -0.7482 -0.1004  0.1961
  570TMC3    C4 8506   2.309   3.656  16.439 -0.4152  0.0556  0.1996
  570TMC3    C5 8507   2.266   3.753  16.359  0.0946  0.9338 -0.4196
  570TMC3    C6 8508   2.315   3.781  16.227 -0.2848  0.6728 -0.5804
  570TMC3     C 8509   2.392   3.427  16.413 -0.1215  0.3445 -0.3186
  570TMC3     O 8510   2.426   3.348  16.330  0.0179  0.2708  0.8182
  570TMC3     H 8511   2.509   3.508  16.204 -0.7660 -0.7916  0.8074
  570TMC3    H1 8512   2.252   3.628  16.527  2.0941 -0.0364  1.7968
  570TMC3    H2 8513   2.260   3.848  16.161 -1.6534 -3.0524 -3.1991
  570TMC3    C7 8514   2.158   3.842  16.408 -0.8529 -0.1822 -0.4693
  570TMC3    C8 8515   2.469   3.727  16.045 -0.0740  0.5092  0.4953
  570TMC3    O1 8516   2.065   3.876  16.343  0.1271 -0.4418 -0.0945
  570TMC3    O2 8517   2.412   3.814  15.984  0.1136 -0.3112  0.1542
  571MPD2     C 8518   4.611   0.659  17.617 -0.1557  0.4301  0.3772
  571MPD2    C1 8519   4.530   0.606  17.715 -0.1509 -0.1099 -0.4121
  571MPD2    C2 8520   4.504   0.684   0.084 -0.1896  0.0616 -0.4878
  571MPD2    C3 8521   4.547   0.812   0.100 -0.4325 -0.6799 -0.6371
  571MPD2    C4 8522   4.614   0.862  17.738  0.2257  0.1761  0.6555
  571MPD2    C5 8523   4.655   0.789  17.630 -0.0050 -0.0802 -0.1748
  571MPD2     H 8524   4.460   0.640   0.173 -0.5426  0.0405 -0.6730
  571MPD2    H1 8525   4.658   0.961   0.000  0.2433  0.1854 -0.6284
  571MPD2    H2 8526   4.633   0.610  17.523  2.5164 -0.7169  1.6152
  571MPD2    H3 8527   4.716   0.839  17.556 -0.1530  0.7805  0.2893
  571MPD2     N 8528   4.526   0.901   0.209  0.0401  0.4174 -0.0326
  571MPD2    H5 8529   4.562   0.996   0.209  0.9821  0.0659  0.4640
  571MPD2    N1 8530   4.472   0.481  17.688  0.3736  0.1312 -0.3456
  571MPD2    H7 8531   4.498   0.437  17.600 -1.0864 -1.5659  0.0643
  572TMC3    C1 8532   4.473   0.982   0.418  0.7690  0.6992  0.3051
  572TMC3    C2 8533   4.477   0.941   0.543  0.5507  0.4400  0.0297
  572TMC3    C3 8534   4.487   1.035   0.642 -0.3384  1.1790 -0.4589
  572TMC3    C4 8535   4.503   1.113   0.381  0.2691 -0.1911  0.1795
  572TMC3    C5 8536   4.533   1.201   0.484  0.3411  0.1237  0.1083
  572TMC3    C6 8537   4.512   1.166   0.611  0.2518  0.3262  0.3069
  572TMC3     C 8538   4.458   0.871   0.319 -0.9399  0.5694 -0.2853
  572TMC3     O 8539   4.411   0.766   0.361 -0.0400 -0.6646  0.0782
  572TMC3     H 8540   4.450   0.842   0.576  1.1743 -0.7193 -2.9944
  572TMC3    H1 8541   4.483   1.136   0.277  1.4714 -3.3032 -0.7353
  572TMC3    H2 8542   4.536   1.235   0.691  1.2499  0.9057 -0.4803
  572TMC3    C7 8543   4.595   1.319   0.438  0.5016 -0.1477  0.5389
  572TMC3    C8 8544   4.458   0.991   0.776  0.0281 -1.0092  0.0223
  572TMC3    O1 8545   4.562   1.346   0.323  1.0144 -0.5099 -0.1762
  572TMC3    O2 8546   4.459   0.870   0.800  0.1793  0.3525 -0.9638
  573MPD2     C 8547   0.510   1.881   1.348  0.5670  0.5339  0.2380
  573MPD2    C1 8548   0.646   1.917   1.327  0.1499 -0.7762  0.2461
  573MPD2    C2 8549   0.727   1.848   1.239  0.7861 -0.3797 -0.3606
  573MPD2    C3 8550   0.671   1.740   1.171  0.5761 -0.6713  0.2963
  573MPD2    C4 8551   0.544   1.694   1.206 -0.3402 -0.2801  0.6575
  573MPD2    C5 8552   0.464   1.764   1.292 -0.2411 -0.0601  0.1203
  573MPD2     H 8553   0.831   1.878   1.226  0.2307  2.4919  1.8243
  573MPD2    H1 8554   0.502   1.604   1.163 -2.0898  2.0514 -2.5137
  573MPD2    H2 8555   0.453   1.943   1.416 -1.8593  0.5556 -1.8128
  573MPD2    H3 8556   0.360   1.734   1.307  0.2429 -0.1330  3.1591
  573MPD2     N 8557   0.728   1.668   1.062 -0.4281  0.7743 -1.1149
  573MPD2    H5 8558   0.668   1.593   1.028  1.4901 -1.0740 -0.3849
  573MPD2    N1 8559   0.696   2.030   1.396 -0.1418 -0.6333  0.4472
  573MPD2    H7 8560   0.626   2.083   1.447 -0.4488 -0.9641  0.3627
  574TMC3    C1 8561   0.864   1.617   0.877  0.1877  0.4104  0.7969
  574TMC3    C2 8562   0.782   1.515   0.841  0.4955  0.4085 -0.0001
  574TMC3    C3 8563   0.832   1.443   0.740 -0.0160  0.4538 -0.2760
  574TMC3    C4 8564   0.988   1.635   0.826  0.5726 -0.3464 -0.0005
  574TMC3    C5 8565   1.036   1.553   0.728 -0.7600  0.1793  0.4588
  574TMC3    C6 8566   0.961   1.441   0.690 -0.3641  1.2008  0.6317
  574TMC3     C 8567   0.844   1.701   0.996  0.8822  0.1678 -0.1409
  574TMC3     O 8568   0.939   1.770   1.034  0.1752 -0.2971  0.1217
  574TMC3     H 8569   0.677   1.511   0.868  0.4772 -0.1556 -0.1691
  574TMC3    H1 8570   1.062   1.702   0.868 -0.4049  1.2056 -0.7596
  574TMC3    H2 8571   0.989   1.381   0.604 -1.3976 -1.6923  2.2936
  574TMC3    C7 8572   1.175   1.579   0.676 -0.3754 -0.1618  0.1014
  574TMC3    C8 8573   0.735   1.366   0.659  0.4534 -0.6912  0.3475
  574TMC3    O1 8574   1.191   1.547   0.560 -0.4679  0.5730  0.1109
  574TMC3    O2 8575   0.633   1.337   0.716  1.0072 -0.0344 -0.0174
  575TMC3    C1 8576   3.943   2.752  11.196  1.2468  0.6478 -0.3037
  575TMC3    C2 8577   3.939   2.618  11.163  0.5150  0.0003 -0.1700
  575TMC3    C3 8578   3.859   2.590  11.056  0.2963 -0.6229 -0.4957
  575TMC3    C4 8579   3.867   2.854  11.136  0.1361  0.0117  0.3268
  575TMC3    C5 8580   3.789   2.814  11.035  0.0126 -0.4439  1.0237
  575TMC3    C6 8581   3.782   2.684  10.986  0.0233  0.0536  0.2315
  575TMC3     C 8582   4.035   2.793  11.306  0.0750  0.4835 -0.5048
  575TMC3     O 8583   4.024   2.909  11.341  0.4607  0.3731  0.1723
  575TMC3     H 8584   4.006   2.542  11.203 -0.1929 -0.1255  0.7733
  575TMC3    H1 8585   3.880   2.958  11.163 -1.4669  0.6155 -1.2546
  575TMC3    H2 8586   3.716   2.655  10.905  1.2239  1.5372 -1.2760
  575TMC3    C7 8587   3.772   2.912  10.922  0.2863 -0.1450 -0.2470
  575TMC3    C8 8588   3.837   2.450  11.014 -0.0101 -0.3261  0.6218
  575TMC3    O1 8589   3.770   2.854  10.809  0.4646 -0.6206  0.3678
  575TMC3    O2 8590   3.749   2.427  10.931  0.2363  0.0814  0.4069
  576MPD2     C 8591   2.772   4.055  12.296  0.4955  0.6114  0.2132
  576MPD2    C1 8592   2.888   4.036  12.373 -0.5568 -0.2797  0.3733
  576MPD2    C2 8593   2.874   3.999  12.505  0.5721 -0.5035  0.3034
  576MPD2    C3 8594   2.751   3.978  12.556  0.0406 -0.4654 -0.3291
  576MPD2    C4 8595   2.633   4.001  12.485 -0.8204  0.1621 -0.0899
  576MPD2    C5 8596   2.647   4.047  12.356  0.8705  0.0686 -0.2934
  576MPD2     H 8597   2.966   4.004  12.562  0.4692 -2.8501  0.6714
  576MPD2    H1 8598   2.536   3.993  12.532 -0.6674 -0.8174  0.0673
  576MPD2    H2 8599   2.780   4.077  12.190  3.4995 -1.6745 -0.0351
  576MPD2    H3 8600   2.560   4.062  12.294  1.2117 -0.4361 -0.8919
  576MPD2     N 8601   2.745   3.955  12.699  0.0731 -0.1175 -0.5671
  576MPD2    H5 8602   2.831   3.961  12.754 -0.0772 -1.8003 -0.1502
  576MPD2    N1 8603   3.019   4.064  12.321 -0.2868 -0.1318 -0.0670
  576MPD2    H7 8604   3.103   4.041  12.372 -0.5206 -2.1882 -0.6204
  577TMC3    C1 8605   3.179   4.156  12.159  0.3525  0.3172 -0.0856
  577TMC3    C2 8606   3.271   4.056  12.189 -0.0025  0.0342 -0.3087
  577TMC3    C3 8607   3.392   4.083  12.142  0.2323  0.1546 -0.1655
  577TMC3    C4 8608   3.204   4.261  12.083 -0.3129 -0.4256  0.4761
  577TMC3    C5 8609   3.329   4.280  12.030  0.4343  0.0337 -0.3315
  577TMC3    C6 8610   3.430   4.196  12.069 -0.8344  0.6066 -0.0602
  577TMC3     C 8611   3.040   4.139  12.206  0.2205  0.0318  0.2432
  577TMC3     O 8612   2.959   4.191  12.129 -0.7369 -0.3282  0.0123
  577TMC3     H 8613   3.244   3.980  12.261  0.1709  0.3685  0.1084
  577TMC3    H1 8614   3.120   4.319  12.046  0.0661  0.3651  0.8574
  577TMC3    H2 8615   3.536   4.216  12.056 -0.9564  1.8867  0.8086
  577TMC3    C7 8616   3.358   4.375  11.921  0.0997  0.1452 -0.2147
  577TMC3    C8 8617   3.489   3.982  12.173  0.0183 -0.3139  0.5806
  577TMC3    O1 8618   3.473   4.366  11.880  0.3569  0.3709  0.0033
  577TMC3    O2 8619   3.475   3.907  12.267 -0.0658 -0.1040  0.7791
  578MPD2     C 8620   1.742   3.714   0.975  0.0853 -0.2975  0.0999
  578MPD2    C1 8621   1.739   3.614   0.881  0.4757 -0.1741 -0.0799
  578MPD2    C2 8622   1.853   3.530   0.867 -0.0620 -0.8205  0.7303
  578MPD2    C3 8623   1.964   3.554   0.949  0.5403 -0.2478  0.3193
  578MPD2    C4 8624   1.960   3.659   1.037  0.0452 -0.6443  0.1651
  578MPD2    C5 8625   1.855   3.742   1.047  0.7351 -0.2394 -0.0265
  578MPD2     H 8626   1.853   3.446   0.798 -0.8395 -0.0423 -0.2145
  578MPD2    H1 8627   2.048   3.677   1.098  1.6241  0.3462 -2.4068
  578MPD2    H2 8628   1.659   3.782   0.986 -0.5790 -1.2583  1.0043
  578MPD2    H3 8629   1.854   3.832   1.107 -2.9548 -0.2353 -0.0942
  578MPD2     N 8630   2.071   3.458   0.935 -0.2823  0.0124  0.1672
  578MPD2    H5 8631   2.059   3.383   0.869  0.2537  1.6572 -1.7975
  578MPD2    N1 8632   1.617   3.603   0.815  0.0138 -0.5784 -0.3728
  578MPD2    H7 8633   1.534   3.650   0.853  2.0056  1.6496  1.2305
  579TMC3    C1 8634   2.255   3.337   1.016 -0.2273 -0.2523  0.5872
  579TMC3    C2 8635   2.384   3.344   1.054  0.3426 -0.3002  0.3759
  579TMC3    C3 8636   2.465   3.228   1.066  0.3504 -0.9214 -0.0497
  579TMC3    C4 8637   2.189   3.221   0.995  0.1093  0.0757  0.1319
  579TMC3    C5 8638   2.267   3.109   1.019  0.3069 -0.2409 -0.2848
  579TMC3    C6 8639   2.402   3.111   1.043 -0.1007  0.1354  0.5008
  579TMC3     C 8640   2.183   3.463   1.014 -0.3410 -1.2600  0.4675
  579TMC3     O 8641   2.240   3.565   1.057 -0.4762  0.0521  0.1508
  579TMC3     H 8642   2.440   3.437   1.054 -0.8535  0.4399 -1.8411
  579TMC3    H1 8643   2.082   3.209   0.987  0.4689 -1.4568 -2.5054
  579TMC3    H2 8644   2.451   3.016   1.061  1.3091  0.5513 -1.1018
  579TMC3    C7 8645   2.203   2.978   1.017 -0.3498 -0.5188 -0.1117
  579TMC3    C8 8646   2.608   3.227   1.042 -0.3857 -0.1166  0.0304
  579TMC3    O1 8647   2.236   2.893   1.100 -0.3329  0.3009 -0.2218
  579TMC3    O2 8648   2.658   3.113   1.040  0.6698  0.6414 -0.4526
  580TMC3    C1 8649   1.404   3.766  12.453 -0.0790 -0.9545  0.1743
  580TMC3    C2 8650   1.502   3.838  12.391 -0.3071  0.4067  0.0272
  580TMC3    C3 8651   1.607   3.769  12.333  0.2215 -0.0791  0.0604
  580TMC3    C4 8652   1.413   3.633  12.460  0.4780  0.4054 -0.1217
  580TMC3    C5 8653   1.524   3.576  12.406 -0.6425  0.8339  0.0864
  580TMC3    C6 8654   1.627   3.632  12.340  0.6911 -0.7829 -0.5326
  580TMC3     C 8655   1.266   3.821  12.449  0.5408  0.2467 -0.4542
  580TMC3     O 8656   1.169   3.749  12.425 -0.0228 -0.1375  0.1803
  580TMC3     H 8657   1.500   3.946  12.386  0.9531  0.4134 -0.5807
  580TMC3    H1 8658   1.326   3.579  12.498  0.0937 -0.3631 -2.1049
  580TMC3    H2 8659   1.711   3.583  12.293  1.1012 -0.4866 -0.1095
  580TMC3    C7 8660   1.509   3.431  12.409 -0.2070 -0.2918  0.4914
  580TMC3    C8 8661   1.698   3.852  12.260  0.5596 -0.4225 -0.2730
  580TMC3    O1 8662   1.435   3.380  12.491 -0.2904  0.0969  0.3447
  580TMC3    O2 8663   1.702   3.971  12.292 -0.1187  0.3100 -0.2283
  581MPD2     C 8664   3.473   2.437  14.929  0.0727 -0.8792 -0.1594
  581MPD2    C1 8665   3.541   2.554  14.914 -0.3939 -0.5648  0.0330
  581MPD2    C2 8666   3.460   2.665  14.921 -0.2493 -0.1259  0.2945
  581MPD2    C3 8667   3.327   2.663  14.946 -1.1941 -0.6166 -0.2578
  581MPD2    C4 8668   3.264   2.542  14.950 -0.1597 -0.6583 -0.4059
  581MPD2    C5 8669   3.338   2.425  14.933 -0.2371 -0.0456  0.2545
  581MPD2     H 8670   3.510   2.760  14.904 -1.5130  0.5126  0.1194
  581MPD2    H1 8671   3.160   2.523  14.973 -0.2409 -1.4742 -1.4061
  581MPD2    H2 8672   3.524   2.344  14.908  1.6596  0.0944 -0.6677
  581MPD2    H3 8673   3.286   2.331  14.918  0.2832 -0.6336  2.0428
  581MPD2     N 8674   3.250   2.781  14.938  0.2069 -0.0031 -0.1050
  581MPD2    H5 8675   3.300   2.868  14.924 -0.1523 -0.0543 -1.7991
  581MPD2    N1 8676   3.685   2.558  14.899 -0.3712 -0.7780  0.0179
  581MPD2    H7 8677   3.733   2.470  14.884  1.6194  0.3299 -0.1930
  582TMC3    C1 8678   3.912   2.639  14.901  0.4200 -0.0615 -0.5670
  582TMC3    C2 8679   3.984   2.720  14.987 -0.7279  0.0808 -0.3475
  582TMC3    C3 8680   4.103   2.672  15.038  0.2318 -0.4523 -0.3012
  582TMC3    C4 8681   3.956   2.519  14.859  0.4454 -0.5660 -0.1192
  582TMC3    C5 8682   4.074   2.474  14.911  0.1510 -0.3993  0.2122
  582TMC3    C6 8683   4.144   2.545  15.002 -0.1799  0.2372 -0.0637
  582TMC3     C 8684   3.768   2.668  14.915  0.3222 -0.6911  0.3552
  582TMC3     O 8685   3.732   2.776  14.948 -0.7175  0.0126  0.2526
  582TMC3     H 8686   3.949   2.814  15.027 -0.6548  0.1169 -0.3668
  582TMC3    H1 8687   3.899   2.456  14.792  2.3820 -0.8352 -1.4770
  582TMC3    H2 8688   4.214   2.497  15.069 -1.9502 -3.3040 -0.7817
  582TMC3    C7 8689   4.096   2.333  14.898 -0.5683  0.5844  0.3230
  582TMC3    C8 8690   4.113   2.706  15.177 -0.5726  0.0829 -0.8273
  582TMC3    O1 8691   4.190   2.297  14.831 -0.6563 -0.1916 -0.1874
  582TMC3    O2 8692   4.005   2.705  15.240  0.4313  0.4495 -0.0784
  583MPD2     C 8693   3.892   4.572  16.821  0.9728  0.2295  0.1535
  583MPD2    C1 8694   3.881   4.666  16.718  0.1382 -0.7251  0.7641
  583MPD2    C2 8695   3.800   0.039  16.738  0.0442  0.1656 -0.4603
  583MPD2    C3 8696   3.725   0.053  16.859 -0.5987  0.7929  0.6991
  583MPD2    C4 8697   3.736   4.690  16.956 -0.4598  0.1770 -0.1232
  583MPD2    C5 8698   3.812   4.580  16.934 -0.2599 -0.7608  0.3851
  583MPD2     H 8699   3.773   0.103  16.655  1.4964 -0.1547 -1.1794
  583MPD2    H1 8700   3.685   4.688  17.052  2.0680  1.6242  1.2560
  583MPD2    H2 8701   3.950   4.481  16.810 -0.2488 -0.7868  2.0467
  583MPD2    H3 8702   3.817   4.496  17.002  1.6198 -2.0549 -1.3645
  583MPD2     N 8703   3.625   0.149  16.868 -0.2437  0.5710 -0.3159
  583MPD2    H5 8704   3.614   0.224  16.801  3.4036  0.7663 -0.6843
  583MPD2    N1 8705   3.953   4.654  16.597  0.5042  0.5111  1.0363
  583MPD2    H7 8706   3.918   4.713  16.522 -0.8929 -1.1762  0.3586
  584TMC3    C1 8707   3.442   0.262  16.966 -0.0715  0.3541  1.0023
  584TMC3    C2 8708   3.496   0.387  16.949 -0.6562  0.0591 -0.4049
  584TMC3    C3 8709   3.436   0.495  17.010  0.9038  0.1771  0.5628
  584TMC3    C4 8710   3.316   0.242  17.024  0.2224 -0.4307  0.0842
  584TMC3    C5 8711   3.257   0.356  17.074 -0.2470 -0.0651 -0.3992
  584TMC3    C6 8712   3.307   0.481  17.059  0.1758  0.7858 -0.1537
  584TMC3     C 8713   3.517   0.144  16.958  0.0774 -0.3602 -0.6314
  584TMC3     O 8714   3.482   0.052  17.027 -0.3275 -0.2048  0.3162
  584TMC3     H 8715   3.593   0.396  16.901 -0.4330 -2.0613 -0.3703
  584TMC3    H1 8716   3.269   0.144  17.026  2.1239 -1.3412 -0.8254
  584TMC3    H2 8717   3.249   0.568  17.088  0.7208  0.8591  0.7112
  584TMC3    C7 8718   3.139   0.340  17.154  0.1852  0.2405  0.5361
  584TMC3    C8 8719   3.444   0.615  16.930 -0.5108 -0.3475  0.2726
  584TMC3    O1 8720   3.065   0.439  17.155  0.0561  0.1050 -0.0381
  584TMC3    O2 8721   3.339   0.654  16.877  0.1367 -0.0371 -0.1532
  585MPD2     C 8722   3.767   3.388   0.679 -0.1301 -0.4164 -0.0208
  585MPD2    C1 8723   3.799   3.354   0.553  0.1087 -0.2880 -0.6622
  585MPD2    C2 8724   3.769   3.223   0.514  0.4259 -0.7186 -0.1033
  585MPD2    C3 8725   3.673   3.147   0.586 -0.3267 -0.2778 -0.3119
  585MPD2    C4 8726   3.636   3.191   0.708  0.1609 -0.1812 -0.2082
  585MPD2    C5 8727   3.686   3.308   0.755  0.6278 -0.3618 -0.5595
  585MPD2     H 8728   3.798   3.191   0.415 -1.1246 -3.6524  0.3918
  585MPD2    H1 8729   3.595   3.116   0.774 -0.6093  0.1507 -0.3069
  585MPD2    H2 8730   3.817   3.469   0.731  0.5835  0.0260 -1.3803
  585MPD2    H3 8731   3.676   3.330   0.860  0.3082 -1.1911 -0.4222
  585MPD2     N 8732   3.607   3.024   0.539 -0.2262 -0.0927  0.7728
  585MPD2    H5 8733   3.544   2.976   0.602 -0.0068  0.4365  1.3957
  585MPD2    N1 8734   3.871   3.452   0.479 -0.2254 -0.2239 -0.2686
  585MPD2    H7 8735   3.894   3.541   0.523  0.5907 -0.7420  0.3580
  586TMC3    C1 8736   3.580   2.844   0.362 -0.1802  0.6614  1.1212
  586TMC3    C2 8737   3.648   2.756   0.284 -0.3888  0.2751 -0.4848
  586TMC3    C3 8738   3.586   2.641   0.245 -0.0277 -0.2758 -0.6903
  586TMC3    C4 8739   3.449   2.824   0.402  0.1215  0.1050  0.0882
  586TMC3    C5 8740   3.389   2.708   0.367  0.0736 -0.3041 -0.6615
  586TMC3    C6 8741   3.461   2.617   0.290  0.1432 -0.3545  0.3818
  586TMC3     C 8742   3.655   2.956   0.428 -0.2783 -0.0580  0.0684
  586TMC3     O 8743   3.746   2.986   0.356  0.1871  0.2094 -0.3060
  586TMC3     H 8744   3.741   2.788   0.238  2.0229 -1.6820  3.0133
  586TMC3    H1 8745   3.399   2.894   0.468 -1.3215 -0.4533 -0.4095
  586TMC3    H2 8746   3.417   2.519   0.275 -0.0875 -0.1781 -0.0913
  586TMC3    C7 8747   3.256   2.706   0.308  1.0207  0.3741 -0.1337
  586TMC3    C8 8748   3.614   2.584   0.115  0.8739 -0.0534 -0.4913
  586TMC3    O1 8749   3.200   2.600   0.298 -0.2350  0.3556 -0.0593
  586TMC3    O2 8750   3.578   2.465   0.103  0.1187  0.5025  0.1609
  587TMC3    C1 8751   0.742   2.035  15.835 -0.0677 -0.0173  0.0854
  587TMC3    C2 8752   0.772   2.076  15.959  0.0996  0.1330  0.1766
  587TMC3    C3 8753   0.883   2.022  16.017  0.0489 -0.9953  0.2425
  587TMC3    C4 8754   0.823   1.941  15.759  0.2326 -0.0966 -0.8075
  587TMC3    C5 8755   0.927   1.885  15.832 -0.2065  0.7431  0.0091
  587TMC3    C6 8756   0.959   1.925  15.960 -0.0466  0.1563 -0.0064
  587TMC3     C 8757   0.616   2.072  15.773  0.1266 -0.0438  0.0304
  587TMC3     O 8758   0.611   2.097  15.652  0.0226 -0.2598  0.1934
  587TMC3     H 8759   0.708   2.146  16.012  0.9880 -0.2440  1.7684
  587TMC3    H1 8760   0.790   1.902  15.663  0.8123  0.9765 -1.4454
  587TMC3    H2 8761   1.041   1.873  16.008 -0.7855 -1.0369 -0.0316
  587TMC3    C7 8762   0.993   1.761  15.793 -0.1668  0.5451  0.2240
  587TMC3    C8 8763   0.927   2.049  16.151 -0.5801  0.0085  0.2477
  587TMC3    O1 8764   1.036   1.677  15.870 -0.3705 -0.3645  0.0758
  587TMC3    O2 8765   1.003   1.970  16.206  0.0745 -0.3632 -0.3499
  588TMC3    C1 8766   3.035   0.778   9.952  0.3690  0.6281  0.0753
  588TMC3    C2 8767   3.053   0.655   9.889  0.4190 -0.7152 -0.3582
  588TMC3    C3 8768   3.110   0.556   9.959 -0.1748 -0.1843  0.2066
  588TMC3    C4 8769   3.095   0.805  10.074  0.1425  0.1754 -0.5564
  588TMC3    C5 8770   3.175   0.711  10.124 -0.1251  0.5205  0.0903
  588TMC3    C6 8771   3.172   0.581  10.082 -0.1617  0.2727 -0.3987
  588TMC3     C 8772   2.970   0.883   9.880 -0.4142  0.0147  0.3913
  588TMC3     O 8773   2.921   0.857   9.770  0.0617  0.3201  0.0859
  588TMC3     H 8774   3.007   0.637   9.793 -0.0712  0.1160 -0.2787
  588TMC3    H1 8775   3.085   0.892  10.137 -1.4011 -1.7452  1.8376
  588TMC3    H2 8776   3.243   0.515  10.131  0.5021  2.4878  1.5670
  588TMC3    C7 8777   3.284   0.749  10.215  0.0699  0.0968  0.2355
  588TMC3    C8 8778   3.114   0.427   9.900  0.3291 -0.1312 -0.5448
  588TMC3    O1 8779   3.327   0.672  10.298  0.2718  0.0720 -0.3386
  588TMC3    O2 8780   3.101   0.418   9.777 -0.1746  0.3182  0.3572
  589TMC3    C1 8781   2.566   2.256   1.499 -0.1418  0.6754  0.3222
  589TMC3    C2 8782   2.657   2.311   1.586  0.3203  0.3230 -0.5239
  589TMC3    C3 8783   2.781   2.263   1.577 -0.2188  0.0203 -0.1138
  589TMC3    C4 8784   2.600   2.167   1.400 -0.3318  0.5730 -0.1534
  589TMC3    C5 8785   2.727   2.123   1.388  0.4182  0.0534 -0.0238
  589TMC3    C6 8786   2.817   2.167   1.486  0.0133  0.5524 -0.4069
  589TMC3     C 8787   2.427   2.296   1.509  0.1634 -0.2376 -0.2105
  589TMC3     O 8788   2.346   2.264   1.424 -0.9851  0.0496  0.1563
  589TMC3     H 8789   2.637   2.394   1.653 -1.0824 -0.3965 -0.0449
  589TMC3    H1 8790   2.513   2.136   1.344 -1.4923  0.6230  1.6183
  589TMC3    H2 8791   2.905   2.107   1.508 -2.4821 -3.1802 -0.6431
  589TMC3    C7 8792   2.733   1.982   1.346  0.1380 -0.7556  0.0997
  589TMC3    C8 8793   2.879   2.333   1.652  0.1795 -0.1450  0.7170
  589TMC3    O1 8794   2.626   1.936   1.315  0.1357  0.4907 -0.2658
  589TMC3    O2 8795   2.840   2.417   1.729  0.0617  0.3853 -0.8276
  590MPD2     C 8796   1.414   0.403  16.614 -0.3888  0.6961 -0.2274
  590MPD2    C1 8797   1.402   0.396  16.474  0.8960 -0.3519 -0.1488
  590MPD2    C2 8798   1.514   0.410  16.402 -0.5795  0.3152 -1.1505
  590MPD2    C3 8799   1.636   0.430  16.460 -0.0262  0.2671 -0.2924
  590MPD2    C4 8800   1.640   0.429  16.597  0.2536 -0.0782 -0.4258
  590MPD2    C5 8801   1.532   0.403  16.679  0.6794  0.0447  0.8107
  590MPD2     H 8802   1.497   0.417  16.295  0.0854  0.9783 -1.2094
  590MPD2    H1 8803   1.734   0.448  16.649 -0.9533  2.5528  0.8095
  590MPD2    H2 8804   1.321   0.405  16.670 -0.8390 -2.6247 -0.8294
  590MPD2    H3 8805   1.546   0.410  16.786  1.2653 -0.3345  0.7560
  590MPD2     N 8806   1.740   0.463  16.371  0.2165  0.4082 -0.2463
  590MPD2    H5 8807   1.721   0.470  16.271 -1.6750  0.4269  0.1259
  590MPD2    N1 8808   1.270   0.376  16.416 -0.1327  1.0092  0.3261
  590MPD2    H7 8809   1.191   0.377  16.481 -0.9189 -1.3357 -0.5909
  591TMC3    C1 8810   1.946   0.522  16.294 -0.6989  0.6908 -0.4289
  591TMC3    C2 8811   1.927   0.439  16.189  0.1650 -0.3265 -0.1545
  591TMC3    C3 8812   1.962   0.480  16.059  0.5688  0.7120  0.4166
  591TMC3    C4 8813   1.995   0.650  16.275 -0.7360  0.2360  0.4756
  591TMC3    C5 8814   2.022   0.686  16.140  1.2713 -0.2088 -0.1909
  591TMC3    C6 8815   2.002   0.606  16.032  0.9422 -0.3919 -0.5550
  591TMC3     C 8816   1.861   0.506  16.409 -0.0078  0.0438  1.1435
  591TMC3     O 8817   1.899   0.535  16.522 -0.0813 -0.5296 -0.1479
  591TMC3     H 8818   1.884   0.341  16.210  1.1879 -0.3148  1.9991
  591TMC3    H1 8819   2.010   0.722  16.354  0.7076  0.3124  0.1255
  591TMC3    H2 8820   2.040   0.640  15.937 -0.4159 -1.3586 -1.4338
  591TMC3    C7 8821   1.969   0.825  16.120 -0.2643  0.2598  0.0578
  591TMC3    C8 8822   1.939   0.378  15.951  0.2292 -0.3100 -0.4267
  591TMC3    O1 8823   1.952   0.894  16.218 -0.2424 -0.0763  0.2300
  591TMC3    O2 8824   1.913   0.264  15.982  0.5378  0.3025  0.4022
  592MPD2     C 8825   1.813   2.591  11.507  0.2336  0.8136  0.3871
  592MPD2    C1 8826   1.795   2.657  11.624 -0.0387  0.4654 -0.0958
  592MPD2    C2 8827   1.739   2.592  11.730  0.8870 -0.9835 -0.3883
  592MPD2    C3 8828   1.702   2.458  11.731  0.6403  0.6516  0.1260
  592MPD2    C4 8829   1.718   2.392  11.608  0.1727  0.3170  0.0726
  592MPD2    C5 8830   1.770   2.461  11.501  0.5514 -0.1840  0.3388
  592MPD2     H 8831   1.726   2.645  11.823 -0.7565 -0.3451 -0.9838
  592MPD2    H1 8832   1.672   2.296  11.591 -2.3248  1.9646 -2.6281
  592MPD2    H2 8833   1.855   2.626  11.413  0.5795  0.1193  0.2789
  592MPD2    H3 8834   1.789   2.411  11.407 -0.6608  0.3756 -0.2061
  592MPD2     N 8835   1.656   2.404  11.853 -0.3762  0.0267  0.0983
  592MPD2    H5 8836   1.646   2.474  11.926 -1.3524 -1.3832  1.3167
  592MPD2    N1 8837   1.840   2.790  11.622  0.6880  0.3674  0.2990
  592MPD2    H7 8838   1.888   2.821  11.538  0.9887 -2.3036 -0.5045
  593TMC3    C1 8839   1.935   2.995  11.701 -0.5346  0.7163  0.1810
  593TMC3    C2 8840   1.938   3.095  11.795 -0.3349  0.2857 -0.1787
  593TMC3    C3 8841   2.050   3.179  11.796  0.7081  0.7974 -0.4052
  593TMC3    C4 8842   2.027   2.992  11.605 -0.5290 -0.1235 -0.2971
  593TMC3    C5 8843   2.140   3.070  11.617 -0.9545  0.0275 -0.3012
  593TMC3    C6 8844   2.153   3.164  11.711  1.1778 -0.3396 -0.3189
  593TMC3     C 8845   1.846   2.877  11.727 -0.4110 -0.6474 -0.0155
  593TMC3     O 8846   1.800   2.868  11.842  0.3331  0.3088 -0.1650
  593TMC3     H 8847   1.865   3.110  11.874  1.4937  0.0379  1.5589
  593TMC3    H1 8848   2.029   2.908  11.536  0.6676  0.5659 -1.1109
  593TMC3    H2 8849   2.239   3.230  11.717 -0.3745  1.5224  1.3931
  593TMC3    C7 8850   2.239   3.083  11.507  0.3696 -0.0925  0.0844
  593TMC3    C8 8851   2.044   3.297  11.884 -0.2571 -0.1296  0.7091
  593TMC3    O1 8852   2.350   3.130  11.534  0.0013  0.2271 -0.9538
  593TMC3    O2 8853   1.935   3.344  11.911 -0.3215 -0.8329 -0.2289
  594MPD2     C 8854   0.350   1.506  13.821  0.7755 -0.7988 -0.4745
  594MPD2    C1 8855   0.421   1.422  13.905  0.4352  0.7193 -0.5794
  594MPD2    C2 8856   0.558   1.431  13.897 -0.4654 -0.6375 -0.5968
  594MPD2    C3 8857   0.627   1.523  13.826  0.2630 -0.0715 -0.6647
  594MPD2    C4 8858   0.559   1.604  13.736  0.2669 -0.0416 -0.1914
  594MPD2    C5 8859   0.423   1.590  13.741  0.0234  0.7595 -0.2834
  594MPD2     H 8860   0.611   1.380  13.976  0.0917  0.3143 -0.3605
  594MPD2    H1 8861   0.598   1.683  13.672  0.4633 -1.7527 -2.1877
  594MPD2    H2 8862   0.243   1.508  13.833  0.5982 -1.3389 -2.0435
  594MPD2    H3 8863   0.358   1.664  13.696 -0.6425 -0.4161 -1.2489
  594MPD2     N 8864   0.770   1.528  13.834  0.7205  0.4876 -0.4273
  594MPD2    H5 8865   0.815   1.441  13.863  0.3401  0.6027  0.5006
  594MPD2    N1 8866   0.346   1.344  13.989  0.4681 -0.2063  0.4573
  594MPD2    H7 8867   0.245   1.357  13.991  0.5576  0.6535 -0.5079
  595TMC3    C1 8868   1.120   1.516  13.998  0.1844  0.9830 -0.1542
  595TMC3    C2 8869   1.034   1.524  13.895  0.6515 -0.2921 -0.3404
  595TMC3    C3 8870   0.974   1.645  13.861  0.2277  0.0853 -1.2180
  595TMC3    C4 8871   1.176   1.613  14.066  0.1618 -0.4926 -0.1442
  595TMC3    C5 8872   1.111   1.730  14.041  0.8086 -0.2167 -0.4356
  595TMC3    C6 8873   1.021   1.752  13.941  0.7720 -0.4651 -0.4037
  595TMC3     C 8874   1.191   1.389  14.003 -0.1115  0.0972  0.0431
  595TMC3     O 8875   1.129   1.291  13.963 -0.6580  0.3943 -0.1752
  595TMC3     H 8876   1.014   1.431  13.842  3.4295  0.1471 -2.1436
  595TMC3    H1 8877   1.213   1.583  14.164  0.0047 -0.0356  0.0547
  595TMC3    H2 8878   0.979   1.851  13.926 -0.1543 -0.8677 -0.4711
  595TMC3    C7 8879   1.098   1.819  14.152  0.2188  0.2342 -0.3382
  595TMC3    C8 8880   0.843   1.643  13.803  0.5382 -0.1333  0.0538
  595TMC3    O1 8881   1.013   1.903  14.141  0.1788 -0.0121  0.2632
  595TMC3    O2 8882   0.805   1.759  13.772 -0.0130  0.3625  0.2954
  596MPD2     C 8883   0.181   4.381  16.654  0.1797 -0.8809  0.3510
  596MPD2    C1 8884   0.137   4.490  16.581  0.3427  0.9016 -0.0766
  596MPD2    C2 8885   0.145   4.480  16.445 -0.7395 -0.1321 -0.2226
  596MPD2    C3 8886   0.182   4.364  16.373  0.3498  0.5272 -0.2488
  596MPD2    C4 8887   0.219   4.260  16.445 -0.0801 -0.3488  0.7198
  596MPD2    C5 8888   0.220   4.265  16.586 -0.1076 -0.4823  0.3269
  596MPD2     H 8889   0.107   4.562  16.385 -1.2203  1.7172  2.6590
  596MPD2    H1 8890   0.247   4.165  16.402 -0.7079  0.7193 -2.1024
  596MPD2    H2 8891   0.190   4.379  16.762  2.3827 -2.4042  0.1315
  596MPD2    H3 8892   0.248   4.180  16.647  1.6496 -1.1945 -1.4743
  596MPD2     N 8893   0.181   4.359  16.230  0.3866 -0.2642  0.1258
  596MPD2    H5 8894   0.162   4.263  16.200  0.4637 -0.7090  1.5097
  596MPD2    N1 8895   0.096   4.607  16.645 -0.2384 -0.2959  0.7322
  596MPD2    H7 8896   0.066   4.686  16.588  1.4088  0.4451  0.8772
  597TMC3    C1 8897   4.731   0.021  16.802  0.3536 -0.4145 -0.1123
  597TMC3    C2 8898   0.037   0.134  16.739 -0.4515 -0.2242  0.0313
  597TMC3    C3 8899   4.728   0.256  16.789  0.1809  1.1173 -0.0639
  597TMC3    C4 8900   4.636   0.017  16.901  0.0009  0.3267 -0.0396
  597TMC3    C5 8901   4.596   0.138  16.940  0.3168  0.5212 -0.4219
  597TMC3    C6 8902   4.643   0.260  16.891  0.2546 -0.3668  0.8835
  597TMC3     C 8903   0.073   4.629  16.783 -0.2276  0.3566  0.5852
  597TMC3     O 8904   0.079   4.550  16.879  0.0268  0.1283 -0.3230
  597TMC3     H 8905   0.118   0.133  16.668 -0.3402  0.2321  0.1501
  597TMC3    H1 8906   4.593   4.657  16.929  0.7075  0.6303  2.0173
  597TMC3    H2 8907   4.641   0.353  16.947  0.5783  0.2894 -0.1826
  597TMC3    C7 8908   4.482   0.157  17.025  0.3187 -0.0095 -0.0183
  597TMC3    C8 8909   0.016   0.376  16.715  0.0254  0.9656 -0.4993
  597TMC3    O1 8910   4.446   0.061  17.095  0.3105 -0.3309 -0.0059
  597TMC3    O2 8911   4.673   0.466  16.749 -0.3400  0.6863 -0.0020
  598TMC3    C1 8912   3.002   0.814  15.196 -0.2316  0.0394 -0.3103
  598TMC3    C2 8913   2.897   0.732  15.185  0.0183  0.1242  0.0122
  598TMC3    C3 8914   2.850   0.699  15.056  0.1073  0.5883  0.4146
  598TMC3    C4 8915   3.063   0.863  15.082 -0.1689  0.2533 -0.4743
  598TMC3    C5 8916   3.005   0.838  14.962  1.2019 -0.2650 -0.5868
  598TMC3    C6 8917   2.897   0.763  14.948  0.7194 -0.2885 -0.1212
  598TMC3     C 8918   3.071   0.841  15.325 -0.1347  0.5329 -0.0337
  598TMC3     O 8919   3.153   0.927  15.316  0.6291 -0.4013 -0.4950
  598TMC3     H 8920   2.844   0.717  15.278 -1.3832  0.9278 -0.6604
  598TMC3    H1 8921   3.158   0.914  15.088 -0.3925  0.6102 -0.0450
  598TMC3    H2 8922   2.841   0.760  14.856  3.3367  3.3436 -1.8333
  598TMC3    C7 8923   3.050   0.912  14.842  0.6646  0.2562 -0.2388
  598TMC3    C8 8924   2.729   0.617  15.034 -0.2428  0.8956  0.0687
  598TMC3    O1 8925   3.020   0.867  14.735  0.3921 -0.2165  0.7120
  598TMC3    O2 8926   2.664   0.622  14.926 -0.6317 -0.4014 -0.6859
  599MPD2     C 8927   3.225   3.914  16.060 -0.0300  0.7038  0.7244
  599MPD2    C1 8928   3.195   3.780  16.031 -0.2905 -0.0230 -0.0301
  599MPD2    C2 8929   3.091   3.716  16.093 -0.8427 -0.2298  0.2462
  599MPD2    C3 8930   3.009   3.789  16.183 -0.1445  0.0416 -0.2207
  599MPD2    C4 8931   3.035   3.925  16.212  0.2699  0.2539  0.1732
  599MPD2    C5 8932   3.142   3.989  16.144 -0.8891  0.4786 -0.1583
  599MPD2     H 8933   3.076   3.610  16.081  1.8377 -0.5333 -0.2920
  599MPD2    H1 8934   2.976   3.991  16.274 -1.1234  0.4696 -1.3605
  599MPD2    H2 8935   3.308   3.971  16.020  0.0945 -0.0029 -0.0198
  599MPD2    H3 8936   3.161   4.093  16.164 -0.4583  0.7600 -1.9907
  599MPD2     N 8937   2.898   3.735  16.247  0.2798 -0.2854  0.2677
  599MPD2    H5 8938   2.842   3.805  16.295  0.3433 -0.4145  0.5270
  599MPD2    N1 8939   3.287   3.713  15.947 -0.8170 -0.2957 -0.0662
  599MPD2    H7 8940   3.376   3.757  15.927 -0.3722 -1.4183 -0.5318
  600TMC3    C1 8941   2.806   3.578  16.387  0.1150 -0.8214  0.6243
  600TMC3    C2 8942   2.790   3.442  16.415  0.3906  0.2115 -0.7155
  600TMC3    C3 8943   2.770   3.406  16.542 -0.2733  0.0918 -0.4813
  600TMC3    C4 8944   2.782   3.670  16.483 -0.0250  0.2151  0.2329
  600TMC3    C5 8945   2.760   3.631  16.610 -0.6947  0.1788  0.1398
  600TMC3    C6 8946   2.766   3.500  16.645 -0.4367 -0.6574 -1.3005
  600TMC3     C 8947   2.859   3.606  16.256  0.5870 -0.2726  0.1148
  600TMC3     O 8948   2.894   3.506  16.187 -0.1025  0.4131  0.2063
  600TMC3     H 8949   2.785   3.358  16.346  0.4298  0.2647 -0.7825
  600TMC3    H1 8950   2.778   3.776  16.462  0.2156  0.3492  0.8677
  600TMC3    H2 8951   2.772   3.466  16.748  1.5894  2.4562 -0.3903
  600TMC3    C7 8952   2.747   3.734  16.716  0.0208 -0.0407 -0.7988
  600TMC3    C8 8953   2.741   3.267  16.584 -0.3109  1.0472 -0.4746
  600TMC3    O1 8954   2.664   3.826  16.701 -0.0946  0.0548 -0.5984
  600TMC3    O2 8955   2.751   3.256  16.708 -0.1552  0.3300  0.4026
  601MPD2     C 8956   0.129   1.755   0.508  0.2515 -0.1666  1.1479
  601MPD2    C1 8957   0.046   1.712   0.403 -0.4363  0.1396 -0.1658
  601MPD2    C2 8958   4.719   1.590   0.409  0.6457  0.7409  0.2009
  601MPD2    C3 8959   4.731   1.507   0.517  0.4151 -0.7448 -0.4699
  601MPD2    C4 8960   0.078   1.546   0.619  1.0615  0.8835  0.1275
  601MPD2    C5 8961   0.145   1.666   0.616  0.4275  0.2190 -0.1795
  601MPD2     H 8962   4.662   1.554   0.324  0.7586  3.2962 -0.9661
  601MPD2    H1 8963   0.089   1.490   0.711  2.3884 -0.5951 -0.9313
  601MPD2    H2 8964   0.190   1.844   0.518 -3.7956  2.8193 -0.7667
  601MPD2    H3 8965   0.213   1.692   0.696 -0.0220  0.6056  0.0840
  601MPD2     N 8966   4.669   1.383   0.532 -0.3457 -0.0728  0.4278
  601MPD2    H5 8967   4.689   1.333   0.618 -1.5712  1.9554  1.8690
  601MPD2    N1 8968   0.035   1.781   0.279 -0.1495  0.0734 -0.2641
  601MPD2    H7 8969   4.702   1.747   0.212 -0.7971 -0.6772  0.7697
  602TMC3    C1 8970   0.113   1.930   0.105 -0.3221 -0.6561  0.4272
  602TMC3    C2 8971   0.165   2.051   0.069 -0.3174 -0.0540  0.3068
  602TMC3    C3 8972   0.149   2.097  17.683 -0.3709 -0.1381 -0.0791
  602TMC3    C4 8973   0.054   1.855   0.009  0.1704  0.0470 -0.5200
  602TMC3    C5 8974   0.063   1.885  17.613  0.4380  0.4229  0.4408
  602TMC3    C6 8975   0.113   2.015  17.582 -0.2108  0.2890 -0.1559
  602TMC3     C 8976   0.117   1.889   0.248  0.2065  0.2166 -0.9459
  602TMC3     O 8977   0.194   1.950   0.314  0.4534  0.9480 -0.2532
  602TMC3     H 8978   0.212   2.113   0.144 -2.1000  0.2557  1.1688
  602TMC3    H1 8979   0.017   1.755   0.028  1.6603 -0.3807  0.0633
  602TMC3    H2 8980   0.125   2.048  17.479 -0.5010 -1.3219 -0.7073
  602TMC3    C7 8981   4.700   1.818  17.537 -0.2118  0.2432  0.1065
  602TMC3    C8 8982   0.121   2.249  17.672  0.1663 -0.0094 -0.4017
  602TMC3    O1 8983   4.648   1.710  17.576  0.4816 -0.0235  0.0602
  602TMC3    O2 8984   0.116   2.310   0.040  0.7539 -0.4897 -0.0632
  603TMC3    C1 8985   3.024   2.412  11.089 -0.2638 -0.5938  0.4012
  603TMC3    C2 8986   3.021   2.415  11.228  0.7358 -0.2798  1.1112
  603TMC3    C3 8987   3.091   2.519  11.287 -0.2560 -0.7588 -0.4543
  603TMC3    C4 8988   3.091   2.503  11.011  0.7255 -0.2069  0.5297
  603TMC3    C5 8989   3.152   2.610  11.078 -0.4531 -0.3021  0.6204
  603TMC3    C6 8990   3.161   2.614  11.214 -0.4067  0.1511 -0.2548
  603TMC3     C 8991   3.013   2.280  11.033  0.5721 -1.0204 -0.2356
  603TMC3     O 8992   3.101   2.234  10.959  0.4723  0.0164 -0.0609
  603TMC3     H 8993   2.980   2.333  11.286 -2.5623  1.5022  1.2653
  603TMC3    H1 8994   3.105   2.484  10.906  0.7881  1.1949  0.2797
  603TMC3    H2 8995   3.195   2.700  11.271  1.0910 -1.2438  0.9390
  603TMC3    C7 8996   3.218   2.714  10.997  1.0811 -0.0237  0.3179
  603TMC3    C8 8997   3.118   2.499  11.431  0.0175  0.4302  0.0716
  603TMC3    O1 8998   3.275   2.801  11.059 -0.7968 -0.2787 -0.1483
  603TMC3    O2 8999   3.043   2.420  11.490 -0.6761  0.2851 -0.1308
  604MPD2     C 9000   3.989   1.192  16.078 -0.5470 -0.3017  0.1014
  604MPD2    C1 9001   3.876   1.130  16.032  0.3033 -0.3634 -0.0579
  604MPD2    C2 9002   3.889   1.053  15.917 -0.1878 -0.3352 -0.5932
  604MPD2    C3 9003   4.011   1.036  15.856  0.3566 -0.3727  1.0910
  604MPD2    C4 9004   4.125   1.088  15.905 -0.7718  0.2902  0.4696
  604MPD2    C5 9005   4.111   1.170  16.014 -1.2253  0.8071 -0.0246
  604MPD2     H 9006   3.800   1.005  15.880 -0.7860 -0.4001  0.9226
  604MPD2    H1 9007   4.218   1.082  15.851 -0.0688  0.4433  1.6803
  604MPD2    H2 9008   3.968   1.268  16.152  0.3030 -0.1188  0.1600
  604MPD2    H3 9009   4.186   1.242  16.047  1.9256 -1.6396 -1.8067
  604MPD2     N 9010   4.011   0.952  15.748 -0.7231  0.6155 -0.1442
  604MPD2    H5 9011   3.925   0.910  15.714 -0.5015  1.1496 -1.3476
  604MPD2    N1 9012   3.753   1.150  16.106 -0.2941  0.4030  0.1372
  604MPD2    H7 9013   3.764   1.210  16.187 -0.5144  0.9024 -0.2006
  605TMC3    C1 9014   3.532   1.152  16.172 -0.0057 -0.1991  0.1127
  605TMC3    C2 9015   3.554   1.267  16.238 -0.1185 -0.8955  0.5219
  605TMC3    C3 9016   3.456   1.301  16.325 -0.6303  0.6917  0.0867
  605TMC3    C4 9017   3.414   1.086  16.170  0.4851 -0.2219  0.0772
  605TMC3    C5 9018   3.314   1.119  16.260 -0.2721 -0.3609 -0.2985
  605TMC3    C6 9019   3.333   1.238  16.334 -0.1566 -0.1988 -0.5700
  605TMC3     C 9020   3.629   1.105  16.079  0.4313  0.0120  0.6631
  605TMC3     O 9021   3.607   1.006  16.012  0.1161 -0.1386  0.0488
  605TMC3     H 9022   3.641   1.332  16.230  1.0967 -2.4554  1.1050
  605TMC3    H1 9023   3.398   1.008  16.095 -0.6643 -2.4129  2.6090
  605TMC3    H2 9024   3.252   1.270  16.399 -0.3386  1.5757 -1.6788
  605TMC3    C7 9025   3.177   1.088  16.226  0.5734 -0.5547  0.3588
  605TMC3    C8 9026   3.479   1.425  16.403 -0.2673 -0.6427  0.9240
  605TMC3    O1 9027   3.089   1.174  16.242  0.4289  0.4151 -0.2309
  605TMC3    O2 9028   3.374   1.476  16.434  0.9691  0.4008  0.1362
  606TMC3    C1 9029   0.017   4.388   0.151 -0.2695  0.6047  0.5348
  606TMC3    C2 9030   0.041   4.287   0.245  0.1513  0.8755  0.0623
  606TMC3    C3 9031   0.051   4.156   0.205  0.1154  0.1496 -0.3272
  606TMC3    C4 9032   4.728   4.357   0.021 -0.3198 -0.6317 -0.6787
  606TMC3    C5 9033   4.733   4.225  17.732 -1.0673  0.5504  0.2249
  606TMC3    C6 9034   0.033   4.121   0.075  0.1835 -0.2855  0.6610
  606TMC3     C 9035   0.009   4.524   0.202 -0.1079 -0.1053  0.1714
  606TMC3     O 9036   4.707   4.527   0.321  0.3734  0.8887 -0.3621
  606TMC3     H 9037   0.079   4.314   0.342 -0.2493  0.3471  0.3685
  606TMC3    H1 9038   4.708   4.431  17.683 -0.1637 -0.5552 -0.6457
  606TMC3    H2 9039   0.054   4.022   0.034 -1.8313 -0.9866  1.3217
  606TMC3    C7 9040   0.010   4.195  17.594 -0.0549  0.2884 -0.8189
  606TMC3    C8 9041   0.152   4.065   0.271 -0.7176  0.1906  0.0832
  606TMC3    O1 9042   0.057   4.279  17.512  0.6016 -0.4714 -0.2604
  606TMC3    O2 9043   0.238   4.020   0.197 -0.2198  0.4802  0.4340
  607MPD2     C 9044   2.237   2.664  11.328 -0.0756  0.3376  0.2530
  607MPD2    C1 9045   2.332   2.731  11.405 -0.4372 -0.3844 -0.4210
  607MPD2    C2 9046   2.314   2.750  11.539 -0.2051  0.3344 -0.3764
  607MPD2    C3 9047   2.212   2.693  11.609  0.6736 -0.1268  0.0627
  607MPD2    C4 9048   2.126   2.618  11.539 -0.6036 -0.4058  0.6615
  607MPD2    C5 9049   2.140   2.602  11.398 -0.6746 -0.9041  0.1334
  607MPD2     H 9050   2.383   2.805  11.602 -0.6740  2.1323 -1.4207
  607MPD2    H1 9051   2.042   2.572  11.589 -0.5887  0.3752  1.4194
  607MPD2    H2 9052   2.239   2.653  11.221  0.0729 -0.1211  0.3053
  607MPD2    H3 9053   2.060   2.543  11.354  0.5071 -1.8103 -0.8036
  607MPD2     N 9054   2.217   2.703  11.750  1.0957 -0.9881  0.3985
  607MPD2    H5 9055   2.293   2.759  11.789 -1.0200  2.1647 -0.0672
  607MPD2    N1 9056   2.455   2.786  11.354  0.5997 -0.5130  0.3095
  607MPD2    H7 9057   2.514   2.840  11.416 -0.7835 -0.0894  1.2483
  608TMC3    C1 9058   2.652   2.813  11.230 -0.1117  0.4155  0.0666
  608TMC3    C2 9059   2.723   2.802  11.344 -0.8787 -0.2947  0.3951
  608TMC3    C3 9060   2.847   2.858  11.350  0.6377 -0.3716 -0.3294
  608TMC3    C4 9061   2.710   2.863  11.117 -0.1911  0.6131 -1.0146
  608TMC3    C5 9062   2.839   2.905  11.126 -1.0218  0.2345 -0.0408
  608TMC3    C6 9063   2.915   2.909  11.242  0.1081  0.1634  0.1122
  608TMC3     C 9064   2.513   2.770  11.231 -0.3715 -0.1187 -0.2437
  608TMC3     O 9065   2.470   2.722  11.124 -0.4410 -0.2483 -0.2999
  608TMC3     H 9066   2.675   2.754  11.428  0.3666 -0.8222  0.8021
  608TMC3    H1 9067   2.649   2.870  11.028  1.1039 -0.6973 -1.9915
  608TMC3    H2 9068   3.021   2.927  11.248  0.0445  0.8828 -0.8854
  608TMC3    C7 9069   2.884   2.966  11.003 -0.5382 -0.9172  0.3513
  608TMC3    C8 9070   2.924   2.842  11.466 -0.6569 -0.2381 -0.3535
  608TMC3    O1 9071   2.819   2.964  10.901  0.4191  0.1399 -0.1803
  608TMC3    O2 9072   3.041   2.801  11.456 -0.0724 -0.4159  0.6335
  609TMC3    C1 9073   0.671   1.379   9.412 -0.3072 -0.2101 -0.4371
  609TMC3    C2 9074   0.595   1.275   9.448 -0.1203 -0.1733  0.4892
  609TMC3    C3 9075   0.653   1.150   9.438  0.1077  0.4286  0.7242
  609TMC3    C4 9076   0.799   1.368   9.367 -0.1961 -0.5178 -0.3906
  609TMC3    C5 9077   0.858   1.246   9.365 -0.4021  0.8870  0.4888
  609TMC3    C6 9078   0.783   1.139   9.403  0.2723  0.2638 -0.2437
  609TMC3     C 9079   0.609   1.512   9.431 -1.0198 -0.1907 -0.1862
  609TMC3     O 9080   0.491   1.520   9.456 -0.2134  0.1688  0.5024
  609TMC3     H 9081   0.490   1.289   9.469 -0.0899  0.0186  0.5207
  609TMC3    H1 9082   0.850   1.454   9.325 -1.2213  0.1222 -0.3334
  609TMC3    H2 9083   0.826   1.039   9.414  1.0327  0.5486 -0.6337
  609TMC3    C7 9084   0.995   1.230   9.318 -0.3531 -0.4680 -0.4378
  609TMC3    C8 9085   0.601   1.051   9.535  0.8069  0.0184  0.3954
  609TMC3    O1 9086   1.060   1.334   9.300 -0.4512 -0.3503  0.3842
  609TMC3    O2 9087   0.685   0.982   9.596  0.3234 -0.4911 -0.8949
  610TMC3    C1 9088   2.704   2.421  12.556  0.7426  0.0673  0.1908
  610TMC3    C2 9089   2.767   2.512  12.475 -0.3828 -0.3345  0.0448
  610TMC3    C3 9090   2.903   2.528  12.490 -0.3643  0.8486  0.0604
  610TMC3    C4 9091   2.773   2.344  12.648 -0.0588 -0.8036  0.1426
  610TMC3    C5 9092   2.903   2.371  12.660  0.9159 -1.0164  0.6964
  610TMC3    C6 9093   2.979   2.453  12.580 -0.5555  0.5797  0.3560
  610TMC3     C 9094   2.563   2.448  12.566 -0.6755  0.0268 -0.0720
  610TMC3     O 9095   2.523   2.551  12.521 -0.2332 -0.2029  0.0590
  610TMC3     H 9096   2.720   2.555  12.387  0.9813 -2.2546 -1.6292
  610TMC3    H1 9097   2.721   2.267  12.703 -0.1403  0.7038  2.1717
  610TMC3    H2 9098   3.078   2.479  12.616 -0.7622 -0.8733  2.0082
  610TMC3    C7 9099   2.972   2.319  12.773 -0.0520  0.2299 -0.4567
  610TMC3    C8 9100   2.965   2.615  12.391 -0.1309 -0.3204  0.3962
  610TMC3    O1 9101   3.088   2.289  12.760 -0.2771  0.8859 -0.5380
  610TMC3    O2 9102   2.892   2.687  12.332 -0.3327  0.4135  0.1489
  611MPD2     C 9103   2.456   2.520  10.490 -0.1033 -0.1126  0.0676
  611MPD2    C1 9104   2.448   2.509  10.351 -0.5803 -0.5971  0.2027
  611MPD2    C2 9105   2.561   2.531  10.275  0.4279 -0.1552 -0.4238
  611MPD2    C3 9106   2.683   2.566  10.341 -0.2954  0.4216 -0.7760
  611MPD2    C4 9107   2.684   2.573  10.480  0.2268  0.2594 -0.1403
  611MPD2    C5 9108   2.571   2.555  10.554 -0.0615  0.3789  0.4270
  611MPD2     H 9109   2.565   2.517  10.168  1.0748 -1.2367 -0.2622
  611MPD2    H1 9110   2.765   2.623  10.531 -0.1093  2.0113 -1.3093
  611MPD2    H2 9111   2.369   2.505  10.553 -0.4414  0.8116 -0.1824
  611MPD2    H3 9112   2.564   2.563  10.662  0.8603 -2.1669  0.6877
  611MPD2     N 9113   2.804   2.602  10.281  0.4432  0.5813 -0.1341
  611MPD2    H5 9114   2.877   2.634  10.344  1.5137  1.4982 -1.8499
  611MPD2    N1 9115   2.325   2.473  10.299 -0.2907  0.0908  0.2218
  611MPD2    H7 9116   2.246   2.454  10.360  0.7961 -0.0146  1.5911
  612TMC3    C1 9117   2.952   2.684  10.120  0.6510  0.4656 -0.3115
  612TMC3    C2 9118   3.042   2.709  10.224 -0.4530 -0.1431  0.0592
  612TMC3    C3 9119   3.135   2.805  10.194 -0.0114  0.3297  0.3837
  612TMC3    C4 9120   2.950   2.733   9.990 -0.0978 -0.6712 -0.3790
  612TMC3    C5 9121   3.054   2.822   9.973 -0.8074  0.2184  0.1956
  612TMC3    C6 9122   3.149   2.855  10.066 -0.5518 -0.2769  0.2993
  612TMC3     C 9123   2.831   2.612  10.148  0.4227 -0.0554  0.3464
  612TMC3     O 9124   2.756   2.588  10.054 -0.3994 -0.1797 -0.1100
  612TMC3     H 9125   3.041   2.651  10.316 -1.0870 -0.6605 -0.2662
  612TMC3    H1 9126   2.879   2.697   9.916  0.2790  2.7514 -2.3985
  612TMC3    H2 9127   3.224   2.933  10.055  0.2560 -0.8828  1.4925
  612TMC3    C7 9128   3.076   2.872   9.837 -1.0982 -0.3094  0.1112
  612TMC3    C8 9129   3.231   2.838  10.301 -0.0505  0.5385 -0.2739
  612TMC3    O1 9130   3.016   2.819   9.745  0.5169 -0.8894 -0.3276
  612TMC3    O2 9131   3.336   2.886  10.267 -0.0714 -0.2072  0.0378
  613MPD2     C 9132   0.952   3.866  16.360 -0.3014  0.1861 -0.2774
  613MPD2    C1 9133   0.974   3.978  16.283 -0.0530 -0.4218 -0.1916
  613MPD2    C2 9134   0.883   4.009  16.183  0.4353 -0.0581 -0.1736
  613MPD2    C3 9135   0.780   3.926  16.155  0.1754  0.1781 -0.8515
  613MPD2    C4 9136   0.750   3.827  16.249 -0.2416 -0.2173 -0.2125
  613MPD2    C5 9137   0.835   3.797  16.353 -1.0375 -0.4232 -0.1018
  613MPD2     H 9138   0.891   4.103  16.129  2.9302 -0.5258 -0.6143
  613MPD2    H1 9139   0.670   3.758  16.226 -1.6511  1.4033 -0.1833
  613MPD2    H2 9140   1.025   3.832  16.433  1.4195 -0.1057 -2.1239
  613MPD2    H3 9141   0.824   3.698  16.397 -0.8574 -1.4653 -2.4137
  613MPD2     N 9142   0.701   3.924  16.039  0.7062 -0.3003 -0.0443
  613MPD2    H5 9143   0.625   3.858  16.050  0.2957  0.2531  0.4158
  613MPD2    N1 9144   1.092   4.059  16.302  0.0885  0.5122 -0.4920
  613MPD2    H7 9145   1.155   4.021  16.372 -3.0995 -1.1831  1.4117
  614TMC3    C1 9146   1.248   4.232  16.262  0.3904 -0.5337 -0.2458
  614TMC3    C2 9147   1.349   4.148  16.303  0.1609  0.7594  0.2921
  614TMC3    C3 9148   1.477   4.188  16.291 -0.9623  0.0647 -0.0377
  614TMC3    C4 9149   1.270   4.358  16.209 -0.2216  0.1435  0.2038
  614TMC3    C5 9150   1.398   4.404  16.206  0.0671  0.1985 -0.0961
  614TMC3    C6 9151   1.503   4.320  16.247  0.1493 -0.4754 -0.2421
  614TMC3     C 9152   1.118   4.180  16.237 -0.5408  0.6602  0.3009
  614TMC3     O 9153   1.047   4.249  16.171  0.4273 -0.2285  0.0413
  614TMC3     H 9154   1.345   4.053  16.357 -1.5942  1.4413  1.3914
  614TMC3    H1 9155   1.189   4.413  16.163 -2.0731 -1.6851  1.2731
  614TMC3    H2 9156   1.604   4.351  16.221  0.1852  0.3954  0.9296
  614TMC3    C7 9157   1.435   4.508  16.122 -0.1249  0.1309 -0.3049
  614TMC3    C8 9158   1.591   4.107  16.320 -0.2246 -0.1650  0.1095
  614TMC3    O1 9159   1.552   4.550  16.139 -0.1308  0.3792  0.4608
  614TMC3    O2 9160   1.695   4.166  16.338  0.2034  0.5513  0.1130
  615MPD2     C 9161   0.602   1.137  16.131  0.3084 -0.1551 -0.7732
  615MPD2    C1 9162   0.557   1.248  16.059 -0.6614 -0.5468  0.5540
  615MPD2    C2 9163   0.492   1.233  15.941 -0.4722  0.0670  0.5739
  615MPD2    C3 9164   0.457   1.104  15.889 -0.0248  0.4910 -1.1365
  615MPD2    C4 9165   0.506   1.000  15.956 -0.2575 -0.2522 -0.2309
  615MPD2    C5 9166   0.571   1.015  16.069 -0.8846  0.0640  0.3456
  615MPD2     H 9167   0.453   1.316  15.885 -0.7587  2.2958  4.0693
  615MPD2    H1 9168   0.483   0.900  15.921  0.8546 -0.2980 -0.8095
  615MPD2    H2 9169   0.643   1.138  16.232  0.8397  2.3774 -1.0119
  615MPD2    H3 9170   0.591   0.925  16.126  1.8184 -1.1764 -2.5887
  615MPD2     N 9171   0.393   1.091  15.759 -0.6748  0.4138  0.1451
  615MPD2    H5 9172   0.381   1.182  15.716 -2.6840 -0.2291 -0.6478
  615MPD2    N1 9173   0.573   1.384  16.104 -0.4908 -0.0193 -0.2609
  615MPD2    H7 9174   0.553   1.466  16.047 -2.0074 -0.9262 -1.0418
  616TMC3    C1 9175   0.663   1.538  16.262  1.0206  0.7187 -0.2158
  616TMC3    C2 9176   0.756   1.546  16.365 -0.1376 -0.8493 -0.1056
  616TMC3    C3 9177   0.808   1.670  16.405  0.5895  0.3920 -0.1712
  616TMC3    C4 9178   0.611   1.649  16.196 -0.1400  0.2519 -0.0447
  616TMC3    C5 9179   0.660   1.772  16.249  0.8531 -0.2287  0.6478
  616TMC3    C6 9180   0.762   1.782  16.343 -0.3398  0.5739  0.0635
  616TMC3     C 9181   0.607   1.405  16.238 -0.5059 -1.0351  0.0414
  616TMC3     O 9182   0.610   1.332  16.334 -0.6116 -0.4695  0.3289
  616TMC3     H 9183   0.778   1.453  16.416 -3.4015 -1.5872 -0.0983
  616TMC3    H1 9184   0.533   1.649  16.121  0.5069  0.6159 -0.7115
  616TMC3    H2 9185   0.804   1.881  16.360  0.7965  0.0223  0.4986
  616TMC3    C7 9186   0.592   1.898  16.213 -0.1655 -0.0054 -0.4417
  616TMC3    C8 9187   0.931   1.685  16.492  0.0009 -0.9526  0.4252
  616TMC3    O1 9188   0.543   1.906  16.100 -0.6718  0.1092  0.1397
  616TMC3    O2 9189   1.005   1.783  16.486  0.8089  0.3273 -0.2903
  617MPD2     C 9190   3.166   3.677  13.511 -1.1558  0.3562 -0.2992
  617MPD2    C1 9191   3.193   3.776  13.599 -0.0575 -0.1563 -0.4052
  617MPD2    C2 9192   3.108   3.803  13.704  0.4659 -0.2499 -0.3608
  617MPD2    C3 9193   2.993   3.728  13.723 -0.9975  0.3661 -0.2780
  617MPD2    C4 9194   2.968   3.619  13.639  0.3143 -0.0283 -0.3038
  617MPD2    C5 9195   3.049   3.598  13.527 -0.2591  0.6355  0.0717
  617MPD2     H 9196   3.132   3.889  13.765  0.9873 -0.4401 -0.2905
  617MPD2    H1 9197   2.877   3.563  13.657  0.0633  0.7969  0.9794
  617MPD2    H2 9198   3.216   3.659  13.417 -1.5617 -0.6977 -0.3156
  617MPD2    H3 9199   3.027   3.524  13.451 -1.0631  0.0350  0.8852
  617MPD2     N 9200   2.901   3.767  13.822  0.0238 -0.2937  0.0034
  617MPD2    H5 9201   2.821   3.705  13.823  0.2688 -0.5606  2.5562
  617MPD2    N1 9202   3.296   3.866  13.567  0.3196  0.2782  0.5114
  617MPD2    H7 9203   3.298   3.952  13.621  0.7444 -0.5576  1.8322
  618TMC3    C1 9204   3.507   3.935  13.480  0.1301  0.6476 -0.5222
  618TMC3    C2 9205   3.555   3.965  13.602  0.3654  0.2905  0.0070
  618TMC3    C3 9206   3.687   3.961  13.633 -0.1716  0.6984  0.0427
  618TMC3    C4 9207   3.600   3.911  13.384 -0.4652 -0.0541  0.3671
  618TMC3    C5 9208   3.743   3.913  13.413  0.4818 -0.1590  0.1045
  618TMC3    C6 9209   3.780   3.940  13.538 -0.4039  0.3493  0.1705
  618TMC3     C 9210   3.406   3.834  13.487  0.1668 -0.9112 -0.4446
  618TMC3     O 9211   3.421   3.742  13.404 -0.1789  0.3422 -0.0038
  618TMC3     H 9212   3.483   3.960  13.682 -2.0100 -0.7511 -2.1822
  618TMC3    H1 9213   3.563   3.880  13.287 -1.4097  1.5178  0.2261
  618TMC3    H2 9214   3.887   3.932  13.557 -0.6514  1.0194  1.8207
  618TMC3    C7 9215   3.812   3.796  13.354 -0.5833 -0.6582 -0.1374
  618TMC3    C8 9216   3.705   3.878  13.746 -0.0600 -0.2101  0.3290
  618TMC3    O1 9217   3.883   3.741  13.436 -0.6771  0.0865  0.4113
  618TMC3    O2 9218   3.608   3.818  13.783  0.3715 -0.1863 -0.6495
  619MPD2     C 9219   0.176   0.670  13.683 -0.2456  0.1092  0.9226
  619MPD2    C1 9220   0.061   0.712  13.627 -0.2498  0.4676  0.6147
  619MPD2    C2 9221   4.677   0.660  13.680  0.3102  0.0532  0.1979
  619MPD2    C3 9222   4.674   0.555  13.775  0.7053  0.1913  0.1263
  619MPD2    C4 9223   0.059   0.512  13.823 -0.4122 -0.2548 -0.1714
  619MPD2    C5 9224   0.173   0.573  13.783 -0.2609 -0.2739  0.9690
  619MPD2     H 9225   4.576   0.697  13.665  0.4984  0.6605  0.4442
  619MPD2    H1 9226   0.073   0.436  13.899 -2.0301  1.9522  2.3234
  619MPD2    H2 9227   0.269   0.721  13.662 -0.1706 -0.6776 -0.6666
  619MPD2    H3 9228   0.266   0.556  13.837  0.5313 -2.9193 -1.2557
  619MPD2     N 9229   4.556   0.503  13.830  0.1812  0.5697  0.2289
  619MPD2    H5 9230   4.562   0.453  13.918 -0.4865 -0.6215 -0.4133
  619MPD2    N1 9231   0.058   0.815  13.528 -0.5338 -0.3432  0.3463
  619MPD2    H7 9232   4.703   0.843  13.492  0.4134  0.6641 -1.2195
  620TMC3    C1 9233   0.117   0.965  13.360  0.7575 -0.0739 -0.3226
  620TMC3    C2 9234   0.006   0.940  13.290 -0.0648  0.5834 -0.1178
  620TMC3    C3 9235   4.682   1.034  13.209  0.0096  0.4415 -0.3074
  620TMC3    C4 9236   0.181   1.076  13.339  0.0566 -0.7026  0.6253
  620TMC3    C5 9237   0.131   1.167  13.251  0.2200  0.2428  0.4670
  620TMC3    C6 9238   0.012   1.153  13.187  0.3720  0.0195  0.3096
  620TMC3     C 9239   0.167   0.867  13.464  0.6130  0.6512  0.3015
  620TMC3     O 9240   0.284   0.836  13.467  0.1395 -0.1074 -0.4961
  620TMC3     H 9241   4.694   0.844  13.306 -1.1070  0.8934 -1.2656
  620TMC3    H1 9242   0.267   1.103  13.399  0.8646 -0.2263 -0.7482
  620TMC3    H2 9243   4.710   1.223  13.113  1.8067  0.7274  0.2632
  620TMC3    C7 9244   0.140   1.304  13.295  0.4328  0.5677 -0.7900
  620TMC3    C8 9245   4.538   1.038  13.228  0.1883 -0.3871  0.2095
  620TMC3    O1 9246   0.114   1.392  13.210  0.2758 -0.5386  0.2664
  620TMC3    O2 9247   4.477   0.944  13.271  0.1778 -0.3060 -0.1583
  621MPD2     C 9248   0.417   1.735  10.103 -0.3649  0.3277 -0.2352
  621MPD2    C1 9249   0.500   1.634  10.146 -0.2369  0.4716  0.5648
  621MPD2    C2 9250   0.638   1.645  10.113  0.0493  0.1043  0.2642
  621MPD2    C3 9251   0.688   1.755  10.042 -0.5877  0.2135 -0.5637
  621MPD2    C4 9252   0.602   1.858  10.007  0.7599 -0.7536  0.2040
  621MPD2    C5 9253   0.469   1.843  10.032 -0.1560  0.0746 -0.4266
  621MPD2     H 9254   0.699   1.568  10.158 -0.4710  0.8983  2.3480
  621MPD2    H1 9255   0.623   1.952   9.958 -1.8752  0.7166  1.8601
  621MPD2    H2 9256   0.310   1.736  10.121 -0.3595  0.7529 -0.2258
  621MPD2    H3 9257   0.404   1.925  10.006  0.6819  0.4531 -1.3760
  621MPD2     N 9258   0.829   1.761  10.013  0.5441  0.1305  0.8293
  621MPD2    H5 9259   0.887   1.684  10.044 -2.3703 -1.9689  0.9449
  621MPD2    N1 9260   0.447   1.523  10.219 -0.0013 -0.0955  0.6841
  621MPD2    H7 9261   0.521   1.454  10.231  0.8256  0.9415  1.5335
  622TMC3    C1 9262   0.272   1.371  10.312  0.1850  0.1878  0.9637
  622TMC3    C2 9263   0.149   1.380  10.370 -0.3725 -0.3925  0.0542
  622TMC3    C3 9264   0.119   1.267  10.449 -0.6892 -0.2639 -0.2071
  622TMC3    C4 9265   0.346   1.254  10.309 -0.7607 -0.0009  0.2513
  622TMC3    C5 9266   0.291   1.140  10.362 -0.3770  0.3002 -0.1303
  622TMC3    C6 9267   0.178   1.148  10.440  0.1814 -0.2975 -0.0678
  622TMC3     C 9268   0.313   1.502  10.259 -0.1955  0.2029 -0.3814
  622TMC3     O 9269   0.223   1.587  10.258 -0.2359 -0.0610  0.0179
  622TMC3     H 9270   0.097   1.475  10.376  0.4661  0.1521 -1.1839
  622TMC3    H1 9271   0.436   1.241  10.251 -0.5517 -0.1718  0.6143
  622TMC3    H2 9272   0.150   1.062  10.500 -0.7860  0.1109  0.0698
  622TMC3    C7 9273   0.342   1.005  10.331  0.2681  0.4704 -0.0083
  622TMC3    C8 9274   4.719   1.257  10.508  0.4803 -0.2737  0.1378
  622TMC3    O1 9275   0.465   0.988  10.330  0.0430 -0.4870  0.1186
  622TMC3    O2 9276   4.666   1.149  10.522 -0.2606 -0.7255  0.0682
  623MPD2     C 9277   4.098   1.479  15.772 -0.3290 -0.9239 -0.0842
  623MPD2    C1 9278   4.003   1.539  15.855  0.2709 -0.0387 -0.4129
  623MPD2    C2 9279   4.042   1.615  15.963 -0.4319 -0.0631 -0.3254
  623MPD2    C3 9280   4.176   1.630  15.995  0.5036  0.4934 -0.1578
  623MPD2    C4 9281   4.270   1.570  15.912 -0.0807 -0.0995  0.1673
  623MPD2    C5 9282   4.229   1.492  15.806 -0.6279 -0.2406  0.9622
  623MPD2     H 9283   3.969   1.661  16.028  1.5524  1.3773  0.8829
  623MPD2    H1 9284   4.376   1.563  15.934  0.2112  2.2602 -0.5497
  623MPD2    H2 9285   4.072   1.411  15.692 -2.5876 -1.3525  0.9977
  623MPD2    H3 9286   4.297   1.438  15.742 -2.2638  0.0480 -1.0499
  623MPD2     N 9287   4.209   1.684  16.120  0.0833  0.3005 -0.2909
  623MPD2    H5 9288   4.137   1.680  16.192  0.9006  1.0575  0.5700
  623MPD2    N1 9289   3.865   1.517  15.857 -0.1227  0.1635 -0.2453
  623MPD2    H7 9290   3.813   1.566  15.929 -0.6165  1.5814 -1.5627
  624TMC3    C1 9291   4.410   1.520  16.453 -0.0089  0.0086 -0.5822
  624TMC3    C2 9292   4.299   1.544  16.536  0.0482  0.3025  0.0876
  624TMC3    C3 9293   4.219   1.649  16.491  0.0195 -0.6233  0.1675
  624TMC3    C4 9294   4.440   1.595  16.340 -0.0855  0.5263 -0.2904
  624TMC3    C5 9295   4.357   1.696  16.306  0.2034 -0.6349 -0.4002
  624TMC3    C6 9296   4.250   1.724  16.383  0.3768 -0.3609 -0.3602
  624TMC3     C 9297   4.502   1.413  16.492 -0.0497  0.3745  0.5484
  624TMC3     O 9298   4.459   1.316  16.560 -0.4683 -0.3720 -0.1171
  624TMC3     H 9299   4.272   1.490  16.626 -0.3199 -1.0401 -0.8272
  624TMC3    H1 9300   4.520   1.566  16.274 -0.8954 -1.2191 -0.5164
  624TMC3    H2 9301   4.178   1.795  16.345 -0.5881 -0.5075  1.1660
  624TMC3    C7 9302   4.334   1.708  16.168  0.3613 -0.2259 -0.4816
  624TMC3    C8 9303   4.087   1.622  16.535  0.1473  0.0050  0.4667
  624TMC3    O1 9304   4.431   1.746  16.104  0.6357  0.3736  0.4753
  624TMC3    O2 9305   4.058   1.505  16.555 -0.3135 -0.2682  0.0917
  625MPD2     C 9306   0.114   2.175   0.781 -0.2805 -0.2092 -0.9249
  625MPD2    C1 9307   0.163   2.297   0.818  0.2971  0.8078 -0.6523
  625MPD2    C2 9308   0.285   2.309   0.894  0.4214 -0.2019 -0.1197
  625MPD2    C3 9309   0.365   2.193   0.906  0.3627 -0.0790  0.2750
  625MPD2    C4 9310   0.326   2.066   0.858 -0.1018 -0.2664 -0.1171
  625MPD2    C5 9311   0.197   2.066   0.795 -0.1313 -0.0866 -0.1511
  625MPD2     H 9312   0.320   2.399   0.943 -2.1502  0.2136  0.9484
  625MPD2    H1 9313   0.387   1.976   0.860 -1.5054 -1.2013  0.3479
  625MPD2    H2 9314   0.020   2.164   0.727 -0.6294  1.0100 -0.5684
  625MPD2    H3 9315   0.171   1.972   0.748 -3.1097  0.9328 -0.5526
  625MPD2     N 9316   0.480   2.209   0.981  0.3221 -0.0367 -0.2883
  625MPD2    H5 9317   0.502   2.304   1.011  1.7178 -0.9090  1.5074
  625MPD2    N1 9318   0.086   2.413   0.804 -0.0222 -0.2899 -0.5257
  625MPD2    H7 9319   0.125   2.498   0.844 -0.3609  0.4282 -1.6828
  626TMC3    C1 9320   4.668   2.572   0.705 -0.3554 -0.2484  0.1699
  626TMC3    C2 9321   4.604   2.611   0.595 -0.2153  0.8346 -0.4631
  626TMC3    C3 9322   4.552   2.732   0.589  0.0303 -0.1251 -0.1823
  626TMC3    C4 9323   4.686   2.657   0.813  0.6292 -0.2845  0.5159
  626TMC3    C5 9324   4.633   2.785   0.797  0.0382 -0.2117  0.0547
  626TMC3    C6 9325   4.579   2.829   0.680 -0.2223  0.2326 -0.3133
  626TMC3     C 9326   4.718   2.429   0.719  0.3669  0.7475 -0.7025
  626TMC3     O 9327   4.671   2.348   0.640  0.2767  0.2310 -0.1854
  626TMC3     H 9328   4.603   2.545   0.509 -2.5577 -1.0474  0.9981
  626TMC3    H1 9329   4.731   2.625   0.907 -0.3029  1.7262  1.6292
  626TMC3    H2 9330   4.539   2.930   0.679  0.2328  0.3985 -2.2611
  626TMC3    C7 9331   4.668   2.871   0.905 -0.3131 -0.1466 -0.3637
  626TMC3    C8 9332   4.502   2.777   0.461  0.1776  0.5340  0.5777
  626TMC3    O1 9333   0.042   2.845   0.962  0.2165  0.5392  0.1313
  626TMC3    O2 9334   4.496   2.900   0.438  0.1480  0.0576 -0.5873
  627MPD2     C 9335   2.498   2.765  14.573  0.4642 -0.4986  0.2182
  627MPD2    C1 9336   2.601   2.704  14.640 -0.4121 -0.4570 -0.0900
  627MPD2    C2 9337   2.606   2.567  14.642 -0.0136 -0.0912 -0.3670
  627MPD2    C3 9338   2.511   2.490  14.575 -0.3052 -0.1743  0.4490
  627MPD2    C4 9339   2.408   2.549  14.510 -0.5475  0.6001  0.3083
  627MPD2    C5 9340   2.400   2.686  14.512 -0.2899  0.0125  0.2395
  627MPD2     H 9341   2.680   2.514  14.701 -1.9651 -0.2873  1.9272
  627MPD2    H1 9342   2.321   2.496  14.474 -0.2837  0.2169  0.2343
  627MPD2    H2 9343   2.491   2.873  14.568 -0.3729 -0.5201  0.9533
  627MPD2    H3 9344   2.315   2.735  14.466  0.8460  1.4832 -0.3213
  627MPD2     N 9345   2.526   2.347  14.580 -0.3059  0.5463 -0.2308
  627MPD2    H5 9346   2.617   2.318  14.614 -0.5637  0.3487  0.2784
  627MPD2    N1 9347   2.705   2.779  14.712  0.0236  0.5238  0.1288
  627MPD2    H7 9348   2.773   2.727  14.766 -1.6569  0.0736  1.8396
  628TMC3    C1 9349   2.852   2.952  14.775  0.4686  0.0355 -0.7379
  628TMC3    C2 9350   2.911   2.863  14.857 -0.1188  0.0960 -0.5520
  628TMC3    C3 9351   3.042   2.895  14.890  0.4177  0.4360 -0.0331
  628TMC3    C4 9352   2.910   3.078  14.755 -0.2109 -0.4374  0.9334
  628TMC3    C5 9353   3.034   3.106  14.808 -0.0656  0.1914 -0.3353
  628TMC3    C6 9354   3.108   3.009  14.869  0.0407  0.0113 -0.1119
  628TMC3     C 9355   2.721   2.915  14.711  0.7877  0.3480  0.0338
  628TMC3     O 9356   2.652   3.005  14.666  0.1167  0.4749  0.0860
  628TMC3     H 9357   2.868   2.766  14.879 -2.2735  0.8664 -1.3402
  628TMC3    H1 9358   2.844   3.163  14.739 -1.2864 -1.8611 -2.2185
  628TMC3    H2 9359   3.199   3.036  14.923  0.9118  0.3616 -1.7528
  628TMC3    C7 9360   3.106   3.222  14.753  0.6029  0.3161  0.5237
  628TMC3    C8 9361   3.113   2.792  14.969  0.4308  0.2950  0.8287
  628TMC3    O1 9362   3.220   3.237  14.793  0.0859 -0.2133  0.1384
  628TMC3    O2 9363   3.042   2.710  15.022  0.4482 -0.3680 -0.3142
  629MPD2     C 9364   1.212   1.471  16.852  0.1395  0.3270  0.1555
  629MPD2    C1 9365   1.244   1.558  16.747 -0.2808  0.1434  0.5423
  629MPD2    C2 9366   1.145   1.594  16.657  0.4165  0.8619 -0.1484
  629MPD2    C3 9367   1.019   1.532  16.667 -0.7319  0.0525  0.4676
  629MPD2    C4 9368   0.990   1.441  16.762 -0.2697  0.2267  0.9577
  629MPD2    C5 9369   1.092   1.410  16.852  0.0910 -0.4786  0.5314
  629MPD2     H 9370   1.179   1.663  16.580 -0.2540  0.8355 -0.4648
  629MPD2    H1 9371   0.891   1.397  16.758 -0.0386 -0.2171 -0.0324
  629MPD2    H2 9372   1.291   1.436  16.918  1.0995 -0.6728 -1.5339
  629MPD2    H3 9373   1.067   1.337  16.929 -1.8533 -0.0646  0.2920
  629MPD2     N 9374   0.919   1.574  16.576  0.4565 -0.0648  0.7594
  629MPD2    H5 9375   0.834   1.519  16.578  0.9991 -0.9653 -0.3671
  629MPD2    N1 9376   1.386   1.577  16.728 -0.1945  0.3534  0.7286
  629MPD2    H7 9377   1.444   1.518  16.787 -0.8306 -1.3931 -0.4003
  630TMC3    C1 9378   1.593   1.646  16.640  0.5603  0.3073  0.3851
  630TMC3    C2 9379   1.652   1.733  16.550 -0.2921  0.6869 -0.0078
  630TMC3    C3 9380   1.792   1.743  16.557 -0.4630 -0.2701 -0.1704
  630TMC3    C4 9381   1.665   1.568  16.726 -0.5545 -0.2391 -0.5932
  630TMC3    C5 9382   1.797   1.578  16.725  0.3422 -0.2780 -0.7321
  630TMC3    C6 9383   1.863   1.664  16.642 -0.0785  0.2305  0.2670
  630TMC3     C 9384   1.451   1.657  16.638  0.1706 -0.3048 -0.1663
  630TMC3     O 9385   1.394   1.742  16.566 -0.6193  0.5566 -0.1449
  630TMC3     H 9386   1.588   1.785  16.480 -1.4538 -1.9484 -0.8919
  630TMC3    H1 9387   1.620   1.517  16.811 -1.4914  0.6299 -0.5722
  630TMC3    H2 9388   1.970   1.678  16.656 -0.2790 -0.1567  2.1573
  630TMC3    C7 9389   1.872   1.481  16.802 -0.5638  0.9229 -0.1533
  630TMC3    C8 9390   1.881   1.839  16.482 -0.7002 -0.1587 -0.3352
  630TMC3    O1 9391   1.816   1.442  16.901  0.2729 -0.4015 -0.2702
  630TMC3    O2 9392   2.001   1.831  16.494 -0.4179  0.6171  0.3843
  631MPD2     C 9393   4.464   1.444  15.151 -0.0193  0.0017  0.2446
  631MPD2    C1 9394   4.595   1.493  15.112  0.6621  0.0434  0.5161
  631MPD2    C2 9395   4.700   1.424  15.152 -0.1748 -0.0018 -0.2690
  631MPD2    C3 9396   4.684   1.305  15.231  0.1774  0.9951  0.2771
  631MPD2    C4 9397   4.559   1.265  15.270 -0.2491  0.4983  0.8304
  631MPD2    C5 9398   4.449   1.334  15.228  0.3234  0.6502 -0.1319
  631MPD2     H 9399   0.063   1.468  15.136 -0.7203  2.2786  2.6016
  631MPD2    H1 9400   4.543   1.170  15.320  0.7049  0.9423  1.9796
  631MPD2    H2 9401   4.373   1.491  15.118 -0.0585  0.4760  1.0438
  631MPD2    H3 9402   4.354   1.288  15.253  1.1931 -1.9598 -1.6491
  631MPD2     N 9403   0.069   1.239  15.269 -0.2757  0.8491 -0.2841
  631MPD2    H5 9404   0.153   1.253  15.213 -0.2295  0.4705 -0.3078
  631MPD2    N1 9405   4.605   1.629  15.062  0.5988  0.4837  0.6218
  631MPD2    H7 9406   4.512   1.666  15.048  0.5195 -0.3849 -1.1666
  632TMC3    C1 9407   4.698   1.853  15.028  0.9397 -0.3333 -0.4878
  632TMC3    C2 9408   4.574   1.901  15.050 -0.0154 -0.1488 -0.6111
  632TMC3    C3 9409   4.552   2.029  15.032  0.8796  0.2988 -0.5837
  632TMC3    C4 9410   0.066   1.926  14.994  0.0916 -0.2919 -0.4979
  632TMC3    C5 9411   0.039   2.053  14.958 -0.0102  0.3387 -0.2820
  632TMC3    C6 9412   4.652   2.107  14.979 -0.0784  0.7072  0.3667
  632TMC3     C 9413   4.717   1.702  15.041  0.0646 -1.0153 -0.0443
  632TMC3     O 9414   0.099   1.671  15.057 -0.0983  0.0834 -0.1552
  632TMC3     H 9415   4.492   1.847  15.094 -0.4003 -0.1291 -1.2976
  632TMC3    H1 9416   0.162   1.881  14.968  0.1119  0.2788 -1.3692
  632TMC3    H2 9417   4.630   2.207  14.944 -3.5958 -0.2749 -0.2962
  632TMC3    C7 9418   0.104   2.085  14.825 -0.0387  0.4395 -0.3880
  632TMC3    C8 9419   4.414   2.062  15.063 -0.4797  0.1084  0.4108
  632TMC3    O1 9420   0.032   2.145  14.745 -0.2794  0.3226  0.5264
  632TMC3    O2 9421   4.329   1.974  15.033 -0.0417  0.2243 -0.7766
  633MPD2     C 9422   4.090   4.376  17.290 -0.3262  0.4429  0.2967
  633MPD2    C1 9423   4.110   4.328  17.163  0.1919 -0.8678 -0.7158
  633MPD2    C2 9424   4.108   4.187  17.138 -0.3385 -0.1942 -0.3286
  633MPD2    C3 9425   4.100   4.103  17.251 -0.1716 -0.7658 -0.4947
  633MPD2    C4 9426   4.076   4.152  17.377 -0.0748 -0.4700 -0.5307
  633MPD2    C5 9427   4.073   4.285  17.393  0.9179 -0.4557  0.6156
  633MPD2     H 9428   4.116   4.146  17.039  0.2196 -0.3713 -0.2152
  633MPD2    H1 9429   4.065   4.089  17.465 -1.1573 -0.8562 -0.9364
  633MPD2    H2 9430   4.100   4.481  17.316 -0.5383  0.7975 -1.1061
  633MPD2    H3 9431   4.058   4.331  17.490  0.7601  1.5650 -0.3618
  633MPD2     N 9432   4.109   3.964  17.238  0.0225  0.1045  0.7094
  633MPD2    H5 9433   4.108   3.907  17.322  1.4208  0.0644  0.7000
  633MPD2    N1 9434   4.137   4.409  17.052 -0.4459 -0.4143  0.0277
  633MPD2    H7 9435   4.158   4.364  16.964 -2.3071 -0.8525 -0.1860
  634TMC3    C1 9436   4.200   4.590  16.932 -0.2560  0.6283  0.2559
  634TMC3    C2 9437   4.290   4.517  16.870 -0.8192 -0.5979 -0.9292
  634TMC3    C3 9438   4.345   4.569  16.760 -0.1489 -0.0912  0.4288
  634TMC3    C4 9439   4.177   4.726  16.900 -0.1040 -0.0471 -1.3159
  634TMC3    C5 9440   4.229   0.041  16.787 -0.4638 -0.6585  0.0505
  634TMC3    C6 9441   4.315   4.695  16.718  1.2225 -0.2343 -0.0650
  634TMC3     C 9442   4.143   4.544  17.051  0.1057 -0.1063 -0.9885
  634TMC3     O 9443   4.095   4.626  17.130 -0.3800  0.0587 -0.3623
  634TMC3     H 9444   4.315   4.422  16.915 -2.9258 -2.6129 -3.9501
  634TMC3    H1 9445   4.109   0.048  16.962  1.8992 -0.5966  1.3659
  634TMC3    H2 9446   4.327   4.722  16.614 -0.9863  2.1306  0.2877
  634TMC3    C7 9447   4.176   0.166  16.720 -0.2473  0.1337 -0.3076
  634TMC3    C8 9448   4.390   4.467  16.669 -0.2172  0.5234  1.0005
  634TMC3    O1 9449   4.208   0.177  16.602  0.2898 -0.3186 -0.4582
  634TMC3    O2 9450   4.372   4.345  16.691  0.3625 -0.6496  0.8749
  635TMC3    C1 9451   4.338   0.283  17.724  0.7482  0.9192 -0.8627
  635TMC3    C2 9452   4.425   0.204  17.666  0.2036 -0.5346  0.4899
  635TMC3    C3 9453   4.370   0.082  17.638 -0.7151  0.0751  0.1001
  635TMC3    C4 9454   4.212   0.259   0.026  0.5607  0.1516  0.4157
  635TMC3    C5 9455   4.161   0.137  17.732 -0.0337  0.7222 -0.1782
  635TMC3    C6 9456   4.243   0.052  17.664  0.1813 -0.5777 -0.3730
  635TMC3     C 9457   4.381   0.416   0.027  0.6055 -0.2525  0.4029
  635TMC3     O 9458   4.323   0.462   0.128  0.1449 -0.5422  0.5922
  635TMC3     H 9459   4.518   0.239  17.623  1.0668 -0.3308  2.5367
  635TMC3    H1 9460   4.148   0.339   0.061  0.7191  0.6066 -0.3324
  635TMC3    H2 9461   4.199   4.704  17.610 -0.5145  0.0445 -0.7688
  635TMC3    C7 9462   4.047   0.073   0.069 -0.8758  0.5913 -0.2378
  635TMC3    C8 9463   4.434   0.010  17.528  0.4126  0.0176  0.4027
  635TMC3    O1 9464   4.036   4.687   0.056 -0.5440  0.2328  0.5889
  635TMC3    O2 9465   4.489   0.067  17.431  0.1079  0.0159 -0.2622
  636MPD2     C 9466   0.705   0.061  15.626  0.2440  0.0570 -0.3868
  636MPD2    C1 9467   0.724   0.044  15.755 -0.5964 -0.1247  0.3423
  636MPD2    C2 9468   0.769   4.660  15.801 -0.7425 -0.4135  0.2741
  636MPD2    C3 9469   0.792   4.559  15.707  0.0923 -0.8060 -0.1721
  636MPD2    C4 9470   0.790   4.580  15.572 -0.4530  0.0504 -0.3936
  636MPD2    C5 9471   0.745   4.699  15.530 -0.4657  0.7639  0.3156
  636MPD2     H 9472   0.797   4.643  15.904  1.4874 -0.2492 -0.3034
  636MPD2    H1 9473   0.792   4.505  15.493  0.3679 -1.8786  1.4666
  636MPD2    H2 9474   0.676   0.157  15.585 -1.2754  0.1366  0.8827
  636MPD2    H3 9475   0.731   4.715  15.424  0.6551 -1.5549 -0.1810
  636MPD2     N 9476   0.832   4.435  15.757  0.5821  0.9471 -0.3936
  636MPD2    H5 9477   0.820   4.409  15.854  1.0625  0.0004 -0.5806
  636MPD2    N1 9478   0.680   0.131  15.854  0.3561  0.4402  0.4325
  636MPD2    H7 9479   0.698   0.097  15.948 -1.8009 -1.3406  0.2039
  637TMC3    C1 9480   0.933   4.232  15.759  0.3843 -0.0846 -0.1864
  637TMC3    C2 9481   0.828   4.169  15.820 -0.0102 -0.0632  1.1513
  637TMC3    C3 9482   0.849   4.058  15.890  0.1632  0.4529 -0.3517
  637TMC3    C4 9483   1.063   4.193  15.778 -0.1151  0.0125 -0.5402
  637TMC3    C5 9484   1.083   4.073  15.845 -0.3134  0.3135 -0.4076
  637TMC3    C6 9485   0.975   4.003  15.900  0.6841 -0.0312  0.3735
  637TMC3     C 9486   0.901   4.346  15.676 -0.3832  0.1744  0.7250
  637TMC3     O 9487   0.973   4.367  15.583  0.4350 -0.0467 -0.1820
  637TMC3     H 9488   0.734   4.222  15.815  0.2778  0.7788  4.5996
  637TMC3    H1 9489   1.147   4.248  15.738 -0.8252  1.0976 -0.5332
  637TMC3    H2 9490   0.981   3.914  15.961  1.0687 -1.3554 -1.5815
  637TMC3    C7 9491   1.213   4.053  15.906  0.2765 -0.0462 -0.0921
  637TMC3    C8 9492   0.715   4.004  15.926 -0.8139  0.6880 -0.2009
  637TMC3    O1 9493   1.267   4.155  15.941 -0.0093 -0.7068 -1.0390
  637TMC3    O2 9494   0.642   4.003  15.828 -0.2784  0.0451 -0.2812
  638MPD2     C 9495   0.857   3.373  14.914  0.4043 -0.3986  1.2137
  638MPD2    C1 9496   0.814   3.263  14.834 -0.0985  0.3537 -0.2926
  638MPD2    C2 9497   0.741   3.157  14.890 -0.9484  0.5368 -0.3636
  638MPD2    C3 9498   0.720   3.145  15.025 -0.1622  0.3392 -0.1729
  638MPD2    C4 9499   0.757   3.248  15.106  0.4694  0.6415  0.4178
  638MPD2    C5 9500   0.820   3.359  15.047 -0.1125  0.0938  0.0538
  638MPD2     H 9501   0.696   3.077  14.833  3.3190 -1.3222 -1.1430
  638MPD2    H1 9502   0.738   3.244  15.213  0.3150 -0.4817  0.3475
  638MPD2    H2 9503   0.897   3.461  14.866  0.8233 -0.0285  2.2305
  638MPD2    H3 9504   0.830   3.443  15.115 -1.0275  0.0205  0.2833
  638MPD2     N 9505   0.666   3.017  15.057  0.3523  0.3359 -0.7507
  638MPD2    H5 9506   0.640   2.966  14.973  0.1586  0.5926 -0.8470
  638MPD2    N1 9507   0.845   3.264  14.696  0.0420 -0.5881  0.0458
  638MPD2    H7 9508   0.908   3.342  14.680 -1.2956  0.3874 -0.4521
  639TMC3    C1 9509   0.598   2.829  15.171  0.3247 -0.0057  0.0801
  639TMC3    C2 9510   0.565   2.780  15.050  0.2614  0.2650  0.1079
  639TMC3    C3 9511   0.618   2.662  15.007 -1.0246  0.0063  0.2040
  639TMC3    C4 9512   0.662   2.750  15.263  0.0137 -0.4445 -0.5394
  639TMC3    C5 9513   0.701   2.627  15.213  0.1340 -0.2276 -0.3804
  639TMC3    C6 9514   0.678   2.580  15.088  0.1894 -0.1074 -0.6098
  639TMC3     C 9515   0.631   2.975  15.180 -0.4830  0.3620  0.2221
  639TMC3     O 9516   0.655   3.029  15.288 -0.3790  0.0539  0.3931
  639TMC3     H 9517   0.509   2.832  14.974 -0.1768  1.6233  1.3497
  639TMC3    H1 9518   0.709   2.796  15.350  1.6257 -0.3817 -1.4398
  639TMC3    H2 9519   0.694   2.477  15.059  4.1398  0.2622  0.2940
  639TMC3    C7 9520   0.816   2.575  15.278  0.4258 -0.6123 -0.1788
  639TMC3    C8 9521   0.539   2.592  14.907 -0.3424  0.3440  0.3677
  639TMC3    O1 9522   0.835   2.584  15.399 -0.3013  0.2561 -0.5774
  639TMC3    O2 9523   0.602   2.525  14.827 -0.6609  0.1509  0.2358
  640MPD2     C 9524   1.781   2.619   9.669 -1.2924  0.1591  0.1369
  640MPD2    C1 9525   1.648   2.621   9.627 -0.3256  0.1852  0.8084
  640MPD2    C2 9526   1.596   2.738   9.569  0.0316 -0.2694  0.1261
  640MPD2    C3 9527   1.678   2.849   9.559 -0.0904  0.1505 -0.5884
  640MPD2    C4 9528   1.801   2.847   9.616  0.1721  0.2291 -0.0888
  640MPD2    C5 9529   1.857   2.732   9.664  0.0663 -0.6354  0.8778
  640MPD2     H 9530   1.497   2.732   9.526  0.2625 -0.1405 -0.4251
  640MPD2    H1 9531   1.858   2.939   9.621 -0.9620  0.8738  1.0705
  640MPD2    H2 9532   1.825   2.531   9.715 -0.3625  0.2500 -0.5657
  640MPD2    H3 9533   1.957   2.735   9.705 -0.2258 -1.2650  1.6514
  640MPD2     N 9534   1.640   2.970   9.501  0.5728  0.1672 -0.1299
  640MPD2    H5 9535   1.711   3.041   9.485  0.0258  1.0383  1.3315
  640MPD2    N1 9536   1.567   2.502   9.634  0.0371 -0.2711  0.3597
  640MPD2    H7 9537   1.610   2.417   9.670  1.1888  0.8615  1.6601
  641TMC3    C1 9538   1.381   2.352   9.609  0.1726  0.4823  0.5776
  641TMC3    C2 9539   1.460   2.246   9.653 -0.6250 -0.1388 -0.5392
  641TMC3    C3 9540   1.392   2.129   9.662 -0.1357  0.6649 -0.2737
  641TMC3    C4 9541   1.251   2.346   9.577  0.3421 -0.4178 -0.3324
  641TMC3    C5 9542   1.186   2.223   9.602 -0.1527 -0.6525 -0.1677
  641TMC3    C6 9543   1.257   2.122   9.657 -0.1205 -0.4202  0.3679
  641TMC3     C 9544   1.446   2.482   9.580 -0.4414 -0.4841  0.2523
  641TMC3     O 9545   1.371   2.558   9.524  0.1568 -0.4334 -0.1949
  641TMC3     H 9546   1.568   2.260   9.653 -0.5697 -0.5544 -1.0402
  641TMC3    H1 9547   1.202   2.413   9.508  0.9482  0.6392  0.2517
  641TMC3    H2 9548   1.207   2.026   9.660 -4.1927  1.6282 -1.6646
  641TMC3    C7 9549   1.069   2.185   9.518  0.0576  1.1547  0.1228
  641TMC3    C8 9550   1.463   2.002   9.673  0.2021  0.1989 -0.5847
  641TMC3    O1 9551   1.061   2.069   9.480  0.5017  0.5326 -0.2076
  641TMC3    O2 9552   1.401   1.901   9.640 -0.4677  0.5322  0.4957
  642TMC3    C1 9553   1.964   3.251  12.380  0.5020 -0.4736 -0.1159
  642TMC3    C2 9554   2.083   3.264  12.317 -0.1550 -0.4001 -0.6057
  642TMC3    C3 9555   2.105   3.170  12.220 -0.7716 -0.3243  0.0271
  642TMC3    C4 9556   1.878   3.144  12.368 -0.4119  0.0513 -0.0558
  642TMC3    C5 9557   1.911   3.051  12.276 -0.1203 -0.1483 -0.0366
  642TMC3    C6 9558   2.021   3.068  12.196  0.7360 -0.1165 -0.7786
  642TMC3     C 9559   1.931   3.345  12.480 -1.0389  0.1032 -0.0135
  642TMC3     O 9560   1.852   3.310  12.565  0.0265  0.4974 -0.1427
  642TMC3     H 9561   2.153   3.344  12.337 -0.1104  0.0008 -2.3292
  642TMC3    H1 9562   1.783   3.142  12.420  0.0008  0.5736  0.7293
  642TMC3    H2 9563   2.049   3.005  12.112  0.5141 -0.6647 -0.4431
  642TMC3    C7 9564   1.860   2.917  12.286  0.4572  0.5786 -0.2805
  642TMC3    C8 9565   2.238   3.136  12.176  0.3109 -0.1107 -0.1900
  642TMC3    O1 9566   1.885   2.842  12.188 -0.1998  0.0584  0.7921
  642TMC3    O2 9567   2.261   3.121  12.057  0.0055 -0.1431 -0.4623
  643TMC3    C1 9568   1.591   2.064   0.526  0.6082 -0.1091  0.4088
  643TMC3    C2 9569   1.467   2.097   0.484 -0.2015 -0.4012  0.3281
  643TMC3    C3 9570   1.436   2.058   0.363 -0.5709 -0.4905 -0.0395
  643TMC3    C4 9571   1.688   2.012   0.443 -0.0130 -0.4289  0.3388
  643TMC3    C5 9572   1.648   1.968   0.313  0.3766  0.3221  0.2238
  643TMC3    C6 9573   1.522   1.997   0.275 -0.3804 -0.5224  0.3597
  643TMC3     C 9574   1.632   2.112   0.656  0.6879 -0.2193 -0.4482
  643TMC3     O 9575   1.554   2.199   0.698  0.1026 -0.2815 -0.6884
  643TMC3     H 9576   1.388   2.143   0.542  1.1260  1.0417  0.9894
  643TMC3    H1 9577   1.792   2.031   0.466  0.0914  0.1908 -0.6011
  643TMC3    H2 9578   1.493   2.000   0.170  0.2720 -0.2999  0.1840
  643TMC3    C7 9579   1.750   1.982   0.207  0.1247 -0.2266  0.6072
  643TMC3    C8 9580   1.349   2.139   0.293  0.3106 -0.6255  0.1577
  643TMC3    O1 9581   1.835   2.069   0.220  0.4071  0.2795 -0.1382
  643TMC3    O2 9582   1.274   2.089   0.205  0.8893 -0.0334  0.0841
  644MPD2     C 9583   0.639   2.492   8.873  0.4377 -0.0272  0.3836
  644MPD2    C1 9584   0.759   2.523   8.939 -0.0696  0.2999  0.4844
  644MPD2    C2 9585   0.772   2.639   9.021 -0.4203 -0.0349 -0.2595
  644MPD2    C3 9586   0.666   2.729   9.025  0.0920 -0.3553 -1.4536
  644MPD2    C4 9587   0.557   2.692   8.956 -0.0457  0.0591 -0.0092
  644MPD2    C5 9588   0.542   2.582   8.886  0.6160 -0.6529  0.3058
  644MPD2     H 9589   0.864   2.654   9.077  0.2370 -2.6940 -0.6247
  644MPD2    H1 9590   0.472   2.759   8.965 -0.0753 -0.1951  1.6767
  644MPD2    H2 9591   0.624   2.405   8.811 -2.0553  0.1820  0.6995
  644MPD2    H3 9592   0.446   2.575   8.836 -0.3260  1.1985  1.8140
  644MPD2     N 9593   0.668   2.837   9.116  0.3656 -0.4276  0.6512
  644MPD2    H5 9594   0.747   2.841   9.179 -0.3962 -0.6167  1.6170
  644MPD2    N1 9595   0.864   2.425   8.934  0.0486  0.1446  0.2779
  644MPD2    H7 9596   0.839   2.338   8.889  1.6823 -0.2954  0.2408
  645TMC3    C1 9597   0.615   3.043   9.218 -0.1328 -0.1071  0.2259
  645TMC3    C2 9598   0.646   3.168   9.172  0.1935  0.0572  0.4290
  645TMC3    C3 9599   0.720   3.244   9.254 -0.0220 -0.1062  0.0515
  645TMC3    C4 9600   0.641   2.994   9.343  0.5338  0.0787  0.2663
  645TMC3    C5 9601   0.721   3.075   9.416 -0.4598  0.8621 -0.2040
  645TMC3    C6 9602   0.747   3.207   9.381  0.4753  0.0689 -0.4106
  645TMC3     C 9603   0.592   2.950   9.109  0.8856  0.4503  0.3664
  645TMC3     O 9604   0.539   2.986   9.005 -0.3283 -1.0569 -0.0694
  645TMC3     H 9605   0.614   3.208   9.077  0.7675 -1.3037 -0.3372
  645TMC3    H1 9606   0.639   2.889   9.368  0.7700  0.2699  1.0745
  645TMC3    H2 9607   0.813   3.275   9.434  1.1423 -0.1808 -0.9197
  645TMC3    C7 9608   0.779   3.029   9.538  0.2064  0.1866  0.7669
  645TMC3    C8 9609   0.744   3.386   9.217 -0.5716 -0.0189  0.8424
  645TMC3    O1 9610   0.886   3.081   9.567  0.0245  0.1441  0.2997
  645TMC3    O2 9611   0.649   3.442   9.162 -0.1492 -0.6059  0.4687
  646MPD2     C 9612   0.729   1.763  14.174 -0.6306 -0.6249 -0.8750
  646MPD2    C1 9613   0.722   1.836  14.293 -0.4185  0.8279 -0.2676
  646MPD2    C2 9614   0.639   1.949  14.299 -1.0825  0.7892  0.0708
  646MPD2    C3 9615   0.561   1.989  14.193 -0.1471  0.4587 -0.2343
  646MPD2    C4 9616   0.569   1.912  14.074  0.8198 -0.1048 -0.0174
  646MPD2    C5 9617   0.651   1.805  14.067  0.7428 -0.4611 -0.8232
  646MPD2     H 9618   0.631   2.014  14.386  0.3129 -2.6060  2.7683
  646MPD2    H1 9619   0.503   1.931  13.990  0.9750  1.7035  0.2520
  646MPD2    H2 9620   0.787   1.672  14.167  0.7254  0.0860  0.8926
  646MPD2    H3 9621   0.659   1.747  13.975  1.3148 -1.7989  0.0632
  646MPD2     N 9622   0.473   2.090  14.222 -0.4211 -0.6900 -0.1847
  646MPD2    H5 9623   0.483   2.128  14.316 -1.9572 -1.3731  0.2403
  646MPD2    N1 9624   0.802   1.797  14.400 -0.4755  0.1979  0.3256
  646MPD2    H7 9625   0.834   1.701  14.396  0.1125  0.3485  1.5888
  647TMC3    C1 9626   0.848   1.781  14.639  0.6870  0.2658  0.5179
  647TMC3    C2 9627   0.787   1.813  14.759  0.1894  0.4770 -0.0290
  647TMC3    C3 9628   0.825   1.744  14.871  0.1885  0.1800 -0.1893
  647TMC3    C4 9629   0.950   1.691  14.631  0.1697 -0.3228 -0.1313
  647TMC3    C5 9630   0.988   1.629  14.746  0.1159 -0.0597 -0.2244
  647TMC3    C6 9631   0.928   1.651  14.870 -0.3757  0.1688 -0.3191
  647TMC3     C 9632   0.808   1.859  14.522  0.1857  0.0376  0.1056
  647TMC3     O 9633   0.789   1.978  14.533  0.1928 -0.2186  0.5878
  647TMC3     H 9634   0.698   1.875  14.751 -0.4804 -0.6481 -1.2863
  647TMC3    H1 9635   1.010   1.685  14.541 -1.3680 -0.6879 -1.1236
  647TMC3    H2 9636   0.962   1.604  14.961 -2.8312  0.2756  0.6422
  647TMC3    C7 9637   1.083   1.521  14.742 -0.2237  0.5560  0.2491
  647TMC3    C8 9638   0.757   1.790  14.993 -0.0499 -0.4841 -0.3002
  647TMC3    O1 9639   1.155   1.506  14.841 -0.0525  0.4510  0.0307
  647TMC3    O2 9640   0.688   1.885  14.966 -0.1992 -0.0280  0.0871
  648TMC3    C1 9641   0.117   4.428  16.009  0.2761 -0.0599  0.1812
  648TMC3    C2 9642   0.163   4.308  15.965  0.7334  0.2218 -0.0440
  648TMC3    C3 9643   0.128   4.274  15.840 -0.6564  0.1647  0.0982
  648TMC3    C4 9644   0.053   4.522  15.939 -0.0951 -0.2216 -0.1058
  648TMC3    C5 9645   0.018   4.477  15.812  0.6305 -0.3471 -0.2046
  648TMC3    C6 9646   0.063   4.360  15.756 -0.5770 -0.1352 -0.2363
  648TMC3     C 9647   0.158   4.465  16.144  0.1413 -0.6259 -0.1909
  648TMC3     O 9648   0.161   4.583  16.173 -0.4519 -0.1934 -0.7534
  648TMC3     H 9649   0.228   4.240  16.019  0.3683  2.0609  2.7066
  648TMC3    H1 9650   0.025   4.617  15.985 -1.5967 -1.3901  1.3695
  648TMC3    H2 9651   0.048   4.335  15.652  1.4498 -0.5048 -0.4303
  648TMC3    C7 9652   4.653   4.558  15.737 -0.6877 -0.4384 -0.1066
  648TMC3    C8 9653   0.170   4.150  15.782  0.7590  0.0932 -0.4179
  648TMC3    O1 9654   4.639   4.532  15.620  0.4101  0.1498 -0.1843
  648TMC3    O2 9655   0.223   4.160  15.673 -0.0207  0.1185  0.0524
  649TMC3    C1 9656   3.451   1.040  12.288 -0.3359  0.0781  0.2467
  649TMC3    C2 9657   3.551   1.068  12.200  0.5502 -0.1962  0.1050
  649TMC3    C3 9658   3.652   0.978  12.203 -0.1685  1.0882 -0.7571
  649TMC3    C4 9659   3.455   0.930  12.376  0.5186  0.2488  0.3219
  649TMC3    C5 9660   3.560   0.840  12.369 -0.3244 -1.2985  0.0375
  649TMC3    C6 9661   3.670   0.873  12.291 -0.5857 -1.3427  0.1460
  649TMC3     C 9662   3.343   1.138  12.314  0.2531 -0.5244 -0.1582
  649TMC3     O 9663   3.262   1.109  12.396 -0.1632  0.0788  0.6787
  649TMC3     H 9664   3.552   1.152  12.132 -3.2477 -0.8151 -0.6906
  649TMC3    H1 9665   3.373   0.907  12.443  0.3323  2.3462  0.8407
  649TMC3    H2 9666   3.754   0.809  12.267  0.6797 -0.3706  1.9935
  649TMC3    C7 9667   3.562   0.734  12.471 -0.9108  0.1272 -0.0692
  649TMC3    C8 9668   3.747   0.995  12.086 -0.2589  0.6400  0.2877
  649TMC3    O1 9669   3.456   0.719  12.538  0.1424 -0.1574 -0.4539
  649TMC3    O2 9670   3.682   1.032  11.988 -0.0108 -0.7195  0.3539
  650TMC3    C1 9671   1.233   2.583  12.643  0.5805  0.1621 -0.0187
  650TMC3    C2 9672   1.270   2.641  12.762 -0.2591 -0.1389  0.1148
  650TMC3    C3 9673   1.365   2.739  12.756 -0.3373  0.1140  0.4578
  650TMC3    C4 9674   1.288   2.619  12.524 -0.4928 -0.1181 -0.0814
  650TMC3    C5 9675   1.392   2.715  12.521  0.3427  0.0065 -0.3442
  650TMC3    C6 9676   1.430   2.775  12.638 -0.1419 -0.7343 -0.0386
  650TMC3     C 9677   1.116   2.496  12.651  0.1337  0.2018 -0.6174
  650TMC3     O 9678   1.016   2.512  12.584 -0.4303 -0.1836  0.4119
  650TMC3     H 9679   1.229   2.604  12.856  0.0619  1.5476  0.9128
  650TMC3    H1 9680   1.245   2.568  12.439 -0.6742  0.5930 -0.4177
  650TMC3    H2 9681   1.503   2.855  12.634 -1.9060  0.8407 -1.0004
  650TMC3    C7 9682   1.422   2.785  12.400 -0.4483  0.0739 -0.8404
  650TMC3    C8 9683   1.352   2.852  12.846  0.0256  0.5354  0.2485
  650TMC3    O1 9684   1.395   2.721  12.299  0.3903 -0.0009 -0.5146
  650TMC3    O2 9685   1.439   2.936  12.842 -0.0491  0.1173 -0.5739
  651MPD2     C 9686   0.602   4.266  10.793 -0.6553  0.1939 -0.3672
  651MPD2    C1 9687   0.537   4.380  10.765  0.6393  0.0378 -0.0498
  651MPD2    C2 9688   0.580   4.465  10.666  0.1115 -0.5852 -0.2535
  651MPD2    C3 9689   0.704   4.445  10.609 -0.5603 -0.5194 -0.0530
  651MPD2    C4 9690   0.781   4.331  10.643 -1.0850  0.4874 -0.0590
  651MPD2    C5 9691   0.725   4.248  10.731  0.5568  0.6932  1.5283
  651MPD2     H 9692   0.522   4.556  10.654 -0.5036 -0.9613 -0.1320
  651MPD2    H1 9693   0.870   4.298  10.591 -0.3911 -0.6349  1.8519
  651MPD2    H2 9694   0.563   4.184  10.853 -2.1396  0.4697 -0.9590
  651MPD2    H3 9695   0.766   4.150  10.755  0.7493 -0.2968 -2.9136
  651MPD2     N 9696   0.751   4.554  10.530 -0.5443 -0.2622  0.2007
  651MPD2    H5 9697   0.683   4.621  10.497  1.9109  2.4413  0.6962
  651MPD2    N1 9698   0.413   4.411  10.830  0.7037  0.1056  0.2531
  651MPD2    H7 9699   0.378   4.504  10.809 -0.5393 -0.4372 -0.1148
  652TMC3    C1 9700   1.081   0.055  10.273  0.3326 -0.2252 -0.3816
  652TMC3    C2 9701   1.051   4.690  10.361  0.4844 -0.0062  0.0228
  652TMC3    C3 9702   0.915   4.683  10.393 -0.2181 -0.1993 -0.6170
  652TMC3    C4 9703   0.990   0.143  10.217 -0.4498 -0.0773  0.1868
  652TMC3    C5 9704   0.858   0.136  10.261 -0.4328  0.2861  0.9729
  652TMC3    C6 9705   0.816   0.039  10.353  0.1626  0.4563  0.4662
  652TMC3     C 9706   1.218   0.097  10.267 -0.2914  0.3275  0.9172
  652TMC3     O 9707   1.242   0.134  10.156 -0.2177  0.4373 -0.3047
  652TMC3     H 9708   1.114   4.603  10.372  2.2150  1.6100  3.0946
  652TMC3    H1 9709   1.024   0.213  10.141  0.5091 -1.0849 -0.3106
  652TMC3    H2 9710   0.715   0.043  10.392  0.2366  1.0435  0.6012
  652TMC3    C7 9711   0.793   0.266  10.265  0.1256 -0.7605 -0.5967
  652TMC3    C8 9712   0.884   4.579  10.492 -0.5903 -0.0837 -0.0091
  652TMC3    O1 9713   0.670   0.272  10.261  0.0658 -0.1998 -0.1345
  652TMC3    O2 9714   0.977   4.524  10.541  0.1094  0.0938 -0.2696
  653MPD2     C 9715   3.788   4.219  17.634  0.3818  0.6124 -0.1664
  653MPD2    C1 9716   3.773   4.279  17.507  0.2311  0.6214  0.2334
  653MPD2    C2 9717   3.756   4.206  17.391  1.1777 -0.5920  0.3943
  653MPD2    C3 9718   3.759   4.068  17.399 -0.2503 -0.2006 -0.1503
  653MPD2    C4 9719   3.780   4.006  17.520  0.3637 -0.0507  1.0273
  653MPD2    C5 9720   3.790   4.080  17.638  0.1779  0.3109  0.0822
  653MPD2     H 9721   3.760   4.252  17.293 -0.0765 -3.6004 -1.0794
  653MPD2    H1 9722   3.764   3.899  17.528  0.2562 -0.1954 -1.0583
  653MPD2    H2 9723   3.806   4.285  17.718 -0.7384 -0.1964  0.7156
  653MPD2    H3 9724   3.802   4.023  17.729  0.9411  0.1912 -0.0928
  653MPD2     N 9725   3.750   4.001  17.280  0.3654  0.1591  0.3992
  653MPD2    H5 9726   3.729   4.056  17.196 -2.4695 -0.6349  0.5825
  653MPD2    N1 9727   3.770   4.420  17.517  0.1338 -0.5984  0.0127
  653MPD2    H7 9728   3.782   4.449  17.614  1.8668 -2.0033  0.2191
  654TMC3    C1 9729   3.719   3.816  17.144 -0.0977 -0.2091  0.4674
  654TMC3    C2 9730   3.604   3.862  17.104  0.5618 -0.0346 -0.1600
  654TMC3    C3 9731   3.539   3.783  17.008 -0.5557  1.4507  0.3203
  654TMC3    C4 9732   3.762   3.688  17.108  0.3597  0.0929 -0.5448
  654TMC3    C5 9733   3.695   3.611  17.026 -0.6177 -0.0597  0.6240
  654TMC3    C6 9734   3.584   3.659  16.958  0.3297 -0.0569  0.0145
  654TMC3     C 9735   3.771   3.867  17.267  0.0742 -0.4892 -0.6004
  654TMC3     O 9736   3.836   3.793  17.345 -0.4230 -0.2125  0.2842
  654TMC3     H 9737   3.563   3.959  17.133  0.1532 -0.5143  0.8609
  654TMC3    H1 9738   3.854   3.650  17.152 -0.4034 -0.0408  0.9225
  654TMC3    H2 9739   3.529   3.597  16.888 -0.7005 -0.6062  1.3107
  654TMC3    C7 9740   3.773   3.513  16.953 -0.2642  0.4215 -0.2150
  654TMC3    C8 9741   3.412   3.829  16.967  0.4650 -0.4389  0.1173
  654TMC3    O1 9742   3.738   3.489  16.841  0.2190  0.5647  0.0346
  654TMC3    O2 9743   3.341   3.877  17.050  0.4745 -1.0943 -0.0786
  655MPD2     C 9744   0.469   4.435  15.768  0.4333 -1.4030 -0.3644
  655MPD2    C1 9745   0.436   4.524  15.667 -1.0158  0.5272  0.1938
  655MPD2    C2 9746   0.466   4.493  15.534 -0.6649 -0.1151 -0.9579
  655MPD2    C3 9747   0.530   4.371  15.503  0.7147  0.1092 -0.0468
  655MPD2    C4 9748   0.543   4.273  15.599 -0.7682 -0.1340 -0.0056
  655MPD2    C5 9749   0.518   4.313  15.730 -0.2979 -0.4187  0.4201
  655MPD2     H 9750   0.451   4.574  15.463  1.7119  1.4457  0.3169
  655MPD2    H1 9751   0.590   4.178  15.577 -0.0561  0.6886 -2.0653
  655MPD2    H2 9752   0.466   4.456  15.875  2.8154  1.9876 -0.9497
  655MPD2    H3 9753   0.538   4.237  15.806  0.6825  2.2732  2.8591
  655MPD2     N 9754   0.569   4.339  15.366  0.3039 -0.3254 -0.1161
  655MPD2    H5 9755   0.590   4.244  15.337 -1.0932  0.9314 -5.2175
  655MPD2    N1 9756   0.389   4.654  15.700 -0.2461 -0.0728 -0.0753
  655MPD2    H7 9757   0.369   4.712  15.619 -0.1032  1.2649  0.8492
  656TMC3    C1 9758   0.282   0.096  15.838 -0.3531 -0.3564  0.2694
  656TMC3    C2 9759   0.213   0.110  15.952 -0.5365  0.2129  0.0266
  656TMC3    C3 9760   0.135   0.220  15.972 -0.1343  0.2371  0.5678
  656TMC3    C4 9761   0.277   0.183  15.735 -0.0518  0.0597  0.6358
  656TMC3    C5 9762   0.174   0.273  15.748  0.2434 -0.4840  0.8663
  656TMC3    C6 9763   0.101   0.300  15.865  0.7828  0.1624 -1.2078
  656TMC3     C 9764   0.365   4.709  15.823 -0.6499  0.0362 -0.1813
  656TMC3     O 9765   0.403   4.669  15.934  0.0895 -0.2166  0.3386
  656TMC3     H 9766   0.226   0.033  16.027 -1.2394  0.9832  0.9406
  656TMC3    H1 9767   0.330   0.167  15.642 -1.3339 -1.5505  0.1804
  656TMC3    H2 9768   0.027   0.377  15.880  0.9246  0.2918 -1.1635
  656TMC3    C7 9769   0.153   0.352  15.627 -0.4164  0.2156  0.3014
  656TMC3    C8 9770   0.035   0.208  16.077  0.3526 -0.4670 -0.4875
  656TMC3    O1 9771   0.232   0.336  15.532 -0.1764 -0.4046  0.3750
  656TMC3    O2 9772   4.719   0.097  16.096 -0.5674  0.1321 -0.1804
  657TMC3    C1 9773   4.231   3.769  14.890  0.3768 -0.3310 -0.2549
  657TMC3    C2 9774   4.296   3.831  14.992 -0.3698 -0.1732  0.3557
  657TMC3    C3 9775   4.252   3.952  15.032  0.1068  0.0041  0.7102
  657TMC3    C4 9776   4.119   3.825  14.827  0.2928  0.4620  0.4539
  657TMC3    C5 9777   4.073   3.944  14.875  0.0331 -0.9768  0.0855
  657TMC3    C6 9778   4.146   4.011  14.973 -0.3487  0.3836  0.1066
  657TMC3     C 9779   4.261   3.631  14.857 -0.2834  0.3446  0.1864
  657TMC3     O 9780   4.177   3.574  14.787  0.0386  0.1927 -0.3387
  657TMC3     H 9781   4.378   3.783  15.043 -1.6175 -0.0185  2.5113
  657TMC3    H1 9782   4.064   3.771  14.751  0.5672  1.5830 -0.5380
  657TMC3    H2 9783   4.111   4.099  15.026 -2.2001  1.0918 -2.2834
  657TMC3    C7 9784   3.946   3.991  14.828  0.3823  0.4710  0.0215
  657TMC3    C8 9785   4.288   4.004  15.167 -0.2636 -0.2822  0.2025
  657TMC3    O1 9786   3.880   3.916  14.754  0.3931 -0.0811  0.7441
  657TMC3    O2 9787   4.257   4.115  15.205 -0.5383 -0.2441 -0.8387
  658MPD2     C 9788   0.805   4.286  14.489  0.1920 -0.2557  0.3967
  658MPD2    C1 9789   0.800   4.388  14.588 -0.5324 -0.2626 -0.5651
  658MPD2    C2 9790   0.827   4.523  14.551 -0.7000  0.1394  0.2944
  658MPD2    C3 9791   0.843   4.553  14.417 -0.1347  0.2861 -0.2576
  658MPD2    C4 9792   0.855   4.452  14.320 -1.0481 -0.0402 -0.4166
  658MPD2    C5 9793   0.833   4.321  14.357 -0.1170  0.4564 -0.1063
  658MPD2     H 9794   0.815   4.611  14.614  0.2480 -0.6202  1.5366
  658MPD2    H1 9795   0.878   4.467  14.216  0.9999  2.6653  0.4214
  658MPD2    H2 9796   0.793   4.181  14.513 -2.3696  0.0606  0.5004
  658MPD2    H3 9797   0.839   4.238  14.288 -0.2369  0.5102 -0.1817
  658MPD2     N 9798   0.842   4.695  14.375 -0.3006 -0.1829  0.2064
  658MPD2    H5 9799   0.827   0.028  14.448  1.6441 -0.8435  1.2279
  658MPD2    N1 9800   0.747   4.359  14.714 -0.0064  0.1622  0.6866
  658MPD2    H7 9801   0.701   4.270  14.725  2.0939 -1.1208 -1.0216
  659TMC3    C1 9802   0.658   4.402  14.920 -0.4221  1.0345 -0.1145
  659TMC3    C2 9803   0.683   4.420  15.049 -0.2987 -0.3770 -0.2054
  659TMC3    C3 9804   0.596   4.360  15.140  0.9045 -0.4562  0.5212
  659TMC3    C4 9805   0.546   4.339  14.880 -0.8177  0.1899 -0.2181
  659TMC3    C5 9806   0.456   4.292  14.967  0.0409  0.0716 -0.3157
  659TMC3    C6 9807   0.484   4.294  15.101  0.7849 -0.3359  0.2091
  659TMC3     C 9808   0.756   4.442  14.821  0.8557  0.1575 -0.2552
  659TMC3     O 9809   0.834   4.536  14.848  0.1459  0.7453  0.1224
  659TMC3     H 9810   0.761   4.484  15.087 -1.7025  1.6093 -0.6717
  659TMC3    H1 9811   0.511   4.358  14.779 -0.4365 -1.5480 -0.6872
  659TMC3    H2 9812   0.405   4.262  15.168  0.8985 -1.4624 -0.1878
  659TMC3    C7 9813   0.324   4.257  14.925  0.0518  0.1541 -0.4818
  659TMC3    C8 9814   0.585   4.428  15.270  0.0918  0.8025  0.4812
  659TMC3    O1 9815   0.230   4.272  15.004 -0.1211  0.1313 -0.7318
  659TMC3    O2 9816   0.616   4.544  15.277  0.1257  0.1480  0.0544
  660MPD2     C 9817   3.191   3.474  12.700 -0.2849  0.4723  0.3022
  660MPD2    C1 9818   3.058   3.467  12.665  0.3074  0.7281  0.2961
  660MPD2    C2 9819   2.988   3.352  12.707  0.0533 -0.3016  0.6759
  660MPD2    C3 9820   3.056   3.255  12.785  0.5133 -0.2290  0.0742
  660MPD2    C4 9821   3.190   3.264  12.804  0.2052 -0.2288 -0.2083
  660MPD2    C5 9822   3.253   3.379  12.769  0.3252  0.4577  0.0772
  660MPD2     H 9823   2.885   3.339  12.675  0.7369 -2.2621 -0.7319
  660MPD2    H1 9824   3.236   3.181  12.856  1.0182  1.0717  1.1402
  660MPD2    H2 9825   3.250   3.562  12.677  1.0506 -0.5848 -0.3537
  660MPD2    H3 9826   3.358   3.383  12.792  0.2290 -0.3549  0.6509
  660MPD2     N 9827   2.994   3.140  12.844  0.0953 -0.3563  0.3390
  660MPD2    H5 9828   3.049   3.093  12.915 -0.3123 -0.3396  0.6598
  660MPD2    N1 9829   3.001   3.571  12.585  0.3720 -0.5135 -0.6623
  660MPD2    H7 9830   3.062   3.639  12.541  0.0877  0.3780  0.3151
  661TMC3    C1 9831   2.827   3.647  12.441  0.3258  0.2497 -0.5540
  661TMC3    C2 9832   2.917   3.666  12.338 -0.0084 -1.6624  0.4783
  661TMC3    C3 9833   2.859   3.703  12.213 -0.5135  0.5537  0.2578
  661TMC3    C4 9834   2.693   3.668  12.422 -0.2224 -0.1055  0.0701
  661TMC3    C5 9835   2.646   3.704  12.299  0.3044  0.1681 -0.2164
  661TMC3    C6 9836   2.726   3.714  12.196 -0.3486 -0.0433  0.1581
  661TMC3     C 9837   2.866   3.584  12.568 -0.2865 -0.0434 -0.7315
  661TMC3     O 9838   2.780   3.531  12.638 -0.0873 -0.0325  0.5860
  661TMC3     H 9839   3.020   3.635  12.350  0.8729  0.7900 -0.8944
  661TMC3    H1 9840   2.619   3.656  12.500 -0.7049 -2.6129 -0.7676
  661TMC3    H2 9841   2.687   3.730  12.096  0.0674 -1.6719 -0.2580
  661TMC3    C7 9842   2.504   3.694  12.276  0.5428  0.1311  0.3647
  661TMC3    C8 9843   2.936   3.734  12.092 -0.1288 -0.0995 -0.2598
  661TMC3    O1 9844   2.437   3.739  12.368 -0.1009 -0.0620  0.2711
  661TMC3    O2 9845   2.887   3.817  12.016  0.0574  0.2567  0.8848
  662MPD2     C 9846   3.711   2.617  17.351  0.2725  0.0279 -0.7859
  662MPD2    C1 9847   3.693   2.508  17.432 -0.2548 -0.2844  0.3813
  662MPD2    C2 9848   3.680   2.530  17.565  0.2368 -0.9894 -0.3854
  662MPD2    C3 9849   3.691   2.646  17.625 -0.3966 -0.6771  0.2320
  662MPD2    C4 9850   3.728   2.748  17.545 -0.4645  0.0798 -0.2308
  662MPD2    C5 9851   3.737   2.742  17.408  0.4583  0.4850  0.3934
  662MPD2     H 9852   3.645   2.452  17.632 -0.5922 -0.7139 -0.4980
  662MPD2    H1 9853   3.721   2.846  17.590 -2.5586 -1.0116  1.7871
  662MPD2    H2 9854   3.702   2.618  17.243  1.3257  1.3796 -0.8583
  662MPD2    H3 9855   3.750   2.831  17.348  0.2393  0.2651  0.0274
  662MPD2     N 9856   3.662   2.676   0.019  0.0601  0.4350  0.1828
  662MPD2    H5 9857   3.670   2.772   0.051  0.8867  0.0954  0.9968
  662MPD2    N1 9858   3.665   2.376  17.396 -0.5266 -0.7622 -0.1034
  662MPD2    H7 9859   3.637   2.316  17.474 -0.2578  1.3500  1.6154
  663TMC3    C1 9860   3.595   2.197  17.257 -0.3810  0.6000  0.4120
  663TMC3    C2 9861   3.529   2.146  17.374 -0.5373  0.4211  0.1494
  663TMC3    C3 9862   3.485   2.020  17.371 -0.2413  0.0117 -0.2896
  663TMC3    C4 9863   3.616   2.120  17.148  0.8766  0.2712  0.1128
  663TMC3    C5 9864   3.571   1.987  17.160  0.3256 -0.3177 -0.0360
  663TMC3    C6 9865   3.527   1.932  17.277 -0.1263  0.4967 -0.2622
  663TMC3     C 9866   3.662   2.325  17.268  0.3801 -0.5922  0.0497
  663TMC3     O 9867   3.701   2.370  17.161  0.1546  0.0104  0.3172
  663TMC3     H 9868   3.478   2.219  17.436 -1.2306 -0.2356  0.3485
  663TMC3    H1 9869   3.642   2.169  17.054 -1.5774  0.2677 -0.5620
  663TMC3    H2 9870   3.483   1.833  17.282  1.2013 -0.2409 -2.9210
  663TMC3    C7 9871   3.591   1.907  17.044 -0.2754 -0.4149 -0.1953
  663TMC3    C8 9872   3.347   1.993  17.427 -0.0716 -0.0767  0.4010
  663TMC3    O1 9873   3.594   1.968  16.935 -0.4461  0.4572 -0.0580
  663TMC3    O2 9874   3.284   1.902  17.374  0.0209  0.0960  0.6645
  664MPD2     C 9875   1.609   1.291  17.705  0.7043  0.8668  0.3191
  664MPD2    C1 9876   1.737   1.281   0.008 -0.1474 -0.0408 -0.4198
  664MPD2    C2 9877   1.754   1.227   0.138 -0.4369 -0.1410  0.1753
  664MPD2    C3 9878   1.651   1.226   0.232 -0.6460 -0.1723 -0.6843
  664MPD2    C4 9879   1.526   1.251   0.185 -0.5660  0.7036  0.3574
  664MPD2    C5 9880   1.506   1.288   0.055 -0.0592  0.0738  0.4281
  664MPD2     H 9881   1.854   1.205   0.175 -0.3168 -0.7686 -0.5128
  664MPD2    H1 9882   1.442   1.243   0.253  0.2163 -0.4562  1.2048
  664MPD2    H2 9883   1.577   1.312  17.604 -1.9453  1.9197  1.3428
  664MPD2    H3 9884   1.409   1.298   0.007  0.5912  2.9098 -0.2727
  664MPD2     N 9885   1.676   1.217   0.372 -0.0555  0.3830  0.0205
  664MPD2    H5 9886   1.771   1.217   0.408 -0.2647  0.5800  0.5667
  664MPD2    N1 9887   1.849   1.309  17.663  0.3563 -0.7969  0.4494
  664MPD2    H7 9888   1.939   1.283  17.702 -0.9884 -2.2282  2.5726
  665TMC3    C1 9889   1.615   1.229   0.610  0.0971  1.1340  0.3961
  665TMC3    C2 9890   1.513   1.253   0.694 -0.0564  0.4634 -0.2592
  665TMC3    C3 9891   1.537   1.290   0.828 -0.2086 -0.7098  0.1057
  665TMC3    C4 9892   1.743   1.248   0.648 -0.1987  0.3365  0.3426
  665TMC3    C5 9893   1.764   1.290   0.777  0.0022  0.5666 -0.8723
  665TMC3    C6 9894   1.662   1.306   0.873 -0.5076  0.3995 -0.6015
  665TMC3     C 9895   1.575   1.202   0.472 -0.0072 -0.3709  0.0346
  665TMC3     O 9896   1.455   1.169   0.460 -0.7172 -0.1679 -0.1426
  665TMC3     H 9897   1.414   1.268   0.653  0.0647  0.8022 -0.4320
  665TMC3    H1 9898   1.819   1.219   0.576 -0.6153 -0.9952  0.4419
  665TMC3    H2 9899   1.694   1.315   0.976 -1.0295  2.5335 -0.6429
  665TMC3    C7 9900   1.897   1.304   0.827  0.7923 -0.1672 -0.4070
  665TMC3    C8 9901   1.416   1.304   0.921  0.6908  0.7810 -0.9053
  665TMC3    O1 9902   1.988   1.244   0.769 -0.6221  0.2459  0.4871
  665TMC3    O2 9903   1.429   1.356   1.030 -0.0561 -0.0449 -0.3714
  666TMC3    C1 9904   1.041   1.859   9.944 -0.4619 -0.2652 -0.6477
  666TMC3    C2 9905   1.112   1.742   9.962  0.4015  0.3181 -0.1161
  666TMC3    C3 9906   1.247   1.746   9.976 -0.1262  0.7550  0.6601
  666TMC3    C4 9907   1.105   1.978   9.940  0.2627 -0.1775  0.3538
  666TMC3    C5 9908   1.241   1.979   9.956 -1.0933 -0.0917 -0.0102
  666TMC3    C6 9909   1.314   1.863   9.972  0.5424  0.8528  0.0190
  666TMC3     C 9910   0.897   1.876   9.959  0.0344  0.3765 -0.1094
  666TMC3     O 9911   0.852   1.982   9.921 -0.6523 -0.3309 -0.5688
  666TMC3     H 9912   1.065   1.646   9.947 -0.2146  0.8291 -1.5233
  666TMC3    H1 9913   1.059   2.074   9.917  0.4610 -0.3267 -0.6817
  666TMC3    H2 9914   1.422   1.870   9.974  0.5429  0.5427  0.9419
  666TMC3    C7 9915   1.304   2.108   9.987 -0.0257  0.7105  0.0727
  666TMC3    C8 9916   1.299   1.628  10.040 -0.2404  0.0195  0.1916
  666TMC3    O1 9917   1.427   2.114   9.988 -1.1555 -0.0705  0.0249
  666TMC3    O2 9918   1.238   1.526  10.038  0.3095  0.1565 -0.5603
  667MPD2     C 9919   2.555   0.717  14.526  0.1798  0.7707 -0.1708
  667MPD2    C1 9920   2.458   0.768  14.608  0.3850 -0.8939 -0.1281
  667MPD2    C2 9921   2.321   0.742  14.577 -0.2221  0.4034  0.7528
  667MPD2    C3 9922   2.293   0.655  14.469 -0.0038 -0.2515 -0.4781
  667MPD2    C4 9923   2.396   0.616  14.394 -0.2726  0.0397 -1.0538
  667MPD2    C5 9924   2.526   0.647  14.411 -0.6468  0.5842 -0.4456
  667MPD2     H 9925   2.246   0.783  14.644 -2.1374 -1.5231 -0.1827
  667MPD2    H1 9926   2.375   0.541  14.318  1.1174 -1.4533  0.0185
  667MPD2    H2 9927   2.660   0.712  14.552  0.0970 -0.9933 -0.1346
  667MPD2    H3 9928   2.600   0.600  14.348  0.5260  0.5209  0.9728
  667MPD2     N 9929   2.163   0.617  14.433 -0.0420  0.5076  0.4821
  667MPD2    H5 9930   2.152   0.555  14.354  0.2776 -0.7981  1.4565
  667MPD2    N1 9931   2.488   0.843  14.720  0.9125  0.5849 -0.2756
  667MPD2    H7 9932   2.415   0.865  14.786  1.1965  2.2454 -0.5132
  668TMC3    C1 9933   2.624   0.951  14.881  0.4838 -0.0450 -1.0039
  668TMC3    C2 9934   2.710   1.056  14.885  0.3177 -0.2027  0.0252
  668TMC3    C3 9935   2.727   1.117  15.003  0.3043  0.1406 -0.7598
  668TMC3    C4 9936   2.560   0.904  14.986  0.5764 -0.6189 -0.2660
  668TMC3    C5 9937   2.586   0.963  15.104 -0.1981 -0.0144  0.6910
  668TMC3    C6 9938   2.676   1.068  15.117  0.0539 -0.1735  0.4679
  668TMC3     C 9939   2.615   0.891  14.743  0.5754 -0.4855  0.5319
  668TMC3     O 9940   2.693   0.934  14.657 -0.1785  0.0228  0.3908
  668TMC3     H 9941   2.750   1.099  14.794  2.2915  0.1188  1.0284
  668TMC3    H1 9942   2.494   0.819  14.975  2.5749 -1.8878 -2.3774
  668TMC3    H2 9943   2.687   1.124  15.209 -1.0500 -0.0307  0.5061
  668TMC3    C7 9944   2.559   0.886  15.228  0.1855  0.0470 -0.5956
  668TMC3    C8 9945   2.840   1.207  15.021 -0.5428 -0.8090  0.4973
  668TMC3    O1 9946   2.479   0.792  15.225 -0.0064  0.6729  0.0852
  668TMC3    O2 9947   2.897   1.195  15.128  0.4351 -0.1156 -0.4644
  669TMC3    C1 9948   0.215   1.144  14.376  0.4725  0.1254  0.4172
  669TMC3    C2 9949   0.084   1.175  14.343 -0.1517  0.4067 -0.8885
  669TMC3    C3 9950   0.055   1.198  14.214  0.3848  0.5312  0.5199
  669TMC3    C4 9951   0.316   1.154  14.279 -0.3155  0.6150 -0.1862
  669TMC3    C5 9952   0.279   1.195  14.156  0.4801 -0.0460 -0.5675
  669TMC3    C6 9953   0.146   1.215  14.116  0.7288 -0.6449 -0.1451
  669TMC3     C 9954   0.238   1.134  14.522  0.1381 -0.1938 -0.2756
  669TMC3     O 9955   0.142   1.148  14.592  0.0574 -0.4753 -0.4169
  669TMC3     H 9956   0.007   1.190  14.418 -0.6029 -0.2114 -1.2277
  669TMC3    H1 9957   0.419   1.125  14.300 -0.6736 -1.0136 -0.6582
  669TMC3    H2 9958   0.122   1.213  14.010  1.2950  1.4205 -0.3098
  669TMC3    C7 9959   0.391   1.240  14.071  0.2232 -0.4042  0.3786
  669TMC3    C8 9960   4.655   1.201  14.170 -0.1176 -0.0178 -0.8028
  669TMC3    O1 9961   0.504   1.193  14.085  0.7232  0.4668  0.3372
  669TMC3    O2 9962   4.577   1.120  14.219  0.3423  0.5769 -0.6270
  670MPD2     C 9963   3.605   3.385  13.875 -0.1940 -0.1975 -0.5286
  670MPD2    C1 9964   3.631   3.254  13.906  0.1196  0.1135  0.0729
  670MPD2    C2 9965   3.580   3.195  14.017  0.2122  0.0263 -0.4539
  670MPD2    C3 9966   3.490   3.253  14.104  0.4681  0.6084  0.4229
  670MPD2    C4 9967   3.463   3.381  14.071  0.0536  0.2492  0.0961
  670MPD2    C5 9968   3.525   3.443  13.970 -0.5285  0.0970  0.2702
  670MPD2     H 9969   3.623   3.097  14.037 -0.1461 -0.0178  0.1081
  670MPD2    H1 9970   3.413   3.451  14.136  2.6584  0.4022  1.9263
  670MPD2    H2 9971   3.658   3.441  13.799  2.5071 -2.0075  0.0326
  670MPD2    H3 9972   3.522   3.551  13.969  1.0427  0.1467  1.2729
  670MPD2     N 9973   3.445   3.185  14.217 -0.5557 -0.3903  0.6401
  670MPD2    H5 9974   3.492   3.098  14.240 -0.4986 -0.6166 -0.3603
  670MPD2    N1 9975   3.727   3.184  13.826  0.4250 -0.8395 -0.0635
  670MPD2    H7 9976   3.778   3.106  13.868 -0.0796 -2.3339 -2.2434
  671TMC3    C1 9977   3.301   3.150  14.407 -0.3776  0.0349 -0.0156
  671TMC3    C2 9978   3.383   3.051  14.445 -0.6079  0.1422  0.2828
  671TMC3    C3 9979   3.336   2.937  14.512  0.1687  0.6209 -0.1355
  671TMC3    C4 9980   3.162   3.130  14.427 -0.1232 -0.4300 -0.0460
  671TMC3    C5 9981   3.123   3.010  14.478 -0.8034  1.0061  0.4806
  671TMC3    C6 9982   3.207   2.917  14.522  0.3192  0.2277 -0.0219
  671TMC3     C 9983   3.339   3.234  14.295  0.3780 -0.1704  0.2338
  671TMC3     O 9984   3.267   3.333  14.280  0.0285 -0.0481 -0.2567
  671TMC3     H 9985   3.486   3.083  14.453  0.0864 -2.5271  2.0600
  671TMC3    H1 9986   3.092   3.202  14.385 -0.0801 -0.4900 -0.2219
  671TMC3    H2 9987   3.165   2.821  14.550 -0.0863  0.6398  0.7817
  671TMC3    C7 9988   3.004   2.958  14.413 -0.5727  0.1885 -0.1374
  671TMC3    C8 9989   3.416   2.819  14.491 -0.2048 -0.4618 -0.6028
  671TMC3    O1 9990   2.940   2.877  14.476  0.3702  0.3923  0.0342
  671TMC3    O2 9991   3.353   2.716  14.465 -0.9626  0.3819  0.2041
  672MPD2     C 9992   4.357   0.017   0.234 -0.3371 -0.9902 -0.2536
  672MPD2    C1 9993   4.284   4.659   0.307  0.0264 -0.5283 -0.2377
  672MPD2    C2 9994   4.218   4.691   0.419  0.5355 -0.1709  0.0130
  672MPD2    C3 9995   4.223   0.073   0.483 -0.4292 -0.2054  0.1667
  672MPD2    C4 9996   4.306   0.167   0.422  0.5176  0.3949 -0.4311
  672MPD2    C5 9997   4.372   0.136   0.303 -0.0155 -0.6154  0.3660
  672MPD2     H 9998   4.146   4.620   0.459 -0.5368  0.6541 -0.4543
  672MPD2    H1 9999   4.320   0.266   0.463 -4.5688  1.3239 -0.8615
  672MPD2    H210000   4.390   4.729   0.133 -0.2192 -2.2592  0.0700
  672MPD2    H310001   4.430   0.215   0.255 -0.4092 -0.6898 -0.2228
  672MPD2     N10002   4.151   0.100   0.603 -0.3966 -1.0763  0.9378
  672MPD2    H510003   4.153   0.190   0.649 -0.5641 -1.1774  1.1430
  672MPD2    N110004   4.256   4.531   0.254  0.0625 -0.3721 -0.6209
  672MPD2    H710005   4.192   4.474   0.309  0.2553  0.8512  0.8826
  673TMC3    C110006   4.277   4.328   0.139  0.0070 -0.4113  0.2989
  673TMC3    C210007   4.367   4.235   0.103 -1.2259 -0.1321  0.1018
  673TMC3    C310008   4.329   4.103   0.091 -0.4285 -0.7263 -1.1098
  673TMC3    C410009   4.148   4.306   0.166  0.3078  0.1323  0.2863
  673TMC3    C510010   4.114   4.173   0.161  0.5423 -0.1795 -0.5394
  673TMC3    C610011   4.204   4.069   0.133  0.3556  0.4088 -0.5012
  673TMC3     C10012   4.326   4.462   0.158  0.0359 -0.0447  0.2972
  673TMC3     O10013   4.416   4.499   0.086  0.3848  0.4456  0.1228
  673TMC3     H10014   4.469   4.267   0.087 -1.6881  0.8969 -0.8233
  673TMC3    H110015   4.083   4.389   0.190 -3.2551 -1.8242 -2.6247
  673TMC3    H210016   4.178   3.964   0.144 -1.1100  0.7509 -0.8174
  673TMC3    C710017   3.993   4.132   0.227 -0.6060 -0.3571  0.6699
  673TMC3    C810018   4.436   4.016   0.132  0.4930 -0.5919 -0.0470
  673TMC3    O110019   4.001   4.025   0.286 -0.1966 -0.1886  0.0496
  673TMC3    O210020   4.513   3.979   0.051 -0.4526  0.3379 -0.1530
  674MPD2     C10021   4.041   3.036  17.537  0.3662 -1.0118 -0.1916
  674MPD2    C110022   4.037   3.038  17.675  0.6878  0.0603  0.4664
  674MPD2    C210023   4.008   3.162  17.729 -0.0614  0.1594  0.7293
  674MPD2    C310024   4.013   3.274  17.656 -0.1216  0.2597 -0.3242
  674MPD2    C410025   4.042   3.268  17.524 -0.6419 -0.0250  0.0140
  674MPD2    C510026   4.055   3.147  17.460  0.3677 -0.3073 -0.5233
  674MPD2     H10027   3.972   3.168   0.092  2.5293  1.2803  1.5826
  674MPD2    H110028   4.053   3.361  17.470 -0.7464 -0.0796 -0.1002
  674MPD2    H210029   4.072   2.943  17.490  0.6777 -2.2217  2.4161
  674MPD2    H310030   4.067   3.147  17.352 -0.2655  1.5707 -0.5956
  674MPD2     N10031   4.012   3.394  17.727  0.0142  0.0168  0.9288
  674MPD2    H510032   4.000   3.390   0.089  0.2668 -0.0996  0.9535
  674MPD2    N110033   4.041   2.908  17.735 -0.0819 -0.5375 -0.0530
  674MPD2    H710034   4.061   2.836  17.667  2.1669 -0.7202  0.8156
  675TMC3    C110035   4.106   2.980   0.217  0.1633  0.4196 -0.0382
  675TMC3    C210036   4.072   2.980   0.352  0.3027  0.5073  0.6623
  675TMC3    C310037   4.149   3.063   0.430  0.3597 -0.4674 -0.4119
  675TMC3    C410038   4.224   3.032   0.173  0.5581  0.2312  0.4971
  675TMC3    C510039   4.299   3.104   0.260  0.1199  0.2167  0.6838
  675TMC3    C610040   4.260   3.128   0.388 -0.1467 -0.5432 -0.3188
  675TMC3     C10041   4.041   2.880   0.129  0.4153  0.2235  0.1562
  675TMC3     O10042   4.006   2.775   0.178  0.3838 -0.3642 -0.2114
  675TMC3     H10043   3.974   2.946   0.385  0.4257  0.4647  0.9835
  675TMC3    H110044   4.251   3.024   0.068 -0.8053 -1.0613  0.2633
  675TMC3    H210045   4.315   3.196   0.452 -0.2128  0.0388 -0.8826
  675TMC3    C710046   4.395   3.198   0.201 -0.3452  0.5046  0.3763
  675TMC3    C810047   4.104   3.090   0.555 -0.5918  0.2279  0.7989
  675TMC3    O110048   4.377   3.225   0.083  0.0927  0.1770  0.4820
  675TMC3    O210049   4.149   3.188   0.608  0.0231  0.1155 -0.0695
  676MPD2     C10050   1.605   2.566  11.103  0.3553 -0.2651  0.2921
  676MPD2    C110051   1.550   2.470  11.189 -0.5890  0.9018  0.0254
  676MPD2    C210052   1.540   2.336  11.157 -0.4585 -0.1899 -0.6818
  676MPD2    C310053   1.584   2.301  11.029  0.2385  0.6107 -0.1166
  676MPD2    C410054   1.650   2.396  10.946  0.4682 -0.2904  0.3193
  676MPD2    C510055   1.652   2.529  10.981  0.4898  0.1253 -0.3171
  676MPD2     H10056   1.482   2.267  11.218 -2.2363  2.2953  0.4746
  676MPD2    H110057   1.692   2.366  10.851  0.3062  0.1570  0.1056
  676MPD2    H210058   1.614   2.670  11.133  1.2350  0.0615 -1.0999
  676MPD2    H310059   1.694   2.607  10.918 -0.3707 -0.2801 -1.3755
  676MPD2     N10060   1.580   2.162  10.987  0.3762 -0.6375  0.0633
  676MPD2    H510061   1.605   2.141  10.891  1.9075 -0.0957  0.3486
  676MPD2    N110062   1.498   2.501  11.319 -0.9764  0.3548  0.2912
  676MPD2    H710063   1.477   2.416  11.370 -1.6585 -0.7011 -1.7464
  677TMC3    C110064   1.442   2.654  11.516 -0.7725  0.2659  0.2486
  677TMC3    C210065   1.389   2.551  11.590  0.0919  0.4308 -0.0130
  677TMC3    C310066   1.329   2.576  11.711 -0.0900  0.0695  0.3001
  677TMC3    C410067   1.436   2.786  11.564 -0.2214 -0.3229 -0.1628
  677TMC3    C510068   1.376   2.799  11.686  0.7041 -0.9965  0.0432
  677TMC3    C610069   1.323   2.701  11.760  0.3431  0.4397 -0.0195
  677TMC3     C10070   1.496   2.635  11.377  0.4257 -0.2236 -0.6480
  677TMC3     O10071   1.516   2.739  11.320  0.6183 -0.1008 -0.1434
  677TMC3     H10072   1.389   2.449  11.552  0.0567 -0.2597  1.8660
  677TMC3    H110073   1.466   2.871  11.503  0.3190 -0.3487  0.0661
  677TMC3    H210074   1.284   2.722  11.859  0.3264 -1.1249  0.3020
  677TMC3    C710075   1.386   2.924  11.759  0.3826 -0.0447  0.3711
  677TMC3    C810076   1.297   2.465  11.795 -1.0463  0.1571  0.2250
  677TMC3    O110077   1.288   2.964  11.826 -0.3119 -0.3584  0.3387
  677TMC3    O210078   1.341   2.472  11.908  0.4537  0.2603 -0.3754
  678MPD2     C10079   3.372   2.405   1.752 -0.0714 -0.3153 -0.7366
  678MPD2    C110080   3.359   2.392   1.619 -0.0445  0.1795  0.1487
  678MPD2    C210081   3.231   2.377   1.564  0.7103  0.0495 -0.2288
  678MPD2    C310082   3.123   2.377   1.647  0.4301  0.0561  0.1052
  678MPD2    C410083   3.146   2.394   1.782 -0.2695  0.0780 -0.5731
  678MPD2    C510084   3.269   2.412   1.830  0.9826 -0.0332  0.4414
  678MPD2     H10085   3.209   2.359   1.459 -0.0967  2.2656 -0.4563
  678MPD2    H110086   3.068   2.378   1.856  0.8073  1.8681  0.9524
  678MPD2    H210087   3.461   2.424   1.811  0.1348 -1.9605 -0.5284
  678MPD2    H310088   3.294   2.424   1.935 -0.9066  1.2678  0.7474
  678MPD2     N10089   3.004   2.319   1.598  0.2739 -0.2238  0.7481
  678MPD2    H510090   3.013   2.281   1.505 -0.1971  0.3232  0.4787
  678MPD2    N110091   3.474   2.399   1.539  0.3352 -0.0955  0.2069
  678MPD2    H710092   3.462   2.410   1.439 -2.6831 -2.9073  0.2579
  679TMC3    C110093   3.895   2.322   1.392 -0.1891  0.3475 -0.5059
  679TMC3    C210094   3.807   2.329   1.494 -0.6565 -0.1424 -0.1651
  679TMC3    C310095   3.693   2.399   1.467 -0.0541 -0.0561  0.2172
  679TMC3    C410096   3.878   2.402   1.281  0.7581 -0.4121 -0.0223
  679TMC3    C510097   3.762   2.476   1.257  0.6341 -0.1081 -0.1354
  679TMC3    C610098   3.665   2.471   1.353  0.2096 -0.0255  0.9026
  679TMC3     C10099   3.957   2.191   1.367  0.4933 -0.3312 -0.7365
  679TMC3     O10100   3.906   2.094   1.415 -0.0950  0.5869  0.6062
  679TMC3     H10101   3.812   2.263   1.579 -1.7077  1.0050  0.7857
  679TMC3    H110102   3.956   2.394   1.206  3.3997  3.0143  2.3460
  679TMC3    H210103   3.567   2.509   1.328  1.5474  3.9924  1.8116
  679TMC3    C710104   3.715   2.508   1.121  0.2815 -0.8071 -0.4904
  679TMC3    C810105   3.603   2.398   1.580  0.5186  1.0592 -0.0264
  679TMC3    O110106   3.598   2.539   1.118  0.5690  0.3678  0.3760
  679TMC3    O210107   3.645   2.369   1.690 -0.0295 -0.5305 -0.0262
  680MPD2     C10108   2.926   0.647  13.047  0.0232 -0.3054  0.5791
  680MPD2    C110109   3.010   0.596  13.145  0.3981 -0.3314 -0.6501
  680MPD2    C210110   3.038   0.672  13.262  0.3918 -0.4799 -0.3159
  680MPD2    C310111   2.991   0.803  13.272 -0.3476  0.0881 -0.8640
  680MPD2    C410112   2.911   0.853  13.177  0.2518  0.2577 -0.1689
  680MPD2    C510113   2.885   0.775  13.065  0.1992 -0.3195 -0.4606
  680MPD2     H10114   3.089   0.626  13.345 -1.7608  2.7658  2.8036
  680MPD2    H110115   2.866   0.951  13.191  1.7248  0.8834  0.2239
  680MPD2    H210116   2.884   0.599  12.959 -0.2357  1.4499 -0.2566
  680MPD2    H310117   2.829   0.824  12.986  0.9009  1.2902  0.0400
  680MPD2     N10118   3.018   0.886  13.384  1.2096  0.0222  0.9003
  680MPD2    H510119   2.970   0.975  13.392 -0.4759 -0.7247 -0.8697
  680MPD2    N110120   3.051   0.461  13.139 -0.2401  0.1758  0.6071
  680MPD2    H710121   3.096   0.441  13.228 -0.2061  1.2182  0.8294
  681TMC3    C110122   3.180   0.279  13.045  0.5979  0.2632  0.9303
  681TMC3    C210123   3.189   0.217  13.161  0.9058  0.3079  0.6237
  681TMC3    C310124   3.308   0.160  13.188 -0.1696  0.1389  0.3716
  681TMC3    C410125   3.291   0.297  12.961 -0.5015 -0.0176 -0.0426
  681TMC3    C510126   3.413   0.253  12.996 -0.5220 -0.7346  0.4831
  681TMC3    C610127   3.418   0.173  13.109  0.2152  0.6542  0.0850
  681TMC3     C10128   3.072   0.382  13.028 -0.0873  0.6285  0.0770
  681TMC3     O10129   3.041   0.392  12.911  0.0594 -0.2482 -0.0924
  681TMC3     H10130   3.101   0.198  13.223 -0.5362  1.9687 -0.9370
  681TMC3    H110131   3.274   0.368  12.881  2.3768 -1.1090 -1.6166
  681TMC3    H210132   3.515   0.137  13.140  0.2277 -1.8570 -2.8355
  681TMC3    C710133   3.543   0.286  12.937  0.3399  0.4465 -0.2328
  681TMC3    C810134   3.322   0.079  13.300  0.0960  0.1526 -0.0860
  681TMC3    O110135   3.647   0.246  12.984 -0.1788 -0.2370  0.1079
  681TMC3    O210136   3.404   4.724  13.290  0.1085 -0.0514  0.2774
  682MPD2     C10137   0.687   3.292  10.677  0.2511  0.9019 -0.1690
  682MPD2    C110138   0.696   3.163  10.725  0.4364  0.4469 -0.0648
  682MPD2    C210139   0.663   3.132  10.859 -0.5288  0.1142 -0.4526
  682MPD2    C310140   0.618   3.239  10.932 -1.2479  0.3918  0.0316
  682MPD2    C410141   0.594   3.367  10.883  0.4615 -0.0281  0.0756
  682MPD2    C510142   0.634   3.392  10.758  0.5137 -0.2464 -0.0224
  682MPD2     H10143   0.688   3.035  10.900  0.7216 -0.2601 -2.0952
  682MPD2    H110144   0.558   3.445  10.949 -0.1235  1.1714 -1.6744
  682MPD2    H210145   0.704   3.315  10.573  1.2173  0.0071 -0.1991
  682MPD2    H310146   0.619   3.492  10.720  0.0043 -1.3686 -2.8159
  682MPD2     N10147   0.605   3.228  11.074  0.1303 -0.5676 -0.3960
  682MPD2    H510148   0.586   3.314  11.125 -1.8939 -0.3654 -1.4740
  682MPD2    N110149   0.728   3.058  10.643  0.5265 -0.0661 -0.2647
  682MPD2    H710150   0.692   2.971  10.681  0.8112 -0.0103  0.1302
  683TMC3    C110151   0.614   3.053  11.495 -0.0183 -0.6013 -0.2687
  683TMC3    C210152   0.497   3.109  11.526 -0.0443  0.2518 -0.1143
  683TMC3    C310153   0.440   3.183  11.428 -0.5862 -0.4899  0.7598
  683TMC3    C410154   0.668   3.052  11.368 -0.0528  0.0022 -0.2925
  683TMC3    C510155   0.621   3.147  11.282  0.3630  0.2860  0.5054
  683TMC3    C610156   0.500   3.207  11.312  0.6400 -0.2028  0.6889
  683TMC3     C10157   0.681   2.989  11.612 -0.2046  0.1940  0.4037
  683TMC3     O10158   0.643   3.019  11.722  0.4304  0.4239  0.2904
  683TMC3     H10159   0.449   3.086  11.620  0.7138  1.4934  0.5796
  683TMC3    H110160   0.761   3.002  11.341 -1.5531 -2.5169 -0.7962
  683TMC3    H210161   0.440   3.268  11.246  1.4416  0.0684  0.2162
  683TMC3    C710162   0.625   3.114  11.144  0.4170 -0.3935  0.3413
  683TMC3    C810163   0.300   3.161  11.417  0.5883  0.6041 -0.9304
  683TMC3    O110164   0.657   2.998  11.121 -0.1703  0.7706 -0.2230
  683TMC3    O210165   0.235   3.260  11.385 -0.1100  0.2413 -0.0282
  684MPD2     C10166   3.366   1.800  16.206  0.4591  0.5188  0.3996
  684MPD2    C110167   3.432   1.820  16.088  0.4676 -0.2155 -0.3786
  684MPD2    C210168   3.479   1.946  16.054 -0.3098  1.5012 -0.5644
  684MPD2    C310169   3.474   2.053  16.141 -0.6111  0.9369 -0.1843
  684MPD2    C410170   3.409   2.027  16.261  0.3768  0.1876 -0.8552
  684MPD2    C510171   3.352   1.913  16.291 -0.6334  0.0351  0.1397
  684MPD2     H10172   3.524   1.960  15.956  1.8279  0.0498  0.2124
  684MPD2    H110173   3.410   2.098  16.344 -0.1436 -0.2765 -0.4497
  684MPD2    H210174   3.341   1.703  16.247  0.1548  0.4179 -0.0234
  684MPD2    H310175   3.292   1.890  16.378 -0.6827 -0.4768 -0.0285
  684MPD2     N10176   3.529   2.172  16.103  0.1691 -0.6068  0.1428
  684MPD2    H510177   3.550   2.235  16.180 -0.0398 -0.9270  0.4634
  684MPD2    N110178   3.460   1.715  16.007  0.1377  0.0162  1.5845
  684MPD2    H710179   3.526   1.738  15.933  0.6169 -1.9062  1.4227
  685TMC3    C110180   3.461   1.498  15.934 -0.2175  0.3805  1.2581
  685TMC3    C210181   3.377   1.410  15.869 -0.1444 -0.2979  0.3155
  685TMC3    C310182   3.435   1.333  15.775 -0.2888 -0.0881 -0.0284
  685TMC3    C410183   3.595   1.507  15.912  0.2208 -0.4127 -0.2460
  685TMC3    C510184   3.649   1.432  15.812  0.3799  0.1535 -0.2175
  685TMC3    C610185   3.566   1.347  15.733  0.1369 -1.0476  0.4005
  685TMC3     C10186   3.404   1.593  16.017  0.0259 -0.6362  0.2669
  685TMC3     O10187   3.316   1.546  16.089  0.1607  0.7679  0.0696
  685TMC3     H10188   3.270   1.424  15.878 -0.3566 -1.7537  0.0499
  685TMC3    H110189   3.661   1.563  15.977 -1.5782  0.9781  0.3738
  685TMC3    H210190   3.600   1.295  15.644  1.8372  2.2633 -0.8798
  685TMC3    C710191   3.789   1.435  15.778  0.2320 -0.4043 -0.0768
  685TMC3    C810192   3.348   1.245  15.692 -0.9058  0.8158  0.9752
  685TMC3    O110193   3.815   1.360  15.687  0.4138 -0.4655 -0.8088
  685TMC3    O210194   3.399   1.217  15.586 -0.0990  0.0233  0.2281
  686MPD2     C10195   0.364   1.537  15.219 -0.4632 -0.2765  0.7899
  686MPD2    C110196   0.369   1.453  15.328  0.2690  0.0094  0.2099
  686MPD2    C210197   0.448   1.339  15.324  0.3789 -0.0774 -0.6075
  686MPD2    C310198   0.504   1.305  15.199  0.7916 -0.2889 -0.5392
  686MPD2    C410199   0.506   1.398  15.101  0.4438  0.9298 -0.1976
  686MPD2    C510200   0.449   1.520  15.114  0.3881  0.4378 -0.1368
  686MPD2     H10201   0.444   1.271  15.408  1.4435 -0.9959 -1.3041
  686MPD2    H110202   0.561   1.380  15.009  0.4533 -0.6176  0.1108
  686MPD2    H210203   0.298   1.622  15.213 -1.2076 -0.8422  1.0346
  686MPD2    H310204   0.448   1.587  15.030  0.2451 -1.4826 -1.6794
  686MPD2     N10205   0.552   1.179  15.174 -0.3874  0.1422  0.8329
  686MPD2    H510206   0.619   1.173  15.098  0.5642  2.6867  1.4895
  686MPD2    N110207   0.283   1.483  15.433 -0.7063  0.8321 -0.1251
  686MPD2    H710208   0.214   1.554  15.410 -3.0558 -1.1208  0.8385
  687TMC3    C110209   0.423   1.048  15.331  0.1163 -0.0362 -0.4712
  687TMC3    C210210   0.299   1.089  15.289 -0.0907  0.3241 -0.2141
  687TMC3    C310211   0.210   1.098  15.392  0.5010  0.2283 -0.4512
  687TMC3    C410212   0.445   1.002  15.460 -0.2468  0.2991  0.8422
  687TMC3    C510213   0.353   1.013  15.551  0.5529 -0.3347  0.0961
  687TMC3    C610214   0.235   1.073  15.523  0.3336  0.8687 -1.0342
  687TMC3     C10215   0.549   1.071  15.254  0.3711 -0.8619 -0.9801
  687TMC3     O10216   0.629   0.980  15.246 -0.3370 -0.5855  0.0080
  687TMC3     H10217   0.277   1.120  15.188  0.0293 -0.5771 -0.5166
  687TMC3    H110218   0.548   0.982  15.484  0.1206  2.7812  1.2995
  687TMC3    H210219   0.158   1.079  15.598  0.0082  1.9167 -1.4564
  687TMC3    C710220   0.399   0.984  15.685  0.3826 -0.4949  0.4476
  687TMC3    C810221   0.075   1.149  15.371  1.1157  0.0870  0.3025
  687TMC3    O110222   0.468   0.886  15.704  0.5468 -0.5287 -0.0427
  687TMC3    O210223   4.723   1.135  15.456 -0.1119  0.6028  0.4994
  688MPD2     C10224   4.040   0.412  17.109  0.4827 -0.0029  1.4512
  688MPD2    C110225   4.090   0.295  17.160 -0.8717 -0.3107  0.1303
  688MPD2    C210226   4.212   0.243  17.124 -0.1841  0.3944  0.7032
  688MPD2    C310227   4.288   0.316  17.037 -0.5930  0.2471  0.0416
  688MPD2    C410228   4.248   0.439  16.990  0.2269  0.3101 -0.4463
  688MPD2    C510229   4.118   0.490  17.023  0.2230 -0.1686  0.3782
  688MPD2     H10230   4.249   0.147  17.159 -2.1687 -1.4894 -2.4352
  688MPD2    H110231   4.308   0.498  16.922  1.1963 -1.1252 -0.8527
  688MPD2    H210232   3.943   0.450  17.137  0.3915  1.0507 -0.3302
  688MPD2    H310233   4.087   0.590  16.997 -0.5074 -0.1181  1.4355
  688MPD2     N10234   4.417   0.270  16.987  0.4324  0.2127 -0.2112
  688MPD2    H510235   4.451   0.315  16.902 -1.6282 -0.9757 -1.6657
  688MPD2    N110236   4.025   0.215  17.259  0.3845  0.1407 -0.5178
  688MPD2    H710237   4.065   0.124  17.279  2.5019  1.0545 -0.6060
  689TMC3    C110238   3.854   0.132  17.395  0.0707 -0.7968 -0.4288
  689TMC3    C210239   3.805   0.178  17.509 -0.0486 -0.2884 -0.3048
  689TMC3    C310240   3.751   0.088  17.596 -0.6167 -0.0298 -0.6714
  689TMC3    C410241   3.855   4.733  17.358 -0.2380 -0.3205  0.9960
  689TMC3    C510242   3.799   4.651  17.453 -0.1202  0.6540  0.6233
  689TMC3    C610243   3.749   4.691  17.566  0.1430  0.4046  0.0395
  689TMC3     C10244   3.897   0.242  17.310 -0.2744  0.0183  0.3997
  689TMC3     O10245   3.829   0.348  17.304  0.0715 -0.3959  0.9487
  689TMC3     H10246   3.796   0.285  17.520  1.5397 -0.1907 -0.0303
  689TMC3    H110247   3.887   4.707  17.258  1.7296 -1.5569  1.9653
  689TMC3    H210248   3.689   4.635  17.637 -0.5780  0.9669 -0.1329
  689TMC3    C710249   3.774   4.513  17.411 -0.8726 -0.1498 -0.2283
  689TMC3    C810250   3.638   0.145  17.671 -0.0675  1.0323 -0.7576
  689TMC3    O110251   3.778   4.491  17.288 -0.3485 -0.3526 -0.5064
  689TMC3    O210252   3.616   0.111   0.047 -0.2272 -0.0915 -0.4072
  690MPD2     C10253   2.111   1.495  15.807 -0.1509  0.2665  0.0845
  690MPD2    C110254   2.089   1.622  15.763 -0.2843 -0.2235 -0.5773
  690MPD2    C210255   2.169   1.677  15.665 -0.1487 -0.0697  0.1309
  690MPD2    C310256   2.278   1.601  15.616 -0.6790  0.3188  0.5208
  690MPD2    C410257   2.298   1.467  15.663 -0.3822 -0.0161  0.3046
  690MPD2    C510258   2.215   1.419  15.759 -0.1484  0.8762  0.5386
  690MPD2     H10259   2.167   1.775  15.619  0.1850 -0.9071 -1.7078
  690MPD2    H110260   2.374   1.398  15.627 -1.5367 -1.3739  0.4637
  690MPD2    H210261   2.053   1.445  15.884  1.8663  0.1312  1.5284
  690MPD2    H310262   2.242   1.326  15.808 -2.2728  0.7457  1.4883
  690MPD2     N10263   2.360   1.658  15.523 -0.0108  0.2059  0.9085
  690MPD2    H510264   2.333   1.742  15.472  1.6799  0.6935  0.7970
  690MPD2    N110265   1.982   1.697  15.814  0.3850 -0.1148  0.4820
  690MPD2    H710266   1.960   1.788  15.773  0.7878  0.5912  1.8273
  691TMC3    C110267   1.787   1.754  15.951 -0.8429  0.5567  0.2489
  691TMC3    C210268   1.722   1.833  15.861 -0.2927  0.7541 -0.0587
  691TMC3    C310269   1.598   1.875  15.885 -0.3984 -0.4078  0.0856
  691TMC3    C410270   1.731   1.731  16.077  0.0283 -0.2775  0.3051
  691TMC3    C510271   1.605   1.775  16.101 -0.4929  0.2275 -0.0491
  691TMC3    C610272   1.531   1.843  16.003 -0.2557  0.6099  0.3109
  691TMC3     C10273   1.901   1.667  15.920 -0.0242 -0.3555  0.3522
  691TMC3     O10274   1.916   1.579  16.003 -0.2081  0.0163 -0.1549
  691TMC3     H10275   1.758   1.849  15.759 -1.6311 -0.3260 -0.6984
  691TMC3    H110276   1.782   1.682  16.159 -1.4709  0.4237  1.6653
  691TMC3    H210277   1.442   1.896  16.032 -1.1774 -0.8640  0.1911
  691TMC3    C710278   1.526   1.694  16.195 -0.3394  0.4396 -0.5187
  691TMC3    C810279   1.515   1.919  15.772 -0.4121  0.2666  0.8429
  691TMC3    O110280   1.584   1.606  16.253 -0.1592  0.3798  0.0664
  691TMC3    O210281   1.547   1.891  15.657 -0.4791  0.3707  0.1544
  692TMC3    C110282   3.406   3.539  15.856 -0.1366 -0.6419 -0.1770
  692TMC3    C210283   3.508   3.557  15.950  0.1455  0.1048  0.4679
  692TMC3    C310284   3.601   3.457  15.956 -0.5359 -0.3203  0.0406
  692TMC3    C410285   3.400   3.437  15.766 -0.5613 -0.1095  0.6149
  692TMC3    C510286   3.501   3.343  15.782 -0.4075 -0.2507  0.8305
  692TMC3    C610287   3.588   3.341  15.883  0.2116 -0.3689 -0.1158
  692TMC3     C10288   3.276   3.583  15.902 -0.3313 -0.2543  0.9401
  692TMC3     O10289   3.187   3.504  15.917 -0.0121  0.1162  0.3909
  692TMC3     H10290   3.488   3.620  16.036  0.6237  1.2695 -0.2798
  692TMC3    H110291   3.313   3.422  15.703  1.4462  0.0575 -2.2023
  692TMC3    H210292   3.671   3.271  15.883 -1.0167 -1.8497 -1.2315
  692TMC3    C710293   3.483   3.230  15.701  0.2633  0.8022 -0.6979
  692TMC3    C810294   3.677   3.446  16.078 -0.1043  0.3906  0.1566
  692TMC3    O110295   3.396   3.239  15.615 -0.1580  0.0415  0.2935
  692TMC3    O210296   3.714   3.554  16.124 -0.1267  0.3703  0.3210
  693MPD2     C10297   2.736   1.782  10.538  0.6273  0.7800  0.2053
  693MPD2    C110298   2.653   1.671  10.547  0.3428  0.1237 -0.8442
  693MPD2    C210299   2.705   1.554  10.600  0.2077  0.5148 -0.3874
  693MPD2    C310300   2.831   1.549  10.655  0.7249 -0.2068  0.2588
  693MPD2    C410301   2.912   1.658  10.634  0.2605 -0.0365  0.4980
  693MPD2    C510302   2.869   1.773  10.573  0.2212  0.3409 -0.0566
  693MPD2     H10303   2.645   1.464  10.603 -0.1967  0.7076 -2.9133
  693MPD2    H110304   3.010   1.647  10.680  0.1952 -1.6795  0.2569
  693MPD2    H210305   2.709   1.862  10.470 -0.3932  0.6732  0.4761
  693MPD2    H310306   2.933   1.859  10.559  1.6844 -0.6068  0.8643
  693MPD2     N10307   2.872   1.438  10.729 -0.4780 -0.3966  0.0543
  693MPD2    H510308   2.966   1.444  10.768  0.3632  0.1425 -2.0495
  693MPD2    N110309   2.529   1.676  10.480  0.0498  0.3635 -0.1395
  693MPD2    H710310   2.490   1.769  10.468 -0.7315 -0.1597 -1.5907
  694TMC3    C110311   2.311   1.588  10.433  1.3566  0.7168 -0.0573
  694TMC3    C210312   2.247   1.486  10.366 -0.1498  0.3097 -0.1038
  694TMC3    C310313   2.123   1.441  10.413  0.5370 -0.1992 -0.0579
  694TMC3    C410314   2.251   1.645  10.541 -0.6333  0.0743 -0.0704
  694TMC3    C510315   2.145   1.586  10.589  0.1955 -0.3388 -0.3710
  694TMC3    C610316   2.079   1.482  10.533  0.0681 -0.1493 -0.0045
  694TMC3     C10317   2.455   1.567  10.447 -0.7761 -0.6502 -0.3771
  694TMC3     O10318   2.492   1.450  10.439 -0.1036  0.0371  0.0486
  694TMC3     H10319   2.296   1.450  10.276  0.5667  0.8557  0.0735
  694TMC3    H110320   2.306   1.706  10.612  1.0885 -0.5092 -0.9125
  694TMC3    H210321   1.992   1.454  10.591 -0.7611  0.2655 -1.0436
  694TMC3    C710322   2.120   1.622  10.730 -0.0846 -0.1762  0.4489
  694TMC3    C810323   2.073   1.309  10.368  1.0643  0.1227 -0.3348
  694TMC3    O110324   2.145   1.736  10.770  0.7300  0.2323 -0.1906
  694TMC3    O210325   1.990   1.254  10.439 -0.3291  0.7251  0.4244
  695MPD2     C10326   3.688   2.907  13.470  0.4026  0.1122  0.8035
  695MPD2    C110327   3.631   2.907  13.590  0.5380  0.1110  0.6837
  695MPD2    C210328   3.505   2.952  13.602 -0.2945 -0.1003 -0.2309
  695MPD2    C310329   3.442   2.999  13.494 -0.6136  1.2638  0.1076
  695MPD2    C410330   3.501   3.007  13.374  0.1299 -0.4672 -0.0632
  695MPD2    C510331   3.627   2.963  13.361  0.3140  0.4668  0.1184
  695MPD2     H10332   3.466   2.948  13.703 -0.9412  1.1910 -0.4169
  695MPD2    H110333   3.451   3.049  13.286  1.4110 -1.6200 -1.3377
  695MPD2    H210334   3.790   2.876  13.450 -0.2324 -3.3077  2.9081
  695MPD2    H310335   3.677   2.970  13.266  2.0657  2.4999  1.2046
  695MPD2     N10336   3.303   3.043  13.509 -0.0511 -0.3930 -0.2461
  695MPD2    H510337   3.264   3.029  13.602  0.0743 -2.7057 -0.5381
  695MPD2    N110338   3.687   2.837  13.702  0.2052 -0.2085 -0.3702
  695MPD2    H710339   3.631   2.812  13.783  1.4182  1.2692  0.9264
  696TMC3    C110340   3.079   3.108  13.456  0.4395  0.5819 -0.4297
  696TMC3    C210341   3.038   3.021  13.554 -0.0871  0.1605  0.3272
  696TMC3    C310342   2.900   3.014  13.583 -0.4403  0.2872 -0.1306
  696TMC3    C410343   2.992   3.173  13.377 -0.2175  0.2053  0.2311
  696TMC3    C510344   2.853   3.163  13.408 -0.1081  0.0481 -0.0379
  696TMC3    C610345   2.807   3.077  13.507 -0.2010 -0.2958  0.1503
  696TMC3     C10346   3.218   3.094  13.411 -0.1018 -0.6734 -0.6172
  696TMC3     O10347   3.236   3.105  13.286 -0.0987  0.1533 -0.2386
  696TMC3     H10348   3.103   2.966  13.621 -1.4209 -1.0243  0.6336
  696TMC3    H110349   3.022   3.231  13.290  0.0048 -0.2704 -0.0084
  696TMC3    H210350   2.704   3.072  13.541 -0.9375  0.8842 -1.8721
  696TMC3    C710351   2.779   3.291  13.397  0.1156 -0.6127  0.6269
  696TMC3    C810352   2.849   2.931  13.694 -0.0303  0.2520  0.4364
  696TMC3    O110353   2.770   3.352  13.293  0.0906  0.3990 -0.8310
  696TMC3    O210354   2.739   2.880  13.680 -0.7851 -0.2143  0.2383
  697MPD2     C10355   2.332   4.562  15.212  0.5283 -0.7241 -0.0333
  697MPD2    C110356   2.467   4.532  15.206  0.7562  0.5144  0.0742
  697MPD2    C210357   2.552   4.615  15.136 -0.5094 -0.2689  0.5281
  697MPD2    C310358   2.489   4.720  15.069 -0.5738 -0.1933 -0.5585
  697MPD2    C410359   2.357   0.010  15.078 -0.5716 -0.1417  0.4148
  697MPD2    C510360   2.274   4.672  15.157  0.1852 -0.2131  0.2111
  697MPD2     H10361   2.657   4.593  15.125 -0.1778  1.3559  0.4813
  697MPD2    H110362   2.318   0.107  15.049  1.3193  0.4919 -0.0193
  697MPD2    H210363   2.266   4.492  15.263 -0.3475  1.1771  1.4616
  697MPD2    H310364   2.175   4.711  15.180  0.4059  0.4623  0.0173
  697MPD2     N10365   2.574   0.071  14.995  0.1431  0.1415 -0.3496
  697MPD2    H510366   2.672   0.046  14.991  0.8377  2.8782 -0.5171
  697MPD2    N110367   2.524   4.421  15.260  0.5862  0.2956 -0.4783
  697MPD2    H710368   2.617   4.400  15.227  0.3085  2.1598 -2.4307
  698TMC3    C110369   2.656   0.235  14.856 -0.3508  0.8802  0.1984
  698TMC3    C210370   2.752   0.268  14.949 -0.2156  0.5020 -0.0936
  698TMC3    C310371   2.872   0.319  14.900 -0.2161 -0.9115  0.1610
  698TMC3    C410372   2.671   0.254  14.724 -0.2246  0.1252  0.0069
  698TMC3    C510373   2.794   0.301  14.684 -0.5125  0.6038 -0.5907
  698TMC3    C610374   2.898   0.335  14.765  0.1452  0.5017 -0.9294
  698TMC3     C10375   2.533   0.177  14.911 -0.3183 -0.2832  0.2094
  698TMC3     O10376   2.430   0.203  14.850  0.2316  0.1350  0.6493
  698TMC3     H10377   2.728   0.266  15.054 -0.2116  1.7276 -0.0686
  698TMC3    H110378   2.588   0.235  14.657  0.4475 -1.2750 -0.4389
  698TMC3    H210379   2.995   0.353  14.721  0.9140  2.2219  1.4682
  698TMC3    C710380   2.803   0.311  14.545  0.5012  0.5283 -0.6052
  698TMC3    C810381   2.971   0.368  14.994  0.1644 -0.0132  0.1218
  698TMC3    O110382   2.731   0.244  14.469 -0.1963  0.7236 -0.3107
  698TMC3    O210383   2.956   0.328  15.112 -0.2897 -0.7315 -0.1011
  699TMC3    C110384   2.792   3.080  12.968  0.6901  0.5184  0.2006
  699TMC3    C210385   2.842   2.975  13.045  0.0456 -0.3705  0.8058
  699TMC3    C310386   2.771   2.936  13.155  0.1175 -0.2108 -0.1923
  699TMC3    C410387   2.666   3.138  13.003 -0.1304  0.4508  0.1998
  699TMC3    C510388   2.600   3.088  13.113  0.9029  0.4596 -0.4297
  699TMC3    C610389   2.653   2.988  13.190  0.0445 -0.6244  0.1541
  699TMC3     C10390   2.854   3.137  12.845  0.2892 -0.5061 -0.0095
  699TMC3     O10391   2.776   3.173  12.758  0.1555  0.3149 -0.2030
  699TMC3     H10392   2.930   2.915  13.023  2.3168  2.4535  2.2145
  699TMC3    H110393   2.626   3.226  12.953 -0.1086 -1.3543 -2.9239
  699TMC3    H210394   2.610   2.964  13.286 -0.1664 -0.9347 -0.0206
  699TMC3    C710395   2.496   3.171  13.173  0.3259  0.2211  0.0100
  699TMC3    C810396   2.811   2.823  13.237  0.3442  0.0218  0.5098
  699TMC3    O110397   2.466   3.136  13.283  0.3568 -0.5748 -0.4214
  699TMC3    O210398   2.728   2.761  13.298 -0.0517 -0.3330  0.3240
  700TMC3    C110399   1.987   0.259  17.355 -0.1850  0.3517  0.0852
  700TMC3    C210400   2.050   0.136  17.327  0.1348 -0.3368 -0.2277
  700TMC3    C310401   2.172   0.112  17.388 -0.6958  1.2818 -0.4281
  700TMC3    C410402   2.047   0.343  17.452  0.2206 -0.8325  0.4411
  700TMC3    C510403   2.162   0.296  17.517 -1.0901  0.0361 -0.6152
  700TMC3    C610404   2.234   0.188  17.482 -0.5427 -0.6757 -0.0120
  700TMC3     C10405   1.932   0.329  17.237  0.1212 -0.3298 -0.1021
  700TMC3     O10406   1.859   0.270  17.159 -0.2677  0.3763  0.4467
  700TMC3     H10407   2.015   0.081  17.241 -1.6831  1.8495 -0.8693
  700TMC3    H110408   2.004   0.440  17.475 -1.6224 -1.7115  0.6590
  700TMC3    H210409   2.317   0.156  17.545 -0.1953 -0.9811 -0.6229
  700TMC3    C710410   2.208   0.376  17.627 -0.2754 -0.1218  0.2696
  700TMC3    C810411   2.244   4.729  17.335  0.4205  0.4896  0.0630
  700TMC3    O110412   2.330   0.379  17.652 -0.4913  0.2706  0.7043
  700TMC3    O210413   2.198   4.663  17.246  0.2208 -0.3044  0.4492
  701TMC3    C110414   2.358   3.617  15.632  0.1282  0.2481 -0.0297
  701TMC3    C210415   2.400   3.612  15.500 -0.2965  0.4689 -0.5218
  701TMC3    C310416   2.418   3.734  15.437 -0.7088 -0.0270 -0.7748
  701TMC3    C410417   2.309   3.734  15.685  0.3571 -0.2290 -0.0615
  701TMC3    C510418   2.308   3.845  15.612 -0.6238 -0.1768  1.1905
  701TMC3    C610419   2.368   3.852  15.490 -0.1961 -0.5282  0.2859
  701TMC3     C10420   2.352   3.489  15.694  0.0630  0.2232  1.1047
  701TMC3     O10421   2.401   3.392  15.635 -0.6458 -0.0846  0.2692
  701TMC3     H10422   2.432   3.519  15.453  1.2487  1.0268 -0.5775
  701TMC3    H110423   2.275   3.732  15.788 -0.5430 -0.3171 -0.3604
  701TMC3    H210424   2.399   3.947  15.448  1.6200 -1.1770  0.1690
  701TMC3    C710425   2.241   3.963  15.661 -0.3154 -0.5684 -0.5914
  701TMC3    C810426   2.470   3.741  15.297  0.3118  0.2153 -0.0176
  701TMC3    O110427   2.204   4.037  15.570  0.6219 -0.1086  0.1694
  701TMC3    O210428   2.509   3.852  15.264  0.2490  0.5028 -0.1023
  702MPD2     C10429   1.805   1.786  10.439 -0.0915 -0.2469  0.5093
  702MPD2    C110430   1.765   1.911  10.489 -0.2531  0.2499  0.3729
  702MPD2    C210431   1.819   2.026  10.439 -0.9517  0.2335  0.2731
  702MPD2    C310432   1.896   2.029  10.323  0.1373 -0.0435  0.5332
  702MPD2    C410433   1.933   1.902  10.273  0.7212 -0.2485  0.1377
  702MPD2    C510434   1.898   1.787  10.339 -0.6562 -0.5916  0.2081
  702MPD2     H10435   1.793   2.121  10.484  4.4061  1.3142  1.1181
  702MPD2    H110436   1.999   1.896  10.187  2.5915  1.7870  1.4397
  702MPD2    H210437   1.778   1.692  10.486 -0.1290 -0.7249 -0.4553
  702MPD2    H310438   1.921   1.685  10.311  1.4479  0.4913 -1.9959
  702MPD2     N10439   1.937   2.156  10.260 -0.6777  0.7144 -0.3980
  702MPD2    H510440   2.008   2.151  10.188  1.7688  2.6261  1.8602
  702MPD2    N110441   1.673   1.915  10.598  0.0424  0.0696 -0.0745
  702MPD2    H710442   1.652   2.007  10.636 -0.9814 -0.0694 -0.2884
  703TMC3    C110443   1.944   2.384  10.236 -0.8995 -0.8128 -0.1274
  703TMC3    C210444   1.869   2.496  10.210  0.7588  0.5978 -0.4258
  703TMC3    C310445   1.935   2.604  10.151  0.0473 -0.9951 -0.1972
  703TMC3    C410446   2.082   2.386  10.223 -0.5225  0.0564 -0.1867
  703TMC3    C510447   2.139   2.492  10.159 -0.2536 -0.2132 -0.2921
  703TMC3    C610448   2.062   2.597  10.112 -0.4109 -0.4430  0.0580
  703TMC3     C10449   1.873   2.273  10.285 -0.9877 -0.8429  0.1587
  703TMC3     O10450   1.755   2.287  10.316  0.1908  0.3581  0.2700
  703TMC3     H10451   1.767   2.494  10.246 -0.2953  0.8461 -3.4009
  703TMC3    H110452   2.146   2.307  10.260 -1.6062 -0.6995  0.0703
  703TMC3    H210453   2.115   2.685  10.078 -3.4615  1.7014  0.9341
  703TMC3    C710454   2.284   2.507  10.176  0.3301 -0.7406 -0.0471
  703TMC3    C810455   1.912   2.723  10.223  0.6811  0.0828 -0.0483
  703TMC3    O110456   2.343   2.568  10.087 -0.7438  0.3543  0.1962
  703TMC3    O210457   1.971   2.822  10.186 -0.3753 -0.2800  0.1330
  704TMC3    C110458   3.326   4.646  12.261 -0.0051  0.2969  0.1750
  704TMC3    C210459   3.460   4.666  12.230  0.0860 -0.6412 -0.1373
  704TMC3    C310460   3.547   4.575  12.290  0.0942 -0.0712 -0.5363
  704TMC3    C410461   3.287   4.546  12.346  0.1900  0.5320  0.2386
  704TMC3    C510462   3.377   4.467  12.410  0.3149  0.2157 -0.0411
  704TMC3    C610463   3.509   4.484  12.392 -0.0419 -0.2968 -0.5783
  704TMC3     C10464   3.227   4.715  12.189  0.3887 -0.2064 -0.7861
  704TMC3     O10465   3.112   4.682  12.220  0.3119  0.5228 -0.0392
  704TMC3     H10466   3.496   0.002  12.156 -4.1745  0.3921 -1.2315
  704TMC3    H110467   3.182   4.523  12.359  0.0825  0.1271 -1.4170
  704TMC3    H210468   3.577   4.438  12.463  1.3087  1.0811 -0.9781
  704TMC3    C710469   3.322   4.338  12.459 -0.5559 -0.5882  0.8371
  704TMC3    C810470   3.690   4.589  12.264  0.0975  0.8101  0.2068
  704TMC3    O110471   3.201   4.332  12.474  0.1409  0.2188  0.9738
  704TMC3    O210472   3.722   4.625  12.152 -0.8380 -0.0350 -0.9546
  705MPD2     C10473   4.157   2.878  16.561  0.1100 -0.3032 -0.6667
  705MPD2    C110474   4.032   2.829  16.516 -0.6254 -0.1888  0.3039
  705MPD2    C210475   3.935   2.798  16.608 -0.4996  0.1273 -0.0201
  705MPD2    C310476   3.946   2.823  16.742  0.0525  0.0101  0.0695
  705MPD2    C410477   4.065   2.881  16.784  0.0817 -0.0637  0.1989
  705MPD2    C510478   4.171   2.887  16.698 -0.5328 -0.0625 -0.4396
  705MPD2     H10479   3.847   2.753  16.563  0.3074  1.7365 -3.2273
  705MPD2    H110480   4.076   2.891  16.892  1.1050  1.9421 -0.0915
  705MPD2    H210481   4.239   2.894  16.492 -0.6605  2.1983 -1.0007
  705MPD2    H310482   4.263   2.922  16.744 -1.6501  0.6917  1.2331
  705MPD2     N10483   3.839   2.807  16.839  0.0227  0.3993  0.0564
  705MPD2    H510484   3.858   2.839  16.934 -1.3503  2.1109 -0.2295
  705MPD2    N110485   4.010   2.804  16.377  0.3664  0.6989 -0.2492
  705MPD2    H710486   3.913   2.778  16.357  0.0549  1.5469  0.1830
  706TMC3    C110487   4.108   2.808  15.925 -0.2721 -0.8542  0.2640
  706TMC3    C210488   4.015   2.902  15.897  0.2199 -0.0956  0.4892
  706TMC3    C310489   3.944   2.957  16.000  0.2933 -0.6494  0.1709
  706TMC3    C410490   4.133   2.768  16.049  0.5634  0.0283 -0.1856
  706TMC3    C510491   4.059   2.820  16.148  0.0971 -0.6159 -0.5247
  706TMC3    C610492   3.964   2.919  16.128 -0.3971  0.0587  0.4867
  706TMC3     C10493   4.212   2.774  15.829 -0.1960  0.4026  0.5682
  706TMC3     O10494   4.317   2.747  15.879 -0.1041 -0.7900 -0.1521
  706TMC3     H10495   4.009   2.957  15.803  0.3802 -1.1853 -0.1568
  706TMC3    H110496   4.207   2.692  16.072 -0.8812 -1.0300  0.9340
  706TMC3    H210497   3.903   2.974  16.199  0.9291 -1.5034  2.8477
  706TMC3    C710498   4.105   2.803  16.282  0.3291  0.3187 -0.8272
  706TMC3    C810499   3.916   3.100  15.978  0.2737 -0.0212 -0.0412
  706TMC3    O110500   4.227   2.816  16.291  0.1401  0.4356 -0.1222
  706TMC3    O210501   3.849   3.144  15.885  0.2616 -0.3324 -0.4910
  707TMC3    C110502   4.679   1.936   1.635  0.9440  0.1408 -1.0155
  707TMC3    C210503   0.007   1.827   1.581 -0.6577 -0.0208 -0.4224
  707TMC3    C310504   4.680   1.705   1.592 -0.4478 -0.1499  0.4038
  707TMC3    C410505   4.560   1.930   1.700  0.3757 -0.1780  0.5737
  707TMC3    C510506   4.504   1.802   1.717 -0.6955  0.3544  0.0098
  707TMC3    C610507   4.570   1.691   1.673  0.2846 -0.1745 -0.0105
  707TMC3     C10508   0.032   2.052   1.651  0.3154 -1.2395 -0.6546
  707TMC3     O10509   0.120   2.050   1.563 -0.0850  0.2048 -0.3501
  707TMC3     H10510   0.101   1.830   1.528 -0.2299  0.6672  0.3666
  707TMC3    H110511   4.500   2.018   1.719 -0.9710 -1.1405  0.7350
  707TMC3    H210512   4.522   1.594   1.682 -0.9661  0.5974  1.7115
  707TMC3    C710513   4.382   1.787   1.799 -1.2322 -0.3203 -0.1843
  707TMC3    C810514   0.022   1.580   1.579  0.3229  0.2382 -0.2601
  707TMC3    O110515   4.345   1.894   1.848  0.3084 -0.4827  0.2422
  707TMC3    O210516   4.692   1.480   1.562  0.3920  0.9412  0.1297
  708MPD2     C10517   2.091   1.056  13.393  0.4283 -0.3877  1.4658
  708MPD2    C110518   2.028   0.957  13.461  0.5107 -0.6247 -0.1823
  708MPD2    C210519   2.099   0.872  13.537 -0.0145 -0.4810  0.2753
  708MPD2    C310520   2.235   0.889  13.554  0.1371 -0.0047 -1.2444
  708MPD2    C410521   2.300   0.993  13.499 -0.1901 -0.0134  0.3418
  708MPD2    C510522   2.227   1.083  13.421 -0.1577  0.0335  0.1623
  708MPD2     H10523   2.053   0.795  13.598 -0.5825  0.9896  1.7118
  708MPD2    H110524   2.405   1.015  13.508 -0.0608  0.4274 -2.1665
  708MPD2    H210525   2.034   1.136  13.347 -2.1710 -1.8326  2.1630
  708MPD2    H310526   2.280   1.172  13.388 -0.1610  0.5449  1.5156
  708MPD2     N10527   2.320   0.802  13.627  0.0814  0.4050  0.4154
  708MPD2    H510528   2.410   0.829  13.666  0.1001  0.5620  0.2626
  708MPD2    N110529   1.889   0.927  13.444  1.0225  0.1953  0.5552
  708MPD2    H710530   1.860   0.835  13.477  1.5538 -0.2977 -0.3605
  709TMC3    C110531   1.653   0.950  13.418 -0.0507 -0.2144 -0.1152
  709TMC3    C210532   1.567   1.031  13.483  0.0560 -0.2893 -0.2864
  709TMC3    C310533   1.486   0.977  13.576  0.7910  0.1137 -0.4430
  709TMC3    C410534   1.657   0.811  13.445  0.7704  0.5373 -0.4293
  709TMC3    C510535   1.574   0.757  13.534 -0.5474  0.2782  1.1415
  709TMC3    C610536   1.500   0.844  13.607  0.5757 -0.1682 -0.2446
  709TMC3     C10537   1.790   1.013  13.404 -0.6293  0.1401 -0.2487
  709TMC3     O10538   1.791   1.135  13.384 -0.3324 -0.1726 -0.5226
  709TMC3     H10539   1.583   1.136  13.461  1.8075 -0.9284 -2.0973
  709TMC3    H110540   1.724   0.749  13.386 -2.2308 -1.2400 -1.9707
  709TMC3    H210541   1.415   0.809  13.664  1.9784 -2.6803  0.3192
  709TMC3    C710542   1.644   0.662  13.613  0.3870  0.6299  0.0938
  709TMC3    C810543   1.365   1.056  13.624  0.1882  0.3726 -0.2466
  709TMC3    O110544   1.741   0.605  13.571  0.5242  0.0070 -0.2414
  709TMC3    O210545   1.293   1.000  13.706 -0.2902 -0.4534 -0.1643
  710TMC3    C110546   3.034   2.392   0.566  0.0296  0.4869  0.0092
  710TMC3    C210547   3.064   2.330   0.452 -0.1381 -0.1779 -0.5647
  710TMC3    C310548   3.195   2.292   0.426  0.4333 -0.2739  0.3252
  710TMC3    C410549   3.135   2.422   0.655  0.0853 -0.3442 -0.4639
  710TMC3    C510550   3.270   2.391   0.620 -0.3254  0.1068 -0.6379
  710TMC3    C610551   3.303   2.321   0.511 -0.1455  0.2479  0.7162
  710TMC3     C10552   2.902   2.451   0.573 -0.2642 -0.0754  0.7262
  710TMC3     O10553   2.833   2.457   0.476  0.4687 -0.4969  0.3419
  710TMC3     H10554   2.980   2.292   0.395 -0.2888 -1.7336  0.6926
  710TMC3    H110555   3.131   2.477   0.748  0.6670  1.4030 -1.4698
  710TMC3    H210556   3.404   2.289   0.489 -0.3534 -0.7609  1.2378
  710TMC3    C710557   3.375   2.423   0.713  0.0315 -0.3481 -0.3869
  710TMC3    C810558   3.226   2.227   0.304  0.2534 -0.2245 -0.1078
  710TMC3    O110559   3.357   2.431   0.835 -0.0385 -0.0066 -0.0113
  710TMC3    O210560   3.344   2.219   0.274  0.2087 -0.3220 -0.0295
  711TMC3    C110561   2.872   3.563  15.011 -0.1628 -0.0747 -0.2755
  711TMC3    C210562   2.878   3.656  15.104  0.3604 -0.4479 -0.7682
  711TMC3    C310563   2.995   3.715  15.128 -0.7383 -0.9501  0.1482
  711TMC3    C410564   2.976   3.519  14.942  0.3463  0.4555  0.7277
  711TMC3    C510565   3.101   3.559  14.986  0.4097  0.1680 -0.8699
  711TMC3    C610566   3.115   3.661  15.074 -0.6138 -0.6268  0.2321
  711TMC3     C10567   2.775   3.464  15.017 -0.5381  0.1176 -0.0395
  711TMC3     O10568   2.754   3.391  14.920 -0.3903  0.6558 -0.0116
  711TMC3     H10569   2.790   3.694  15.155  1.4232  0.0110  0.7309
  711TMC3    H110570   2.965   3.443  14.866  2.5141  1.8948 -1.0591
  711TMC3    H210571   3.213   3.685  15.113 -0.3206 -2.5976  0.7026
  711TMC3    C710572   3.167   3.444  15.043  0.2413 -0.6993 -0.6940
  711TMC3    C810573   3.007   3.773  15.264  0.0150  0.2078  0.3602
  711TMC3    O110574   3.278   3.464  15.088  0.3756  0.3068 -0.1422
  711TMC3    O210575   2.905   3.788  15.327  0.1042  0.4947  0.7587
  712MPD2     C10576   4.499   4.523  14.312 -0.7068 -0.0826  0.3836
  712MPD2    C110577   4.425   4.505  14.201 -0.1373 -0.2092  0.0326
  712MPD2    C210578   4.392   4.616  14.135 -0.8974  0.0410 -0.2320
  712MPD2    C310579   4.428   0.010  14.174 -0.0694 -0.9330 -0.4493
  712MPD2    C410580   4.522   0.028  14.272 -0.3047  0.4062  0.3639
  712MPD2    C510581   4.555   4.646  14.341  0.2649 -0.6742 -0.0895
  712MPD2     H10582   4.328   4.621  14.047  1.4628  3.3996 -1.7712
  712MPD2    H110583   4.564   0.126  14.290  1.0859  0.0271 -0.7952
  712MPD2    H210584   4.535   4.438  14.369  2.2302  0.8374 -0.0971
  712MPD2    H310585   4.624   4.653  14.425 -0.2154  1.9947  0.0816
  712MPD2     N10586   4.391   0.135  14.109 -0.0769  0.2096  0.4613
  712MPD2    H510587   4.438   0.222  14.131  2.8718 -0.8871 -1.6344
  712MPD2    N110588   4.382   4.379  14.164 -0.0353  0.6850  0.4300
  712MPD2    H710589   4.405   4.311  14.236  2.9963 -0.1093 -1.2774
  713TMC3    C110590   4.248   0.268  13.972 -0.0840  0.3442  0.1956
  713TMC3    C210591   4.357   0.346  13.950  0.0649 -0.8905  0.1919
  713TMC3    C310592   4.322   0.460  13.876 -0.4390 -0.0490 -0.1305
  713TMC3    C410593   4.122   0.289  13.923 -0.1515 -0.5105 -0.3434
  713TMC3    C510594   4.092   0.407  13.867  0.3230 -0.2520  0.2367
  713TMC3    C610595   4.194   0.496  13.837 -0.2586  0.2245 -0.1286
  713TMC3     C10596   4.271   0.139  14.036 -0.4650 -0.0515 -0.0758
  713TMC3     O10597   4.182   0.059  14.021 -0.3220 -0.0668  0.3171
  713TMC3     H10598   4.459   0.314  13.969  0.4962 -0.1257 -0.8378
  713TMC3    H110599   4.042   0.220  13.949 -0.8047 -0.4464 -2.2031
  713TMC3    H210600   4.179   0.580  13.771  0.3238  1.1455  0.9079
  713TMC3    C710601   3.972   0.431  13.785 -0.2453 -0.8746  0.6403
  713TMC3    C810602   4.425   0.529  13.789 -0.0277 -0.1188 -0.0535
  713TMC3    O110603   3.993   0.507  13.688  0.1711  0.0937 -0.4933
  713TMC3    O210604   4.385   0.607  13.705  0.0353 -0.3527  0.1961
  714MPD2     C10605   1.987   3.219   1.279 -0.0663  0.0242 -0.0031
  714MPD2    C110606   1.967   3.086   1.304 -0.5400 -0.3798 -0.0145
  714MPD2    C210607   1.861   3.022   1.234 -0.7423 -0.5456  0.2595
  714MPD2    C310608   1.772   3.097   1.159 -0.0087  0.4684 -0.0460
  714MPD2    C410609   1.795   3.228   1.143  0.4495 -0.1036  0.1702
  714MPD2    C510610   1.900   3.289   1.205 -0.1534 -0.2555 -0.0834
  714MPD2     H10611   1.845   2.915   1.248  0.7660 -0.9813 -1.3195
  714MPD2    H110612   1.727   3.297   1.096  1.2231  0.2473 -0.4285
  714MPD2    H210613   2.069   3.264   1.334 -0.0175  0.3881 -0.3764
  714MPD2    H310614   1.913   3.395   1.182 -0.4534 -0.1120  0.4080
  714MPD2     N10615   1.652   3.029   1.116  0.1798 -0.0926  0.0447
  714MPD2    H510616   1.633   2.933   1.142  0.0208  0.0135  0.3154
  714MPD2    N110617   2.046   3.002   1.375 -0.3599  0.5053  0.0790
  714MPD2    H710618   2.049   2.902   1.358 -1.0746  0.6005 -0.6646
  715TMC3    C110619   2.208   2.918   1.509  0.4214  0.2635  0.3011
  715TMC3    C210620   2.245   2.820   1.425  0.4557 -0.4665  0.4234
  715TMC3    C310621   2.337   2.730   1.482  0.3867  0.5569  0.4572
  715TMC3    C410622   2.245   2.926   1.640  0.3793 -0.4659  0.3320
  715TMC3    C510623   2.335   2.827   1.686  0.6280 -0.0512 -0.7399
  715TMC3    C610624   2.387   2.731   1.611  0.2203 -0.3400 -0.2437
  715TMC3     C10625   2.143   3.041   1.463 -0.3119  0.3247 -0.7729
  715TMC3     O10626   2.171   3.150   1.516  0.4877  0.1871  0.6306
  715TMC3     H10627   2.220   2.818   1.320  1.6453 -1.4549  0.1605
  715TMC3    H110628   2.226   3.016   1.698  0.0055  0.9369 -1.9581
  715TMC3    H210629   2.430   2.647   1.663  1.8085  0.6235  0.0090
  715TMC3    C710630   2.413   2.847   1.811  0.0949  0.2198 -0.2920
  715TMC3    C810631   2.376   2.628   1.387  0.3549  0.2192 -0.9303
  715TMC3    O110632   2.525   2.796   1.818  0.0414 -0.2037  0.8764
  715TMC3    O210633   2.306   2.607   1.287  0.2115 -0.0314  0.4691
  716MPD2     C10634   1.774   1.944   9.862 -0.1456 -0.0154  0.5886
  716MPD2    C110635   1.659   1.907   9.795  0.2610  0.0493  0.4470
  716MPD2    C210636   1.640   1.775   9.763  1.2255 -0.4248 -0.3898
  716MPD2    C310637   1.728   1.676   9.805  0.6787 -0.5571 -0.1311
  716MPD2    C410638   1.840   1.713   9.874 -1.1400 -0.4231  0.2732
  716MPD2    C510639   1.864   1.845   9.896  0.3371 -0.2495  0.2455
  716MPD2     H10640   1.551   1.743   9.710 -0.1170  1.4472  0.7574
  716MPD2    H110641   1.922   1.649   9.904 -0.7370 -0.0785 -0.0827
  716MPD2    H210642   1.803   2.046   9.885 -0.8970 -0.1461  2.1596
  716MPD2    H310643   1.957   1.875   9.944 -0.5581 -0.4950  2.1554
  716MPD2     N10644   1.700   1.543   9.766  0.1660  0.4917  0.3684
  716MPD2    H510645   1.615   1.527   9.712  0.7718  0.0563 -0.4410
  716MPD2    N110646   1.580   2.019   9.746  0.3049 -0.0393  0.6374
  716MPD2    H710647   1.608   2.112   9.777 -0.1489  0.3208 -0.0316
  717TMC3    C110648   1.734   1.312   9.727 -0.0468  0.1328  0.1326
  717TMC3    C210649   1.648   1.322   9.624 -0.3541  0.3934 -0.3729
  717TMC3    C310650   1.655   1.239   9.514 -0.8621  0.6789 -0.0526
  717TMC3    C410651   1.835   1.222   9.726  0.1982  0.9110 -0.5657
  717TMC3    C510652   1.849   1.145   9.610  0.4469 -0.8097 -0.1252
  717TMC3    C610653   1.756   1.145   9.512 -0.8434 -0.0556 -0.0830
  717TMC3     C10654   1.781   1.434   9.791 -0.4825  0.4621 -0.0913
  717TMC3     O10655   1.886   1.432   9.852 -0.1435  0.0202  0.5583
  717TMC3     H10656   1.576   1.401   9.611 -2.7141 -1.4010  1.8488
  717TMC3    H110657   1.891   1.189   9.813 -1.4297 -2.0203 -0.6338
  717TMC3    H210658   1.755   1.070   9.434  1.8200 -0.1916  0.0148
  717TMC3    C710659   1.979   1.094   9.569 -0.3646  0.0551  0.3111
  717TMC3    C810660   1.522   1.226   9.445 -0.3842  0.3266 -0.0768
  717TMC3    O110661   1.984   0.991   9.502  0.0860  0.6966  0.4543
  717TMC3    O210662   1.447   1.324   9.453  0.1638 -0.0480  0.2482
  718MPD2     C10663   0.176   1.149  12.282 -0.3777  0.6650  0.1644
  718MPD2    C110664   0.199   1.061  12.175 -0.0703  0.3311  0.4277
  718MPD2    C210665   0.161   0.930  12.191 -0.4438 -0.2652 -0.5601
  718MPD2    C310666   0.115   0.885  12.313  0.0931  0.2014  0.0825
  718MPD2    C410667   0.089   0.970  12.417  1.1216  0.4749 -0.0858
  718MPD2    C510668   0.125   1.101  12.401  0.4932  0.5549  0.4534
  718MPD2     H10669   0.179   0.855  12.115  0.5624  2.3423 -2.8679
  718MPD2    H110670   0.048   0.939  12.512 -1.4955  0.0430 -1.3472
  718MPD2    H210671   0.216   1.249  12.274 -2.5462  1.5916  0.8193
  718MPD2    H310672   0.099   1.165  12.485  1.3548  0.1946  0.9956
  718MPD2     N10673   0.101   0.743  12.314  0.7173  0.1516  0.4731
  718MPD2    H510674   0.097   0.701  12.222 -0.8175  0.7109  0.2729
  718MPD2    N110675   0.269   1.101  12.058 -0.0142  1.2271  0.3117
  718MPD2    H710676   0.321   1.188  12.070  0.6440  1.0757 -1.4394
  719TMC3    C110677   0.383   1.072  11.843 -0.3814 -0.1553 -0.1804
  719TMC3    C210678   0.378   0.977  11.738 -0.2476  0.3820  0.7458
  719TMC3    C310679   0.488   0.926  11.676  0.3293  0.4856  0.5954
  719TMC3    C410680   0.511   1.095  11.891  0.0451 -0.0631  0.1885
  719TMC3    C510681   0.619   1.048  11.820  0.0713 -0.2817  0.4804
  719TMC3    C610682   0.612   0.973  11.706  0.2256  0.5552  0.0031
  719TMC3     C10683   0.281   1.033  11.943 -0.0435 -0.2064 -0.6842
  719TMC3     O10684   0.214   0.939  11.909  0.1389 -0.1668 -0.5912
  719TMC3     H10685   0.281   0.944  11.702  0.0922  0.1101  0.0739
  719TMC3    H110686   0.524   1.131  11.993  0.0021  1.6043 -0.3953
  719TMC3    H210687   0.697   0.915  11.673  1.2602  2.5698 -0.8742
  719TMC3    C710688   0.748   1.094  11.857  0.5903 -0.2332  0.0781
  719TMC3    C810689   0.470   0.785  11.652  0.1475  0.0066  0.0588
  719TMC3    O110690   0.818   1.100  11.758 -0.3709 -0.0819  0.0349
  719TMC3    O210691   0.551   0.733  11.579  0.5692  0.1418  0.5061
  720MPD2     C10692   4.027   2.039  13.974  0.7144  0.4883 -0.3942
  720MPD2    C110693   4.100   2.093  13.867  1.1038  0.6991  0.5348
  720MPD2    C210694   4.234   2.050  13.838  0.7088  0.0689 -0.2909
  720MPD2    C310695   4.297   1.966  13.926  0.3423  0.4006  0.6204
  720MPD2    C410696   4.217   1.909  14.032  0.2522 -0.2840 -0.6719
  720MPD2    C510697   4.092   1.951  14.060 -0.6198  0.7362  0.6592
  720MPD2     H10698   4.295   2.094  13.761  0.8854 -0.0372 -0.2105
  720MPD2    H110699   4.256   1.840  14.107 -3.2382 -0.8079  0.6810
  720MPD2    H210700   3.924   2.061  14.000  1.2578  1.4855  0.9405
  720MPD2    H310701   4.037   1.899  14.137  0.4675 -0.8194  0.3921
  720MPD2     N10702   4.440   1.943  13.917 -0.4261  0.7764 -0.2215
  720MPD2    H510703   4.485   1.986  13.837  0.4751 -0.7047 -0.5212
  720MPD2    N110704   4.050   2.192  13.781 -1.2727 -0.0220 -0.4949
  720MPD2    H710705   4.089   2.204  13.688 -0.2977  0.8110  0.0247
  721TMC3    C110706   4.660   1.895  13.993 -0.1788 -0.4929  0.2340
  721TMC3    C210707   0.005   1.876  14.109 -0.2505  0.3515 -0.2097
  721TMC3    C310708   0.135   1.865  14.105 -0.3096 -0.2922  0.7601
  721TMC3    C410709   4.716   1.901  13.873 -0.0772 -0.8379  0.1970
  721TMC3    C510710   0.116   1.874  13.864 -0.0199 -0.5316 -0.1251
  721TMC3    C610711   0.193   1.857  13.982  0.0173 -0.1046 -0.7547
  721TMC3     C10712   4.517   1.881  14.011  0.1603  0.2759 -0.3983
  721TMC3     O10713   4.482   1.831  14.118  0.7525 -0.2564 -0.0382
  721TMC3     H10714   4.700   1.867  14.209  3.0028 -0.5076  1.0226
  721TMC3    H110715   4.652   1.907  13.786 -1.7000 -0.6413  1.3878
  721TMC3    H210716   0.301   1.866  13.978  0.0913 -1.1282 -1.0247
  721TMC3    C710717   0.194   1.935  13.756  0.0189  0.0553  0.3573
  721TMC3    C810718   0.222   1.845  14.219 -0.7612  0.0976 -0.3943
  721TMC3    O110719   0.270   2.030  13.778  0.0238 -0.1290  0.1238
  721TMC3    O210720   0.293   1.748  14.199  0.1361  0.1015 -0.3361
  722MPD2     C10721   3.163   0.671  12.694  0.0939  0.0576 -0.4949
  722MPD2    C110722   3.136   0.757  12.803  0.2067  0.2160  0.2971
  722MPD2    C210723   3.031   0.849  12.781 -0.5790  0.1597  0.2935
  722MPD2    C310724   2.957   0.853  12.664 -0.1473 -0.2605  0.8392
  722MPD2    C410725   2.991   0.765  12.559 -0.3226  0.9047 -0.1397
  722MPD2    C510726   3.091   0.678  12.579 -0.3802  0.1751 -0.5949
  722MPD2     H10727   3.015   0.923  12.858 -2.1921  2.8811 -2.6929
  722MPD2    H110728   2.941   0.762  12.464 -2.2639 -0.1984  0.9216
  722MPD2    H210729   3.247   0.601  12.695 -1.0220 -1.2731  0.2919
  722MPD2    H310730   3.128   0.616  12.498  1.0412  0.8435 -0.4488
  722MPD2     N10731   2.855   0.951  12.659  0.3604  0.0540  1.1777
  722MPD2    H510732   2.862   1.025  12.729  2.0747  1.0180 -0.0056
  722MPD2    N110733   3.223   0.761  12.915  0.8672  0.2486  0.1362
  722MPD2    H710734   3.194   0.833  12.980  1.2993  1.3148 -0.8441
  723TMC3    C110735   2.642   1.047  12.579 -0.6065  0.7925 -0.1508
  723TMC3    C210736   2.521   1.020  12.515 -1.0613 -0.6971  0.8683
  723TMC3    C310737   2.421   1.114  12.526 -0.4792  0.5709 -0.9588
  723TMC3    C410738   2.657   1.161  12.663  0.1992 -0.5315  0.1050
  723TMC3    C510739   2.550   1.232  12.688 -0.3864  0.1834  0.1734
  723TMC3    C610740   2.444   1.221  12.606 -0.0593 -0.4324 -0.6679
  723TMC3     C10741   2.749   0.956  12.569  0.3005 -0.3170 -0.2821
  723TMC3     O10742   2.726   0.885  12.475 -0.0365  0.2614 -0.2557
  723TMC3     H10743   2.523   0.942  12.440  0.2318 -1.5223  1.7520
  723TMC3    H110744   2.743   1.179  12.726  0.9175 -1.3531 -0.6325
  723TMC3    H210745   2.365   1.294  12.618 -0.2240 -0.7365  0.0999
  723TMC3    C710746   2.574   1.365  12.729  0.1755  0.3815  0.0077
  723TMC3    C810747   2.300   1.117  12.448  1.0396  0.2195  0.1814
  723TMC3    O110748   2.682   1.414  12.709  0.4737 -0.1401 -0.1352
  723TMC3    O210749   2.256   1.226  12.415  0.0913  0.2214  0.0260
  724TMC3    C110750   3.598   3.720  10.352  0.2041  0.1508  0.0162
  724TMC3    C210751   3.549   3.808  10.264  0.8959  0.1501 -0.1022
  724TMC3    C310752   3.608   3.926  10.239  0.4330 -0.7450  0.2101
  724TMC3    C410753   3.711   3.750  10.414  0.5138  0.6265 -0.4267
  724TMC3    C510754   3.774   3.867  10.378 -0.1054  0.3323 -0.4170
  724TMC3    C610755   3.735   3.950  10.283 -0.5715 -0.0379  1.1784
  724TMC3     C10756   3.542   3.587  10.379 -0.2739  0.1809 -0.8352
  724TMC3     O10757   3.592   3.513  10.459  0.3189  0.4765 -0.3142
  724TMC3     H10758   3.449   3.799  10.223  0.9580 -1.9671  0.2029
  724TMC3    H110759   3.763   3.672  10.469 -2.4972 -1.0996  0.0247
  724TMC3    H210760   3.789   4.034  10.242 -0.3048 -1.8678 -2.2092
  724TMC3    C710761   3.864   3.917  10.479 -0.2981 -0.7568 -0.1032
  724TMC3    C810762   3.556   4.002  10.131 -0.1631  0.1642 -0.1479
  724TMC3    O110763   3.845   3.865  10.587 -0.1478  0.2237  0.0442
  724TMC3    O210764   3.476   3.955  10.052  0.1848 -0.2755  0.7510
  725TMC3    C110765   0.157   2.449  13.021 -0.5974  0.7784 -0.1497
  725TMC3    C210766   0.037   2.504  12.975 -0.2471 -0.0653 -0.0676
  725TMC3    C310767   4.662   2.418  12.968  0.1197  0.4873 -0.0688
  725TMC3    C410768   0.175   2.317  13.048 -0.4840 -0.1311 -0.1155
  725TMC3    C510769   0.069   2.235  13.029 -0.3231  0.3332  0.9762
  725TMC3    C610770   4.678   2.287  12.992  0.1716 -0.5098 -0.7581
  725TMC3     C10771   0.266   2.546  13.028 -0.4796  0.3011 -0.6404
  725TMC3     O10772   0.233   2.666  13.011  0.3428 -0.3309  0.2929
  725TMC3     H10773   0.027   2.610  12.954 -0.9652  0.2209  1.7045
  725TMC3    H110774   0.262   2.268  13.089 -1.5391 -1.0699  1.0391
  725TMC3    H210775   4.600   2.221  12.956 -0.5418  0.4805 -1.0166
  725TMC3    C710776   0.088   2.101  12.987  0.4775 -0.8197  0.8999
  725TMC3    C810777   4.552   2.442  12.875 -0.4487  0.0210 -0.2734
  725TMC3    O110778   0.021   2.017  13.041 -0.3046  0.1390 -0.1277
  725TMC3    O210779   4.448   2.377  12.883  0.3336  0.3018  0.2390
  726MPD2     C10780   2.997   4.182  10.332 -0.0891 -0.1164  0.2125
  726MPD2    C110781   2.886   4.207  10.254  0.2089  0.4855  0.0488
  726MPD2    C210782   2.762   4.149  10.289  0.0687  0.8192  0.0217
  726MPD2    C310783   2.751   4.080  10.414  0.0371  0.1923 -0.5545
  726MPD2    C410784   2.863   4.056  10.486  0.2265  0.3913  0.0760
  726MPD2    C510785   2.980   4.113  10.444  0.6738 -0.2881 -0.5886
  726MPD2     H10786   2.674   4.158  10.227 -1.2042 -2.1833  1.3864
  726MPD2    H110787   2.874   3.999  10.577  1.3616  0.4224 -0.0400
  726MPD2    H210788   3.097   4.210  10.302 -1.2658  1.2610 -2.4533
  726MPD2    H310789   3.060   4.100  10.515 -1.1439 -2.4847  1.0753
  726MPD2     N10790   2.631   4.026  10.466 -0.3702  0.0650 -0.7333
  726MPD2    H510791   2.638   3.952  10.535  2.9539  2.8123  1.9072
  726MPD2    N110792   2.874   4.314  10.156  0.5332 -0.9805 -0.0761
  726MPD2    H710793   2.784   4.330  10.111  0.6063 -0.4517 -0.0364
  727TMC3    C110794   2.941   4.499  10.033  0.0028 -1.1391 -1.3472
  727TMC3    C210795   2.955   4.617  10.101  0.1168  0.0168 -0.0142
  727TMC3    C310796   2.878   4.729  10.062 -0.0545  0.5551 -0.1131
  727TMC3    C410797   2.849   4.488   9.934  0.7818 -0.1751  0.1932
  727TMC3    C510798   2.782   4.601   9.892  0.2015  0.3574  0.4468
  727TMC3    C610799   2.793   4.721   9.954 -0.4004 -0.3948  0.6355
  727TMC3     C10800   2.982   4.388  10.106  0.6049  0.7019 -0.4825
  727TMC3     O10801   3.096   4.411  10.158 -0.2326  0.2986  0.1117
  727TMC3     H10802   3.014   4.626  10.191  0.3071 -2.0752  0.0529
  727TMC3    H110803   2.826   4.393   9.886 -2.5820  1.2489 -1.0019
  727TMC3    H210804   2.726   0.064   9.919  1.0651  0.2033 -0.8649
  727TMC3    C710805   2.666   4.592   9.803 -1.1586  0.4853  0.5761
  727TMC3    C810806   2.908   0.112  10.134 -0.3194  0.1545  0.7694
  727TMC3    O110807   2.583   4.679   9.798  0.2282 -0.0315 -0.3230
  727TMC3    O210808   2.943   0.096  10.249  0.4939 -0.5947 -0.2556
  728TMC3    C110809   2.550   1.696  15.387  0.4556 -0.2290  0.3187
  728TMC3    C210810   2.684   1.741  15.404  0.1709  0.0014 -0.2233
  728TMC3    C310811   2.729   1.825  15.308 -0.2847 -0.2306 -0.1341
  728TMC3    C410812   2.473   1.730  15.277  0.5411 -0.3908  0.1867
  728TMC3    C510813   2.530   1.809  15.179  0.2447 -0.4549 -0.0152
  728TMC3    C610814   2.650   1.864  15.199  0.3858 -0.5604  0.1240
  728TMC3     C10815   2.486   1.614  15.489 -0.3413 -0.3789  0.1178
  728TMC3     O10816   2.556   1.540  15.550  0.1146 -1.0258  0.5132
  728TMC3     H10817   2.748   1.707  15.484 -0.2225 -1.0001 -0.3294
  728TMC3    H110818   2.368   1.704  15.273  0.1690  1.0768  0.7231
  728TMC3    H210819   2.690   1.931  15.123  0.5166  0.2329  0.8867
  728TMC3    C710820   2.434   1.854  15.085  0.5384 -0.3562 -0.2011
  728TMC3    C810821   2.853   1.899  15.335  0.3529  0.0173  0.1562
  728TMC3    O110822   2.358   1.765  15.049  0.6584  0.0820 -0.0643
  728TMC3    O210823   2.923   1.857  15.429 -0.3450  0.0728  1.1685
  729MPD2     C10824   4.110   3.727  16.341  0.2748  0.2615  0.1297
  729MPD2    C110825   4.233   3.684  16.392 -0.2056  0.2904 -0.1637
  729MPD2    C210826   4.242   3.645  16.525 -0.3619 -0.8659  0.2796
  729MPD2    C310827   4.124   3.624  16.601 -0.2426 -0.2166 -0.0506
  729MPD2    C410828   4.003   3.641  16.538 -0.3488  0.1669 -0.3160
  729MPD2    C510829   3.997   3.693  16.413 -0.8769  1.1485  0.5899
  729MPD2     H10830   4.341   3.654  16.567 -0.1199  1.7474 -0.8385
  729MPD2    H110831   3.916   3.602  16.588  0.5436 -1.6592 -0.2006
  729MPD2    H210832   4.093   3.776  16.246  0.9254  0.5786  0.1742
  729MPD2    H310833   3.906   3.715  16.360 -0.4393 -0.2628 -0.7623
  729MPD2     N10834   4.128   3.598  16.735 -0.5139 -0.4090 -0.4947
  729MPD2    H510835   4.038   3.592  16.782  0.6560  0.8688  1.8853
  729MPD2    N110836   4.344   3.710  16.318  0.0232 -0.8244 -0.1846
  729MPD2    H710837   4.335   3.768  16.235  1.3787  0.6291  0.6780
  730TMC3    C110838   4.213   3.590  16.957 -0.2254  0.0619 -0.7796
  730TMC3    C210839   4.314   3.545  17.035 -0.1771  0.7424 -0.0008
  730TMC3    C310840   4.326   3.603  17.159 -0.2891  0.0688  0.9544
  730TMC3    C410841   4.129   3.695  16.996 -0.4928 -0.1146  0.1698
  730TMC3    C510842   4.142   3.752  17.118 -0.3989  0.4699  0.1880
  730TMC3    C610843   4.239   3.704  17.202  0.3090 -0.6284  0.3040
  730TMC3     C10844   4.235   3.563  16.813 -0.0827 -0.1838 -0.1575
  730TMC3     O10845   4.340   3.514  16.781 -0.3821 -0.8126 -0.4190
  730TMC3     H10846   4.387   3.473  16.999 -0.1792 -0.4345  2.3644
  730TMC3    H110847   4.062   3.740  16.924  1.7935  1.1936 -1.1647
  730TMC3    H210848   4.231   3.731  17.307 -0.3262  1.1059 -0.1878
  730TMC3    C710849   4.122   3.899  17.113  0.1743 -0.2184  0.7252
  730TMC3    C810850   4.466   3.644  17.182 -0.7058 -0.5863  0.6412
  730TMC3    O110851   4.114   3.940  16.997 -0.6416  0.4397  0.1191
  730TMC3    O210852   4.546   3.612  17.095  0.4631 -0.1786 -0.7883
  731MPD2     C10853   4.011   2.745  12.241 -0.0266  0.1572  0.1855
  731MPD2    C110854   4.099   2.642  12.224 -0.1369 -0.6242 -0.2816
  731MPD2    C210855   4.069   2.519  12.277 -0.5194 -0.1595  0.5549
  731MPD2    C310856   3.961   2.503  12.358  0.0007  0.0871  0.1005
  731MPD2    C410857   3.863   2.603  12.370  0.4981  0.1351  0.6374
  731MPD2    C510858   3.889   2.726  12.312 -0.0791  0.4619 -0.8513
  731MPD2     H10859   4.146   2.443  12.277 -0.6189 -0.2366 -2.6160
  731MPD2    H110860   3.778   2.587  12.435 -1.1787  2.0624 -1.0895
  731MPD2    H210861   4.030   2.848  12.216  0.4012 -0.0651 -0.3986
  731MPD2    H310862   3.827   2.813  12.328  0.2378  1.1410 -3.2275
  731MPD2     N10863   3.955   2.381  12.430  0.0730 -0.1459  0.2932
  731MPD2    H510864   4.033   2.317  12.422  0.0641 -0.1151 -0.0223
  731MPD2    N110865   4.225   2.668  12.165  0.2093 -0.5915 -0.5180
  731MPD2    H710866   4.253   2.760  12.133  2.1123 -0.3490  1.7943
  732TMC3    C110867   4.411   2.625  12.029 -0.4571 -0.2154 -0.0495
  732TMC3    C210868   4.426   2.543  11.920  0.5446  0.0230 -0.5079
  732TMC3    C310869   4.554   2.492  11.884 -0.5184  0.2655 -0.1681
  732TMC3    C410870   4.518   2.651  12.106  0.0343  0.1779  0.4821
  732TMC3    C510871   4.639   2.619  12.055  0.3157 -0.6496  0.3379
  732TMC3    C610872   4.662   2.535  11.955  0.0590  0.7032 -0.2245
  732TMC3     C10873   4.303   2.568  12.108  0.6903  0.5696  0.5630
  732TMC3     O10874   4.279   2.449  12.091 -0.1750  0.3934  0.2771
  732TMC3     H10875   4.338   2.533  11.857 -0.2245  0.4195  0.5131
  732TMC3    H110876   4.507   2.730  12.180 -2.4790 -0.1495  0.4677
  732TMC3    H210877   0.025   2.496  11.933  0.1722  2.0553 -2.0963
  732TMC3    C710878   0.011   2.653  12.137  0.2598  0.3199 -0.6901
  732TMC3    C810879   4.547   2.355  11.862 -0.5718  0.6643  0.3048
  732TMC3    O110880   0.013   2.762  12.188  0.0920  0.3731  0.4913
  732TMC3    O210881   4.651   2.301  11.825 -0.4233  0.2428 -0.2696
  733TMC3    C110882   0.002   0.299  12.438  0.0733  0.0311  0.0360
  733TMC3    C210883   4.727   0.437  12.462  0.9142 -0.5507 -0.2546
  733TMC3    C310884   0.064   0.522  12.384  0.0934  0.1747 -0.6383
  733TMC3    C410885   0.077   0.260  12.332  0.5060  0.1888 -0.7863
  733TMC3    C510886   0.142   0.349  12.260  0.4328  0.8459  0.2163
  733TMC3    C610887   0.131   0.481  12.275 -0.5778  0.1129  0.3847
  733TMC3     C10888   4.730   0.225  12.559 -0.3137 -0.7291  0.3175
  733TMC3     O10889   0.032   0.287  12.662  0.1918  0.5872 -0.6252
  733TMC3     H10890   4.674   0.470  12.551  0.2559  0.1354 -0.9141
  733TMC3    H110891   0.088   0.155  12.307 -0.2667 -0.0683 -0.0611
  733TMC3    H210892   0.207   0.544  12.229 -0.4315 -0.6809 -0.4452
  733TMC3    C710893   0.206   0.317  12.134  0.9536 -0.3815 -0.2659
  733TMC3    C810894   0.055   0.666  12.417 -0.5694 -0.6651 -0.2405
  733TMC3    O110895   0.218   0.198  12.112  0.1240  0.4573 -0.6892
  733TMC3    O210896   0.026   0.704  12.529 -0.1857 -0.8902  0.1673
  734MPD2     C10897   2.808   2.663  11.938 -0.0742  0.1222 -0.6804
  734MPD2    C110898   2.715   2.756  11.901 -0.6296  0.7664 -0.6049
  734MPD2    C210899   2.725   2.814  11.776 -0.6887 -0.0691 -0.0530
  734MPD2    C310900   2.835   2.788  11.690  0.1375 -0.2005 -0.2668
  734MPD2    C410901   2.929   2.694  11.730 -0.8620 -0.2837 -0.2994
  734MPD2    C510902   2.911   2.630  11.855  0.0425 -0.3999  0.4437
  734MPD2     H10903   2.651   2.882  11.736 -0.1758  1.6659  1.9044
  734MPD2    H110904   3.005   2.654  11.664 -0.2014 -1.4612  1.1726
  734MPD2    H210905   2.800   2.601  12.027  3.0205 -0.7719 -1.0366
  734MPD2    H310906   2.973   2.551  11.897 -1.7199 -2.0333 -0.0488
  734MPD2     N10907   2.835   2.862  11.572 -0.1186 -0.6915 -0.6211
  734MPD2    H510908   2.749   2.914  11.557 -0.6804 -1.8362 -1.4144
  734MPD2    N110909   2.598   2.765  11.983  0.2190 -0.5795 -0.4664
  734MPD2    H710910   2.599   2.697  12.058  0.2025 -0.2955 -0.2116
  735TMC3    C110911   2.361   2.823  12.040 -0.8034 -0.0428 -0.5302
  735TMC3    C210912   2.251   2.807  11.961  0.7147  0.0303  0.6239
  735TMC3    C310913   2.182   2.690  11.973 -1.4218 -0.5446  0.3225
  735TMC3    C410914   2.380   2.734  12.141 -0.1317  0.0263  0.2298
  735TMC3    C510915   2.320   2.611  12.148  0.0022  0.0540  0.1551
  735TMC3    C610916   2.215   2.584  12.063 -0.1552 -0.7845 -0.1142
  735TMC3     C10917   2.478   2.831  11.947  0.2283  0.4675  0.4452
  735TMC3     O10918   2.449   2.876  11.839  0.2823 -0.3966  0.1329
  735TMC3     H10919   2.221   2.890  11.898 -1.8238 -0.1369  1.6485
  735TMC3    H110920   2.456   2.752  12.216 -0.8984 -2.3846  1.6113
  735TMC3    H210921   2.188   2.480  12.048  1.1142 -1.2429  0.7634
  735TMC3    C710922   2.412   2.509  12.171  0.2644 -0.3143 -0.4498
  735TMC3    C810923   2.140   2.644  11.846 -0.7090 -0.1064  0.4369
  735TMC3    O110924   2.520   2.527  12.114  0.2943  0.7415  0.0717
  735TMC3    O210925   2.056   2.553  11.838 -0.0407  0.0406  0.1348
  736MPD2     C10926   2.405   2.181  12.345 -0.8384 -0.0256 -0.3340
  736MPD2    C110927   2.455   2.290  12.281  0.1395  0.1318  0.0303
  736MPD2    C210928   2.595   2.283  12.244  0.3064  0.0966 -0.6990
  736MPD2    C310929   2.675   2.177  12.277  0.2926 -0.3248 -0.3278
  736MPD2    C410930   2.622   2.082  12.356 -0.9889  0.5048  0.5599
  736MPD2    C510931   2.489   2.077  12.386  0.1400 -0.0841 -0.2091
  736MPD2     H10932   2.633   2.363  12.182  2.2260 -0.4603 -0.2340
  736MPD2    H110933   2.677   1.999  12.399  0.8269  1.6996  0.5364
  736MPD2    H210934   2.301   2.183  12.374 -0.0095 -4.8640  2.8618
  736MPD2    H310935   2.450   2.003  12.455  0.9235  0.1372  0.4604
  736MPD2     N10936   2.812   2.170  12.236 -0.0236 -0.3146  0.3620
  736MPD2    H510937   2.856   2.080  12.250 -0.1846 -0.5956 -0.9093
  736MPD2    N110938   2.380   2.406  12.250  0.4754 -0.6890  0.1072
  736MPD2    H710939   2.285   2.398  12.287  0.8374 -0.1109  1.1362
  737TMC3    C110940   3.028   2.215  12.146  0.1177  0.2810  0.5170
  737TMC3    C210941   3.112   2.318  12.129 -0.0590  0.3047 -0.4779
  737TMC3    C310942   3.246   2.291  12.135  0.6156  0.3502 -0.4272
  737TMC3    C410943   3.073   2.082  12.153  0.0343  0.8083  0.7634
  737TMC3    C510944   3.209   2.059  12.148 -0.1097 -0.0476 -0.3748
  737TMC3    C610945   3.291   2.163  12.141  0.1343 -0.2874  0.0984
  737TMC3     C10946   2.890   2.264  12.173 -0.3440 -0.3954 -0.1790
  737TMC3     O10947   2.867   2.382  12.164 -0.3765 -0.6350  0.3181
  737TMC3     H10948   3.071   2.419  12.125 -1.4796 -0.3956 -3.1350
  737TMC3    H110949   3.000   2.002  12.143  0.5532  0.4032  0.1817
  737TMC3    H210950   3.397   2.143  12.133  0.0965  1.0648 -3.5085
  737TMC3    C710951   3.239   1.933  12.070  0.5945  0.2366 -0.1613
  737TMC3    C810952   3.324   2.382  12.052 -0.2715 -0.3456  0.1144
  737TMC3    O110953   3.181   1.828  12.091  0.8062  0.0190  0.2935
  737TMC3    O210954   3.440   2.391  12.088  0.1595 -0.2004  0.1987
  738MPD2     C10955   3.223   0.489  15.136 -0.6125  0.0157  0.1486
  738MPD2    C110956   3.183   0.509  15.002  0.8638 -0.6689 -0.6048
  738MPD2    C210957   3.272   0.581  14.921 -0.3306  0.0150  0.2769
  738MPD2    C310958   3.396   0.622  14.963  0.1350 -0.4131 -0.2884
  738MPD2    C410959   3.438   0.593  15.089 -0.8385 -0.1963 -0.6988
  738MPD2    C510960   3.349   0.540  15.179  0.0083  0.1980  0.0059
  738MPD2     H10961   3.247   0.579  14.815  3.0443  2.2476 -0.5939
  738MPD2    H110962   3.532   0.624  15.134 -1.5501  1.6477 -0.4610
  738MPD2    H210963   3.167   0.436  15.212 -1.1433 -0.5312 -0.6340
  738MPD2    H310964   3.386   0.522  15.279 -0.6105  0.8141  0.3508
  738MPD2     N10965   3.486   0.689  14.876 -0.1289 -0.3481 -0.2777
  738MPD2    H510966   3.578   0.704  14.916  0.3969  1.1628 -2.0247
  738MPD2    N110967   3.066   0.454  14.942 -0.8826  0.1239 -0.3680
  738MPD2    H710968   3.041   0.486  14.849  1.1303 -0.2506 -1.0411
  739TMC3    C110969   3.572   0.785  14.678  0.5582 -0.0257 -0.4068
  739TMC3    C210970   3.552   0.820  14.548  0.7721  0.0523 -0.5375
  739TMC3    C310971   3.645   0.885  14.479 -0.0272  0.0515 -0.4162
  739TMC3    C410972   3.694   0.803  14.740 -0.2994 -0.5859  0.3520
  739TMC3    C510973   3.789   0.866  14.665 -0.2621  1.1013  0.5361
  739TMC3    C610974   3.767   0.907  14.534  0.6928  0.2287  0.3658
  739TMC3     C10975   3.459   0.742  14.749  0.0991 -0.0269  0.0600
  739TMC3     O10976   3.354   0.752  14.688  0.2742  0.0029  0.4823
  739TMC3     H10977   3.461   0.800  14.493  0.5728  0.9683 -0.5322
  739TMC3    H110978   3.701   0.791  14.847 -0.6470 -0.5669  0.3770
  739TMC3    H210979   3.844   0.958  14.478  1.0472 -0.6705  0.0322
  739TMC3    C710980   3.899   0.928  14.740  0.3465 -0.1937 -0.6106
  739TMC3    C810981   3.614   0.910  14.334  0.2184  0.8858 -0.1783
  739TMC3    O110982   3.912   0.875  14.851  0.0655  0.0752 -0.1108
  739TMC3    O210983   3.521   0.851  14.281 -0.0513 -0.1715 -0.8988
  740TMC3    C110984   4.264   2.189  14.293  0.7462 -0.3911  0.0566
  740TMC3    C210985   4.343   2.136  14.389 -0.0654  0.5188  0.6970
  740TMC3    C310986   4.479   2.152  14.376 -0.7521  0.0267  0.2304
  740TMC3    C410987   4.314   2.248  14.176 -0.1658 -0.4295 -0.3644
  740TMC3    C510988   4.452   2.258  14.170 -0.0751  0.3193  0.7823
  740TMC3    C610989   4.531   2.207  14.267  0.3520  0.2300  0.0920
  740TMC3     C10990   4.143   2.244  14.334  0.1347 -0.3523  1.2352
  740TMC3     O10991   4.121   2.361  14.303 -0.1689  0.1494  0.2877
  740TMC3     H10992   4.302   2.073  14.467 -1.2496  1.1034  0.5466
  740TMC3    H110993   4.238   2.291  14.112 -0.3174  0.7156  0.5849
  740TMC3    H210994   4.639   2.218  14.261  0.3319  0.2233 -0.3000
  740TMC3    C710995   4.515   2.267  14.034  0.3116 -0.4342  0.0863
  740TMC3    C810996   4.566   2.056  14.437  0.3361  0.6014  0.7754
  740TMC3    O110997   4.638   2.265  14.035  0.1355  0.3618 -0.7176
  740TMC3    O210998   4.675   2.039  14.385 -0.0631  0.3369  0.2639
  741TMC3    C110999   3.327   2.067  13.769  0.9513 -0.0856 -0.0316
  741TMC3    C211000   3.275   1.976  13.862 -0.4208  0.6514  0.1507
  741TMC3    C311001   3.363   1.869  13.885  0.0814 -0.3220  0.2728
  741TMC3    C411002   3.456   2.068  13.717  0.2677  0.2823  0.9919
  741TMC3    C511003   3.546   1.965  13.753  0.4240 -0.2934  0.5763
  741TMC3    C611004   3.497   1.860  13.836 -0.5365 -0.4304  0.1692
  741TMC3     C11005   3.236   2.132  13.680  0.1049 -0.1008  1.1287
  741TMC3     O11006   3.268   2.190  13.571 -0.9747 -0.5806  0.5700
  741TMC3     H11007   3.173   1.965  13.895 -1.1011  0.7663 -1.9394
  741TMC3    H111008   3.481   2.146  13.647 -0.9759 -0.0537  0.1735
  741TMC3    H211009   3.549   1.765  13.838  1.5883  0.7824  1.6492
  741TMC3    C711010   3.676   1.956  13.686 -0.7006  0.5747 -0.3852
  741TMC3    C811011   3.324   1.770  13.982 -0.2551 -0.2930  0.3063
  741TMC3    O111012   3.676   2.024  13.584  0.3675 -0.0260  0.0954
  741TMC3    O211013   3.203   1.769  14.008 -0.2313 -0.4900 -0.0168
  742TMC3    C111014   3.758   0.360  15.249 -0.4723 -0.1250  0.1131
  742TMC3    C211015   3.645   0.289  15.238  0.3783  0.2128  0.8275
  742TMC3    C311016   3.650   0.175  15.160 -1.0211 -0.4731 -0.4500
  742TMC3    C411017   3.878   0.308  15.208 -0.0232 -0.2827  0.0743
  742TMC3    C511018   3.887   0.186  15.145 -0.6631 -1.1127  0.1274
  742TMC3    C611019   3.767   0.124  15.106 -0.2879  0.1932 -0.1031
  742TMC3     C11020   3.764   0.450  15.356 -0.0017 -0.1204  0.0040
  742TMC3     O11021   3.674   0.533  15.342 -0.3592  0.2699 -0.1712
  742TMC3     H11022   3.551   0.337  15.262  0.2377 -0.3995  1.5081
  742TMC3    H111023   3.961   0.372  15.236  0.0021  0.2017 -1.0998
  742TMC3    H211024   3.773   0.025  15.063  0.1034  0.4361 -0.5992
  742TMC3    C711025   4.004   0.102  15.135  0.1475 -0.6897 -0.7711
  742TMC3    C811026   3.527   0.106  15.124  0.3499  0.3685  0.6635
  742TMC3    O111027   4.000   4.728  15.083 -0.6137  0.7412  0.3201
  742TMC3    O211028   3.532   0.033  15.026 -0.3598 -0.3872  0.7310
  743MPD2     C11029   1.095   1.971   1.906 -0.1593  0.0972 -0.2104
  743MPD2    C111030   1.153   1.914   1.792  0.0292  0.5417  0.2952
  743MPD2    C211031   1.295   1.918   1.785 -0.0080  1.0724 -0.3831
  743MPD2    C311032   1.368   1.984   1.886 -0.2870 -0.4160 -0.2374
  743MPD2    C411033   1.308   2.025   1.999  0.8296 -0.5603  0.1270
  743MPD2    C511034   1.172   2.016   2.009  0.4387 -0.0405  0.1668
  743MPD2     H11035   1.346   1.870   1.702  2.3188  3.0495 -0.0879
  743MPD2    H111036   1.354   2.081   2.079 -1.6775  0.1757  1.0675
  743MPD2    H211037   0.988   1.976   1.919 -0.1453  0.3311 -0.1907
  743MPD2    H311038   1.122   2.068   2.090  2.2416  1.5906  0.2398
  743MPD2     N11039   1.499   2.004   1.866 -0.2878  0.2903 -0.2593
  743MPD2    H511040   1.544   1.967   1.783  2.6856  0.6553  1.1678
  743MPD2    N111041   1.071   1.865   1.688  0.6841 -0.2600  0.4082
  743MPD2    H711042   0.971   1.872   1.702  0.2308  0.1865 -2.9820
  744TMC3    C111043   0.997   1.745   1.489  0.2912 -0.0683 -0.5236
  744TMC3    C211044   0.895   1.694   1.553 -0.7696  0.0971  0.8414
  744TMC3    C311045   0.832   1.589   1.498  0.5123  0.4464 -0.5291
  744TMC3    C411046   1.039   1.688   1.375 -0.0796 -0.6835 -0.3134
  744TMC3    C511047   0.974   1.584   1.317 -0.2665  0.5113  0.2603
  744TMC3    C611048   0.863   1.532   1.371  0.0900 -0.5029 -1.0392
  744TMC3     C11049   1.104   1.825   1.562 -0.4388  0.0548  0.0944
  744TMC3     O11050   1.216   1.803   1.520  0.0362  0.2270 -0.5913
  744TMC3     H11051   0.858   1.738   1.646  2.4477  0.6835  1.8495
  744TMC3    H111052   1.128   1.729   1.327 -0.8869  0.7364 -0.6111
  744TMC3    H211053   0.800   1.467   1.311 -2.1389  0.5579  0.1369
  744TMC3    C711054   1.041   1.515   1.213  0.6540 -0.0083 -0.6465
  744TMC3    C811055   0.697   1.571   1.544 -0.0472  0.7976  0.1067
  744TMC3    O111056   1.147   1.556   1.172 -0.4766  0.4937 -0.3187
  744TMC3    O211057   0.654   1.663   1.615  0.2119 -0.4006 -0.0051
  745TMC3    C111058   4.267   4.197  14.053 -0.0972 -0.3812  0.2276
  745TMC3    C211059   4.167   4.181  14.144 -0.7064  0.0242 -0.0453
  745TMC3    C311060   4.039   4.141  14.099  0.0940  0.9766 -0.3333
  745TMC3    C411061   4.248   4.161  13.922 -0.0926 -0.2729 -0.1024
  745TMC3    C511062   4.125   4.107  13.880 -1.1866  0.1926 -0.2819
  745TMC3    C611063   4.018   4.091  13.969  0.7201  0.5477  0.3667
  745TMC3     C11064   4.321   4.335  14.050 -0.5254 -0.0485  0.2849
  745TMC3     O11065   4.301   4.395  13.940 -0.1835  0.0040  0.1835
  745TMC3     H11066   4.188   4.230  14.238 -0.2712 -1.0067  0.3903
  745TMC3    H111067   4.332   4.152  13.853  0.5849  0.3611  0.6359
  745TMC3    H211068   3.922   4.068  13.923  0.0994  1.6792  1.1135
  745TMC3    C711069   4.083   4.143  13.747 -0.3701 -0.1029 -0.3901
  745TMC3    C811070   3.932   4.228  14.145  0.2710 -0.0275  0.0304
  745TMC3    O111071   3.979   4.099  13.700  0.3306  0.4274 -0.0802
  745TMC3    O211072   3.817   4.206  14.106 -1.2923 -0.3818  0.0372
  746TMC3    C111073   1.490   1.939  10.969 -0.0817 -0.5453  0.3630
  746TMC3    C211074   1.563   1.935  10.855  0.3189  0.0417 -0.0575
  746TMC3    C311075   1.528   1.837  10.763 -0.4767 -0.0178 -0.4719
  746TMC3    C411076   1.384   1.856  11.004  0.0144  0.4021 -0.0369
  746TMC3    C511077   1.357   1.763  10.901  0.4795 -0.2053  0.1842
  746TMC3    C611078   1.419   1.760  10.779 -0.5738  0.0247  0.5822
  746TMC3     C11079   1.519   2.059  11.048  0.2643  0.5239  0.1197
  746TMC3     O11080   1.463   2.061  11.160 -0.2013  0.5156 -0.5966
  746TMC3     H11081   1.658   1.984  10.839  0.9766 -0.7870  1.2746
  746TMC3    H111082   1.337   1.862  11.101 -0.8933 -1.6811 -0.3408
  746TMC3    H211083   1.395   1.680  10.710 -0.6262 -1.2231  2.0527
  746TMC3    C711084   1.223   1.710  10.906 -0.3237 -0.2003 -0.5036
  746TMC3    C811085   1.612   1.806  10.649 -0.1162 -0.7856  0.4631
  746TMC3    O111086   1.181   1.671  10.800  0.6009 -0.5548  0.0493
  746TMC3    O211087   1.583   1.704  10.586 -0.0703  0.1566 -0.2292
  747TMC3    C111088   3.548   1.980  11.143  0.1322  0.1039  0.1783
  747TMC3    C211089   3.562   1.873  11.219  0.3062  0.4379  0.1933
  747TMC3    C311090   3.603   1.894  11.349 -0.1649  0.6283 -0.3133
  747TMC3    C411091   3.574   2.106  11.183 -0.5617  0.4153  0.4040
  747TMC3    C511092   3.632   2.124  11.308  0.5306 -0.2308 -0.3420
  747TMC3    C611093   3.646   2.018  11.395  0.0794 -0.1976  0.0437
  747TMC3     C11094   3.500   1.959  11.005  0.0770  0.3104 -0.3682
  747TMC3     O11095   3.461   2.059  10.939  0.5901 -0.0119  0.1199
  747TMC3     H11096   3.531   1.774  11.187 -1.2103  0.5290  1.3806
  747TMC3    H111097   3.554   2.187  11.114  1.2537  0.1523 -0.4201
  747TMC3    H211098   3.692   2.043  11.490 -0.0168  1.2751 -0.2961
  747TMC3    C711099   3.679   2.255  11.356  0.0777  0.0972  0.6546
  747TMC3    C811100   3.554   1.805  11.450 -0.0557 -0.2111 -0.0443
  747TMC3    O111101   3.775   2.265  11.433 -0.2997  0.4950 -0.2338
  747TMC3    O211102   3.530   1.687  11.421  0.3633  0.1231  0.0035
  748MPD2     C11103   0.323   2.677   1.652 -0.0506  0.5088  0.6151
  748MPD2    C111104   0.345   2.611   1.531 -0.1989 -0.0102 -0.0128
  748MPD2    C211105   0.470   2.607   1.484 -0.1547  0.7715 -0.0911
  748MPD2    C311106   0.576   2.664   1.556 -1.2942 -0.1548  0.2521
  748MPD2    C411107   0.551   2.730   1.677  0.2103  0.3399 -0.4676
  748MPD2    C511108   0.424   2.727   1.726 -0.1693  0.3767 -0.6028
  748MPD2     H11109   0.494   2.549   1.396  2.4686 -2.2783  2.6304
  748MPD2    H111110   0.627   2.760   1.748 -0.0268  2.2422 -1.0243
  748MPD2    H211111   0.227   2.678   1.702 -0.2299 -1.1023  0.3011
  748MPD2    H311112   0.411   2.759   1.829 -1.6732 -1.3758 -0.2341
  748MPD2     N11113   0.709   2.653   1.498 -0.2259 -0.1841  0.2962
  748MPD2    H511114   0.714   2.612   1.405  2.3745  2.0406 -0.5607
  748MPD2    N111115   0.233   2.544   1.473 -0.2519 -0.4228 -0.4187
  748MPD2    H711116   0.148   2.560   1.525  0.7052  0.0298  1.0235
  749TMC3    C111117   0.952   2.621   1.522  0.0300  0.2421  0.1358
  749TMC3    C211118   1.046   2.574   1.609  0.6736 -0.5152  0.2590
  749TMC3    C311119   1.167   2.521   1.559 -0.5291  0.4255 -0.2871
  749TMC3    C411120   0.969   2.600   1.386 -0.3947  0.1219 -0.3480
  749TMC3    C511121   1.086   2.540   1.349  0.5885  0.3837  0.3585
  749TMC3    C611122   1.191   2.499   1.424 -0.0565 -0.2461 -0.3199
  749TMC3     C11123   0.828   2.669   1.582  0.6380  0.3230 -0.9779
  749TMC3     O11124   0.825   2.660   1.702  0.1114  0.6664  0.2921
  749TMC3     H11125   1.042   2.602   1.714  0.9358  1.6094 -0.2999
  749TMC3    H111126   0.903   2.651   1.316 -0.6549 -0.6569 -0.6710
  749TMC3    H211127   1.285   2.465   1.384 -1.2132 -2.4039 -1.2294
  749TMC3    C711128   1.110   2.536   1.207  0.2839  0.3778  0.2250
  749TMC3    C811129   1.272   2.505   1.655  0.2542  0.1161  0.3320
  749TMC3    O111130   1.062   2.629   1.143  0.1566  0.5985 -0.2318
  749TMC3    O211131   1.251   2.559   1.763 -0.2359  0.2842  0.1656
  750MPD2     C11132   0.729   3.992  11.409  0.0660 -0.0333  0.9488
  750MPD2    C111133   0.792   3.954  11.522 -0.1194 -0.3332  0.4052
  750MPD2    C211134   0.911   3.887  11.521  0.0214 -0.0597 -0.5679
  750MPD2    C311135   0.964   3.831  11.404 -0.1933  0.3829 -0.0369
  750MPD2    C411136   0.896   3.866  11.289  0.1326  0.4478  0.1240
  750MPD2    C511137   0.784   3.945  11.289  0.4623  0.2133 -0.0876
  750MPD2     H11138   0.970   3.883  11.612 -2.9313  0.2224  1.3484
  750MPD2    H111139   0.930   3.837  11.190 -0.5152 -0.4013  0.1523
  750MPD2    H211140   0.641   4.055  11.412  1.4183  1.9481 -1.2362
  750MPD2    H311141   0.732   3.967  11.196 -0.9073  1.9960  1.0955
  750MPD2     N11142   1.083   3.757  11.396 -0.1918 -0.2339  0.5240
  750MPD2    H511143   1.121   3.749  11.302 -2.5282  0.3505 -0.4816
  750MPD2    N111144   0.737   4.004  11.643 -0.0582  0.0516 -0.9016
  750MPD2    H711145   0.674   4.083  11.631 -2.8440 -1.9080  0.7654
  751TMC3    C111146   1.291   3.669  11.459 -0.6876  0.5053 -0.4651
  751TMC3    C211147   1.333   3.548  11.497 -0.7286  0.1016  0.7800
  751TMC3    C311148   1.441   3.493  11.442 -0.9741  0.1030 -0.3957
  751TMC3    C411149   1.346   3.737  11.356 -0.2349  0.3961 -0.3952
  751TMC3    C511150   1.459   3.684  11.295  1.1871 -0.4727 -0.4953
  751TMC3    C611151   1.506   3.567  11.345  0.0688 -0.0106  0.0455
  751TMC3     C11152   1.162   3.713  11.504 -0.7108 -0.1780  1.0288
  751TMC3     O11153   1.127   3.689  11.619  0.6031 -0.8751 -0.3193
  751TMC3     H11154   1.268   3.502  11.571 -2.7183  2.4184  0.4965
  751TMC3    H111155   1.311   3.834  11.322 -0.1404  0.4365 -0.3773
  751TMC3    H211156   1.592   3.526  11.293 -0.0158  0.5279 -0.5222
  751TMC3    C711157   1.521   3.737  11.171  0.2349 -0.5114 -0.4481
  751TMC3    C811158   1.427   3.354  11.397  0.1015 -0.0218  0.1038
  751TMC3    O111159   1.611   3.672  11.123  0.1319  0.0290 -0.4310
  751TMC3    O211160   1.491   3.313  11.296 -0.6992  0.4832  0.0581
  752TMC3    C111161   0.369   3.284  17.022  0.0876  0.1363  1.3167
  752TMC3    C211162   0.356   3.182  17.108  0.4443 -0.8014 -0.6233
  752TMC3    C311163   0.350   3.212  17.241 -0.0249  0.6146  1.1755
  752TMC3    C411164   0.368   3.412  17.063  0.2981 -0.3795 -0.2922
  752TMC3    C511165   0.368   3.439  17.199  0.2964 -0.2115 -0.4249
  752TMC3    C611166   0.359   3.341  17.297 -0.5060 -0.0730  0.4933
  752TMC3     C11167   0.370   3.256  16.881  0.4270 -0.2052 -0.9560
  752TMC3     O11168   0.393   3.142  16.838  0.1409 -0.2193  0.8775
  752TMC3     H11169   0.349   3.077  17.080 -0.5278 -0.1353 -2.8466
  752TMC3    H111170   0.401   3.488  16.995  4.0950 -2.4907 -0.7824
  752TMC3    H211171   0.366   3.352  17.404  1.2300 -2.4198  0.6344
  752TMC3    C711172   0.365   3.577  17.253 -0.0405  0.6356 -0.1073
  752TMC3    C811173   0.345   3.100  17.326  0.7500  0.1917 -0.3595
  752TMC3    O111174   0.401   3.667  17.179 -0.3208 -0.1204  0.2758
  752TMC3    O211175   0.410   2.999  17.297 -0.3238 -0.2754  0.1627
  753TMC3    C111176   1.929   4.703  13.340  0.1807 -0.4163 -0.6744
  753TMC3    C211177   2.002   4.695  13.454 -0.1181 -0.5026  0.3130
  753TMC3    C311178   1.990   4.580  13.529  0.9331  0.1287 -0.4782
  753TMC3    C411179   1.848   4.602  13.293 -0.6392 -1.0373 -0.1166
  753TMC3    C511180   1.835   4.493  13.365 -0.4192 -0.3466 -0.4470
  753TMC3    C611181   1.902   4.480  13.487  0.3551 -0.5604 -0.6775
  753TMC3     C11182   1.964   0.074  13.244  0.1153 -0.4935  0.4144
  753TMC3     O11183   1.870   0.118  13.179  0.1305  0.2195  0.4595
  753TMC3     H11184   2.059   0.049  13.479  1.2429 -1.6386  1.2901
  753TMC3    H111185   1.793   4.609  13.199 -0.2267  2.5069 -0.1045
  753TMC3    H211186   1.879   4.398  13.554 -0.2548  1.1547  1.2140
  753TMC3    C711187   1.757   4.382  13.312  0.7420 -0.0495  0.3509
  753TMC3    C811188   2.034   4.589  13.673 -0.7257  0.0527 -0.4101
  753TMC3    O111189   1.679   4.402  13.219 -0.3363 -0.1853  0.0356
  753TMC3    O211190   1.972   4.528  13.759 -0.2156 -0.4047  0.2427
  754MPD2     C11191   1.342   3.585  13.214  0.5610  0.3591  0.0141
  754MPD2    C111192   1.325   3.443  13.191 -1.0873 -0.7161  0.1359
  754MPD2    C211193   1.197   3.385  13.180  0.2331  0.6577  0.6339
  754MPD2    C311194   1.088   3.469  13.197  0.6695 -0.6180  0.0737
  754MPD2    C411195   1.105   3.610  13.212 -0.1079 -0.0232  0.1677
  754MPD2    C511196   1.231   3.659  13.218 -0.4135  0.1191  0.6644
  754MPD2     H11197   1.174   3.280  13.165 -0.5537  1.0166 -0.6729
  754MPD2    H111198   1.019   3.673  13.228  0.3519  0.0842  2.3187
  754MPD2    H211199   1.438   3.634  13.221  0.8373 -0.5510  2.4958
  754MPD2    H311200   1.236   3.766  13.233 -1.7836  0.1453  0.9765
  754MPD2     N11201   0.955   3.417  13.206 -0.0381  0.0200 -0.0510
  754MPD2    H511202   0.876   3.481  13.200 -1.2693 -1.6591 -1.3870
  754MPD2    N111203   1.446   3.366  13.191 -0.1258 -0.0550 -0.3864
  754MPD2    H711204   1.528   3.423  13.174 -0.1825  0.3185  0.5715
  755MPD2     C11205   0.218   3.829  13.469 -0.3196 -0.3588  0.4798
  755MPD2    C111206   0.206   3.701  13.525  0.3354  0.0701 -0.4734
  755MPD2    C211207   0.305   3.610  13.490 -0.3590  0.2542 -0.3697
  755MPD2    C311208   0.397   3.630  13.383 -0.3616 -0.1575  0.3856
  755MPD2    C411209   0.394   3.752  13.326  0.1628  0.5957 -0.3321
  755MPD2    C511210   0.311   3.851  13.372 -0.5699  0.2655  0.2735
  755MPD2     H11211   0.306   3.517  13.544  1.8878  0.0164 -0.8058
  755MPD2    H111212   0.473   3.767  13.253  1.7231 -2.0926  0.7880
  755MPD2    H211213   0.154   3.909  13.504  1.0654  0.3502  1.3505
  755MPD2    H311214   0.334   3.953  13.345 -1.3694  0.3230 -0.1826
  755MPD2     N11215   0.492   3.532  13.341  0.6598  0.0075 -0.2662
  755MPD2    H511216   0.552   3.553  13.263  1.5151 -0.0920  0.3695
  755MPD2    N111217   0.104   3.654  13.615 -0.5101 -0.4369 -0.3784
  755MPD2    H711218   0.108   3.553  13.628  0.8708 -0.4659 -1.0270
  756MPD2     C11219   1.844   4.646   9.743 -0.2260  0.3280 -0.1677
  756MPD2    C111220   1.764   0.008   9.798  0.0225  0.1424 -0.7463
  756MPD2    C211221   1.663   0.051   9.712  0.1159 -0.3669 -0.2621
  756MPD2    C311222   1.652   0.009   9.581  0.1618  0.4190 -0.9077
  756MPD2    C411223   1.748   4.656   9.534  0.0220  0.5303 -0.1977
  756MPD2    C511224   1.843   4.615   9.612 -0.2461 -0.1105 -0.1098
  756MPD2     H11225   1.589   0.121   9.751  1.6044  0.8410  0.4018
  756MPD2    H111226   1.757   4.629   9.430 -2.3666  1.4306 -0.6411
  756MPD2    H211227   1.925   4.606   9.802  0.1216 -0.4889 -1.2007
  756MPD2    H311228   1.919   4.558   9.559 -1.5033 -2.8684  1.0384
  756MPD2     N11229   1.534   0.035   9.505  0.6114 -0.5150  0.2549
  756MPD2    H511230   1.466   0.094   9.553  0.3922 -0.3548 -0.2536
  756MPD2    N111231   1.761   0.035   9.940  0.3013 -0.3068  0.0132
  756MPD2    H711232   1.680   0.091   9.967 -1.2213 -3.1249  1.2803
  757MPD2     C11233   0.764   4.180   9.286  0.0537 -0.7365  0.0918
  757MPD2    C111234   0.881   4.161   9.360  0.0501  0.5237 -0.6453
  757MPD2    C211235   0.987   4.251   9.348 -0.2490 -0.3615  0.2233
  757MPD2    C311236   0.975   4.358   9.259  0.4466  0.6516  0.2601
  757MPD2    C411237   0.862   4.368   9.181 -0.0217  0.4746 -0.4431
  757MPD2    C511238   0.760   4.277   9.192 -0.7377  0.0665 -0.0249
  757MPD2     H11239   1.083   4.241   9.397 -0.0052 -0.0763 -0.1967
  757MPD2    H111240   0.846   4.454   9.117 -0.6261 -0.2551 -1.2722
  757MPD2    H211241   0.683   4.108   9.290  0.8742 -1.6428  0.6025
  757MPD2    H311242   0.669   4.299   9.136 -1.6559  2.2781  2.3238
  757MPD2     N11243   1.079   4.456   9.255  0.0167 -0.4053 -0.7847
  757MPD2    H511244   1.155   4.447   9.322  0.2562 -0.2019 -1.0283
  757MPD2    N111245   0.875   4.055   9.453  0.3482  1.0279 -0.0439
  757MPD2    H711246   0.783   4.013   9.464 -0.1207  1.8754 -0.7115
  758MPD2     C11247   1.216   2.764  15.855  0.7430 -0.6408  0.9845
  758MPD2    C111248   1.275   2.646  15.904  0.6759 -0.1429 -0.3324
  758MPD2    C211249   1.229   2.597  16.025 -0.7897  0.4237 -0.3323
  758MPD2    C311250   1.143   2.663  16.105 -0.0489 -0.2084 -0.3864
  758MPD2    C411251   1.088   2.781  16.061  0.1468  0.0230  0.3915
  758MPD2    C511252   1.124   2.833  15.940  0.6950 -0.3337 -0.0990
  758MPD2     H11253   1.256   2.497  16.058 -2.4363  0.4329  1.0296
  758MPD2    H111254   1.020   2.845  16.115  0.1584 -0.6304  1.1886
  758MPD2    H211255   1.241   2.821  15.766 -1.9641  1.2319  1.4037
  758MPD2    H311256   1.096   2.930  15.900 -0.7466 -0.6956  0.0331
  758MPD2     N11257   1.111   2.625  16.235 -0.0776  0.6247  0.4650
  758MPD2    H511258   1.031   2.680  16.266 -1.8677  0.0290 -3.1518
  758MPD2    N111259   1.377   2.591  15.822 -0.2245 -0.3790 -0.0364
  758MPD2    H711260   1.407   2.653  15.747 -3.2376 -2.2076 -2.7450
  759MPD2     C11261   4.520   2.388  10.375 -0.1453  0.0654  0.2666
  759MPD2    C111262   4.529   2.252  10.373 -0.1487 -0.3362  0.2811
  759MPD2    C211263   4.621   2.200  10.279  0.2522  1.1252  0.5639
  759MPD2    C311264   4.679   2.280  10.181  0.2869 -0.6775  0.5101
  759MPD2    C411265   4.684   2.414  10.199  0.2029 -0.1435  0.2516
  759MPD2    C511266   4.603   2.464  10.297  0.5408 -0.0503  0.1259
  759MPD2     H11267   4.625   2.092  10.275  1.6804  1.2537 -0.9083
  759MPD2    H111268   4.720   2.484  10.124 -0.5612  0.4497  0.4372
  759MPD2    H211269   4.454   2.448  10.436 -1.0434  1.5566 -2.1442
  759MPD2    H311270   4.599   2.572  10.302 -2.7031 -0.0721 -1.9843
  759MPD2     N11271   4.734   2.215  10.063 -0.3233 -0.3060 -0.1903
  759MPD2    H511272   0.058   2.269  10.001  0.8930 -0.0705  1.1649
  759MPD2    N111273   4.456   2.165  10.459 -0.3761  0.0622  0.3315
  759MPD2    H711274   4.475   2.065  10.451  0.1263  0.2439 -0.6868
  760MPD2     C11275   4.425   3.536  11.653  0.2962  0.4496 -0.2031
  760MPD2    C111276   4.549   3.557  11.715 -0.3534 -0.5046 -0.3607
  760MPD2    C211277   4.589   3.473  11.821 -1.3132 -0.3570  0.1632
  760MPD2    C311278   4.508   3.370  11.862  0.0739 -0.1592  0.3528
  760MPD2    C411279   4.385   3.351  11.801 -0.7901  0.5969  0.1697
  760MPD2    C511280   4.360   3.427  11.687  0.5194  0.0955 -0.8795
  760MPD2     H11281   4.683   3.487  11.874 -2.4427  3.4542  1.1447
  760MPD2    H111282   4.318   3.275  11.839 -2.0136  2.2007  1.2416
  760MPD2    H211283   4.392   3.593  11.567  0.9715  0.7551 -0.2665
  760MPD2    H311284   4.274   3.392  11.631  0.9707 -0.8038 -1.0079
  760MPD2     N11285   4.540   3.271  11.969 -0.0026  0.1447  0.1561
  760MPD2    H511286   4.476   3.193  11.976  0.9283 -0.7710 -1.8599
  760MPD2    N111287   4.635   3.666  11.683 -0.0864 -0.4027  0.8412
  760MPD2    H711288   4.709   3.685  11.749  1.4031 -1.7012 -0.4561
  761MPD2     C11289   1.166   2.917  11.456  0.5167 -0.1177  0.1583
  761MPD2    C111290   1.232   2.971  11.346 -0.0362  0.1311  0.3045
  761MPD2    C211291   1.290   3.097  11.347 -0.5692  0.2304  1.2759
  761MPD2    C311292   1.282   3.162  11.463  0.1948 -0.0068  0.2649
  761MPD2    C411293   1.204   3.115  11.567  0.3138  0.1035  0.0944
  761MPD2    C511294   1.149   2.993  11.560 -0.4381 -0.0001  0.1442
  761MPD2     H11295   1.340   3.151  11.267 -1.3655  0.7807  1.1600
  761MPD2    H111296   1.192   3.169  11.660 -0.3046  0.3718 -0.1407
  761MPD2    H211297   1.122   2.819  11.460 -2.1932  1.0535 -0.7976
  761MPD2    H311298   1.104   2.956  11.652  2.8221 -0.7896  1.4104
  761MPD2     N11299   1.335   3.289  11.481 -0.1629 -0.5455  0.5688
  761MPD2    H511300   1.322   3.335  11.571 -0.0307  1.7632 -0.5795
  761MPD2    N111301   1.235   2.884  11.235  0.0807  1.1763 -0.2637
  761MPD2    H711302   1.176   2.801  11.235  0.0974  1.1645 -0.2813
  762MPD2     C11303   1.780   2.949  10.680  0.1105  0.3281 -0.5102
  762MPD2    C111304   1.692   2.855  10.641  0.2870 -0.5750  0.8523
  762MPD2    C211305   1.699   2.788  10.524 -0.0854  0.4875  0.0760
  762MPD2    C311306   1.802   2.813  10.435  0.0239  0.1605  0.4874
  762MPD2    C411307   1.895   2.902  10.474  0.5445 -0.3210  0.5404
  762MPD2    C511308   1.885   2.974  10.592 -0.5300 -0.4074 -0.3808
  762MPD2     H11309   1.638   2.704  10.494  2.6082 -0.9237 -1.4055
  762MPD2    H111310   1.986   2.916  10.416  0.7571 -1.1252  0.6796
  762MPD2    H211311   1.786   2.995  10.778 -0.2144  0.7765 -0.7015
  762MPD2    H311312   1.946   3.057  10.624  1.4905 -0.6129 -3.6920
  762MPD2     N11313   1.817   2.719  10.322  0.3972  0.1028 -0.8798
  762MPD2    H511314   1.745   2.648  10.316 -2.6383  2.8998  1.5783
  762MPD2    N111315   1.593   2.826  10.734  0.5504  0.0652  0.7594
  762MPD2    H711316   1.593   2.889  10.815 -2.1342  0.3989  0.4947
  763MPD2     C11317   3.100   2.218  16.380 -0.0600 -0.1152 -0.6690
  763MPD2    C111318   3.180   2.289  16.297 -0.7749 -0.6597 -0.5819
  763MPD2    C211319   3.251   2.403  16.341  0.1568 -0.8227  1.1357
  763MPD2    C311320   3.220   2.452  16.466 -0.7930  0.2400 -0.5979
  763MPD2    C411321   3.136   2.385  16.543 -0.0206 -0.0922 -0.2620
  763MPD2    C511322   3.081   2.265  16.508 -0.1477  0.3611  0.0441
  763MPD2     H11323   3.314   2.465  16.279  2.6270 -2.2053  2.2531
  763MPD2    H111324   3.112   2.402  16.647  0.7763 -2.1982  0.2677
  763MPD2    H211325   3.036   2.134  16.353  1.2024 -2.0623  2.4392
  763MPD2    H311326   3.005   2.221  16.572  0.2048 -0.7239 -0.2838
  763MPD2     N11327   3.292   2.567  16.505 -0.4603  0.4958  0.4736
  763MPD2    H511328   3.351   2.605  16.431  1.2777 -0.0023  1.5891
  763MPD2    N111329   3.190   2.266  16.159  0.3830  0.0091  0.9794
  763MPD2    H711330   3.256   2.327  16.111 -2.1226  1.0740 -1.1140
  764MPD2     C11331   0.842   3.935  17.415 -0.0055  0.2349 -0.1333
  764MPD2    C111332   0.736   3.845  17.407  0.9369 -0.0390 -0.6784
  764MPD2    C211333   0.711   3.754  17.503  0.2415 -0.2512 -0.1323
  764MPD2    C311334   0.791   3.752  17.619 -0.3723 -0.0929  0.4473
  764MPD2    C411335   0.884   3.849  17.631  0.7425  0.4916  0.2237
  764MPD2    C511336   0.909   3.941  17.533  0.1635  0.2332  0.5554
  764MPD2     H11337   0.622   3.693  17.493 -0.6640  1.3497 -1.7411
  764MPD2    H111338   0.943   3.854  17.722  1.7427  0.8039 -0.4447
  764MPD2    H211339   0.875   4.012  17.346 -1.5859  0.7520 -0.3098
  764MPD2    H311340   0.983   4.017  17.556 -0.6779  1.2318 -0.0542
  764MPD2     N11341   0.759   3.663  17.725  0.1022  0.1948 -0.2607
  764MPD2    H511342   0.673   3.610  17.712  0.0858  0.3305 -0.7141
  764MPD2    N111343   0.660   3.833  17.290 -0.2432 -0.2881 -0.0727
  764MPD2    H711344   0.623   3.739  17.280  0.2621 -0.6130  1.0505
  765MPD2     C11345   1.108   2.087  15.511 -0.3283  0.1150  0.0038
  765MPD2    C111346   1.112   2.144  15.636  0.3116 -0.5127  0.3153
  765MPD2    C211347   1.204   2.108  15.732  0.1327 -0.1174 -0.9769
  765MPD2    C311348   1.302   2.013  15.698 -0.0064 -0.2870  0.1035
  765MPD2    C411349   1.297   1.951  15.572 -0.9064 -0.3380 -0.3783
  765MPD2    C511350   1.199   1.989  15.482 -0.2566 -0.2827 -0.6681
  765MPD2     H11351   1.197   2.154  15.830 -0.9585  0.3781 -1.2815
  765MPD2    H111352   1.366   1.872  15.546 -0.6532  0.0922 -1.0209
  765MPD2    H211353   1.033   2.120  15.440  1.7405 -0.7406 -2.5458
  765MPD2    H311354   1.190   1.931  15.391 -0.0716 -0.2563 -0.7028
  765MPD2     N11355   1.399   1.988  15.798  0.2388  0.0967  0.0409
  765MPD2    H511356   1.377   2.027  15.889 -1.3616 -1.7968  0.4820
  765MPD2    N111357   1.013   2.243  15.650  0.3452  0.2264 -0.1299
  765MPD2    H711358   0.939   2.246  15.581  2.0324  1.0830 -1.9037
  766MPD2     C11359   0.376   2.357  15.363  0.4705 -0.5187  0.0315
  766MPD2    C111360   0.518   2.344  15.363 -0.0251 -0.0900 -0.2238
  766MPD2    C211361   0.581   2.293  15.252  0.3471 -0.7957 -0.1869
  766MPD2    C311362   0.507   2.262  15.138  0.3977 -0.4405  0.0630
  766MPD2    C411363   0.374   2.274  15.145 -0.0778 -0.2205 -0.4397
  766MPD2    C511364   0.302   2.312  15.256 -0.1109 -0.1020 -0.2645
  766MPD2     H11365   0.689   2.281  15.257  0.4940  0.0760 -1.3772
  766MPD2    H111366   0.327   2.264  15.047 -0.6345  0.2465 -0.2240
  766MPD2    H211367   0.322   2.406  15.444 -0.0451  1.0094 -1.2322
  766MPD2    H311368   0.195   2.326  15.259 -0.4437 -2.6202 -0.2061
  766MPD2     N11369   0.563   2.220  15.015 -0.0423  0.1875 -0.4392
  766MPD2    H511370   0.503   2.205  14.935  1.6744  0.9402 -1.8737
  766MPD2    N111371   0.603   2.384  15.462 -0.2122 -0.0372  0.7272
  766MPD2    H711372   0.702   2.372  15.446 -0.4113 -2.0345  0.9925
  767MPD2     C11373   0.187   2.511  14.959 -0.3249  0.3834 -0.6775
  767MPD2    C111374   0.304   2.507  14.893  0.2623  0.5328 -0.3647
  767MPD2    C211375   0.322   2.458  14.766  0.6404  0.5457 -0.3283
  767MPD2    C311376   0.205   2.407  14.707 -0.7601  0.5570  0.2556
  767MPD2    C411377   0.082   2.428  14.765 -0.4532 -0.4470 -0.5427
  767MPD2    C511378   0.071   2.478  14.893 -0.2553  0.3861 -0.2473
  767MPD2     H11379   0.418   2.457  14.717  0.6591 -3.2908 -0.1785
  767MPD2    H111380   4.729   2.386  14.719 -2.4284  1.0207  1.9374
  767MPD2    H211381   0.175   2.550  15.060 -1.4535 -0.3176 -0.5386
  767MPD2    H311382   4.709   2.479  14.942 -1.0023  4.2609 -1.8336
  767MPD2     N11383   0.214   2.344  14.578 -0.2741 -0.9603  0.1321
  767MPD2    H511384   0.307   2.314  14.549 -0.7486  0.4626 -2.9203
  767MPD2    N111385   0.417   2.565  14.953 -0.5986 -0.0190 -0.3106
  767MPD2    H711386   0.391   2.613  15.039 -1.0963  2.1247 -1.6692
  768MPD2     C11387   1.124   1.842  10.335 -0.2395 -0.0595 -0.5354
  768MPD2    C111388   1.056   1.735  10.391  0.1320  1.0029 -0.5274
  768MPD2    C211389   1.135   1.632  10.443 -0.5405  0.4424  0.7472
  768MPD2    C311390   1.277   1.639  10.445  0.5186  0.1336  0.3972
  768MPD2    C411391   1.335   1.755  10.401  0.7733  0.3317 -0.2322
  768MPD2    C511392   1.262   1.846  10.328  0.2942  0.7070 -0.3740
  768MPD2     H11393   1.085   1.554  10.499  1.2361 -0.3889  1.1790
  768MPD2    H111394   1.442   1.772  10.413  0.8962 -0.6701  0.0280
  768MPD2    H211395   1.078   1.930  10.292  0.6691  0.5612 -0.2478
  768MPD2    H311396   1.307   1.938  10.292 -2.2820  1.9234 -0.4382
  768MPD2     N11397   1.365   1.549  10.511  0.1262  0.1604  0.5958
  768MPD2    H511398   1.457   1.580  10.540  0.9436 -0.9787 -0.7515
  768MPD2    N111399   0.919   1.726  10.421  0.4460  0.2930  0.2689
  768MPD2    H711400   0.885   1.643  10.468  1.5367  0.3953  1.2650
  769MPD2     C11401   2.426   3.554  14.817 -0.4486 -0.2611  0.3350
  769MPD2    C111402   2.341   3.488  14.901  0.1344 -0.1055  0.2998
  769MPD2    C211403   2.348   3.518  15.040  0.6471  0.7192  1.1697
  769MPD2    C311404   2.425   3.619  15.091  0.3281 -0.2611 -0.7280
  769MPD2    C411405   2.514   3.684  15.007  0.0877 -0.5849  0.0701
  769MPD2    C511406   2.508   3.649  14.869 -0.1994  0.0095  0.1878
  769MPD2     H11407   2.283   3.465  15.109 -0.4475  0.6005  0.0506
  769MPD2    H111408   2.570   3.771  15.041 -1.5531  0.9854 -1.2422
  769MPD2    H211409   2.423   3.544  14.709  0.2021  0.6396  0.2364
  769MPD2    H311410   2.565   3.703  14.794 -2.7666  2.7994  0.2421
  769MPD2     N11411   2.418   3.640  15.230  0.5337  0.8233 -0.3393
  769MPD2    H511412   2.356   3.569  15.267 -0.1605  2.0386  0.8167
  769MPD2    N111413   2.242   3.399  14.846 -0.0882 -0.6766 -0.2767
  769MPD2    H711414   2.222   3.403  14.747 -2.5591  0.3333  0.2738
  770MPD2     C11415   1.490   2.634  15.088 -0.0935 -0.4464  0.8452
  770MPD2    C111416   1.553   2.622  14.972  0.1429 -0.2633 -0.0654
  770MPD2    C211417   1.629   2.721  14.922  0.5282 -0.0083  0.1401
  770MPD2    C311418   1.657   2.833  14.993 -0.4415  0.0097  0.3464
  770MPD2    C411419   1.603   2.847  15.121  0.0085  0.0488  0.1672
  770MPD2    C511420   1.517   2.749  15.168  0.1688 -0.4526  0.3444
  770MPD2     H11421   1.672   2.707  14.823 -1.2389 -2.1593 -0.3293
  770MPD2    H111422   1.619   2.931  15.187  1.8384  0.8955 -1.3539
  770MPD2    H211423   1.427   2.555  15.127 -2.4332  0.3078 -1.3762
  770MPD2    H311424   1.478   2.760  15.269  0.4589 -0.2600  0.4345
  770MPD2     N11425   1.741   2.926  14.931  0.2858 -0.0780  0.2235
  770MPD2    H511426   1.753   2.916  14.830  0.5138 -1.8959  0.4220
  770MPD2    N111427   1.535   2.487  14.911 -0.0383 -0.0777 -0.2361
  770MPD2    H711428   1.456   2.436  14.950 -0.7872 -0.2624 -1.9968
  771MPD2     C11429   2.864   1.870  13.973 -1.5515 -0.2101 -0.4621
  771MPD2    C111430   2.764   1.961  13.934  0.0537 -0.2411  0.2089
  771MPD2    C211431   2.651   1.911  13.864  0.6041  0.1694  0.5049
  771MPD2    C311432   2.635   1.779  13.840 -0.7476  0.5813  0.4238
  771MPD2    C411433   2.737   1.689  13.882 -0.6575  1.0408 -0.5338
  771MPD2    C511434   2.843   1.740  13.955 -0.2423 -0.6193 -0.3857
  771MPD2     H11435   2.575   1.985  13.841  0.3391 -0.0746  0.5985
  771MPD2    H111436   2.719   1.582  13.870  3.6481 -0.1239  3.3774
  771MPD2    H211437   2.955   1.888  14.031 -0.5760  1.7636 -2.6152
  771MPD2    H311438   2.923   1.673  13.987 -0.2012  0.2016  1.2227
  771MPD2     N11439   2.510   1.737  13.791 -0.4839 -0.3014  0.0282
  771MPD2    H511440   2.448   1.817  13.776 -0.7899 -0.6513 -0.5627
  771MPD2    N111441   2.778   2.096  13.942 -0.1370  0.3408 -0.2212
  771MPD2    H711442   2.692   2.143  13.915 -0.7935 -1.0848 -0.5804
  772MPD2     C11443   2.365   2.608  13.718 -0.2705 -0.2325  0.2110
  772MPD2    C111444   2.373   2.510  13.816  0.5116 -0.0087  0.0188
  772MPD2    C211445   2.267   2.425  13.843 -0.1719  0.1803  0.0345
  772MPD2    C311446   2.148   2.447  13.775 -0.0425 -0.6974 -0.1251
  772MPD2    C411447   2.145   2.546  13.674 -0.1563  0.7453 -0.1633
  772MPD2    C511448   2.248   2.632  13.650 -0.4670  0.0987 -0.2085
  772MPD2     H11449   2.273   2.357  13.927  0.8311 -2.1338 -1.9018
  772MPD2    H111450   2.057   2.578  13.619 -0.4045 -1.1477 -0.8734
  772MPD2    H211451   2.450   2.671  13.692 -1.5379  0.8876 -1.2649
  772MPD2    H311452   2.228   2.711  13.578 -1.4584 -0.4567 -0.5504
  772MPD2     N11453   2.035   2.370  13.798  0.3658  0.0629  0.4061
  772MPD2    H511454   1.953   2.405  13.748  0.8281 -0.6281 -0.8420
  772MPD2    N111455   2.494   2.486  13.886 -0.0009  0.1991 -0.0819
  772MPD2    H711456   2.490   2.424  13.967 -0.4900  1.5548  0.9469
  773MPD2     C11457   2.078   2.822   0.480  0.0082  0.2341 -0.1132
  773MPD2    C111458   2.013   2.737   0.393  0.5302  0.3434  0.2325
  773MPD2    C211459   2.022   2.603   0.421  0.2219  0.2425  0.0726
  773MPD2    C311460   2.101   2.553   0.524 -0.0364 -0.3003  0.1167
  773MPD2    C411461   2.174   2.645   0.603  0.6591  0.6335  0.5470
  773MPD2    C511462   2.161   2.777   0.578 -0.2557 -0.2530  0.5494
  773MPD2     H11463   1.986   2.525   0.354  0.2314  0.1576  0.1659
  773MPD2    H111464   2.241   2.612   0.682  1.8025  0.9682 -0.2804
  773MPD2    H211465   2.061   2.927   0.460 -1.0696  0.2027  0.6108
  773MPD2    H311466   2.210   2.856   0.633 -0.2009 -0.1948  0.4165
  773MPD2     N11467   2.120   2.412   0.544 -0.2479 -0.3584 -0.5808
  773MPD2    H511468   2.068   2.351   0.483 -1.1590  1.0985 -1.2808
  773MPD2    N111469   1.923   2.784   0.294 -0.1050 -0.2112 -0.1334
  773MPD2    H711470   1.883   2.710   0.236  0.6011 -2.6403  2.4606
  774MPD2     C11471   1.353   2.368  12.990 -0.3087 -0.1870 -0.8403
  774MPD2    C111472   1.262   2.396  13.092 -0.0413 -0.4386  0.5315
  774MPD2    C211473   1.261   2.518  13.156 -0.2912 -0.2860 -0.1698
  774MPD2    C311474   1.355   2.615  13.122 -0.8392 -1.2785  0.3519
  774MPD2    C411475   1.446   2.588  13.024 -0.8285  0.2489  0.0725
  774MPD2    C511476   1.443   2.469  12.960 -0.0238  0.1161  0.1792
  774MPD2     H11477   1.182   2.543  13.227  1.3078  1.3865  1.0257
  774MPD2    H111478   1.532   2.650  12.998 -0.5527 -1.5279 -3.2293
  774MPD2    H211479   1.357   2.272  12.941  2.2882 -0.1335 -0.7357
  774MPD2    H311480   1.517   2.438  12.888 -1.5876  1.7652 -2.1164
  774MPD2     N11481   1.375   2.745  13.184 -0.1562 -0.3018 -0.2914
  774MPD2    H511482   1.457   2.801  13.161  0.7877 -1.3920  0.3661
  774MPD2    N111483   1.168   2.293  13.123 -0.1915  0.9415  0.0135
  774MPD2    H711484   1.184   2.206  13.072 -0.4561  1.5774 -1.1713
  775MPD2     C11485   2.740   3.557  15.859 -0.1474 -0.3430  0.0089
  775MPD2    C111486   2.654   3.664  15.888  1.2388 -0.6175 -0.0799
  775MPD2    C211487   2.651   3.772  15.805 -0.4925  0.6706  0.4393
  775MPD2    C311488   2.722   3.771  15.684 -0.3577 -0.2477  0.4085
  775MPD2    C411489   2.808   3.666  15.660  0.0672 -0.4195  0.1054
  775MPD2    C511490   2.815   3.553  15.741 -0.0824 -0.4278  0.2915
  775MPD2     H11491   2.575   3.845  15.829 -1.2910  0.0913 -0.3181
  775MPD2    H111492   2.879   3.661  15.578  1.6715 -0.2900  1.4941
  775MPD2    H211493   2.744   3.479  15.934 -1.9260 -0.3718  0.0875
  775MPD2    H311494   2.882   3.473  15.713 -0.5954 -0.8300  0.2272
  775MPD2     N11495   2.722   3.887  15.599 -0.5749 -0.2069  0.2890
  775MPD2    H511496   2.785   3.886  15.520 -0.0836  0.1682  0.6809
  775MPD2    N111497   2.575   3.655  16.007  0.2946  0.2270  0.3857
  775MPD2    H711498   2.602   3.579  16.069  0.0432 -1.7346 -1.9369
  776MPD2     C11499   0.383   4.362  11.484  0.5861  0.1124  0.0883
  776MPD2    C111500   0.477   4.415  11.564 -0.4502  1.4225 -1.0950
  776MPD2    C211501   0.557   4.519  11.520 -1.0139 -0.1011 -0.5337
  776MPD2    C311502   0.557   4.551  11.383  0.5592  0.7606 -0.3813
  776MPD2    C411503   0.455   4.494  11.305  1.1984 -0.1845 -1.1501
  776MPD2    C511504   0.365   4.407  11.355  0.2850  0.1955 -0.0916
  776MPD2     H11505   0.631   4.571  11.579 -1.6919 -1.6246  1.6507
  776MPD2    H111506   0.440   4.518  11.201 -0.5543 -0.7891 -1.0350
  776MPD2    H211507   0.312   4.290  11.523  0.4936  0.4145  0.4821
  776MPD2    H311508   0.289   4.376  11.285  0.8289 -2.2344  0.4067
  776MPD2     N11509   0.649   4.642  11.314 -0.1490  0.4530 -0.0845
  776MPD2    H511510   0.628   4.673  11.220  1.8768 -0.2568 -0.7727
  776MPD2    N111511   0.488   4.354  11.695  0.1661 -0.1607  0.2501
  776MPD2    H711512   0.422   4.279  11.715 -0.5729 -0.0525 -1.7360
  777MPD2     C11513   2.247   1.556   1.096 -0.2337 -0.2050  0.8115
  777MPD2    C111514   2.127   1.629   1.110 -0.1244  0.4843 -0.1926
  777MPD2    C211515   2.011   1.582   1.046 -0.1699 -0.1518 -0.1673
  777MPD2    C311516   2.020   1.464   0.976 -0.0756  0.0545  0.3209
  777MPD2    C411517   2.130   1.388   0.979 -0.0570  0.5208  0.2934
  777MPD2    C511518   2.244   1.432   1.030  0.0115 -0.1222  0.3609
  777MPD2     H11519   1.917   1.636   1.044 -0.5937 -0.9311 -1.0502
  777MPD2    H111520   2.132   1.288   0.938  1.4215  1.2178 -1.3528
  777MPD2    H211521   2.339   1.596   1.136  0.5113 -0.0410 -1.0585
  777MPD2    H311522   2.329   1.364   1.036  1.4438  1.7369  1.1470
  777MPD2     N11523   1.908   1.420   0.906  0.2339  0.0933 -0.0113
  777MPD2    H511524   1.831   1.486   0.913  0.0426 -0.2093  0.7996
  777MPD2    N111525   2.134   1.745   1.188 -0.2863 -0.3154  0.4949
  777MPD2    H711526   2.227   1.763   1.225  0.4575 -1.3781 -0.8789
  778MPD2     C11527   2.981   1.463  15.061 -0.0328  0.0768 -0.0228
  778MPD2    C111528   2.953   1.410  14.938 -0.1065 -0.3147 -0.4345
  778MPD2    C211529   2.995   1.487  14.824 -0.7661  0.1720  0.7488
  778MPD2    C311530   3.047   1.612  14.843 -0.5106  0.2084 -0.6761
  778MPD2    C411531   3.080   1.660  14.964  1.2148  1.1244  0.0817
  778MPD2    C511532   3.054   1.577  15.072  0.2032 -0.1575  0.2107
  778MPD2     H11533   2.964   1.458  14.725 -0.2896 -0.7255  0.8597
  778MPD2    H111534   3.130   1.754  14.985  1.9156  1.1879 -1.9257
  778MPD2    H211535   2.957   1.400  15.146  0.9285  1.4344  1.2748
  778MPD2    H311536   3.074   1.617  15.171 -1.2285 -2.5655  1.4673
  778MPD2     N11537   3.068   1.693  14.727  0.7808 -0.8902 -0.0788
  778MPD2    H511538   3.033   1.660  14.638 -1.3853 -0.7625  0.7348
  778MPD2    N111539   2.870   1.293  14.917  0.7078  0.3547 -0.1119
  778MPD2    H711540   2.810   1.299  14.835 -1.0418  0.2637  1.1496
  779MPD2     C11541   2.702   0.725  13.455  0.5171  0.4510 -0.0328
  779MPD2    C111542   2.775   0.694  13.570  0.8280  0.3362 -0.0700
  779MPD2    C211543   2.797   0.785  13.666 -0.1040 -0.0035 -0.3746
  779MPD2    C311544   2.743   0.914  13.658  0.3708 -0.1883  0.2103
  779MPD2    C411545   2.673   0.941  13.548  0.1656  0.1755 -0.6894
  779MPD2    C511546   2.658   0.851  13.443 -0.6451  0.1914 -0.3832
  779MPD2     H11547   2.858   0.774  13.755 -0.9365  1.9723  0.4555
  779MPD2    H111548   2.629   1.040  13.538 -1.5470 -0.4608  0.5462
  779MPD2    H211549   2.698   0.660  13.369 -2.1937 -0.0724  0.4817
  779MPD2    H311550   2.613   0.884  13.350  0.3925 -0.6586 -1.1887
  779MPD2     N11551   2.747   1.013  13.757  0.2525 -0.2303 -0.7005
  779MPD2    H511552   2.696   1.100  13.751 -1.8350 -1.5209 -1.7756
  779MPD2    N111553   2.818   0.566  13.590  0.4889  0.1458  0.0738
  779MPD2    H711554   2.862   0.561  13.681  2.2120 -0.1740 -0.7735
  780MPD2     C11555   1.734   0.384   0.738  0.0996  0.1234 -0.1897
  780MPD2    C111556   1.801   0.265   0.721  0.1023 -0.4122  0.4708
  780MPD2    C211557   1.927   0.264   0.657  0.0305  0.1647 -0.2352
  780MPD2    C311558   1.993   0.381   0.625 -0.1249  0.3278 -0.1587
  780MPD2    C411559   1.923   0.504   0.650 -0.5552  0.1750 -0.2456
  780MPD2    C511560   1.795   0.505   0.711 -0.3787 -0.5069  0.1936
  780MPD2     H11561   1.980   0.170   0.646 -0.8987 -0.3446 -0.4171
  780MPD2    H111562   1.965   0.602   0.630  1.2396 -0.6556 -0.5624
  780MPD2    H211563   1.644   0.397   0.798  0.5882 -2.0081  1.0010
  780MPD2    H311564   1.747   0.600   0.729 -0.0610 -0.9584  3.3718
  780MPD2     N11565   2.116   0.384   0.563  0.6308 -0.2228 -0.4941
  780MPD2    H511566   2.157   0.295   0.537  1.0894  0.9265 -3.6120
  780MPD2    N111567   1.758   0.142   0.761  0.3089 -0.0787 -0.3256
  780MPD2    H711568   1.830   0.071   0.760  0.3665 -0.0033 -2.2441
  781MPD2     C11569   3.340   3.030  12.265 -0.1013  0.3807  0.1415
  781MPD2    C111570   3.461   3.028  12.324 -0.1726  0.0586  0.0078
  781MPD2    C211571   3.569   3.067  12.249  0.1855 -0.2866 -0.5590
  781MPD2    C311572   3.556   3.104  12.115  0.8278  0.1242 -0.2856
  781MPD2    C411573   3.431   3.133  12.070 -0.7540  0.4145  0.2337
  781MPD2    C511574   3.325   3.082  12.140  0.0106  0.1381  0.1695
  781MPD2     H11575   3.671   3.056  12.283 -0.7516 -4.3538  0.9733
  781MPD2    H111576   3.414   3.168  11.969 -1.8150 -1.4387 -0.2379
  781MPD2    H211577   3.257   2.978  12.311  0.4825 -0.5486  0.1565
  781MPD2    H311578   3.227   3.080  12.095  0.1650 -1.0266 -0.1036
  781MPD2     N11579   3.666   3.100  12.018 -0.8401  0.0680  0.1311
  781MPD2    H511580   3.656   3.134  11.923 -0.0867 -0.5232 -0.1629
  781MPD2    N111581   3.477   2.966  12.453  0.3820  0.1685 -0.4009
  781MPD2    H711582   3.390   2.935  12.497  0.6392  0.4151  0.2804
  782MPD2     C11583   1.735   4.197  10.119 -0.0409 -0.4414  0.2900
  782MPD2    C111584   1.786   4.080  10.170 -0.2816  0.6093 -0.1760
  782MPD2    C211585   1.885   4.077  10.266 -0.3023 -0.1760 -0.0527
  782MPD2    C311586   1.926   4.198  10.325  0.4420 -0.4519  0.2114
  782MPD2    C411587   1.886   4.313  10.255 -0.0788 -0.8704 -1.7537
  782MPD2    C511588   1.788   4.313  10.154 -0.5460 -0.7122  0.0176
  782MPD2     H11589   1.941   3.989  10.297  1.1394  0.9739  0.5860
  782MPD2    H111590   1.928   4.409  10.281  1.3001 -1.9104 -0.1505
  782MPD2    H211591   1.658   4.194  10.042 -0.8928  1.1369  1.0869
  782MPD2    H311592   1.761   4.396  10.090 -1.9159 -0.5095  0.8672
  782MPD2     N11593   2.018   4.198  10.427  0.2119  0.2672 -0.2458
  782MPD2    H511594   2.066   4.285  10.447  1.8191 -1.3488  2.9747
  782MPD2    N111595   1.744   3.961  10.103  0.0301 -0.6761  0.1794
  782MPD2    H711596   1.688   3.989  10.024 -1.4599 -0.5515  1.2741
  783MPD2     C11597   1.492   4.073  11.032 -0.0837  0.2462 -0.1029
  783MPD2    C111598   1.522   3.937  11.038  0.0676  0.3484  0.0494
  783MPD2    C211599   1.573   3.876  10.923 -0.3751  0.2614  0.9595
  783MPD2    C311600   1.609   3.953  10.815  0.1181  0.2412  1.0183
  783MPD2    C411601   1.588   4.088  10.807  0.3807  0.2850  0.3962
  783MPD2    C511602   1.525   4.145  10.918 -0.0500 -0.1602  0.6258
  783MPD2     H11603   1.575   3.769  10.910  0.1747  0.5478 -1.3682
  783MPD2    H111604   1.621   4.141  10.718  1.3367  2.2002  1.8821
  783MPD2    H211605   1.437   4.124  11.110 -1.4944 -1.3710 -0.0421
  783MPD2    H311606   1.511   4.252  10.904  2.9860 -0.0437 -1.4127
  783MPD2     N11607   1.678   3.883  10.711 -0.2264 -1.0663  0.6397
  783MPD2    H511608   1.693   3.785  10.732  2.8280 -0.6843  0.2664
  783MPD2    N111609   1.486   3.867  11.151 -0.2460  0.0701 -0.2866
  783MPD2    H711610   1.429   3.908  11.223 -3.1430  0.6324 -2.9185
  784MPD2     C11611   4.705   3.787   0.507 -0.8133  0.1849 -0.6257
  784MPD2    C111612   4.613   3.871   0.562  0.2398  1.0020  0.6760
  784MPD2    C211613   4.528   3.934   0.476 -0.4346 -1.1705  0.4017
  784MPD2    C311614   4.534   3.926   0.340 -0.5417 -0.1317 -0.0841
  784MPD2    C411615   4.631   3.847   0.289 -0.0929 -0.4073 -0.0513
  784MPD2    C511616   4.720   3.777   0.369 -0.7081 -0.0970 -0.4443
  784MPD2     H11617   4.453   4.002   0.517 -2.6723 -2.7958 -0.9885
  784MPD2    H111618   4.653   3.849   0.182  3.5728 -0.5308  0.7201
  784MPD2    H211619   0.047   3.731   0.559 -1.1045 -0.3046 -0.7137
  784MPD2    H311620   0.070   3.720   0.333 -1.8785 -0.7651 -2.1884
  784MPD2     N11621   4.438   4.000   0.268 -0.8695  0.1036 -0.2102
  784MPD2    H511622   4.370   4.060   0.313 -0.3452  0.3773  0.2196
  784MPD2    N111623   4.592   3.885   0.701  0.1597 -0.2834 -0.4865
  784MPD2    H711624   4.513   3.946   0.722 -0.9279 -1.8817  0.0563
  785MPD2     C11625   0.330   2.571  11.241  0.4936 -0.0789  0.2593
  785MPD2    C111626   0.216   2.607  11.180 -0.7561 -0.0843 -0.1539
  785MPD2    C211627   0.135   2.504  11.124  0.1029 -0.1263  0.5541
  785MPD2    C311628   0.177   2.377  11.123  0.3909  0.2147 -0.6366
  785MPD2    C411629   0.297   2.339  11.184  0.2031 -0.3397  0.5099
  785MPD2    C511630   0.366   2.440  11.246  0.4736  0.1747  0.1167
  785MPD2     H11631   0.043   2.531  11.075  0.3991 -0.7585 -0.3431
  785MPD2    H111632   0.333   2.237  11.193  2.8614  0.6576  0.9171
  785MPD2    H211633   0.395   2.647  11.284  1.9191 -1.1607  0.0202
  785MPD2    H311634   0.449   2.417  11.312  0.0322  0.5138  0.8005
  785MPD2     N11635   0.087   2.281  11.059  0.3538 -0.8404  0.2069
  785MPD2    H511636   0.002   2.325  11.026  0.5119 -1.6150 -1.2093
  785MPD2    N111637   0.187   2.746  11.172  0.7821 -0.0489 -0.1554
  785MPD2    H711638   0.266   2.809  11.169  0.0928  0.7679 -1.2358
  786MPD2     C11639   3.023   0.025  15.174 -0.0865 -0.1887  0.9336
  786MPD2    C111640   3.106   4.731  15.066 -0.0391  0.6283 -0.6740
  786MPD2    C211641   3.243   0.024  15.076  0.4651  0.3635  0.3892
  786MPD2    C311642   3.287   0.092  15.190 -0.1859  0.1326  0.1653
  786MPD2    C411643   3.204   0.105  15.301 -0.0565 -0.1284  0.2544
  786MPD2    C511644   3.074   0.072  15.293 -0.2770  0.7091  0.4156
  786MPD2     H11645   3.317   4.727  15.004  1.8710 -2.1947  2.9614
  786MPD2    H111646   3.226   0.150  15.397 -0.7495  1.0310 -0.1300
  786MPD2    H211647   2.919   4.731  15.175 -0.4331  1.0425 -1.7675
  786MPD2    H311648   3.011   0.079  15.381 -2.7106  0.3722 -1.2729
  786MPD2     N11649   3.420   0.139  15.205 -0.6462 -0.0446  0.5157
  786MPD2    H511650   3.439   0.169  15.301  0.8716  1.2879 -0.1966
  786MPD2    N111651   3.056   4.666  14.953  0.4414  0.7339  0.4006
  786MPD2    H711652   3.133   4.635  14.894 -0.6069  1.8150 -1.5471
  787MPD2     C11653   3.243   4.076  14.818  0.0186  0.1407  0.0659
  787MPD2    C111654   3.184   4.117  14.699  0.5163  0.2229  0.1887
  787MPD2    C211655   3.225   4.056  14.580 -0.0576  0.2524 -0.3087
  787MPD2    C311656   3.317   3.952  14.577 -0.2503 -0.6081 -0.3213
  787MPD2    C411657   3.373   3.912  14.702  0.5956  0.2017 -0.4257
  787MPD2    C511658   3.328   3.970  14.819  0.2972  0.1106  0.2110
  787MPD2     H11659   3.186   4.087  14.484  0.0460 -3.3308 -1.5137
  787MPD2    H111660   3.446   3.832  14.714  1.6941  1.7126  2.7601
  787MPD2    H211661   3.224   4.123  14.913  1.1230  1.2209 -0.2482
  787MPD2    H311662   3.360   3.931  14.915 -1.0781 -0.9342  0.2380
  787MPD2     N11663   3.359   3.902  14.450 -0.1987 -0.4101  0.1965
  787MPD2    H511664   3.330   3.952  14.366 -1.6965  1.7818  2.0314
  787MPD2    N111665   3.099   4.226  14.708 -0.3287 -0.4154  0.1056
  787MPD2    H711666   3.083   4.259  14.803 -0.7198  0.7028 -0.3425
  788MPD2     C11667   0.714   2.843   1.154 -0.4688 -0.4254 -0.3460
  788MPD2    C111668   0.761   2.779   1.041  0.5780  0.8745  0.5617
  788MPD2    C211669   0.801   2.853   0.930 -0.6425 -0.2746  0.4234
  788MPD2    C311670   0.789   2.991   0.933  0.4729  0.1667  0.2401
  788MPD2    C411671   0.742   3.051   1.048  0.1768 -1.1170 -0.0809
  788MPD2    C511672   0.689   2.976   1.152 -0.2677 -0.0114  0.7459
  788MPD2     H11673   0.832   2.796   0.843 -2.6356 -1.4029  0.4545
  788MPD2    H111674   0.733   3.159   1.048 -0.9685 -1.2096  1.4738
  788MPD2    H211675   0.709   2.802   1.254  0.4644  1.0953  0.3244
  788MPD2    H311676   0.647   3.020   1.242 -0.4093 -0.8613  1.0952
  788MPD2     N11677   0.797   3.076   0.816 -0.4381  0.0770 -0.3365
  788MPD2    H511678   0.783   3.176   0.826  1.2460  0.3257 -0.5416
  788MPD2    N111679   0.788   2.640   1.030 -0.4397 -0.0412  0.1004
  788MPD2    H711680   0.837   2.609   0.947 -0.5289 -1.1983  0.4882
  789MPD2     C11681   0.918   2.117  16.435 -0.2096  0.4583  0.5092
  789MPD2    C111682   0.878   2.201  16.333 -0.1516 -0.1279  0.2811
  789MPD2    C211683   0.818   2.320  16.366  0.1462 -0.6409 -0.2055
  789MPD2    C311684   0.798   2.358  16.495  0.3994  0.0264 -0.2453
  789MPD2    C411685   0.840   2.268  16.591 -0.2613  0.2183  0.4578
  789MPD2    C511686   0.900   2.146  16.565 -0.1185 -0.3727 -1.2559
  789MPD2     H11687   0.769   2.372  16.285 -0.0202 -0.3791  0.0671
  789MPD2    H111688   0.832   2.297  16.695  2.1380  0.2620  0.6442
  789MPD2    H211689   0.960   2.021  16.408 -0.7258  0.8881 -1.8332
  789MPD2    H311690   0.926   2.071  16.638  0.6997  0.1810 -0.9833
  789MPD2     N11691   0.725   2.468  16.543  0.5679  0.1547 -0.1094
  789MPD2    H511692   0.712   2.473  16.643 -0.6391 -0.3458 -0.2378
  789MPD2    N111693   0.871   2.163  16.200 -0.2023 -0.0540 -0.4798
  789MPD2    H711694   0.826   2.221  16.130  0.4056  3.9120  2.4270
  790MPD2     C11695   1.488   4.319  13.618  0.2412  0.8713 -0.3420
  790MPD2    C111696   1.422   4.229  13.536  0.5432  0.3550  0.1796
  790MPD2    C211697   1.336   4.271  13.443  0.1482  1.0094  0.6103
  790MPD2    C311698   1.319   4.403  13.413 -0.0166 -0.3968  0.0988
  790MPD2    C411699   1.389   4.489  13.500 -0.3098  0.4792  0.4145
  790MPD2    C511700   1.460   4.448  13.604  1.0076  0.2300 -0.8246
  790MPD2     H11701   1.270   4.197  13.399  0.6157  1.7638 -1.3611
  790MPD2    H111702   1.377   4.596  13.486 -1.9664  0.1133 -0.9862
  790MPD2    H211703   1.556   4.286  13.695  1.1661  2.2541 -0.5746
  790MPD2    H311704   1.504   4.517  13.675 -3.0811  3.0913 -1.0471
  790MPD2     N11705   1.224   4.440  13.315  0.0527 -0.5004  0.4972
  790MPD2    H511706   1.166   4.366  13.276 -1.7206 -0.1830  2.4655
  790MPD2    N111707   1.439   4.092  13.566  0.6952  0.1529 -0.0666
  790MPD2    H711708   1.508   4.070  13.637  2.7481  2.5915 -1.3000
  791MPD2     C11709   0.405   4.601  13.077 -0.6267 -0.1261  0.2471
  791MPD2    C111710   0.505   4.514  13.111 -0.3705  0.2599 -0.2307
  791MPD2    C211711   0.473   4.382  13.115 -0.1825 -0.1448 -0.2449
  791MPD2    C311712   0.346   4.340  13.089 -0.6156 -0.4406 -0.3701
  791MPD2    C411713   0.248   4.432  13.055 -0.3381  0.2489 -0.3590
  791MPD2    C511714   0.277   4.565  13.056  0.1150  0.4357  0.7370
  791MPD2     H11715   0.548   4.310  13.145  0.7615 -0.1283 -2.5914
  791MPD2    H111716   0.146   4.405  13.031 -1.1220 -0.7288  4.1790
  791MPD2    H211717   0.430   4.706  13.065 -1.0108 -0.2155 -1.3755
  791MPD2    H311718   0.197   4.632  13.028  0.7549  0.5507 -0.7922
  791MPD2     N11719   0.318   4.201  13.071 -0.2583  0.3748  0.3879
  791MPD2    H511720   0.400   4.142  13.081  0.5656  1.5181  0.2068
  791MPD2    N111721   0.634   4.556  13.127 -0.1089  0.0371  0.1546
  791MPD2    H711722   0.646   4.654  13.100  2.9384 -0.7658 -1.3965
  792MPD2     C11723   1.441   4.540  11.336 -0.5822 -0.1409 -0.1515
  792MPD2    C111724   1.465   4.515  11.204 -0.3853 -0.5125  0.1152
  792MPD2    C211725   1.365   4.447  11.134 -0.3253 -0.1139 -0.2618
  792MPD2    C311726   1.252   4.395  11.206  0.3392  0.3599  0.5417
  792MPD2    C411727   1.241   4.414  11.344  0.0962 -0.4662  0.4337
  792MPD2    C511728   1.334   4.498  11.401 -0.2334  0.1622 -0.1127
  792MPD2     H11729   1.385   4.418  11.031  1.0081 -2.0511  0.5643
  792MPD2    H111730   1.152   4.383  11.398  0.1785  0.4346  1.0800
  792MPD2    H211731   1.516   4.601  11.386  0.1344 -0.5851 -0.6965
  792MPD2    H311732   1.326   4.526  11.505  0.7354 -0.7582  0.2078
  792MPD2     N11733   1.158   4.305  11.150 -0.5589 -0.0164  0.3525
  792MPD2    H511734   1.101   4.259  11.220  0.1510  0.4093  1.2068
  792MPD2    N111735   1.591   4.565  11.152  0.1989  0.3553  0.2315
  792MPD2    H711736   1.656   4.617  11.210  1.3624 -0.4788 -0.3125
  793MPD2     C11737   1.205   4.381  10.251  0.6229 -0.2754  0.1354
  793MPD2    C111738   1.291   4.393  10.366  0.0936 -0.1784  0.0348
  793MPD2    C211739   1.263   4.321  10.476  0.5789  0.3569 -0.9062
  793MPD2    C311740   1.159   4.232  10.490  0.3225  0.3229  0.1797
  793MPD2    C411741   1.084   4.218  10.377  0.4593 -0.3589  0.5834
  793MPD2    C511742   1.106   4.287  10.265  0.5547  0.5797 -0.7922
  793MPD2     H11743   1.328   4.338  10.560  0.0195  1.4610 -0.6998
  793MPD2    H111744   1.006   4.143  10.370  0.8301 -0.9520  2.6894
  793MPD2    H211745   1.235   4.409  10.151 -1.0818  0.3060 -0.2201
  793MPD2    H311746   1.059   4.246  10.176 -0.3779 -0.2693  0.0881
  793MPD2     N11747   1.128   4.184  10.619  0.4381  0.3874  0.0725
  793MPD2    H511748   1.195   4.202  10.693  0.4738 -2.1320  0.6684
  793MPD2    N111749   1.414   4.475  10.358 -0.6676  0.2093 -0.4597
  793MPD2    H711750   1.471   4.481  10.442  0.1875 -1.5033 -0.9209
  794MPD2     C11751   1.865   3.162  17.246  0.0348 -0.7730 -0.3861
  794MPD2    C111752   1.754   3.097  17.289 -0.4775 -0.4588  0.2161
  794MPD2    C211753   1.656   3.066  17.195  0.8268  0.7924  0.1287
  794MPD2    C311754   1.667   3.102  17.063  0.3972 -0.1266 -0.5485
  794MPD2    C411755   1.788   3.153  17.027  0.1347 -0.3514  0.1279
  794MPD2    C511756   1.886   3.183  17.116 -0.1770 -0.2446  0.1401
  794MPD2     H11757   1.573   3.001  17.222 -0.1439  2.3755  0.9289
  794MPD2    H111758   1.808   3.186  16.925  0.8859 -0.8935  0.0973
  794MPD2    H211759   1.952   3.192  17.304 -0.6681  2.7641 -1.1483
  794MPD2    H311760   1.971   3.232  17.069 -0.1491 -0.7015 -0.2779
  794MPD2     N11761   1.569   3.079  16.963  0.0539 -0.5388 -0.3785
  794MPD2    H511762   1.615   3.078  16.873 -0.8288 -0.6847 -0.8268
  794MPD2    N111763   1.743   3.046  17.428 -0.0704  0.4499 -0.4391
  794MPD2    H711764   1.657   2.995  17.444 -1.0087  1.4415 -2.2911
  795MPD2     C11765   3.500   0.367  13.616 -0.7652 -0.0080 -0.1000
  795MPD2    C111766   3.600   0.459  13.582 -0.3027  0.5203 -0.5102
  795MPD2    C211767   3.713   0.473  13.661 -0.4634 -0.2590  0.1665
  795MPD2    C311768   3.732   0.391  13.771  0.1445 -0.1765  0.4126
  795MPD2    C411769   3.628   0.309  13.808 -0.4907 -0.9561  0.3165
  795MPD2    C511770   3.515   0.298  13.734 -0.5416 -0.1862  0.5404
  795MPD2     H11771   3.791   0.543  13.635  0.0793 -0.1899  1.9715
  795MPD2    H111772   3.636   0.245  13.896 -0.9059 -1.0083  0.3123
  795MPD2    H211773   3.410   0.361  13.557 -2.1664  0.5796  1.9922
  795MPD2    H311774   3.445   0.219  13.759 -2.8609  0.1805 -4.9777
  795MPD2     N11775   3.856   0.386  13.847  0.9314  0.0231 -0.3211
  795MPD2    H511776   3.855   0.327  13.929 -0.3161 -2.1723 -1.9122
  795MPD2    N111777   3.583   0.543  13.470  0.3321  0.2965 -0.0973
  795MPD2    H711778   3.647   0.621  13.463  0.2498  0.3928  0.2075
  796MPD2     C11779   3.509   2.729  15.601  0.8312 -0.4978 -0.3616
  796MPD2    C111780   3.586   2.759  15.711 -0.2955 -0.1781 -0.3087
  796MPD2    C211781   3.609   2.890  15.748  0.5563 -0.1774 -0.5838
  796MPD2    C311782   3.536   2.992  15.696  0.3483  0.2244 -0.3354
  796MPD2    C411783   3.456   2.963  15.588  0.3575  0.3939 -0.5201
  796MPD2    C511784   3.435   2.831  15.549  0.2876  0.2199  0.1237
  796MPD2     H11785   3.678   2.927  15.823  0.5051 -1.4197  0.0775
  796MPD2    H111786   3.391   3.031  15.534 -0.0835  1.8528  1.8406
  796MPD2    H211787   3.489   2.627  15.571 -3.5125 -0.4994  2.4865
  796MPD2    H311788   3.370   2.815  15.464  0.0206  0.3371  0.3078
  796MPD2     N11789   3.555   3.121  15.740  0.0674 -0.2490  0.0110
  796MPD2    H511790   3.622   3.139  15.815 -0.1025 -0.2181  0.1559
  796MPD2    N111791   3.648   2.644  15.764 -0.4945 -0.2753 -0.2269
  796MPD2    H711792   3.656   2.561  15.707  2.1473 -1.1509  1.3921
  797MPD2     C11793   4.498   1.743  17.324  0.0598 -0.0390 -0.3240
  797MPD2    C111794   4.558   1.865  17.347 -0.6653  0.1487 -0.1768
  797MPD2    C211795   4.512   1.974  17.278  0.1129  0.1252  0.6675
  797MPD2    C311796   4.422   1.956  17.181 -0.3675  0.3744  0.4129
  797MPD2    C411797   4.381   1.830  17.149  0.8071  0.5179 -0.4452
  797MPD2    C511798   4.409   1.726  17.225  0.1163  0.1801 -0.9159
  797MPD2     H11799   4.546   2.072  17.310 -2.2530  1.4512 -0.8497
  797MPD2    H111800   4.319   1.808  17.063  1.5279  0.5297 -0.9651
  797MPD2    H211801   4.539   1.657  17.374 -0.0526 -0.3324 -0.7358
  797MPD2    H311802   4.354   1.633  17.219 -2.2190  1.3101  2.8303
  797MPD2     N11803   4.376   2.079  17.124  0.1416  0.1677 -0.1183
  797MPD2    H511804   4.407   2.162  17.173  1.1791 -0.9138  1.0709
  797MPD2    N111805   4.665   1.896  17.430  0.7615 -0.2459 -0.3007
  797MPD2    H711806   4.708   1.988  17.430  1.2251 -0.4596 -0.0872
  798MPD2     C11807   4.592   2.642  17.473 -0.8184  1.1450 -0.6748
  798MPD2    C111808   4.573   2.525  17.397 -0.3223 -0.2353  0.4041
  798MPD2    C211809   4.651   2.421  17.428 -0.4319  0.0023  0.6009
  798MPD2    C311810   0.005   2.410  17.537  0.1290  0.0714 -0.1305
  798MPD2    C411811   0.014   2.524  17.616 -0.7793  0.0132 -0.5476
  798MPD2    C511812   4.674   2.636  17.587 -0.0110 -0.3768  0.1494
  798MPD2     H11813   4.646   2.328  17.372  3.5105 -0.4055  0.9491
  798MPD2    H111814   0.069   2.528  17.710  0.6903 -3.1431 -1.2903
  798MPD2    H211815   4.534   2.730  17.447 -0.6499  1.2696 -0.6301
  798MPD2    H311816   4.676   2.718  17.657 -1.0906  1.6167 -2.1572
  798MPD2     N11817   0.070   2.287  17.551  0.0633 -0.1284  0.2094
  798MPD2    H511818   0.054   2.224  17.473 -1.5699 -1.4933  1.6362
  798MPD2    N111819   4.474   2.527  17.287 -0.4444  0.6977  0.4104
  798MPD2    H711820   4.416   2.607  17.265 -0.5665  0.8026  1.1109
  799MPD2     C11821   3.163   3.507  14.662  0.3457  0.3970  0.6363
  799MPD2    C111822   3.057   3.423  14.610  0.0095  0.5538 -0.8536
  799MPD2    C211823   2.970   3.481  14.519 -0.3959 -0.1618  1.0361
  799MPD2    C311824   2.988   3.609  14.478  0.0954  0.1234  0.1983
  799MPD2    C411825   3.080   3.690  14.541 -0.0135  0.5357  0.8885
  799MPD2    C511826   3.162   3.638  14.635  0.5633  0.2625  0.0457
  799MPD2     H11827   2.886   3.420  14.488 -0.1231 -0.5306  1.0192
  799MPD2    H111828   3.091   3.794  14.512  1.2759  0.2211  0.2130
  799MPD2    H211829   3.245   3.474  14.725  0.9369 -1.3567 -1.0490
  799MPD2    H311830   3.232   3.703  14.686  0.7799  2.2222 -2.7131
  799MPD2     N11831   2.910   3.670  14.374  0.2904  0.1418  0.0190
  799MPD2    H511832   2.918   3.766  14.343  0.0784  0.4465  0.8914
  799MPD2    N111833   3.033   3.293  14.660 -0.7737 -0.0739 -0.5879
  799MPD2    H711834   2.938   3.262  14.643 -1.6889  2.7133 -0.6628
  800MPD2     C11835   3.792   4.665  14.397 -0.0186 -0.0100 -0.2231
  800MPD2    C111836   3.927   4.671  14.372  0.2624 -0.0640 -0.9540
  800MPD2    C211837   3.989   4.561  14.319 -0.3946  0.3078 -0.6167
  800MPD2    C311838   3.920   4.446  14.284 -0.2958  0.2048 -0.1624
  800MPD2    C411839   3.783   4.439  14.312 -0.0661  0.5932  0.3207
  800MPD2    C511840   3.723   4.550  14.374  0.1015  0.0528  0.4113
  800MPD2     H11841   4.093   4.571  14.290 -0.7220  0.2377 -1.8089
  800MPD2    H111842   3.719   4.356  14.285 -2.1246  1.3902  2.7389
  800MPD2    H211843   3.730   0.016  14.420  1.2420  1.2419 -1.4735
  800MPD2    H311844   3.617   4.558  14.352  0.0705 -1.6843 -0.0829
  800MPD2     N11845   3.993   4.338  14.223 -0.4199 -0.1967 -1.3558
  800MPD2    H511846   4.093   4.350  14.237 -0.4057 -0.5433 -1.1602
  800MPD2    N111847   3.993   0.051  14.417 -0.0329 -0.1032 -0.1795
  800MPD2    H711848   3.935   0.128  14.447  0.3227  0.0424  0.1413
  801MPD2     C11849   3.901   0.674  14.044 -0.4723 -0.0822 -0.4922
  801MPD2    C111850   3.862   0.572  14.131 -0.5193 -0.0197 -0.4962
  801MPD2    C211851   3.731   0.546  14.151  0.0366 -0.5943 -0.5196
  801MPD2    C311852   3.632   0.605  14.074  0.3821  0.3936 -0.0273
  801MPD2    C411853   3.675   0.693  13.981 -0.9259  0.3289 -0.3156
  801MPD2    C511854   3.809   0.737  13.966  0.1420  0.6811  1.9658
  801MPD2     H11855   3.704   0.472  14.225  0.3595 -0.1072  0.0909
  801MPD2    H111856   3.600   0.741  13.918 -1.3471  0.8583  0.5993
  801MPD2    H211857   4.004   0.696  14.018  0.5801  0.3338  3.9714
  801MPD2    H311858   3.824   0.815  13.892  1.4970 -2.1204 -0.7291
  801MPD2     N11859   3.495   0.576  14.083 -0.3286  0.7166  0.2043
  801MPD2    H511860   3.441   0.602  14.001  1.3849  0.1831 -1.0873
  801MPD2    N111861   3.951   0.487  14.208  0.5973 -0.6314 -0.8757
  801MPD2    H711862   3.906   0.413  14.261  0.0015 -0.6832 -1.4510
  802MPD2     C11863   2.591   0.561  17.208 -0.5507 -0.4175 -0.2152
  802MPD2    C111864   2.721   0.530  17.166 -0.3583  0.3039  0.1528
  802MPD2    C211865   2.739   0.410  17.100  0.7870 -0.5475  0.3729
  802MPD2    C311866   2.627   0.325  17.077 -0.0132  0.5121  0.4925
  802MPD2    C411867   2.500   0.358  17.111  0.7010  0.5401  0.1537
  802MPD2    C511868   2.483   0.478  17.177  0.8831  0.4731  0.0609
  802MPD2     H11869   2.835   0.369  17.072  0.4877  0.0303 -1.4679
  802MPD2    H111870   2.420   0.286  17.102  1.1817  0.1477 -0.9743
  802MPD2    H211871   2.568   0.648  17.269  2.0981  0.1734 -0.0732
  802MPD2    H311872   2.383   0.501  17.212  1.1232  0.7748  0.5351
  802MPD2     N11873   2.658   0.194  17.041 -0.3486  0.2394  1.3088
  802MPD2    H511874   2.757   0.185  17.024 -0.2350 -1.3545  2.9017
  802MPD2    N111875   2.836   0.611  17.175  0.2626  0.6059  0.3230
  802MPD2    H711876   2.924   0.571  17.141  0.2412  0.3868  0.5274
  803MPD2     C11877   4.328   3.817  11.957 -0.9709  0.0304  0.1061
  803MPD2    C111878   4.282   3.914  12.043  0.0963 -1.1889 -0.0098
  803MPD2    C211879   4.231   3.872  12.166  0.2440 -0.0017  0.7615
  803MPD2    C311880   4.213   3.734  12.187  0.1353 -0.3133 -0.6427
  803MPD2    C411881   4.252   3.636  12.095 -0.5952  0.0324 -0.0897
  803MPD2    C511882   4.310   3.683  11.977 -0.2067  0.1172  0.6441
  803MPD2     H11883   4.180   3.945  12.228  0.6575  1.3195 -0.4646
  803MPD2    H111884   4.221   3.532  12.103  1.0366 -0.4627 -0.1707
  803MPD2    H211885   4.390   3.850  11.874 -1.3364 -1.6233 -0.8222
  803MPD2    H311886   4.332   3.618  11.893 -0.5166 -0.1902  0.8059
  803MPD2     N11887   4.144   3.688  12.305  0.2445 -0.2478  0.6117
  803MPD2    H511888   4.165   3.590  12.319  0.4113 -0.4446 -0.9673
  803MPD2    N111889   4.291   4.057  12.017 -0.3129 -0.3371  0.0409
  803MPD2    H711890   4.246   4.121  12.081 -1.2081  1.0965 -1.9983
  804MPD2     C11891   3.507   0.857  16.782  0.1045  0.0432 -0.3539
  804MPD2    C111892   3.573   0.820  16.901 -0.0322 -0.6744  0.5784
  804MPD2    C211893   3.671   0.902  16.959  0.3984  0.1469  0.3844
  804MPD2    C311894   3.683   1.039  16.921 -0.3312  0.2768 -0.5047
  804MPD2    C411895   3.607   1.082  16.819 -0.8433  0.3743  0.7203
  804MPD2    C511896   3.519   0.996  16.752 -0.3778  0.0473  0.4259
  804MPD2     H11897   3.740   0.877  17.040 -1.3776  1.1324  2.2020
  804MPD2    H111898   3.612   1.181  16.776 -2.9961  0.8645  1.6302
  804MPD2    H211899   3.437   0.796  16.727  2.5970 -2.9392 -0.2148
  804MPD2    H311900   3.469   1.041  16.667  1.9249  0.8871 -0.4842
  804MPD2     N11901   3.759   1.126  17.002 -0.3666 -0.5071 -0.3151
  804MPD2    H511902   3.787   1.095  17.095 -0.7258 -0.4010 -0.1709
  804MPD2    N111903   3.557   0.694  16.950 -0.6196 -0.6655 -0.4677
  804MPD2    H711904   3.628   0.653  17.010  0.6571  2.4207  0.0869
  805MPD2     C11905   3.100   3.858  15.534  0.7215  1.0027  0.1102
  805MPD2    C111906   3.183   3.830  15.434 -0.5576  0.5262  0.0170
  805MPD2    C211907   3.318   3.821  15.462 -0.0684 -0.3177 -0.4396
  805MPD2    C311908   3.363   3.854  15.590 -0.6877  0.4150 -0.0193
  805MPD2    C411909   3.277   3.885  15.689 -0.5973 -0.8226 -0.1749
  805MPD2    C511910   3.146   3.879  15.658  0.1887  0.0724  0.3794
  805MPD2     H11911   3.381   3.787  15.380 -0.9982  0.8263 -1.6390
  805MPD2    H111912   3.306   3.917  15.789  0.7081  1.9127 -1.4419
  805MPD2    H211913   2.993   3.866  15.518  0.1888 -1.2554  2.4358
  805MPD2    H311914   3.073   3.905  15.734 -1.1283  2.3110 -1.6677
  805MPD2     N11915   3.502   3.857  15.606 -0.7140  0.2815 -0.1884
  805MPD2    H511916   3.552   3.855  15.517  0.1572 -0.9619  0.3338
  805MPD2    N111917   3.135   3.799  15.306 -0.2961  0.3175 -0.2595
  805MPD2    H711918   3.214   3.796  15.242  1.9816  1.6962  2.4900
  806MPD2     C11919   3.797   2.951   0.950  0.0348 -0.6969 -0.1814
  806MPD2    C111920   3.879   3.064   0.940  0.9169  0.0724 -0.8383
  806MPD2    C211921   3.953   3.076   0.821 -0.1510  0.4125  0.9033
  806MPD2    C311922   3.942   2.980   0.724  0.3446 -0.7912  0.1409
  806MPD2    C411923   3.859   2.877   0.743 -0.3419  0.1092  0.8536
  806MPD2    C511924   3.783   2.864   0.852  0.6849 -0.3208  0.6912
  806MPD2     H11925   4.004   3.171   0.804 -0.4590  0.0510 -2.0518
  806MPD2    H111926   3.838   2.799   0.670  1.6971 -0.2014  0.5914
  806MPD2    H211927   3.740   2.932   1.041  2.0103 -0.3952  1.1394
  806MPD2    H311928   3.729   2.772   0.869  1.0777 -0.8743 -1.0074
  806MPD2     N11929   4.021   2.987   0.604  0.4338  0.1349 -0.0356
  806MPD2    H511930   4.017   2.905   0.545  1.5303 -0.6145  0.9359
  806MPD2    N111931   3.885   3.161   1.044  0.0749  0.5676 -0.1056
  806MPD2    H711932   3.818   3.154   1.120 -1.2450 -0.7827 -1.4072
  807MPD2     C11933   3.666   3.266   1.726  0.3295  0.0906 -0.7316
  807MPD2    C111934   3.776   3.182   1.708 -0.1001  0.0085  0.2100
  807MPD2    C211935   3.821   3.100   1.802  0.0037  0.2405  0.0024
  807MPD2    C311936   3.735   3.081   1.913  0.1329 -0.3037 -0.5915
  807MPD2    C411937   3.622   3.159   1.928 -0.0669 -0.3528 -0.0565
  807MPD2    C511938   3.590   3.254   1.836 -0.0800 -0.1093 -0.1945
  807MPD2     H11939   3.906   3.033   1.793 -0.3991  0.0415 -2.1705
  807MPD2    H111940   3.565   3.170   2.019  0.3449  0.3255  0.1157
  807MPD2    H211941   3.637   3.346   1.659 -0.7426  0.4167  0.1207
  807MPD2    H311942   3.507   3.324   1.845  2.1582  2.6193 -0.9487
  807MPD2     N11943   3.781   2.987   2.015  0.5029 -0.0915 -0.5974
  807MPD2    H511944   3.873   2.946   2.002 -0.3812 -2.7962  1.5392
  807MPD2    N111945   3.856   3.205   1.599 -0.5024  0.0492  0.5911
  807MPD2    H711946   3.945   3.156   1.600  0.1881  1.2537 -1.6027
  808MPD2     C11947   3.914   0.487  10.609  0.4089  0.0825 -0.2661
  808MPD2    C111948   3.909   0.527  10.476 -0.6691 -0.1391 -0.3246
  808MPD2    C211949   3.927   0.662  10.444 -0.7980 -0.2946  0.5320
  808MPD2    C311950   3.967   0.752  10.541 -0.4707 -0.1145 -0.5361
  808MPD2    C411951   3.975   0.708  10.675  0.3368  0.1462 -0.3849
  808MPD2    C511952   3.935   0.581  10.707 -0.0563  0.2581  0.0335
  808MPD2     H11953   3.931   0.685  10.338  2.7365 -2.0560  0.2824
  808MPD2    H111954   4.027   0.766  10.750 -0.7079  2.1643 -1.2232
  808MPD2    H211955   3.889   0.386  10.638  1.6635  0.7563  3.1653
  808MPD2    H311956   3.948   0.541  10.807 -0.2812  0.8867  0.3132
  808MPD2     N11957   4.021   0.884  10.520 -0.2181  0.1921  0.1480
  808MPD2    H511958   4.070   0.930  10.596  0.6416 -0.0917 -0.2357
  808MPD2    N111959   3.879   0.434  10.370 -0.4177 -0.3579  0.0534
  808MPD2    H711960   3.886   0.482  10.281  0.8471 -1.6331 -0.5269
  809MPD2     C11961   4.350   1.052   9.639  0.2583 -0.1965  0.4465
  809MPD2    C111962   4.412   0.985   9.744  0.0074 -0.0797 -0.8581
  809MPD2    C211963   4.402   1.049   9.873  0.2911 -0.1949 -0.0178
  809MPD2    C311964   4.327   1.167   9.893  0.2002 -0.4545  0.2447
  809MPD2    C411965   4.272   1.226   9.783 -0.1234 -0.0791  0.6208
  809MPD2    C511966   4.286   1.172   9.656  0.1874 -0.0897 -0.7693
  809MPD2     H11967   4.449   0.998   9.957  0.1953 -0.7601 -0.3073
  809MPD2    H111968   4.211   1.315   9.792 -1.6101 -1.1229  0.9558
  809MPD2    H211969   4.355   1.005   9.542  3.7226 -0.0947  0.5965
  809MPD2    H311970   4.237   1.221   9.573 -0.3095 -1.7461 -1.4377
  809MPD2     N11971   4.284   1.215  10.018  0.0177 -0.6835 -0.2867
  809MPD2    H511972   4.195   1.263  10.020 -0.0408 -0.7635 -1.0721
  809MPD2    N111973   4.476   0.859   9.739 -0.0636  0.4267 -0.2742
  809MPD2    H711974   4.510   0.821   9.828  2.8456  2.1873 -0.6205
  810MPD2     C11975   3.322   4.710  10.985 -0.1776  0.5627  1.1185
  810MPD2    C111976   3.256   4.732  10.873  0.0495  1.2028 -0.0856
  810MPD2    C211977   3.167   0.104  10.862  1.0528 -0.3806 -0.2469
  810MPD2    C311978   3.146   0.188  10.972 -0.0422  0.3988  0.3870
  810MPD2    C411979   3.200   0.149  11.092  0.3111 -0.1456 -0.0511
  810MPD2    C511980   3.282   0.039  11.097 -0.3606 -0.1671 -0.2663
  810MPD2     H11981   3.131   0.121  10.761 -0.0517 -0.6154  0.0969
  810MPD2    H111982   3.164   0.191  11.185  2.2562  2.1716 -0.3177
  810MPD2    H211983   3.381   4.621  11.006 -0.4221  0.1985  0.2526
  810MPD2    H311984   3.322   0.001  11.191  2.0700  0.6714 -0.9750
  810MPD2     N11985   3.077   0.308  10.964  0.9310  0.4568 -0.0219
  810MPD2    H511986   3.109   0.376  11.033  0.4429  0.3102  0.3436
  810MPD2    N111987   3.277   4.662  10.756  0.6790 -0.3970  0.2219
  810MPD2    H711988   3.227   4.704  10.679 -0.2924 -1.5847  0.2155
  811MPD2     C11989   3.272   4.666   9.924 -0.3572 -0.8425 -0.5479
  811MPD2    C111990   3.268   4.721  10.051 -0.2451  0.3807  0.6105
  811MPD2    C211991   3.236   0.121  10.065  0.0352  0.3893 -0.1782
  811MPD2    C311992   3.195   0.197   9.955  0.4661  0.2990  0.1962
  811MPD2    C411993   3.193   0.141   9.831  0.0589  0.1272 -0.7313
  811MPD2    C511994   3.229   0.008   9.817  0.1292  0.6452 -0.3499
  811MPD2     H11995   3.238   0.176  10.158  1.0747  0.9399 -0.5260
  811MPD2    H111996   3.176   0.205   9.745  0.4263 -0.2420 -1.0798
  811MPD2    H211997   3.296   4.561   9.913  1.2550 -0.5862  0.5659
  811MPD2    H311998   3.226   4.701   9.717 -2.1390  0.4970 -0.2143
  811MPD2     N11999   3.156   0.329   9.987  0.0983 -0.3026 -0.1688
  811MPD2    H512000   3.171   0.360  10.082  1.2541  2.7157 -1.3336
  811MPD2    N112001   3.302   4.637  10.155 -0.5446  0.2630  0.1988
  811MPD2    H712002   3.295   4.536  10.140 -0.0677  0.3850 -0.8241
  812MPD2     C12003   1.270   4.650  12.469  0.2420 -0.1218  0.4431
  812MPD2    C112004   1.402   4.655  12.431  0.7361 -0.3090  0.3542
  812MPD2    C212005   1.495   4.592  12.510  0.4948 -0.9500 -0.4060
  812MPD2    C312006   1.456   4.523  12.620 -0.6037  0.4379  0.1277
  812MPD2    C412007   1.324   4.506  12.659  0.7439 -0.2185 -0.2046
  812MPD2    C512008   1.235   4.586  12.590  0.4390  0.0196  0.6574
  812MPD2     H12009   1.597   4.597  12.475  1.3317 -0.9903  2.0392
  812MPD2    H112010   1.289   4.459  12.750 -1.4840  0.1353 -0.8616
  812MPD2    H212011   1.186   4.689  12.412  0.2345 -0.3389  0.3084
  812MPD2    H312012   1.130   4.587  12.616  0.3422  0.2413  0.2610
  812MPD2     N12013   1.561   4.469  12.695 -0.6824  0.5364  0.0466
  812MPD2    H512014   1.654   4.482  12.657 -0.1637  0.0275  1.1552
  812MPD2    N112015   1.428   0.006  12.323  0.2842  0.1463  0.0184
  812MPD2    H712016   1.352   0.056  12.277 -1.0679 -0.1651  1.8954
  813MPD2     C12017   1.671   1.423  13.022 -0.1874  0.8488 -0.4303
  813MPD2    C112018   1.554   1.475  12.968 -0.0555  0.1301  0.1257
  813MPD2    C212019   1.439   1.407  12.993 -1.0299  0.1601  0.5115
  813MPD2    C312020   1.441   1.301  13.072  0.0960 -0.1743 -0.0654
  813MPD2    C412021   1.556   1.252  13.130 -0.0106 -0.2764  0.5656
  813MPD2    C512022   1.671   1.320  13.111  0.1360 -0.2223 -0.6668
  813MPD2     H12023   1.344   1.437  12.951 -0.8584  0.0832  0.0621
  813MPD2    H112024   1.557   1.169  13.199  1.3731 -2.0518 -1.5615
  813MPD2    H212025   1.765   1.474  13.009  1.4670 -1.9602  0.5831
  813MPD2    H312026   1.763   1.278  13.151  0.0166  0.8828  0.7492
  813MPD2     N12027   1.315   1.245  13.101  0.0406 -0.2955 -0.1079
  813MPD2    H512028   1.242   1.293  13.049 -0.2247  0.5556  1.0620
  813MPD2    N112029   1.554   1.602  12.890 -0.8958 -0.4244 -0.0462
  813MPD2    H712030   1.643   1.609  12.841 -0.0615  1.8287  1.7915
  814MPD2     C12031   1.695   2.522  12.566 -0.6772  0.2394  0.4510
  814MPD2    C112032   1.684   2.546  12.432  0.0600 -0.4726 -0.0652
  814MPD2    C212033   1.729   2.666  12.378 -0.3280  0.9292 -0.2707
  814MPD2    C312034   1.775   2.762  12.467 -0.6167 -0.3766  0.8696
  814MPD2    C412035   1.768   2.746  12.602 -0.2034  1.0766 -0.0416
  814MPD2    C512036   1.737   2.622  12.647  0.4950 -0.5560  0.5673
  814MPD2     H12037   1.726   2.685  12.271 -0.3283  1.3759 -0.1924
  814MPD2    H112038   1.802   2.826  12.667  2.5026 -0.7467  0.7792
  814MPD2    H212039   1.661   2.429  12.609 -2.0568 -0.4045 -2.1009
  814MPD2    H312040   1.728   2.603  12.753  1.9771 -0.6059  0.6835
  814MPD2     N12041   1.823   2.890  12.416 -0.1964 -0.0616  0.6927
  814MPD2    H512042   1.834   2.969  12.478 -0.3958  0.1110  0.5089
  814MPD2    N112043   1.630   2.453  12.341 -0.0111 -0.0670 -0.2439
  814MPD2    H712044   1.619   2.482  12.245  3.1857  0.4801 -0.4715
  815MPD2     C12045   2.256   1.531  11.797  0.0700 -0.1935  0.7016
  815MPD2    C112046   2.205   1.461  11.688  0.6009  0.5378 -0.2094
  815MPD2    C212047   2.069   1.437  11.693 -0.1070  0.2996 -0.2068
  815MPD2    C312048   1.980   1.497  11.789  0.2005  0.1347  0.1095
  815MPD2    C412049   2.037   1.564  11.900 -0.2007  0.0669 -1.0159
  815MPD2    C512050   2.168   1.583  11.891  0.2999  0.3149 -0.6109
  815MPD2     H12051   2.019   1.372  11.622 -3.5291  0.9849  1.5666
  815MPD2    H112052   1.974   1.615  11.971 -1.0139  1.0858 -2.4768
  815MPD2    H212053   2.363   1.551  11.802 -0.3469  2.4725 -1.0432
  815MPD2    H312054   2.198   1.648  11.973  1.0278  2.1187 -2.2970
  815MPD2     N12055   1.842   1.457  11.786 -1.0556  0.9857 -0.9463
  815MPD2    H512056   1.808   1.404  11.707 -1.3237  1.7324 -1.3284
  815MPD2    N112057   2.297   1.397  11.603  0.2054 -0.2008  0.2746
  815MPD2    H712058   2.397   1.418  11.604  0.3881 -1.0702 -0.3135
  816MPD2     C12059   2.581   4.629  17.436 -0.4197  0.2331 -0.7150
  816MPD2    C112060   2.472   4.627  17.354  1.0496 -0.0686 -1.0319
  816MPD2    C212061   2.480   4.563  17.237 -0.0578  0.8982  0.7517
  816MPD2    C312062   2.591   4.482  17.197 -0.2099 -0.9035 -0.3856
  816MPD2    C412063   2.701   4.483  17.287 -0.7563  0.1914  0.3866
  816MPD2    C512064   2.696   4.559  17.405 -0.3978  0.3403 -0.4483
  816MPD2     H12065   2.398   4.566  17.166 -1.3252 -0.5146  2.1364
  816MPD2    H112066   2.792   4.425  17.279 -1.2565 -0.4334 -0.8239
  816MPD2    H212067   2.575   4.692  17.523 -0.2280 -1.3011  0.4129
  816MPD2    H312068   2.783   4.560  17.469 -1.4066  2.1098  0.8761
  816MPD2     N12069   2.592   4.410  17.073 -0.2787 -0.7272 -0.7138
  816MPD2    H512070   2.504   4.407  17.024 -0.3124 -0.7269 -0.6536
  816MPD2    N112071   2.359   4.700  17.399  0.9603  0.0456  0.1691
  816MPD2    H712072   2.371   0.009  17.490 -1.3381  2.1385 -0.5363
  817MPD2     C12073   1.813   2.255   9.466  0.4248 -0.2423 -0.4692
  817MPD2    C112074   1.767   2.128   9.425  0.0452 -0.5648  0.4833
  817MPD2    C212075   1.657   2.129   9.340 -0.0180  0.4512 -0.2646
  817MPD2    C312076   1.601   2.249   9.295  0.0422 -0.0891 -0.5638
  817MPD2    C412077   1.653   2.369   9.319 -0.3528 -0.1242 -0.1730
  817MPD2    C512078   1.756   2.368   9.415  0.3521 -0.0643 -0.0616
  817MPD2     H12079   1.615   2.033   9.314  0.0291  0.3309  0.1055
  817MPD2    H112080   1.599   2.460   9.297 -1.0442 -0.2228  1.0949
  817MPD2    H212081   1.892   2.271   9.539 -0.7533  0.0105  0.7666
  817MPD2    H312082   1.789   2.467   9.445  2.6953 -1.2726  1.3699
  817MPD2     N12083   1.491   2.237   9.206  0.7846 -0.7144 -0.1255
  817MPD2    H512084   1.463   2.141   9.185 -0.8201 -0.3415  0.3047
  817MPD2    N112085   1.829   2.012   9.466  0.4577  0.6463  0.3340
  817MPD2    H712086   1.782   1.927   9.434  0.3701 -0.0256  2.2760
  818MPD2     C12087   1.243   2.605  10.044  0.4503  0.0460  0.0345
  818MPD2    C112088   1.144   2.545  10.123 -0.1159 -0.2080  0.4055
  818MPD2    C212089   1.136   2.405  10.119  0.0783 -0.5438  0.0334
  818MPD2    C312090   1.231   2.331  10.046  0.3066  0.7172  0.5382
  818MPD2    C412091   1.330   2.397   9.979  0.5865  0.3200  0.0692
  818MPD2    C512092   1.333   2.533   9.982 -0.2624 -0.3824 -0.1224
  818MPD2     H12093   1.057   2.356  10.174  0.3456 -0.5222  0.4448
  818MPD2    H112094   1.393   2.346   9.907  0.7018  0.3831  0.1271
  818MPD2    H212095   1.252   2.713  10.038  0.1646  0.2456  2.8648
  818MPD2    H312096   1.414   2.580   9.928  0.4920 -0.0268  1.3277
  818MPD2     N12097   1.213   2.194  10.038  0.0799  0.5242 -0.2222
  818MPD2    H512098   1.129   2.157  10.081  0.5337 -0.9500 -0.6033
  818MPD2    N112099   1.056   2.617  10.215  0.0497  0.3276  0.0734
  818MPD2    H712100   0.996   2.552  10.265 -0.1514  0.6765  0.2829
  819MPD2     C12101   4.013   3.303  15.545  0.4277  0.2808 -0.1836
  819MPD2    C112102   4.025   3.170  15.536  0.6363 -0.1878 -0.5445
  819MPD2    C212103   4.132   3.120  15.602 -0.2871 -0.0279  0.7916
  819MPD2    C312104   4.208   3.190  15.684  0.3632  0.5779 -0.5743
  819MPD2    C412105   4.172   3.316  15.714 -0.4487  0.0898 -0.4221
  819MPD2    C512106   4.076   3.376  15.642  0.2769  0.8665 -0.0445
  819MPD2     H12107   4.150   3.014  15.591 -2.2176 -0.3046  0.2834
  819MPD2    H112108   4.221   3.366  15.796  2.9170  0.2276 -2.5217
  819MPD2    H212109   3.932   3.354  15.495  0.2662 -0.4481 -0.6714
  819MPD2    H312110   4.048   3.480  15.658 -2.9496  0.1587 -1.0366
  819MPD2     N12111   4.313   3.121  15.748  0.1100 -0.4134  0.4541
  819MPD2    H512112   4.342   3.034  15.704 -0.1285  0.5708 -1.6416
  819MPD2    N112113   3.940   3.099  15.449  0.1312 -0.0922  0.1234
  819MPD2    H712114   3.901   3.151  15.371  1.5051  0.1687 -0.3888
  820MPD2     C12115   2.991   3.168  15.197  0.1652 -0.0189  0.1160
  820MPD2    C112116   3.103   3.235  15.148 -0.1204 -0.3887 -0.4426
  820MPD2    C212117   3.230   3.181  15.159 -0.6592  0.0767  0.2871
  820MPD2    C312118   3.247   3.060  15.223  0.2907 -0.6137  0.1841
  820MPD2    C412119   3.136   2.992  15.270  0.0319 -0.2429 -0.2798
  820MPD2    C512120   3.007   3.041  15.257 -0.0675  0.0133  0.0707
  820MPD2     H12121   3.316   3.233  15.117  0.6988 -0.3604  2.5443
  820MPD2    H112122   3.152   2.903  15.329 -0.8213  1.0392  1.8877
  820MPD2    H212123   2.891   3.210  15.188  0.3272  0.1924 -0.6754
  820MPD2    H312124   2.918   2.989  15.291  0.9061 -0.6044  1.6485
  820MPD2     N12125   3.372   2.996  15.241  0.8383 -0.2140 -0.1651
  820MPD2    H512126   3.368   2.899  15.267  2.3645  0.2799  1.9076
  820MPD2    N112127   3.074   3.355  15.084  0.3389 -0.0863  0.4414
  820MPD2    H712128   2.978   3.374  15.057  0.9005  0.1305 -1.3955
  821MPD2     C12129   3.995   4.339  13.553 -0.6214 -0.5620  0.2701
  821MPD2    C112130   4.125   4.334  13.605  0.0913 -0.1808  0.2462
  821MPD2    C212131   4.216   4.426  13.559  0.2247  0.4451  0.3728
  821MPD2    C312132   4.180   4.525  13.469  0.0498 -0.3515 -0.2836
  821MPD2    C412133   4.060   4.526  13.410 -0.1818 -0.0175  0.5331
  821MPD2    C512134   3.965   4.434  13.457 -0.6023  0.8793  0.5573
  821MPD2     H12135   4.316   4.424  13.600  0.9237  2.7907 -1.1856
  821MPD2    H112136   4.013   4.596  13.342 -0.9298 -1.1895 -0.1571
  821MPD2    H212137   3.913   4.283  13.596 -0.8745  0.2302  0.8273
  821MPD2    H312138   3.865   4.454  13.421  0.1079  1.1161 -1.2607
  821MPD2     N12139   4.272   4.624  13.437 -0.4737 -0.3858  1.0947
  821MPD2    H512140   4.365   4.612  13.473  1.1680  2.4668 -2.1800
  821MPD2    N112141   4.161   4.245  13.704 -0.6410 -0.0513  0.0830
  821MPD2    H712142   4.244   4.264  13.759 -1.3628  0.0117  1.1552
  822MPD2     C12143   4.503   0.055  15.628  0.0349  0.2804 -0.1610
  822MPD2    C112144   4.520   0.028  15.765 -0.3288  0.5056  0.2174
  822MPD2    C212145   4.475   0.118  15.854  0.2546  0.1781 -0.1011
  822MPD2    C312146   4.393   0.227  15.813 -0.1924  0.9337  0.7865
  822MPD2    C412147   4.369   0.246  15.680 -0.1272  0.1894  0.2485
  822MPD2    C512148   4.428   0.162  15.592  0.3374  0.1399  0.0165
  822MPD2     H12149   4.506   0.101  15.956  1.1072  0.2305 -0.3532
  822MPD2    H112150   4.306   0.328  15.647 -0.1799 -0.1111 -0.3929
  822MPD2    H212151   4.546   4.732  15.548  1.0960 -0.2459  0.7992
  822MPD2    H312152   4.397   0.191  15.492  0.2747 -0.0056 -0.0062
  822MPD2     N12153   4.325   0.307  15.911  0.0940  0.0475  0.0574
  822MPD2    H512154   4.335   0.270  16.005 -0.9772 -0.9299 -0.2162
  822MPD2    N112155   4.600   4.658  15.818  0.2163 -0.2849 -0.6241
  822MPD2    H712156   4.612   4.663  15.918  2.7758 -0.5777 -0.9243
  823MPD2     C12157   3.850   0.544  16.598  0.5329  0.0405  0.2714
  823MPD2    C112158   3.942   0.468  16.521 -0.3088 -0.5933  0.3872
  823MPD2    C212159   4.014   0.363  16.584  0.3432 -0.0234  0.4404
  823MPD2    C312160   3.995   0.335  16.714  0.3129 -0.3358  0.3900
  823MPD2    C412161   3.898   0.408  16.781 -0.2274 -0.1210 -0.8764
  823MPD2    C512162   3.835   0.517  16.727  0.2292  0.3128 -0.4785
  823MPD2     H12163   4.085   0.311  16.520  1.7334  2.0805  0.2855
  823MPD2    H112164   3.860   0.374  16.877 -0.6542  1.6166 -0.4279
  823MPD2    H212165   3.791   0.622  16.551  0.1336  0.5847  1.6948
  823MPD2    H312166   3.756   0.570  16.778  1.3949  0.6672  0.9496
  823MPD2     N12167   4.076   0.232  16.786  0.0430  0.0923 -0.4821
  823MPD2    H512168   4.064   0.222  16.886  2.9863  0.8283 -0.0524
  823MPD2    N112169   3.977   0.502  16.388  0.0047  0.9630  0.5909
  823MPD2    H712170   3.955   0.594  16.352  1.1242  0.1091 -2.3470
  824MPD2     C12171   0.109   3.820  15.908  0.4987 -0.2218 -0.2753
  824MPD2    C112172   0.192   3.917  15.854 -0.1626  0.3232  0.3546
  824MPD2    C212173   0.307   3.890  15.794  0.3028  0.2647 -0.6131
  824MPD2    C312174   0.359   3.759  15.789 -0.4597 -0.4334  0.3880
  824MPD2    C412175   0.269   3.664  15.839 -0.1484  0.0014 -0.1320
  824MPD2    C512176   0.147   3.692  15.893 -0.5871 -0.5296  0.3582
  824MPD2     H12177   0.356   3.977  15.751 -0.8406  0.3833 -1.6812
  824MPD2    H112178   0.290   3.558  15.828 -1.3830 -0.4511  1.8353
  824MPD2    H212179   0.022   3.846  15.968  1.0353  1.5183 -0.2611
  824MPD2    H312180   0.082   3.617  15.937  0.3680 -1.0672  0.8552
  824MPD2     N12181   0.485   3.732  15.735 -0.0464 -0.0769 -0.1545
  824MPD2    H512182   0.551   3.807  15.717  0.5959 -0.8036 -0.8259
  824MPD2    N112183   0.150   4.048  15.876  0.5083  0.4073  0.2361
  824MPD2    H712184   0.083   4.070  15.949 -1.6359 -1.6534 -1.1186
  825MPD2     C12185   1.119   3.919  15.241 -0.1037 -0.0683 -0.7827
  825MPD2    C112186   1.050   3.961  15.348  0.1695  0.4365  0.3326
  825MPD2    C212187   1.036   4.095  15.364 -1.3021 -0.9881 -0.2381
  825MPD2    C312188   1.070   4.183  15.265 -0.0209 -0.5060 -0.2990
  825MPD2    C412189   1.139   4.144  15.157  0.3183  0.1804 -0.3846
  825MPD2    C512190   1.176   4.012  15.148  0.4318 -0.4988 -0.6572
  825MPD2     H12191   0.992   4.128  15.457 -1.9440 -1.2016 -0.4643
  825MPD2    H112192   1.184   4.222  15.096  0.3174 -0.4929 -1.2411
  825MPD2    H212193   1.153   3.817  15.225 -1.2511 -0.3981 -1.1646
  825MPD2    H312194   1.228   3.980  15.058 -1.4784 -0.2991 -1.8471
  825MPD2     N12195   1.051   4.322  15.290 -0.1504  0.3122  0.2870
  825MPD2    H512196   1.025   4.353  15.383 -1.8747  1.9106 -0.7394
  825MPD2    N112197   0.996   3.854  15.425  0.2944  0.3019 -0.2389
  825MPD2    H712198   1.020   3.760  15.395 -2.2660 -0.2841 -0.4768
  826MPD2     C12199   0.284   3.796  13.928 -0.0469  0.0373  0.2558
  826MPD2    C112200   0.353   3.913  13.904 -0.4524  0.1045 -0.4408
  826MPD2    C212201   0.297   4.030  13.958 -0.0925  0.6441 -1.2923
  826MPD2    C312202   0.167   4.035  14.010  0.5106 -0.0967 -0.3322
  826MPD2    C412203   0.095   3.920  14.017  0.2422  0.1185 -0.0193
  826MPD2    C512204   0.158   3.804  13.988 -0.1320  0.0909  0.0942
  826MPD2     H12205   0.356   4.120  13.942  0.4485  0.6105  0.5179
  826MPD2    H112206   4.728   3.918  14.054 -0.0693  0.5346 -0.8660
  826MPD2    H212207   0.318   3.699  13.893 -1.0479 -0.1141 -0.2697
  826MPD2    H312208   0.107   3.710  14.006 -0.5588  0.5750  1.4120
  826MPD2     N12209   0.113   4.147  14.066  0.2089  0.1791 -0.4930
  826MPD2    H512210   0.014   4.154  14.084  0.0643  1.6078 -1.8311
  826MPD2    N112211   0.465   3.899  13.826  0.2419  0.2549 -0.1606
  826MPD2    H712212   0.499   3.805  13.808  1.1591  0.4059  0.7263
  827MPD2     C12213   1.281   0.939  10.068  0.2238 -0.0138  0.8597
  827MPD2    C112214   1.301   0.804  10.080  0.3191  0.1782 -0.2804
  827MPD2    C212215   1.206   0.716  10.022 -1.0602 -0.8255 -0.0198
  827MPD2    C312216   1.086   0.767   9.977 -0.4375  1.6617  0.2169
  827MPD2    C412217   1.062   0.905   9.985  0.2960 -0.4576 -0.3135
  827MPD2    C512218   1.158   0.994  10.030 -0.3733 -0.4561  0.6010
  827MPD2     H12219   1.227   0.611  10.004  1.0451 -0.6810  1.5709
  827MPD2    H112220   0.972   0.951   9.947 -0.1117 -3.0011 -2.4433
  827MPD2    H212221   1.357   1.005  10.109 -0.2391  1.6762 -1.0201
  827MPD2    H312222   1.136   1.099  10.044  0.6886 -0.2881  1.0005
  827MPD2     N12223   1.000   0.681   9.906  0.2996  0.5309  0.6190
  827MPD2    H512224   1.028   0.584   9.901  0.6363  0.7287 -1.3756
  827MPD2    N112225   1.419   0.754  10.142  0.1240 -0.2774  0.2720
  827MPD2    H712226   1.486   0.825  10.169 -0.0938 -1.2736  3.4690
  828MPD2     C12227   4.249   0.123  12.313  0.3760 -0.7085  0.3951
  828MPD2    C112228   4.147   0.157  12.230 -0.0821 -0.2763  0.4223
  828MPD2    C212229   4.177   0.186  12.096 -0.0470 -0.1757 -0.5080
  828MPD2    C312230   4.306   0.180  12.050  0.3045  0.5836 -0.3620
  828MPD2    C412231   4.406   0.140  12.135 -0.2077 -0.2302 -0.8670
  828MPD2    C512232   4.381   0.119  12.270  0.1072 -0.4842 -0.7518
  828MPD2     H12233   4.098   0.220  12.030 -0.0760 -0.3867 -0.5838
  828MPD2    H112234   4.509   0.141  12.102 -0.0205 -0.5601 -0.2817
  828MPD2    H212235   4.232   0.096  12.417  2.6383  1.1257  1.2360
  828MPD2    H312236   4.458   0.089  12.339  0.0197  0.3454 -0.2834
  828MPD2     N12237   4.346   0.231  11.920  0.6802 -0.5744 -0.3518
  828MPD2    H512238   4.439   0.202  11.891  0.5625 -0.5332 -0.7806
  828MPD2    N112239   4.011   0.173  12.270  0.0847  0.1489 -1.0666
  828MPD2    H712240   3.941   0.181  12.197 -2.3725 -1.8200  1.0670
  829MPD2     C12241   3.529   0.777  11.890  0.1613 -0.3678  0.0862
  829MPD2    C112242   3.451   0.759  12.006  0.5016 -0.4050  0.0466
  829MPD2    C212243   3.484   0.652  12.087  0.3484 -0.5222  0.1886
  829MPD2    C312244   3.602   0.580  12.069 -0.5529 -0.9976 -0.4050
  829MPD2    C412245   3.679   0.620  11.961 -0.3835  0.0327 -0.1289
  829MPD2    C512246   3.645   0.711  11.868 -0.1246 -0.5318 -0.1674
  829MPD2     H12247   3.419   0.633  12.171 -1.0195  0.6066 -0.6037
  829MPD2    H112248   3.768   0.563  11.937 -0.6653  0.2613 -1.6728
  829MPD2    H212249   3.490   0.846  11.817 -0.3524 -0.8346 -0.0786
  829MPD2    H312250   3.699   0.722  11.775  3.2579  0.3520  1.9099
  829MPD2     N12251   3.646   0.472  12.149  0.2325 -0.7411 -0.6307
  829MPD2    H512252   3.739   0.437  12.129  0.5597 -0.5366  0.5774
  829MPD2    N112253   3.336   0.842  12.013 -0.0406  0.6829 -0.1034
  829MPD2    H712254   3.333   0.909  11.937 -2.2849  0.7943  0.0954
  830MPD2     C12255   0.388   2.907  15.741 -0.0709 -0.5946  0.2036
  830MPD2    C112256   0.266   2.934  15.683 -0.0379 -0.9741  0.0576
  830MPD2    C212257   0.276   2.994  15.557  0.7569  0.1401  0.4299
  830MPD2    C312258   0.397   3.039  15.504 -0.2818  0.1364  0.0214
  830MPD2    C412259   0.514   3.025  15.574  0.2143  1.0639  0.0010
  830MPD2    C512260   0.504   2.966  15.694  0.7466  0.5660  0.1102
  830MPD2     H12261   0.185   3.017  15.503  0.9746 -0.5805 -0.2296
  830MPD2    H112262   0.607   3.067  15.537  0.9636 -0.9708 -0.3808
  830MPD2    H212263   0.389   2.858  15.837  2.2193  1.5935  1.2918
  830MPD2    H312264   0.594   2.945  15.752  0.4909  0.0657  0.3256
  830MPD2     N12265   0.406   3.110  15.386 -0.2142  0.1415  0.0349
  830MPD2    H512266   0.501   3.140  15.368 -0.4058  0.0094 -1.1978
  830MPD2    N112267   0.146   2.901  15.754 -0.7958  0.0031 -0.4471
  830MPD2    H712268   0.145   2.876  15.852  1.1871 -0.7623 -0.6266
  831MPD2     C12269   4.611   0.455  16.296  0.0975  0.6647  0.1323
  831MPD2    C112270   4.620   0.340  16.226 -0.3029 -0.1013 -0.2009
  831MPD2    C212271   4.515   0.252  16.225  0.5939  0.3661 -0.5062
  831MPD2    C312272   4.401   0.273  16.305  0.6135 -0.8617 -0.7054
  831MPD2    C412273   4.390   0.391  16.376  0.6618  0.6504  0.5490
  831MPD2    C512274   4.498   0.482  16.367 -0.0421  0.7462 -0.2754
  831MPD2     H12275   4.517   0.154  16.180 -0.3362 -0.0054  0.2619
  831MPD2    H112276   4.309   0.405  16.447  0.7003  2.0696  0.3157
  831MPD2    H212277   4.689   0.529  16.291 -2.4546  3.2443 -1.3448
  831MPD2    H312278   4.499   0.573  16.426  0.7154  0.7371 -0.2799
  831MPD2     N12279   4.303   0.171  16.321 -0.3073  0.2769  0.7474
  831MPD2    H512280   4.244   0.175  16.404 -3.1829  0.7565 -1.3316
  831MPD2    N112281   0.004   0.322  16.150  0.1256  0.3148 -0.3460
  831MPD2    H712282   0.070   0.396  16.131  0.7667  0.3121  1.8560
  832MPD2     C12283   2.998   0.616  16.866  0.2005  0.7081  0.2405
  832MPD2    C112284   3.009   0.755  16.882 -0.0434  0.0686  0.0643
  832MPD2    C212285   2.891   0.823  16.872  0.5983 -1.0358 -0.1076
  832MPD2    C312286   2.772   0.762  16.852 -0.0602 -0.3836  0.4042
  832MPD2    C412287   2.764   0.623  16.843 -0.0140  0.7472 -0.0467
  832MPD2    C512288   2.882   0.556  16.847  0.7941 -0.3461  0.9896
  832MPD2     H12289   2.890   0.930  16.886 -1.5337 -0.6810 -2.9697
  832MPD2    H112290   2.678   0.558  16.829  0.3331  0.1350  0.6948
  832MPD2    H212291   3.078   0.548  16.894 -0.2528 -1.2601 -3.3181
  832MPD2    H312292   2.880   0.448  16.846  3.0813 -0.3876  1.7071
  832MPD2     N12293   2.649   0.832  16.840  0.1300 -0.0078  0.1815
  832MPD2    H512294   2.563   0.777  16.840  0.9936 -1.3614 -1.1270
  832MPD2    N112295   3.133   0.811  16.923 -0.3961  0.3136  0.7466
  832MPD2    H712296   3.214   0.750  16.919  0.2802  1.3341 -1.5657
  833MPD2     C12297   0.452   2.713  12.747 -0.7541 -0.2799 -0.2166
  833MPD2    C112298   0.522   2.832  12.738 -0.2933  0.1207  0.6620
  833MPD2    C212299   0.646   2.833  12.685  0.4979 -0.2018  0.1727
  833MPD2    C312300   0.708   2.717  12.635 -0.4286 -0.4283  0.4814
  833MPD2    C412301   0.642   2.597  12.654  0.8842  0.2568 -0.1688
  833MPD2    C512302   0.518   2.599  12.711  1.0506  0.1928 -0.0454
  833MPD2     H12303   0.695   2.928  12.669 -2.9457  1.0831 -2.7605
  833MPD2    H112304   0.679   2.499  12.627  0.6592 -0.1229  0.9305
  833MPD2    H212305   0.353   2.705  12.791  0.3826 -2.2909  1.9848
  833MPD2    H312306   0.477   2.504  12.744  1.8435 -0.1724 -0.1173
  833MPD2     N12307   0.833   2.719  12.561  0.1232 -0.6051  0.3076
  833MPD2    H512308   0.860   2.629  12.523 -1.6959 -1.1234  0.2285
  833MPD2    N112309   0.457   2.943  12.793 -0.3426 -0.1001 -0.2107
  833MPD2    H712310   0.363   2.918  12.820  0.1002 -1.8675 -0.3085
  834MPD2     C12311   0.885   2.680  11.623 -0.2879 -0.4751  0.4567
  834MPD2    C112312   0.835   2.802  11.667 -0.2759 -0.3201  0.0889
  834MPD2    C212313   0.855   2.828  11.797  0.1958 -0.0048 -0.3343
  834MPD2    C312314   0.934   2.751  11.883  0.5159 -1.0922  0.2890
  834MPD2    C412315   0.979   2.630  11.838  0.5236 -0.6928 -0.6547
  834MPD2    C512316   0.944   2.592  11.709 -0.3562 -0.2991  0.3035
  834MPD2     H12317   0.824   2.927  11.829 -4.5558 -1.1508 -1.3811
  834MPD2    H112318   1.051   2.574  11.895 -0.8185  0.2381  1.9326
  834MPD2    H212319   0.861   2.642  11.525  3.5563  0.2335 -0.7411
  834MPD2    H312320   0.980   2.496  11.675  0.6140  0.2667 -0.2424
  834MPD2     N12321   0.973   2.806  12.009 -0.0032  0.1045  0.4093
  834MPD2    H512322   0.957   2.906  12.022  1.6850  0.3452  0.6487
  834MPD2    N112323   0.763   2.879  11.577 -0.2900 -0.0080 -0.4687
  834MPD2    H712324   0.768   2.855  11.478 -0.8727 -1.5035 -0.1373
  835MPD2     C12325   0.705   0.545  11.051 -0.3760 -0.1614 -0.0577
  835MPD2    C112326   0.576   0.517  11.005  0.2627  0.1380  0.2747
  835MPD2    C212327   0.497   0.449  11.096  0.0679  0.2524  0.2893
  835MPD2    C312328   0.545   0.420  11.228 -0.0764 -0.4648  0.2596
  835MPD2    C412329   0.666   0.466  11.272  0.3743 -0.2169 -0.4830
  835MPD2    C512330   0.746   0.515  11.176 -0.2938 -0.0335  0.2199
  835MPD2     H12331   0.394   0.434  11.065 -0.2456 -0.3978  1.6473
  835MPD2    H112332   0.701   0.454  11.373 -1.8656  0.2470  0.3339
  835MPD2    H212333   0.772   0.599  10.985 -0.3914  0.6698  0.6080
  835MPD2    H312334   0.846   0.553  11.198 -0.8686  1.2525  0.6017
  835MPD2     N12335   0.472   0.342  11.319  0.0159 -0.1055 -0.0661
  835MPD2    H512336   0.518   0.327  11.408 -0.7666  1.9962  0.6818
  835MPD2    N112337   0.535   0.579  10.884 -0.0148 -0.5651  0.7160
  835MPD2    H712338   0.606   0.627  10.830 -1.9989 -0.5266 -1.8424
  836MPD2     C12339   4.657   0.603  11.572  0.3168 -0.0867  0.2044
  836MPD2    C112340   4.692   0.505  11.660  0.6385 -0.7591  0.2222
  836MPD2    C212341   4.625   0.502  11.782  0.0338  0.1560 -0.6147
  836MPD2    C312342   4.526   0.588  11.807 -0.1490  0.6345 -0.4981
  836MPD2    C412343   4.480   0.684  11.717  0.1294 -1.1115  0.1277
  836MPD2    C512344   4.546   0.679  11.594  0.0635 -0.3283 -0.0742
  836MPD2     H12345   4.649   0.423  11.853 -1.1070 -0.5141 -0.9681
  836MPD2    H112346   4.398   0.751  11.740 -0.7226 -1.0206 -3.2513
  836MPD2    H212347   4.701   0.607  11.473  1.2244 -0.7359  0.5868
  836MPD2    H312348   4.506   0.753  11.527  1.1332 -0.4340 -0.8315
  836MPD2     N12349   4.457   0.582  11.938 -0.4248 -0.0211  0.1091
  836MPD2    H512350   4.368   0.630  11.931 -0.4551 -0.4718 -2.7717
  836MPD2    N112351   0.046   0.404  11.618  0.3301  0.2394  0.2839
  836MPD2    H712352   0.084   0.411  11.524 -1.0862 -2.9347 -0.5276
  837MPD2     C12353   3.361   0.913  10.451  0.9048  0.3072  0.0005
  837MPD2    C112354   3.332   0.968  10.325  0.0730  0.3045  0.5438
  837MPD2    C212355   3.314   1.105  10.310 -0.0571 -0.1535 -0.1827
  837MPD2    C312356   3.325   1.190  10.413 -0.4295  0.7747  0.3471
  837MPD2    C412357   3.369   1.143  10.536 -0.2379  0.4830 -0.0598
  837MPD2    C512358   3.382   1.005  10.551 -0.2124 -0.1883 -0.2165
  837MPD2     H12359   3.287   1.149  10.215 -0.3862 -1.2787 -0.6195
  837MPD2    H112360   3.378   1.215  10.617  1.0221 -0.8554  1.0059
  837MPD2    H212361   3.371   0.807  10.472  0.0152  0.3227  0.4864
  837MPD2    H312362   3.407   0.960  10.647  1.0791  1.0478  0.0285
  837MPD2     N12363   3.286   1.323  10.384  0.1951  0.1970 -0.3907
  837MPD2    H512364   3.256   1.331  10.287 -0.1452  1.9944 -0.1471
  837MPD2    N112365   3.290   0.890  10.213 -0.6200  0.5556  0.3324
  837MPD2    H712366   3.259   0.944  10.133  2.3055  1.2766 -0.3069
  838MPD2     C12367   2.079   3.903  11.922  0.1263 -0.4302 -0.7916
  838MPD2    C112368   1.991   3.806  11.879 -0.7969  0.2460 -0.4275
  838MPD2    C212369   1.883   3.774  11.958 -0.3383  0.0957  0.4148
  838MPD2    C312370   1.867   3.836  12.083 -0.1059  0.7049  0.2719
  838MPD2    C412371   1.952   3.932  12.131 -0.1877 -0.5932 -0.2892
  838MPD2    C512372   2.067   3.954  12.050 -0.0048 -0.1881 -0.1763
  838MPD2     H12373   1.811   3.696  11.940 -0.8050  1.0396 -1.9141
  838MPD2    H112374   1.924   3.977  12.226 -1.7149 -0.7335 -0.6690
  838MPD2    H212375   2.165   3.931  11.862  1.9711 -1.1304  1.5152
  838MPD2    H312376   2.138   4.030  12.079 -0.4967  0.4607 -0.6652
  838MPD2     N12377   1.750   3.791  12.153  0.3135  1.4248 -0.3000
  838MPD2    H512378   1.701   3.707  12.125  0.4204  0.8887  1.1220
  838MPD2    N112379   2.005   3.737  11.754  0.0147  0.8372  0.3188
  838MPD2    H712380   1.918   3.693  11.726  1.0840 -1.3362  0.4421
  839MPD2     C12381   1.462   3.211  11.814 -0.6818 -0.4447 -0.0288
  839MPD2    C112382   1.536   3.125  11.728 -0.3808  0.2417 -0.0036
  839MPD2    C212383   1.637   3.181  11.653 -0.0838 -0.0271  0.6756
  839MPD2    C312384   1.670   3.312  11.667 -0.1630 -0.0401  0.2413
  839MPD2    C412385   1.605   3.391  11.753 -0.2908 -0.8289  0.1784
  839MPD2    C512386   1.498   3.345  11.827  0.3916 -0.1359  0.1635
  839MPD2     H12387   1.689   3.116  11.582 -0.2479  0.9894 -0.3714
  839MPD2    H112388   1.638   3.495  11.756 -0.7395 -0.6200 -1.9244
  839MPD2    H212389   1.380   3.188  11.881  0.6847  1.3650  2.2541
  839MPD2    H312390   1.433   3.412  11.882  1.1074  0.7984 -0.1251
  839MPD2     N12391   1.775   3.383  11.598  0.6699 -0.0868  0.5962
  839MPD2    H512392   1.784   3.482  11.616 -0.3721 -0.0470  0.9134
  839MPD2    N112393   1.501   2.992  11.712  0.2310 -0.3291 -0.2150
  839MPD2    H712394   1.555   2.939  11.645  2.8268  1.4257  0.5146
  840MPD2     C12395   2.061   0.910  10.038 -0.0858 -0.1723 -0.3827
  840MPD2    C112396   2.006   0.921  10.164 -0.4397 -0.0327 -0.5613
  840MPD2    C212397   2.031   1.030  10.242 -0.3381 -0.2481 -0.0616
  840MPD2    C312398   2.104   1.140  10.190  0.0667 -0.1873  0.2306
  840MPD2    C412399   2.145   1.126  10.061 -1.1160 -0.3599  0.9165
  840MPD2    C512400   2.143   1.009   9.992  0.0419 -0.5414  0.3519
  840MPD2     H12401   1.971   1.040  10.332  1.0415 -2.4814  1.0803
  840MPD2    H112402   2.202   1.203  10.011  0.6749 -0.9694  2.0173
  840MPD2    H212403   2.042   0.819   9.981 -2.6970 -0.2922  0.6683
  840MPD2    H312404   2.200   1.002   9.900  0.6610 -0.8979  0.7679
  840MPD2     N12405   2.130   1.264  10.250 -0.5368  0.8656  0.0057
  840MPD2    H512406   2.174   1.335  10.193  0.7306 -1.2275 -1.6345
  840MPD2    N112407   1.917   0.817  10.192  0.4193 -0.6276 -0.8035
  840MPD2    H712408   1.903   0.741  10.126 -0.7610 -0.6324 -0.5377
  841MPD2     C12409   1.329   0.248  14.838 -0.1043 -1.2887  0.2936
  841MPD2    C112410   1.356   0.182  14.721 -0.2925  0.3563  0.1781
  841MPD2    C212411   1.433   0.251  14.623 -0.0809  0.3259 -0.3298
  841MPD2    C312412   1.480   0.377  14.651 -0.6212  0.2284 -0.0188
  841MPD2    C412413   1.456   0.437  14.770  0.1945  0.1331  0.0195
  841MPD2    C512414   1.384   0.376  14.862  0.0781 -0.1031  0.1011
  841MPD2     H12415   1.449   0.212  14.523 -1.7038  1.1048 -0.8901
  841MPD2    H112416   1.491   0.536  14.796 -1.4482  0.4395  1.0457
  841MPD2    H212417   1.275   0.208  14.922 -0.2992 -0.5193  0.5317
  841MPD2    H312418   1.360   0.418  14.959  0.0396  1.4165 -0.5640
  841MPD2     N12419   1.556   0.440  14.543 -0.1622 -0.9188  0.3114
  841MPD2    H512420   1.585   0.386  14.462  1.3720  1.4706 -0.7528
  841MPD2    N112421   1.297   0.057  14.685 -0.0909 -0.6333 -0.5428
  841MPD2    H712422   1.312   0.013  14.595  0.7247  0.0264 -0.7282
  842MPD2     C12423   2.224   1.384  16.766 -0.2829 -0.4249  0.9045
  842MPD2    C112424   2.105   1.390  16.833  0.3846  1.3674  0.6602
  842MPD2    C212425   2.101   1.360  16.968  0.2954  0.2432 -0.4803
  842MPD2    C312426   2.210   1.291  17.024  0.1624  0.2403  0.3473
  842MPD2    C412427   2.327   1.278  16.954 -0.0560 -0.2334 -0.0859
  842MPD2    C512428   2.333   1.328  16.824  0.5651  0.2641  1.2112
  842MPD2     H12429   2.007   1.373  17.020  0.2152 -1.1698 -0.2759
  842MPD2    H112430   2.419   1.254  17.006  0.1212 -2.1758 -1.2636
  842MPD2    H212431   2.239   1.437  16.673 -2.8698 -0.0053  0.7342
  842MPD2    H312432   2.428   1.331  16.771 -0.3168 -0.2618 -0.3960
  842MPD2     N12433   2.214   1.267  17.167 -0.0576 -0.2383 -0.0838
  842MPD2    H512434   2.303   1.248  17.210  0.2548  1.0456 -0.1664
  842MPD2    N112435   2.001   1.469  16.770  0.0630 -0.0333 -0.0043
  842MPD2    H712436   2.028   1.503  16.678 -0.5269  1.3600  0.3361
  843MPD2     C12437   4.400   2.033  17.606  0.3867  1.0348 -0.1034
  843MPD2    C112438   4.433   1.967  17.727 -0.3097  0.1622 -0.6597
  843MPD2    C212439   4.499   2.037   0.088 -0.7108  0.0903  0.9272
  843MPD2    C312440   4.545   2.164   0.065  0.4680 -0.1871 -0.2239
  843MPD2    C412441   4.502   2.230  17.693  0.1946  0.0957  0.2696
  843MPD2    C512442   4.437   2.165  17.594 -0.0691  0.0799 -0.5767
  843MPD2     H12443   4.514   1.986   0.182 -1.9321 -1.5271  0.2390
  843MPD2    H112444   4.517   2.336  17.676  2.1130 -0.1624  0.3082
  843MPD2    H212445   4.352   1.987  17.520 -2.4379 -0.9226  2.5499
  843MPD2    H312446   4.411   2.225  17.507  0.7672  4.3529  2.1156
  843MPD2     N12447   4.620   2.239   0.163  0.3835 -0.1074 -0.3176
  843MPD2    H512448   4.671   2.320   0.129  1.6984  0.5219  3.1820
  843MPD2    N112449   4.379   1.838   0.003 -0.1488  0.3001 -0.0091
  843MPD2    H712450   4.325   1.803  17.664  1.0350  0.0712 -0.7168
  844MPD2     C12451   2.268   0.517  16.454 -0.1841 -0.0425  0.0036
  844MPD2    C112452   2.374   0.447  16.405 -0.5110  0.8377  0.3750
  844MPD2    C212453   2.504   0.503  16.421  0.0499  0.2837 -0.2538
  844MPD2    C312454   2.527   0.617  16.484  0.2551 -0.2787 -0.3942
  844MPD2    C412455   2.421   0.677  16.548  0.6190 -0.2377 -1.0051
  844MPD2    C512456   2.297   0.629  16.534 -0.4160 -0.4094  0.1451
  844MPD2     H12457   2.580   0.453  16.361 -0.6424  0.5307 -1.3262
  844MPD2    H112458   2.433   0.769  16.604  2.8797 -0.7651 -0.6158
  844MPD2    H212459   2.164   0.487  16.446 -0.5620  1.5713 -1.0628
  844MPD2    H312460   2.210   0.676  16.578  0.7205  1.7123  0.0935
  844MPD2     N12461   2.664   0.661  16.480  0.5947  0.4246  0.2254
  844MPD2    H512462   2.737   0.596  16.453 -0.3513  0.0876 -1.5109
  844MPD2    N112463   2.355   0.331  16.320 -0.5290 -0.0959 -0.3151
  844MPD2    H712464   2.434   0.287  16.275 -0.4983  0.5320 -0.8894
  845MPD2     C12465   3.053   1.559  16.758 -0.7670 -0.6248  0.2551
  845MPD2    C112466   2.933   1.492  16.800 -0.1946  0.1619  0.1744
  845MPD2    C212467   2.910   1.357  16.767 -0.4268 -0.2626  0.4164
  845MPD2    C312468   3.013   1.282  16.709 -0.3864  0.4754  0.2995
  845MPD2    C412469   3.131   1.351  16.680 -0.3922 -0.7321 -0.8722
  845MPD2    C512470   3.152   1.486  16.705  0.6513 -0.1647  0.0979
  845MPD2     H12471   2.813   1.317  16.795 -1.2992  1.7606  0.2291
  845MPD2    H112472   3.206   1.299  16.623  1.4780 -1.2619  2.1075
  845MPD2    H212473   3.072   1.665  16.771 -1.0236 -0.5148 -0.2384
  845MPD2    H312474   3.247   1.531  16.678  0.4137  0.0692 -0.3687
  845MPD2     N12475   2.989   1.143  16.683 -0.4009  0.0568 -0.1590
  845MPD2    H512476   2.893   1.111  16.683 -1.0605  1.9784 -1.6056
  845MPD2    N112477   2.835   1.569  16.859  0.2917 -1.2120 -0.1684
  845MPD2    H712478   2.847   1.670  16.855 -1.7280 -0.8347  3.3754
  846MPD2     C12479   4.585   2.304  13.541 -0.3051 -0.0329 -0.4765
  846MPD2    C112480   4.472   2.374  13.572  0.5090 -0.4584  0.6066
  846MPD2    C212481   4.422   2.368  13.701  0.3052 -0.2914 -0.6652
  846MPD2    C312482   4.486   2.301  13.799 -0.0158  0.0046 -0.1250
  846MPD2    C412483   4.585   2.216  13.754 -0.5959 -0.4490  0.3051
  846MPD2    C512484   4.642   2.224  13.630 -0.2854  0.2867  0.1993
  846MPD2     H12485   4.337   2.423  13.738  1.7504  1.1328  0.5493
  846MPD2    H112486   4.641   2.169  13.834  0.9004 -2.1874 -1.7977
  846MPD2    H212487   4.612   2.292  13.436  1.0228  2.1062 -0.3687
  846MPD2    H312488   4.727   2.163  13.603  2.9154  4.9689 -0.4354
  846MPD2     N12489   4.439   2.312  13.934 -0.5505  0.0751 -0.3624
  846MPD2    H512490   4.353   2.362  13.955 -0.7078 -0.8092  1.0888
  846MPD2    N112491   4.411   2.463  13.483  0.4400 -0.2922  1.0322
  846MPD2    H712492   4.331   2.514  13.519  1.3302  0.7580  1.5056
  847MPD2     C12493   4.441   3.115  14.381  0.0654 -0.0058 -0.2662
  847MPD2    C112494   4.558   3.194  14.403 -0.0969  0.1212 -0.2515
  847MPD2    C212495   4.679   3.139  14.386 -0.3646  0.2991  0.2388
  847MPD2    C312496   4.687   3.007  14.344 -0.5426  0.0596  0.0198
  847MPD2    C412497   4.576   2.933  14.331 -0.4511 -0.1862  0.2593
  847MPD2    C512498   4.451   2.981  14.358 -0.5411 -0.4999 -0.0085
  847MPD2     H12499   0.037   3.189  14.412 -0.6183  1.5560 -1.2720
  847MPD2    H112500   4.597   2.833  14.295  1.2820  0.3073 -0.1076
  847MPD2    H212501   4.347   3.170  14.377 -0.0455 -0.1592  0.3776
  847MPD2    H312502   4.362   2.919  14.345 -1.2178  0.6903 -1.0151
  847MPD2     N12503   0.081   2.957  14.329 -0.4657 -0.0478  0.2946
  847MPD2    H512504   0.161   3.019  14.329 -1.8669  1.7573 -2.6478
  847MPD2    N112505   4.553   3.328  14.436 -0.1302  0.0426  0.0235
  847MPD2    H712506   4.636   3.385  14.424  0.0010 -0.1205  0.1566
  848MPD2     C12507   2.250   1.112  16.237 -0.9297 -0.1336 -0.0876
  848MPD2    C112508   2.327   1.183  16.322 -0.1233 -0.1932  0.0358
  848MPD2    C212509   2.360   1.312  16.285 -0.7990 -0.0747 -0.0965
  848MPD2    C312510   2.321   1.360  16.163 -0.3275 -0.5401  0.1566
  848MPD2    C412511   2.231   1.287  16.085  0.2809 -0.1069  0.0254
  848MPD2    C512512   2.191   1.170  16.124  0.3781  0.9854 -0.3507
  848MPD2     H12513   2.415   1.369  16.359 -0.3682  0.9506 -1.1889
  848MPD2    H112514   2.194   1.327  15.991 -0.3093 -2.7632 -0.8755
  848MPD2    H212515   2.191   1.026  16.268 -1.5104  0.8304  1.4748
  848MPD2    H312516   2.119   1.114  16.066 -1.4600  0.3783  2.5229
  848MPD2     N12517   2.361   1.482  16.106 -0.0719  0.0671 -0.5764
  848MPD2    H512518   2.318   1.504  16.016 -0.7027 -0.3603 -0.3782
  848MPD2    N112519   2.354   1.149  16.464 -0.5351  0.0525 -0.5998
  848MPD2    H712520   2.415   1.207  16.521  1.4744 -1.7185 -0.9497
  849MPD2     C12521   1.690   0.709  13.985  0.3166 -0.4928  0.4100
  849MPD2    C112522   1.720   0.666  13.853  0.2611  0.0590  0.2322
  849MPD2    C212523   1.845   0.617  13.832  0.2962 -0.2285 -0.5165
  849MPD2    C312524   1.940   0.608  13.930 -0.3666 -0.2044 -0.1214
  849MPD2    C412525   1.911   0.658  14.053  0.0629  0.8240  0.0441
  849MPD2    C512526   1.787   0.703  14.081  0.3370  0.5618 -0.2566
  849MPD2     H12527   1.884   0.583  13.736 -0.5783  0.2137 -1.0289
  849MPD2    H112528   1.984   0.665  14.133  0.9635 -0.5814 -0.6492
  849MPD2    H212529   1.596   0.759  14.006 -0.2928 -1.7963  0.7665
  849MPD2    H312530   1.768   0.746  14.179 -0.6880  2.0776 -1.1119
  849MPD2     N12531   2.067   0.557  13.905  0.4473 -0.6686 -0.2916
  849MPD2    H512532   2.101   0.548  13.809  0.3651  2.0621 -0.5718
  849MPD2    N112533   1.628   0.695  13.748 -0.6428 -0.0652  0.0020
  849MPD2    H712534   1.541   0.737  13.778 -0.4857  0.2399  0.0260
  850MPD2     C12535   0.005   4.094  14.553  0.2956 -0.0980 -0.3359
  850MPD2    C112536   4.715   4.158  14.669  0.0861  0.0557 -0.0645
  850MPD2    C212537   0.079   4.189  14.758  0.2120 -0.4559  0.7423
  850MPD2    C312538   0.216   4.175  14.720  0.2539  0.0938  0.9107
  850MPD2    C412539   0.237   4.143  14.586 -0.2555 -0.2458  0.2508
  850MPD2    C512540   0.132   4.099  14.507 -1.0716 -0.5390  0.1674
  850MPD2     H12541   0.064   4.225  14.860 -0.0005 -1.4658  1.0606
  850MPD2    H112542   0.338   4.138  14.547  1.0357 -1.9184  3.7870
  850MPD2    H212543   4.660   4.059  14.488  0.7349 -2.9704  0.6825
  850MPD2    H312544   0.160   4.056  14.411  2.0262  1.9212 -0.0390
  850MPD2     N12545   0.331   4.200  14.799 -0.4118 -0.0607  0.5243
  850MPD2    H512546   0.421   4.182  14.756  0.4274  1.7539  1.4960
  850MPD2    N112547   4.578   4.167  14.697  0.3487  0.4011 -0.5051
  850MPD2    H712548   4.521   4.129  14.622 -0.1723  1.1241 -0.4805
  851MPD2     C12549   0.320   4.034  15.396 -0.4447 -0.3798 -0.0870
  851MPD2    C112550   0.218   3.989  15.311  0.1482 -0.4971  0.3486
  851MPD2    C212551   0.225   3.854  15.284  0.2718 -0.7213 -0.3456
  851MPD2    C312552   0.326   3.771  15.341 -0.4759  0.0306  0.2695
  851MPD2    C412553   0.420   3.819  15.422  0.0490  0.3983 -0.2853
  851MPD2    C512554   0.418   3.952  15.450  0.4010 -0.1889  0.2395
  851MPD2     H12555   0.157   3.803  15.217  0.3863 -0.7338 -0.4515
  851MPD2    H112556   0.508   3.767  15.458  0.3004  0.6843 -0.4914
  851MPD2    H212557   0.333   4.139  15.422  0.8326  0.0644 -2.5469
  851MPD2    H312558   0.492   3.996  15.516  1.4221  0.1372 -1.1498
  851MPD2     N12559   0.338   3.646  15.285  0.1176  0.9334  0.1404
  851MPD2    H512560   0.276   3.626  15.207  0.6134 -1.3954  0.3418
  851MPD2    N112561   0.124   4.074  15.257  0.5169  0.0836  0.1607
  851MPD2    H712562   0.120   4.165  15.301  0.6404  0.1419  0.0520
  852MPD2     C12563   0.219   2.145  10.324 -0.0116  0.3525  0.2843
  852MPD2    C112564   0.187   2.261  10.392  0.0127 -0.3162 -0.2663
  852MPD2    C212565   0.225   2.379  10.339  0.3735 -0.0446 -0.5125
  852MPD2    C312566   0.306   2.386  10.225  0.2252 -0.6002 -0.3216
  852MPD2    C412567   0.331   2.272  10.151 -0.1226 -0.0662 -0.0582
  852MPD2    C512568   0.288   2.155  10.206 -0.4796  0.0460 -0.0187
  852MPD2     H12569   0.191   2.471  10.386  0.9436  0.9980 -2.1243
  852MPD2    H112570   0.379   2.261  10.054 -1.4037 -0.3932 -0.6509
  852MPD2    H212571   0.174   2.048  10.340 -1.6207  1.0300 -0.1192
  852MPD2    H312572   0.304   2.064  10.149  0.6702 -0.3029  0.8560
  852MPD2     N12573   0.355   2.514  10.190 -0.6364  0.2937 -1.0625
  852MPD2    H512574   0.322   2.585  10.255  0.7565  1.2294 -1.3909
  852MPD2    N112575   0.113   2.251  10.513  0.0523 -0.5064  0.2346
  852MPD2    H712576   0.094   2.335  10.566 -0.0066 -1.2562  1.3909
  853MPD2     C12577   1.287   1.617  12.224  0.3928  0.1891 -1.0069
  853MPD2    C112578   1.186   1.607  12.125  0.7776 -0.4804 -0.2826
  853MPD2    C212579   1.214   1.652  11.995  0.4318  0.5119 -0.2115
  853MPD2    C312580   1.340   1.688  11.961 -0.2050  0.4117  0.0784
  853MPD2    C412581   1.435   1.683  12.057  0.1015  0.9160 -0.5333
  853MPD2    C512582   1.417   1.656  12.183  0.6089  0.0512 -0.0658
  853MPD2     H12583   1.137   1.648  11.918 -0.3693  0.3826  0.5895
  853MPD2    H112584   1.537   1.705  12.025  1.0936 -0.0421  1.9480
  853MPD2    H212585   1.288   1.575  12.324  0.2095  1.6850 -0.3932
  853MPD2    H312586   1.494   1.663  12.259  0.4718 -0.9372  0.1721
  853MPD2     N12587   1.386   1.738  11.839 -0.0125  0.2852 -0.6911
  853MPD2    H512588   1.481   1.775  11.836 -0.5823  1.8419  0.3794
  853MPD2    N112589   1.067   1.540  12.168  0.0436  0.0791 -0.4910
  853MPD2    H712590   1.063   1.505  12.263  1.1250  0.3981 -0.3328
  854MPD2     C12591   2.815   2.235  13.089  0.2550  0.0492  0.6452
  854MPD2    C112592   2.914   2.228  12.994  0.5845 -0.0594 -0.0551
  854MPD2    C212593   3.040   2.170  13.027 -0.0548 -0.0042 -0.0546
  854MPD2    C312594   3.061   2.106  13.149 -0.2831  0.1551  0.0640
  854MPD2    C412595   2.953   2.099  13.238  0.3410  0.1652 -0.4071
  854MPD2    C512596   2.834   2.168  13.205  0.1477  0.2258  0.5000
  854MPD2     H12597   3.119   2.201  12.959 -0.0202  1.1566  0.5131
  854MPD2    H112598   2.956   2.044  13.332 -2.2214  0.3013 -0.2430
  854MPD2    H212599   2.714   2.270  13.075  0.3974  0.4070  0.5311
  854MPD2    H312600   2.753   2.181  13.275  1.0926 -0.0355  1.6318
  854MPD2     N12601   3.181   2.058  13.199 -0.0239 -0.3890 -0.3738
  854MPD2    H512602   3.181   2.010  13.288  0.7992  1.6277  0.7213
  854MPD2    N112603   2.886   2.296  12.872 -0.0339  0.6062  0.0835
  854MPD2    H712604   2.790   2.329  12.865 -0.0508  0.4352 -0.4467
  855MPD2     C12605   2.960   1.592  13.620 -0.3236  0.2751 -0.5236
  855MPD2    C112606   3.084   1.543  13.638 -0.2778 -0.2247  0.0334
  855MPD2    C212607   3.193   1.632  13.620  0.1101  0.2084 -0.3139
  855MPD2    C312608   3.174   1.762  13.570  0.2624 -0.5002  0.3414
  855MPD2    C412609   3.048   1.808  13.555  0.2387  0.3442  0.5423
  855MPD2    C512610   2.945   1.726  13.587 -0.5829  0.7218  0.3395
  855MPD2     H12611   3.295   1.598  13.636  0.7599  2.4269  0.2605
  855MPD2    H112612   3.027   1.910  13.523 -2.4216 -0.5497 -0.5402
  855MPD2    H212613   2.869   1.538  13.644 -0.7200  0.7923 -0.8953
  855MPD2    H312614   2.845   1.767  13.576 -1.2395 -0.8739  0.3582
  855MPD2     N12615   3.283   1.845  13.529  0.0462 -0.9360  0.0037
  855MPD2    H512616   3.261   1.941  13.504  1.8833 -0.4372  0.3300
  855MPD2    N112617   3.109   1.408  13.673  0.1537  0.3710 -0.0389
  855MPD2    H712618   3.204   1.388  13.703 -0.1043  0.3889  0.7858
  856MPD2     C12619   1.173   2.052  13.806  0.7045  0.3611  0.2318
  856MPD2    C112620   1.191   2.153  13.890 -0.3356  0.3173 -0.5148
  856MPD2    C212621   1.109   2.264  13.872 -0.2489 -0.8062 -0.5088
  856MPD2    C312622   1.018   2.273  13.770  0.0530 -0.2600  0.5897
  856MPD2    C412623   0.996   2.162  13.697 -0.4200  0.2933 -0.5899
  856MPD2    C512624   1.073   2.051  13.716 -0.8376  0.9113  0.3326
  856MPD2     H12625   1.126   2.347  13.940 -1.3092 -2.2471  1.5146
  856MPD2    H112626   0.919   2.156  13.621 -0.7648 -0.7232 -0.1678
  856MPD2    H212627   1.235   1.965  13.823  0.9461  0.1687 -1.7065
  856MPD2    H312628   1.046   1.964  13.657 -2.7695  0.0109  2.5386
  856MPD2     N12629   0.933   2.381  13.738 -0.4584 -0.2345 -0.1505
  856MPD2    H512630   0.862   2.359  13.669 -0.7457  0.1703  0.0110
  856MPD2    N112631   1.289   2.158  13.990 -0.0100 -0.1670 -0.1795
  856MPD2    H712632   1.299   2.252  14.027 -1.0537  0.5257 -1.6713
  857MPD2     C12633   1.878   0.869  12.287  0.0717 -1.1506 -0.2454
  857MPD2    C112634   1.957   0.784  12.360  0.4455  0.0652 -0.1993
  857MPD2    C212635   2.086   0.827  12.395  0.5056  0.5480 -0.2772
  857MPD2    C312636   2.136   0.951  12.366 -0.0283 -0.5857  0.5393
  857MPD2    C412637   2.056   1.034  12.295  0.5425  0.0834 -0.1343
  857MPD2    C512638   1.936   0.986  12.253  0.1111 -0.1854 -0.1465
  857MPD2     H12639   2.143   0.771  12.467 -0.1923 -0.8873 -0.8495
  857MPD2    H112640   2.084   1.138  12.277 -1.2515  0.1937 -2.2473
  857MPD2    H212641   1.778   0.852  12.251 -1.1257  1.1727  1.9603
  857MPD2    H312642   1.873   1.055  12.198 -0.5675  1.3176  2.5029
  857MPD2     N12643   2.258   0.988  12.423 -0.2595  0.0418  1.0221
  857MPD2    H512644   2.306   0.922  12.484 -1.7761 -2.7792 -0.8772
  857MPD2    N112645   1.900   0.657  12.397 -0.7071  0.0190 -0.1845
  857MPD2    H712646   1.812   0.630  12.355 -0.4734 -0.5563 -0.3112
  858MPD2     C12647   2.978   3.188  16.915  0.1303  0.3594  0.2365
  858MPD2    C112648   3.117   3.179  16.929 -0.0485 -0.4749 -0.3714
  858MPD2    C212649   3.184   3.282  16.994 -0.1387  0.0160  0.1323
  858MPD2    C312650   3.119   3.386  17.051 -0.3837  0.6302 -0.4482
  858MPD2    C412651   2.983   3.387  17.042  0.4555  0.0059  0.3189
  858MPD2    C512652   2.910   3.290  16.972 -0.0504 -0.9000  0.3694
  858MPD2     H12653   3.289   3.266  17.010 -0.0197 -0.2194 -0.8767
  858MPD2    H112654   2.920   3.467  17.079  2.2425  0.6261  2.0407
  858MPD2    H212655   2.928   3.122  16.844  1.1105 -2.6551  2.3231
  858MPD2    H312656   2.802   3.295  16.962  0.2734  1.6492 -1.9992
  858MPD2     N12657   3.191   3.489  17.121  0.1410 -0.6790 -0.0787
  858MPD2    H512658   3.125   3.539  17.181  0.4264  0.2618 -0.5469
  858MPD2    N112659   3.187   3.083  16.855 -0.1258  0.1729  0.7747
  858MPD2    H712660   3.125   3.026  16.800  2.5972 -0.3609 -1.7083
  859MPD2     C12661   1.456   0.564  15.222 -0.3499 -0.5090 -0.1070
  859MPD2    C112662   1.553   0.537  15.133  0.1741  0.9234 -0.7808
  859MPD2    C212663   1.610   0.407  15.121 -0.0241  0.2204  0.5459
  859MPD2    C312664   1.539   0.305  15.179 -0.4790 -0.3918  0.4964
  859MPD2    C412665   1.441   0.331  15.274 -0.3029  0.1022  0.3520
  859MPD2    C512666   1.399   0.461  15.294 -0.1716  0.3982  0.0905
  859MPD2     H12667   1.699   0.394  15.062 -0.7121  0.7704 -0.6073
  859MPD2    H112668   1.406   0.250  15.337  0.6391  0.6532  1.5899
  859MPD2    H212669   1.415   0.663  15.239 -0.9511 -0.4921 -1.6057
  859MPD2    H312670   1.325   0.482  15.370 -0.4376  0.3457 -0.1515
  859MPD2     N12671   1.563   0.166  15.151  0.0653  0.4638 -0.5463
  859MPD2    H512672   1.512   0.095  15.201 -2.2067  2.7143  0.3299
  859MPD2    N112673   1.616   0.634  15.047  0.6684 -0.4995 -0.3892
  859MPD2    H712674   1.694   0.599  14.992  0.1034 -1.9246 -0.2866
  860MPD2     C12675   4.484   2.053  11.871 -0.1860  0.3248 -0.2927
  860MPD2    C112676   4.423   2.159  11.943 -0.5789 -0.2774  0.1355
  860MPD2    C212677   4.309   2.129  12.024  0.6882  0.1651  0.5678
  860MPD2    C312678   4.267   2.000  12.032  0.1166  0.1423  0.1316
  860MPD2    C412679   4.344   1.898  11.974  0.2716  0.0184  0.6768
  860MPD2    C512680   4.447   1.926  11.897 -0.1592  0.2215 -0.3174
  860MPD2     H12681   4.266   2.210  12.082  0.7482 -0.5928  1.6670
  860MPD2    H112682   4.316   1.793  11.968 -0.7748  0.2657  1.1265
  860MPD2    H212683   4.572   2.063  11.809  0.0022  2.2055  0.2699
  860MPD2    H312684   4.510   1.845  11.862 -1.3480 -1.0654  0.5500
  860MPD2     N12685   4.147   1.963  12.101 -0.1568  0.5220  0.0564
  860MPD2    H512686   4.097   2.040  12.145  0.3099  0.9093 -0.0843
  860MPD2    N112687   4.445   2.299  11.933 -0.0828  0.3256 -0.0826
  860MPD2    H712688   4.388   2.367  11.981  1.7688  2.7106 -1.2288
  861MPD2     C12689   2.348   0.022  11.130 -0.2044  0.4705 -0.6628
  861MPD2    C112690   2.461   0.099  11.139  0.1474 -0.2278  0.5743
  861MPD2    C212691   2.511   0.152  11.027  0.4435  0.0436  0.1676
  861MPD2    C312692   2.441   0.149  10.909 -0.2482 -0.2068 -0.3806
  861MPD2    C412693   2.330   0.072  10.896 -0.1487  0.5906 -0.5230
  861MPD2    C512694   2.292   0.003  11.009 -0.2461 -0.0187 -0.2944
  861MPD2     H12695   2.597   0.216  11.041 -1.0069  2.1443 -0.4133
  861MPD2    H112696   2.284   0.049  10.800  0.6790 -0.6075 -0.6275
  861MPD2    H212697   2.309   4.703  11.215 -0.8837  1.7657 -0.1544
  861MPD2    H312698   2.219   4.658  11.007  0.3855 -0.6494  2.7536
  861MPD2     N12699   2.472   0.231  10.803  0.5948  0.3456 -0.0582
  861MPD2    H512700   2.427   0.206  10.716 -0.3511 -1.1933  0.8561
  861MPD2    N112701   2.513   0.126  11.271  1.0700  0.0115  0.2457
  861MPD2    H712702   2.462   0.096  11.354 -3.5545  2.9499 -1.5555
  862MPD2     C12703   2.508   0.021  10.176 -0.6137 -0.0565 -0.1031
  862MPD2    C112704   2.580   0.032  10.291 -0.4571 -0.8453  0.0373
  862MPD2    C212705   2.620   4.660  10.365  1.0143 -0.1208  0.0476
  862MPD2    C312706   2.587   4.537  10.320  0.2128 -0.0356 -0.6555
  862MPD2    C412707   2.520   4.524  10.196  1.3979 -0.0092  0.5952
  862MPD2    C512708   2.478   4.635  10.122 -0.5908  0.4713 -0.4405
  862MPD2     H12709   2.656   4.677  10.466 -0.3247  0.5018  0.4148
  862MPD2    H112710   2.498   4.421  10.170 -1.6952  0.4916  1.2172
  862MPD2    H212711   2.470   0.107  10.122  0.6642  0.7500  0.2837
  862MPD2    H312712   2.426   4.632  10.027 -0.7368  0.2441 -0.3529
  862MPD2     N12713   2.601   4.427  10.403 -0.0177 -0.0631 -0.1540
  862MPD2    H512714   2.556   4.342  10.371  0.3599  0.2221 -1.4537
  862MPD2    N112715   2.599   0.158  10.350 -0.6459 -0.0678 -0.5100
  862MPD2    H712716   2.659   0.162  10.432 -0.9750  2.2125 -0.4052
  863MPD2     C12717   1.698   2.548  16.590  0.1536 -0.0075  0.6315
  863MPD2    C112718   1.618   2.539  16.698 -0.1767  0.1209 -0.1696
  863MPD2    C212719   1.665   2.524  16.830 -0.4458 -0.6212  0.7990
  863MPD2    C312720   1.803   2.529  16.853  0.3806  0.1970  0.0138
  863MPD2    C412721   1.884   2.545  16.746 -0.7253 -0.7347  0.1632
  863MPD2    C512722   1.834   2.548  16.614  0.6853  0.5227  0.4386
  863MPD2     H12723   1.592   2.522  16.909  0.3014  2.2569  1.5634
  863MPD2    H112724   1.992   2.543  16.758 -0.8357  2.2450  1.6709
  863MPD2    H212725   1.665   2.550  16.487  0.5513  0.6019  0.5166
  863MPD2    H312726   1.902   2.568  16.532  1.4722 -1.7492  0.5486
  863MPD2     N12727   1.868   2.497  16.976  0.3087 -0.3601 -0.0217
  863MPD2    H512728   1.969   2.507  16.978  0.5589 -2.9506  1.7607
  863MPD2    N112729   1.482   2.527  16.662 -0.1146 -0.3929  0.4583
  863MPD2    H712730   1.461   2.507  16.565  0.8970  0.9975 -0.0401
  864MPD2     C12731   1.936   3.449  17.473  0.4009 -0.8638  0.4840
  864MPD2    C112732   2.070   3.446  17.450 -0.2993 -0.3256 -0.2419
  864MPD2    C212733   2.143   3.564  17.430 -0.5069  0.0238  0.4367
  864MPD2    C312734   2.079   3.691  17.436 -0.0112 -0.2902 -1.1986
  864MPD2    C412735   1.948   3.688  17.474  0.7512 -0.4673 -0.0911
  864MPD2    C512736   1.878   3.575  17.492 -0.0041  0.1195 -0.4778
  864MPD2     H12737   2.245   3.564  17.394 -1.0767  0.0320 -1.1984
  864MPD2    H112738   1.895   3.781  17.491 -0.8049 -1.0396 -1.7379
  864MPD2    H212739   1.874   3.362  17.488  2.4670 -2.5445 -0.6832
  864MPD2    H312740   1.772   3.585  17.512  0.0015  1.9614 -1.4424
  864MPD2     N12741   2.143   3.815  17.413  0.1869 -0.5414  0.1588
  864MPD2    H512742   2.084   3.897  17.419 -0.2893 -0.6703 -2.6858
  864MPD2    N112743   2.123   3.315  17.431  0.1804  0.1092 -0.1102
  864MPD2    H712744   2.062   3.238  17.457  2.4140 -1.6081 -0.0113
  865MPD2     C12745   1.979   3.944  16.629 -0.3222  0.8157 -0.3776
  865MPD2    C112746   2.116   3.944  16.636 -0.3642  0.1145 -0.6297
  865MPD2    C212747   2.181   3.980  16.751 -0.4766 -0.6949 -0.0738
  865MPD2    C312748   2.104   4.037  16.853  1.3807  0.3375  0.6058
  865MPD2    C412749   1.968   4.042  16.842 -0.0383  0.4688  0.3489
  865MPD2    C512750   1.910   4.000  16.729  0.1076 -0.7133  0.1992
  865MPD2     H12751   2.289   3.972  16.757 -0.4369  0.7978  1.1070
  865MPD2    H112752   1.907   4.062  16.929 -1.8978 -1.9607 -0.4013
  865MPD2    H212753   1.924   3.911  16.542 -1.3997  0.0489  0.5956
  865MPD2    H312754   1.803   4.011  16.721  0.1567  0.4282  1.1291
  865MPD2     N12755   2.156   4.072  16.980  0.2353 -0.0725 -0.6868
  865MPD2    H512756   2.086   4.098  17.049 -0.6358 -2.4970 -0.6815
  865MPD2    N112757   2.198   3.887  16.535  0.2232  0.1080  0.3421
  865MPD2    H712758   2.299   3.881  16.547  0.4274 -0.7866 -1.7692
  866MPD2     C12759   3.353   0.209  11.580 -0.0642  0.1178 -0.1939
  866MPD2    C112760   3.384   0.261  11.461  0.0634  0.6744  0.0227
  866MPD2    C212761   3.284   0.340  11.395 -0.1409 -0.8233 -0.9141
  866MPD2    C312762   3.174   0.374  11.463  0.5528  0.8505 -0.2360
  866MPD2    C412763   3.149   0.317  11.583 -0.2858  0.1901 -0.5796
  866MPD2    C512764   3.237   0.238  11.656  0.2827 -0.1259 -0.0315
  866MPD2     H12765   3.303   0.380  11.296 -0.2572 -0.4374 -0.7833
  866MPD2    H112766   3.061   0.333  11.645  0.5010 -1.6845  1.0569
  866MPD2    H212767   3.429   0.149  11.630 -1.5880 -1.2378  0.5079
  866MPD2    H312768   3.205   0.202  11.753  1.9452 -0.5036  0.3804
  866MPD2     N12769   3.074   0.457  11.411 -0.7009 -0.8605 -0.6882
  866MPD2    H512770   2.986   0.453  11.463 -1.3345  0.1980 -1.6679
  866MPD2    N112771   3.499   0.213  11.398 -0.1255  0.6888 -0.4571
  866MPD2    H712772   3.560   0.142  11.438  0.5710  1.9219  0.6470
  867MPD2     C12773   0.850   3.299  16.471 -0.2265 -0.7294  0.1965
  867MPD2    C112774   0.886   3.312  16.603  0.0195 -0.0947 -0.3538
  867MPD2    C212775   0.819   3.402  16.687  0.1290 -0.6934 -0.4851
  867MPD2    C312776   0.744   3.499  16.627  0.0429 -0.1250  0.4700
  867MPD2    C412777   0.718   3.496  16.494  0.1375 -0.4790 -0.9452
  867MPD2    C512778   0.767   3.395  16.415  0.5596 -0.7007 -0.1107
  867MPD2     H12779   0.836   3.405  16.794  1.4118  0.9539 -0.7330
  867MPD2    H112780   0.654   3.571  16.448 -2.1608 -1.5073  0.6180
  867MPD2    H212781   0.882   3.224  16.399  4.5419  1.6366 -0.0952
  867MPD2    H312782   0.734   3.394  16.311  0.2934  0.7246 -0.0451
  867MPD2     N12783   0.683   3.606  16.691  0.2207 -0.2799 -0.1732
  867MPD2    H512784   0.642   3.673  16.626  1.8611 -1.3452 -2.2958
  867MPD2    N112785   0.986   3.217  16.634 -0.1000  0.1938 -0.2945
  867MPD2    H712786   1.017   3.160  16.555  1.0624 -0.3984  0.5928
  868MPD2     C12787   2.260   3.403  13.020  0.1142  0.9445  0.0978
  868MPD2    C112788   2.328   3.348  13.124 -0.0502 -0.3228 -0.0627
  868MPD2    C212789   2.284   3.362  13.255  0.4390 -0.2106  0.3419
  868MPD2    C312790   2.170   3.430  13.291 -0.1784 -0.0672 -0.2007
  868MPD2    C412791   2.111   3.505  13.183  0.5252 -0.2270  0.1859
  868MPD2    C512792   2.149   3.488  13.055  0.8829  0.2172  0.1336
  868MPD2     H12793   2.336   3.317  13.339  2.3688 -0.4689 -0.9784
  868MPD2    H112794   2.031   3.574  13.205 -0.1425 -0.6428 -0.9581
  868MPD2    H212795   2.295   3.392  12.918  1.5154  0.9916  0.5674
  868MPD2    H312796   2.110   3.549  12.974 -0.8750 -0.4960  0.4436
  868MPD2     N12797   2.120   3.437  13.423  0.5166 -1.2249 -0.4972
  868MPD2    H512798   2.173   3.393  13.498 -2.5483  0.3499  2.5562
  868MPD2    N112799   2.435   3.256  13.087  0.0557 -0.2973 -0.1202
  868MPD2    H712800   2.458   3.239  12.990 -1.1108 -2.8965  0.0555
  869MPD2     C12801   3.382   1.181   1.498 -0.0063  0.4867  0.3420
  869MPD2    C112802   3.487   1.098   1.475  0.0121 -0.2182  0.1917
  869MPD2    C212803   3.593   1.157   1.403  0.0582  0.0855 -0.6382
  869MPD2    C312804   3.595   1.287   1.363  0.4084 -0.1537  0.2547
  869MPD2    C412805   3.489   1.369   1.390  0.0733 -0.4537 -0.1328
  869MPD2    C512806   3.378   1.309   1.443  0.1561  0.2389 -0.0125
  869MPD2     H12807   3.688   1.105   1.403  0.3266  0.5751  1.3143
  869MPD2    H112808   3.502   1.476   1.387 -1.1996 -0.3315 -1.1079
  869MPD2    H212809   3.291   1.162   1.553  0.4365  0.5135  1.0735
  869MPD2    H312810   3.305   1.382   1.477  0.2757  0.9901 -1.3778
  869MPD2     N12811   3.699   1.344   1.282  0.0659  0.1139  0.3194
  869MPD2    H512812   3.707   1.445   1.277 -3.0626  0.3773  0.7893
  869MPD2    N112813   3.486   0.968   1.533 -0.3009  0.4875  0.6987
  869MPD2    H712814   3.407   0.944   1.592 -0.7188  0.5383  0.1631
  870MPD2     C12815   2.472   0.175   1.610  0.1109  0.0338  0.5002
  870MPD2    C112816   2.584   0.112   1.550 -0.0830  0.1450 -0.4317
  870MPD2    C212817   2.567   0.083   1.413 -0.0618 -0.6666  0.5571
  870MPD2    C312818   2.448   0.100   1.342  0.6951 -0.2511  0.6668
  870MPD2    C412819   2.341   0.156   1.410 -1.4655  0.0455  0.0047
  870MPD2    C512820   2.356   0.196   1.536  0.4510  0.0610 -0.5396
  870MPD2     H12821   2.653   0.064   1.350 -0.0284 -0.4634  0.5391
  870MPD2    H112822   2.247   0.180   1.361 -1.7620  0.8633  0.9826
  870MPD2    H212823   2.463   0.210   1.712  1.3105  0.8137  0.3409
  870MPD2    H312824   2.276   0.250   1.587 -2.3585 -3.6907 -0.9986
  870MPD2     N12825   2.445   0.059   1.209  0.2673 -0.1109  0.2665
  870MPD2    H512826   2.528   0.012   1.172  0.8758 -1.8429  3.8323
  870MPD2    N112827   2.696   0.071   1.619 -0.1395 -0.4571 -0.9755
  870MPD2    H712828   2.689   0.083   1.720  1.9076  3.5079 -1.3230
  871MPD2     C12829   4.529   4.535  16.335 -0.3530  0.6295 -0.2336
  871MPD2    C112830   4.499   4.458  16.444 -0.2758 -0.5244 -0.6549
  871MPD2    C212831   4.529   4.323  16.443 -0.3766 -0.6756 -0.3151
  871MPD2    C312832   4.580   4.267  16.327 -0.8565  0.3637 -1.1729
  871MPD2    C412833   4.605   4.350  16.216  0.4964  0.3267  0.2971
  871MPD2    C512834   4.590   4.483  16.224 -0.2501 -0.3328 -0.1854
  871MPD2     H12835   4.518   4.254  16.526 -0.9061  1.3149  1.2586
  871MPD2    H112836   4.649   4.305  16.128 -1.9375  1.3178 -1.4118
  871MPD2    H212837   4.511   4.642  16.334  1.2637  0.8938 -1.7468
  871MPD2    H312838   4.615   4.537  16.133  0.7423  0.0590  0.3224
  871MPD2     N12839   4.604   4.127  16.320 -0.6202  0.1627 -0.1214
  871MPD2    H512840   4.562   4.070  16.393  0.4076  0.3635  0.6238
  871MPD2    N112841   4.446   4.526  16.559  0.2427 -0.8378  0.0188
  871MPD2    H712842   4.445   4.627  16.560  0.4086 -0.8279 -0.4982
  872MPD2     C12843   0.376   1.968  13.281 -0.4188  0.3719  0.1069
  872MPD2    C112844   0.442   1.985  13.400  0.7563  0.0137  0.6574
  872MPD2    C212845   0.375   1.950  13.517 -0.6141 -0.4582 -1.0029
  872MPD2    C312846   0.246   1.900  13.519  0.8829 -0.0226  0.0613
  872MPD2    C412847   0.184   1.876  13.396 -1.3363  0.2592 -0.2627
  872MPD2    C512848   0.254   1.899  13.277  0.0055 -0.4668 -0.5502
  872MPD2     H12849   0.427   1.963  13.611 -1.3544 -0.2835 -0.6210
  872MPD2    H112850   0.083   1.837  13.390 -0.7441 -1.0806 -1.2980
  872MPD2    H212851   0.411   2.001  13.184 -0.2324  2.1480  0.7813
  872MPD2    H312852   0.200   1.876  13.186  0.7058 -1.1406 -0.7910
  872MPD2     N12853   0.174   1.876  13.636 -0.2531  0.1924  0.0771
  872MPD2    H512854   0.090   1.819  13.632 -0.1249  0.1036 -1.6914
  872MPD2    N112855   0.576   2.028  13.391 -0.1593  0.3950 -0.1741
  872MPD2    H712856   0.626   2.016  13.478 -1.8711  1.3846  0.9607
  873MPD2     C12857   3.010   1.734   1.375 -0.2443 -0.0720  0.2996
  873MPD2    C112858   2.876   1.776   1.360 -0.7146 -0.3392 -0.2536
  873MPD2    C212859   2.775   1.685   1.347 -0.3768  0.3751  0.3410
  873MPD2    C312860   2.800   1.553   1.358  0.2089 -0.1122  0.9124
  873MPD2    C412861   2.928   1.511   1.373  0.7755  0.1612 -0.3627
  873MPD2    C512862   3.032   1.601   1.376 -0.6425  0.6400 -0.9546
  873MPD2     H12863   2.674   1.722   1.335 -0.0998  0.0787 -2.8862
  873MPD2    H112864   2.941   1.404   1.362 -0.7419 -0.0716  0.1712
  873MPD2    H212865   3.094   1.800   1.394 -1.8897  2.2895 -0.6944
  873MPD2    H312866   3.133   1.570   1.398 -0.4863  0.0208 -2.5375
  873MPD2     N12867   2.694   1.454   1.358  0.0980 -0.1638  0.6029
  873MPD2    H512868   2.716   1.356   1.349 -1.8915 -0.4043 -1.7049
  873MPD2    N112869   2.858   1.919   1.356  0.3261 -0.0560  0.7626
  873MPD2    H712870   2.941   1.972   1.383  0.7397 -1.7865  2.8456
  874MPD2     C12871   1.777   2.026  16.193 -0.1763  0.4277 -0.3746
  874MPD2    C112872   1.867   1.960  16.276  0.2680 -0.1107  0.2535
  874MPD2    C212873   1.990   1.921  16.224 -0.6955  0.2498 -0.5146
  874MPD2    C312874   2.039   1.966  16.102  0.1115  0.2974  1.1405
  874MPD2    C412875   1.952   2.038  16.028 -0.1738  0.3933 -0.3031
  874MPD2    C512876   1.822   2.063  16.069 -0.6646  0.6160 -0.5728
  874MPD2     H12877   2.053   1.851  16.276 -0.2852  0.2989 -0.9428
  874MPD2    H112878   1.966   2.084  15.931  0.4610  1.5669  0.3441
  874MPD2    H212879   1.680   2.059  16.228 -0.2009  0.0337 -0.0741
  874MPD2    H312880   1.751   2.113  16.004 -3.7368 -2.3823  0.5319
  874MPD2     N12881   2.163   1.909  16.064 -0.0628 -0.1250  0.0647
  874MPD2    H512882   2.218   1.863  16.137  0.8462 -2.4974 -2.1179
  874MPD2    N112883   1.811   1.915  16.399 -0.0441  0.5150 -0.2053
  874MPD2    H712884   1.710   1.921  16.404 -0.2217 -0.7988 -2.7163
  875MPD2     C12885   2.873   0.609  14.142 -0.8587  0.0511  0.4888
  875MPD2    C112886   2.877   0.468  14.158  0.4885  0.1191 -0.8683
  875MPD2    C212887   2.856   0.412  14.280  0.8742 -0.2236 -0.1430
  875MPD2    C312888   2.863   0.492  14.394 -0.3848  0.9787  0.5121
  875MPD2    C412889   2.878   0.630  14.378 -0.0423  0.0657  0.7583
  875MPD2    C512890   2.878   0.687  14.256  0.2290 -0.0644 -0.5065
  875MPD2     H12891   2.843   0.305  14.290  1.4082 -0.1509  1.4559
  875MPD2    H112892   2.898   0.693  14.464 -1.1971  1.6683 -0.1609
  875MPD2    H212893   2.865   0.652  14.043 -0.1477  0.5449  0.6465
  875MPD2    H312894   2.897   0.794  14.256 -0.9856  0.1549 -0.1319
  875MPD2     N12895   2.862   0.434  14.520 -0.2574 -0.6182  0.0600
  875MPD2    H512896   2.908   0.486  14.595 -1.5527 -0.2295  0.6011
  875MPD2    N112897   2.876   0.389  14.046  0.1864  0.3199  0.2150
  875MPD2    H712898   2.850   0.292  14.057  1.6238 -0.2430 -1.3064
  876MPD2     C12899   1.911   1.247  15.839 -0.2127  0.3236 -0.1751
  876MPD2    C112900   1.978   1.153  15.760  0.3323  0.0325 -0.6534
  876MPD2    C212901   1.990   1.026  15.811 -0.7659 -0.9154 -0.4529
  876MPD2    C312902   1.942   0.992  15.939  0.1681  0.3123 -0.4658
  876MPD2    C412903   1.876   1.087  16.009 -0.6578  0.5550  0.0417
  876MPD2    C512904   1.863   1.210  15.960 -0.7162  0.0473 -1.1954
  876MPD2     H12905   2.053   0.958  15.755  1.6216  0.8522  0.0772
  876MPD2    H112906   1.824   1.061  16.101  1.1546 -0.6536  0.7406
  876MPD2    H212907   1.893   1.350  15.811  0.2097  0.4312 -0.0557
  876MPD2    H312908   1.803   1.280  16.018  1.0734  1.9877 -1.6946
  876MPD2     N12909   1.966   0.862  15.990  0.2815 -0.1362 -0.0554
  876MPD2    H512910   2.003   0.795  15.922  1.3097 -0.3920  0.7718
  876MPD2    N112911   2.044   1.204  15.647  0.0761  0.2693 -0.2860
  876MPD2    H712912   2.010   1.297  15.622 -0.2884  0.4651  0.9486
  877MPD2     C12913   1.987   1.709  15.074  0.2199  0.2976 -0.9031
  877MPD2    C112914   2.055   1.594  15.040  0.2384  0.0530  0.0856
  877MPD2    C212915   2.062   1.556  14.908 -0.0880 -1.0553 -0.6651
  877MPD2    C312916   2.004   1.627  14.805 -0.8808  0.3424  0.2629
  877MPD2    C412917   1.920   1.727  14.844 -0.1201  0.2439  0.0728
  877MPD2    C512918   1.914   1.772  14.977  0.2441 -0.0391 -0.3861
  877MPD2     H12919   2.102   1.456  14.891  1.2308 -0.7479  0.6254
  877MPD2    H112920   1.859   1.783  14.774 -0.6468 -2.3340 -1.5474
  877MPD2    H212921   1.985   1.746  15.176 -0.6581  1.3474 -1.2945
  877MPD2    H312922   1.846   1.853  15.000 -1.7603 -1.5199 -1.1029
  877MPD2     N12923   2.008   1.587  14.670  0.4678 -0.3632 -0.3351
  877MPD2    H512924   1.968   1.647  14.598 -1.8488 -0.0862  1.1668
  877MPD2    N112925   2.131   1.508  15.130 -0.2684 -0.0659  0.6757
  877MPD2    H712926   2.169   1.429  15.079 -1.8936 -0.9506  0.8022
  878MPD2     C12927   1.033   1.420  13.528 -0.2743 -0.6817 -0.0270
  878MPD2    C112928   1.145   1.436  13.448 -0.0415  0.0996  0.3769
  878MPD2    C212929   1.258   1.360  13.470  0.0842 -0.3402  0.3190
  878MPD2    C312930   1.254   1.256  13.563  0.1820 -0.3211  0.1043
  878MPD2    C412931   1.145   1.249  13.647 -0.1355  0.1974 -0.3187
  878MPD2    C512932   1.029   1.316  13.619  0.2471 -0.2307 -0.9162
  878MPD2     H12933   1.339   1.368  13.398 -1.0395 -0.7778 -0.9874
  878MPD2    H112934   1.135   1.171  13.721 -3.3088  0.6947 -0.2218
  878MPD2    H212935   0.938   1.468  13.506 -0.3587 -0.3990  0.9844
  878MPD2    H312936   0.945   1.276  13.675  0.3929 -0.0787 -0.5866
  878MPD2     N12937   1.361   1.168  13.556  0.5201  0.0256  0.3654
  878MPD2    H512938   1.420   1.159  13.474  0.2445  1.3635  0.0322
  878MPD2    N112939   1.141   1.525  13.340 -0.6756 -0.8467 -0.1075
  878MPD2    H712940   1.055   1.563  13.303 -0.2762 -0.7315 -0.9085
  879MPD2     C12941   2.710   2.453  16.923  0.0523  0.3575  0.0778
  879MPD2    C112942   2.615   2.414  17.016  0.8808  0.0946  0.3884
  879MPD2    C212943   2.496   2.365  16.967  0.3673 -0.0129 -0.8355
  879MPD2    C312944   2.469   2.367  16.834 -0.7595 -0.2099 -0.1848
  879MPD2    C412945   2.566   2.410  16.744 -0.3220  0.4256 -0.2300
  879MPD2    C512946   2.684   2.453  16.790 -0.6426 -0.0230  0.2131
  879MPD2     H12947   2.416   2.317  17.022  1.3719 -1.0928 -0.2986
  879MPD2    H112948   2.557   2.407  16.636 -0.0568  0.5598 -0.2545
  879MPD2    H212949   2.808   2.482  16.960 -0.5591 -0.4894  2.3408
  879MPD2    H312950   2.760   2.468  16.714  0.4394  0.8455  1.4753
  879MPD2     N12951   2.340   2.343  16.780 -0.2742  0.7637 -0.3758
  879MPD2    H512952   2.345   2.325  16.680  0.3606  0.1027 -0.2284
  879MPD2    N112953   2.648   2.428  17.153 -0.8608 -0.4220  0.4501
  879MPD2    H712954   2.736   2.474  17.177 -1.2324 -0.0112  1.0422
  880MPD2     C12955   3.542   4.215   0.456 -0.4927 -0.3493  0.2168
  880MPD2    C112956   3.557   4.306   0.354 -0.1661  0.2121  0.3356
  880MPD2    C212957   3.676   4.310   0.286  0.4625 -0.0161 -0.2110
  880MPD2    C312958   3.770   4.212   0.305 -0.2784  0.4160  0.0631
  880MPD2    C412959   3.756   4.122   0.411  0.2712 -0.6664  0.2353
  880MPD2    C512960   3.645   4.133   0.486 -0.4937  0.0461 -0.4906
  880MPD2     H12961   3.690   4.380   0.204  1.5229 -0.3950 -0.3528
  880MPD2    H112962   3.827   4.044   0.436  0.8070  0.0719  1.0015
  880MPD2    H212963   3.452   4.213   0.517 -0.9459  0.3690 -0.4274
  880MPD2    H312964   3.639   4.067   0.572 -0.7913 -1.8565 -1.9963
  880MPD2     N12965   3.887   4.216   0.225  0.1987 -0.0864  0.1418
  880MPD2    H512966   3.898   4.305   0.177  2.5498 -0.6065 -0.2713
  880MPD2    N112967   3.453   4.399   0.335 -0.0584 -0.3737 -0.0283
  880MPD2    H712968   3.371   4.380   0.393 -0.5356 -1.8302 -1.1616
  881MPD2     C12969   2.915   0.243  17.322  0.0518 -0.0952  0.1103
  881MPD2    C112970   3.043   0.205  17.331 -0.2431 -0.8724  0.3766
  881MPD2    C212971   3.072   0.108  17.430  0.6200 -0.5953  0.1236
  881MPD2    C312972   2.982   0.076  17.530 -0.3196  0.0693 -0.3748
  881MPD2    C412973   2.855   0.136  17.519  0.0921  0.0771  0.1862
  881MPD2    C512974   2.819   0.208  17.407 -0.1780 -0.7360 -0.9929
  881MPD2     H12975   3.175   0.074  17.440  0.5511 -0.7429  0.3297
  881MPD2    H112976   2.777   0.124  17.593 -1.7779 -3.9393 -2.4595
  881MPD2    H212977   2.894   0.306  17.237  0.9104 -2.1790 -1.6281
  881MPD2    H312978   2.714   0.236  17.400  0.1377  0.8043  0.4411
  881MPD2     N12979   3.018   0.018  17.654 -0.3386 -0.2405 -0.1969
  881MPD2    H512980   2.948   0.027  17.727 -2.0377 -3.0653 -1.4885
  881MPD2    N112981   3.141   0.230  17.236  0.7210  0.8710  0.0281
  881MPD2    H712982   3.223   0.169  17.236 -0.8833 -1.2777 -0.8094
  882MPD2     C12983   1.617   1.125  14.100 -0.0639 -0.5973  0.1376
  882MPD2    C112984   1.628   1.250  14.160  0.0550 -0.4542 -0.1588
  882MPD2    C212985   1.525   1.336  14.143  0.1940  0.1304 -0.1836
  882MPD2    C312986   1.405   1.302  14.078  0.3278  0.3497  0.0274
  882MPD2    C412987   1.401   1.178  14.017  0.7311  0.0988  0.2723
  882MPD2    C512988   1.499   1.092  14.043  0.0012  0.4271  0.2905
  882MPD2     H12989   1.537   1.437  14.182 -0.7090  0.7023 -1.3890
  882MPD2    H112990   1.311   1.135  13.974 -0.5951 -0.7958  3.9814
  882MPD2    H212991   1.703   1.060  14.104  1.4800  1.3766 -0.9632
  882MPD2    H312992   1.488   0.991  14.005 -0.5220  0.4664  0.3372
  882MPD2     N12993   1.313   1.404  14.058  0.2847 -0.2103  0.0968
  882MPD2    H512994   1.344   1.496  14.089 -0.5780  0.3773 -0.7775
  882MPD2    N112995   1.746   1.286  14.217  0.5299 -0.5120  0.0473
  882MPD2    H712996   1.829   1.232  14.198  0.1044 -0.5055 -1.8887
  883MPD2     C12997   3.796   1.864  16.032 -0.0437 -0.2051  0.1939
  883MPD2    C112998   3.865   1.907  15.926 -0.0934 -0.1878  0.5670
  883MPD2    C212999   3.996   1.953  15.949  0.2168 -0.2482 -0.4563
  883MPD2    C313000   4.054   1.974  16.073  0.1583  0.1113 -0.0948
  883MPD2    C413001   3.984   1.922  16.176  0.4559  0.2502 -0.3552
  883MPD2    C513002   3.860   1.870  16.157  0.2623  0.1643 -0.1007
  883MPD2     H13003   4.043   1.998  15.862 -0.0185  1.9664  0.5753
  883MPD2    H113004   4.030   1.922  16.274  1.6232 -0.6885 -0.9005
  883MPD2    H213005   3.699   1.816  16.036 -0.3886  0.5435  0.8054
  883MPD2    H313006   3.801   1.846  16.245  0.8513 -0.5992  0.0888
  883MPD2     N13007   4.183   2.040  16.089  0.5110 -0.0199  0.1406
  883MPD2    H513008   4.244   2.038  16.008 -0.5064  1.1854 -0.6575
  883MPD2    N113009   3.816   1.908  15.799 -0.4844 -0.8289 -0.2901
  883MPD2    H713010   3.886   1.948  15.737 -1.8972 -1.8801 -2.5833
  884MPD2     C13011   1.250   2.280  15.257  0.1871 -0.4115  0.5281
  884MPD2    C113012   1.202   2.286  15.126  0.0702 -0.2356 -0.8188
  884MPD2    C213013   1.085   2.358  15.112 -0.3995 -0.1602  0.7876
  884MPD2    C313014   1.013   2.426  15.213 -0.2079 -0.0620  0.1949
  884MPD2    C413015   1.067   2.424  15.336 -0.2040  0.2096  0.3397
  884MPD2    C513016   1.185   2.357  15.352 -0.3530 -0.9621 -0.3469
  884MPD2     H13017   1.044   2.370  15.012 -0.4615 -4.6736  0.2340
  884MPD2    H113018   1.028   2.471  15.425  0.3321 -0.6572  1.0330
  884MPD2    H213019   1.340   2.227  15.287  0.0700 -0.2898  1.0943
  884MPD2    H313020   1.224   2.350  15.453 -0.8982  0.0240 -0.0659
  884MPD2     N13021   0.895   2.505  15.183  0.5202 -0.4208  0.2340
  884MPD2    H513022   0.869   2.522  15.086 -0.2824 -0.3699  0.4617
  884MPD2    N113023   1.265   2.246  15.013  0.2677 -0.1624 -0.0678
  884MPD2    H713024   1.213   2.255  14.926 -2.1904  1.3154  1.5282
  885MPD2     C13025   4.343   2.597   0.184  0.2923  0.2687  0.2122
  885MPD2    C113026   4.422   2.699   0.241  0.2715 -0.2737 -0.1820
  885MPD2    C213027   4.466   2.807   0.165  0.3154  0.7286 -0.1159
  885MPD2    C313028   4.426   2.812   0.031 -0.2258  0.2372  0.6506
  885MPD2    C413029   4.350   2.709  17.717  0.1350 -1.2043  0.0388
  885MPD2    C513030   4.300   2.611   0.051 -1.0097 -0.3192 -0.6205
  885MPD2     H13031   4.527   2.885   0.208  0.9122  1.3566 -2.1109
  885MPD2    H113032   4.319   2.707  17.613  0.1162  0.3044  0.0176
  885MPD2    H213033   4.308   2.519   0.250 -1.2003  0.9839  0.2552
  885MPD2    H313034   4.238   2.532   0.009 -2.6679  1.1290 -0.8761
  885MPD2     N13035   4.473   2.913  17.681  0.5887  0.7095 -0.1443
  885MPD2    H513036   4.548   2.974  17.713  0.6632  0.1123  0.8215
  885MPD2    N113037   4.456   2.684   0.375 -0.0912 -0.2371  0.1896
  885MPD2    H713038   4.440   2.595   0.421 -1.2429 -0.2278 -0.1993
  886MPD2     C13039   0.594   1.769  15.486 -0.2645  0.0379 -0.9584
  886MPD2    C113040   0.660   1.657  15.451  0.6111 -1.1402  0.3743
  886MPD2    C213041   0.718   1.645  15.332 -0.1503  0.5728 -0.1346
  886MPD2    C313042   0.712   1.739  15.229 -0.1990 -0.3622  0.0072
  886MPD2    C413043   0.645   1.854  15.256  0.4207  0.0194  0.2732
  886MPD2    C513044   0.580   1.865  15.383 -0.5204  0.1084 -0.1397
  886MPD2     H13045   0.780   1.557  15.318 -0.3957  0.1517  1.5402
  886MPD2    H113046   0.637   1.936  15.185  1.6020  0.2151  0.3678
  886MPD2    H213047   0.528   1.781  15.570 -0.7610 -2.9312 -0.9099
  886MPD2    H313048   0.510   1.948  15.388 -0.2923  0.3151 -0.3765
  886MPD2     N13049   0.774   1.712  15.104 -0.0538  0.3937 -0.3395
  886MPD2    H513050   0.827   1.626  15.104  3.3813  2.5073  0.4789
  886MPD2    N113051   0.684   1.553  15.545  0.4506 -0.0621 -0.2458
  886MPD2    H713052   0.736   1.474  15.509 -2.3881 -0.9500 -2.3599
  887MPD2     C13053   1.110   1.422  16.283 -0.1761 -0.1063  0.1647
  887MPD2    C113054   1.088   1.513  16.174 -0.0180 -0.5210 -0.4127
  887MPD2    C213055   1.177   1.611  16.150 -0.1684  0.5058  0.2118
  887MPD2    C313056   1.289   1.622  16.228 -0.2651 -0.3256  0.0558
  887MPD2    C413057   1.315   1.530  16.327 -0.1672 -0.2972  0.3835
  887MPD2    C513058   1.223   1.438  16.364  0.1047 -0.1636  0.3336
  887MPD2     H13059   1.164   1.682  16.069 -0.3900  0.6835  0.4010
  887MPD2    H113060   1.410   1.528  16.378 -1.8467  0.3845  3.5701
  887MPD2    H213061   1.034   1.349  16.307  0.2333 -1.1224 -1.5943
  887MPD2    H313062   1.235   1.380  16.455 -0.3302 -1.7165 -0.5827
  887MPD2     N13063   1.387   1.704  16.172 -0.1412 -0.9980 -0.2147
  887MPD2    H513064   1.351   1.782  16.117 -0.6700 -0.9098  0.2469
  887MPD2    N113065   0.985   1.491  16.078 -0.4858  0.1515  0.5995
  887MPD2    H713066   0.977   1.568  16.014  2.7348 -0.0023  0.0369
  888MPD2     C13067   3.202   1.075  14.648  0.5688  0.2578 -0.2854
  888MPD2    C113068   3.184   1.110  14.778  0.0480  0.2138 -0.5134
  888MPD2    C213069   3.224   1.242  14.812 -0.1477 -0.3788  0.2964
  888MPD2    C313070   3.293   1.321  14.714 -0.4709  0.4383 -0.5201
  888MPD2    C413071   3.315   1.273  14.585  0.1513 -0.3423  0.8011
  888MPD2    C513072   3.254   1.158  14.549  0.2908 -0.2290 -0.0663
  888MPD2     H13073   3.219   1.288  14.910  0.9273 -0.1811  0.2595
  888MPD2    H113074   3.370   1.336  14.517 -1.0849 -0.4368 -0.2808
  888MPD2    H213075   3.163   0.982  14.607  0.5738  0.0194  0.2468
  888MPD2    H313076   3.259   1.119  14.448 -2.4910 -1.2443  0.1588
  888MPD2     N13077   3.334   1.452  14.752 -0.1994 -0.5792  0.3792
  888MPD2    H513078   3.307   1.487  14.843 -0.3231 -2.2403  0.9849
  888MPD2    N113079   3.117   1.026  14.867 -0.1094  0.0375 -0.0733
  888MPD2    H713080   3.116   1.055  14.964 -0.9824 -0.2684  0.0115
  889MPD2     C13081   2.567   1.624  12.856 -0.0562  0.2264 -0.4793
  889MPD2    C113082   2.476   1.525  12.878  0.5718  0.1090  0.5568
  889MPD2    C213083   2.397   1.530  12.989 -0.4315 -0.7195 -0.0594
  889MPD2    C313084   2.409   1.637  13.080  0.2632  0.5665  0.0054
  889MPD2    C413085   2.493   1.742  13.049  0.0564  0.2216  0.3968
  889MPD2    C513086   2.571   1.734  12.939 -0.1598  0.0549 -0.6241
  889MPD2     H13087   2.344   1.439  13.014 -0.5221 -0.4445  0.7527
  889MPD2    H113088   2.500   1.836  13.101  1.3669  0.5605 -0.3787
  889MPD2    H213089   2.635   1.641  12.773  0.8285  0.0931  0.2096
  889MPD2    H313090   2.640   1.811  12.908  0.1588  0.5564  1.3293
  889MPD2     N13091   2.339   1.639  13.203  0.5829  0.1619  0.1206
  889MPD2    H513092   2.299   1.548  13.224 -0.4046  0.4525 -0.5235
  889MPD2    N113093   2.483   1.401  12.816  0.5107  0.1097  0.1611
  889MPD2    H713094   2.410   1.332  12.829 -0.5449  1.4791  1.4634
  890MPD2     C13095   2.190   2.217  14.816 -0.0213 -0.2033  0.1378
  890MPD2    C113096   2.263   2.274  14.920 -0.7744  0.3288 -0.9970
  890MPD2    C213097   2.342   2.195  15.004  0.1366  0.4404 -0.1254
  890MPD2    C313098   2.354   2.059  14.985  0.4877 -0.1205 -0.3914
  890MPD2    C413099   2.280   1.999  14.886 -0.1770  0.2194  0.8249
  890MPD2    C513100   2.198   2.079  14.807 -0.0477  0.4600  0.1787
  890MPD2     H13101   2.386   2.240  15.093  1.0152  0.4111 -0.5481
  890MPD2    H113102   2.282   1.893  14.866  1.4662  0.3460  0.3342
  890MPD2    H213103   2.143   2.277  14.739 -2.2850 -1.7228  0.3488
  890MPD2    H313104   2.154   2.031  14.720  1.8558 -0.1710 -0.4286
  890MPD2     N13105   2.433   1.991  15.077  0.2472 -0.1366 -0.0847
  890MPD2    H513106   2.489   2.043  15.143 -0.8675  0.9399  0.0061
  890MPD2    N113107   2.261   2.418  14.919  0.2439  0.1254 -0.2390
  890MPD2    H713108   2.193   2.456  14.855 -0.1132  1.5599  0.9828
  891MPD2     C13109   0.133   1.400  16.407  0.0938 -0.0534  0.2257
  891MPD2    C113110   0.014   1.365  16.466  0.3912  0.3956 -0.7077
  891MPD2    C213111   0.011   1.250  16.544  0.0380  0.3876  0.6593
  891MPD2    C313112   0.125   1.178  16.557  1.2572 -0.1266 -0.1924
  891MPD2    C413113   0.238   1.206  16.484  0.2396  0.5721  0.0186
  891MPD2    C513114   0.238   1.317  16.414  0.5547 -0.1293  0.1458
  891MPD2     H13115   4.662   1.215  16.604 -0.5716  0.7290  0.0080
  891MPD2    H113116   0.324   1.140  16.487 -0.2954 -0.1652 -0.4915
  891MPD2    H213117   0.135   1.482  16.336 -1.0851 -0.5371 -0.3790
  891MPD2    H313118   0.333   1.334  16.365  0.3447 -0.1742 -0.2766
  891MPD2     N13119   0.113   1.072  16.646  0.4309 -0.2185 -0.1288
  891MPD2    H513120   0.033   1.063  16.708  1.4024 -1.8321  0.9051
  891MPD2    N113121   4.634   1.437  16.441  0.3085 -0.6306 -0.1910
  891MPD2    H713122   4.651   1.525  16.394  0.3759 -0.2279  0.5888
  892MPD2     C13123   1.280   2.073  14.553 -0.2302  0.5347 -0.2276
  892MPD2    C113124   1.152   2.062  14.504  0.9333  0.2117  0.9192
  892MPD2    C213125   1.130   1.981  14.398  0.3577  0.4998  0.4391
  892MPD2    C313126   1.227   1.898  14.346 -0.8606  0.4365  0.2094
  892MPD2    C413127   1.351   1.895  14.407 -0.8257  0.2744 -0.7638
  892MPD2    C513128   1.372   1.981  14.506 -0.4759  0.1720  0.1981
  892MPD2     H13129   1.028   1.987  14.361 -0.3022 -0.9235  2.0096
  892MPD2    H113130   1.428   1.827  14.372 -1.5047 -0.2813 -1.1629
  892MPD2    H213131   1.301   2.144  14.632 -2.4544  0.0283  0.8263
  892MPD2    H313132   1.469   1.983  14.554 -0.1788  3.3232 -0.5631
  892MPD2     N13133   1.205   1.818  14.234  0.3897  0.4073  0.1947
  892MPD2    H513134   1.278   1.751  14.210 -2.2054 -1.5054 -2.4180
  892MPD2    N113135   1.039   2.131  14.562  0.3694 -0.2271 -0.1545
  892MPD2    H713136   0.954   2.109  14.510  2.4932 -1.6124 -3.0762
  893MPD2     C13137   2.542   1.062   1.587  0.3099  0.5188  0.0455
  893MPD2    C113138   2.434   0.986   1.591  0.2501  0.4527  0.0323
  893MPD2    C213139   2.313   1.050   1.630  0.3864  0.1123 -0.3282
  893MPD2    C313140   2.309   1.183   1.673  0.2464  0.1162 -0.1297
  893MPD2    C413141   2.427   1.250   1.677 -0.3942 -0.1064  0.4649
  893MPD2    C513142   2.542   1.193   1.629 -0.5853  0.8866 -0.1731
  893MPD2     H13143   2.224   0.987   1.626  1.9007 -2.0878  0.5190
  893MPD2    H113144   2.442   1.349   1.721 -0.2966  1.1814 -2.4912
  893MPD2    H213145   2.637   1.035   1.542 -0.4223  1.0071 -1.8017
  893MPD2    H313146   2.638   1.242   1.613  0.0112 -0.1219  0.3113
  893MPD2     N13147   2.194   1.252   1.706  0.3787  0.4782 -0.0248
  893MPD2    H513148   2.201   1.352   1.722 -1.9721  0.9117 -1.6535
  893MPD2    N113149   2.445   0.851   1.544 -0.5904 -0.7554  0.2696
  893MPD2    H713150   2.539   0.819   1.521 -0.0049  2.0671 -1.2231
  894MPD2     C13151   0.956   2.997   1.718 -0.0655  1.3601  0.3415
  894MPD2    C113152   0.898   3.052   1.601  0.1115  0.2387  0.3057
  894MPD2    C213153   0.973   3.052   1.484 -0.3166  0.4196  0.7858
  894MPD2    C313154   1.094   2.987   1.487 -0.7620 -0.1511  0.1762
  894MPD2    C413155   1.155   2.950   1.602  1.0352  0.5320  0.0856
  894MPD2    C513156   1.085   2.952   1.721 -0.2733 -0.7161  0.7309
  894MPD2     H13157   0.923   3.088   1.394  1.6121 -0.6868 -0.7188
  894MPD2    H113158   1.254   2.905   1.600  1.1174  0.6245  1.9075
  894MPD2    H213159   0.905   3.000   1.813 -1.0956 -0.3955 -0.1478
  894MPD2    H313160   1.131   2.917   1.813  0.0604  0.4375  1.0175
  894MPD2     N13161   1.158   2.962   1.367 -0.1047  0.5790 -0.3364
  894MPD2    H513162   1.104   3.002   1.292 -0.5104  0.4440 -0.1170
  894MPD2    N113163   0.769   3.103   1.597  0.0914  0.1371  1.0057
  894MPD2    H713164   0.737   3.128   1.504  0.5106  0.5852  0.9773
  895MPD2     C13165   4.663   1.623  13.649  0.4349  0.1580  0.3705
  895MPD2    C113166   4.652   1.623  13.512  0.3561 -0.7724  0.0191
  895MPD2    C213167   4.717   1.519  13.437 -0.4045  0.4575 -0.0058
  895MPD2    C313168   0.052   1.418  13.502  0.7155 -0.4521  0.1413
  895MPD2    C413169   0.053   1.417  13.640 -0.5339  0.2958 -0.7486
  895MPD2    C513170   4.729   1.520  13.707 -0.4213  0.1272 -0.2119
  895MPD2     H13171   4.692   1.514  13.332 -2.2434  0.9884  0.4124
  895MPD2    H113172   0.092   1.337  13.701  2.0022  1.3395 -1.0004
  895MPD2    H213173   4.592   1.669  13.717  0.5527 -2.2989  2.1689
  895MPD2    H313174   0.001   1.513  13.815 -2.5220  1.0592 -0.0240
  895MPD2     N13175   0.119   1.315  13.433  0.1270  0.3315  0.2393
  895MPD2    H513176   0.145   1.233  13.487 -0.6840 -0.6903 -0.9241
  895MPD2    N113177   4.563   1.711  13.441 -0.4381  0.0769 -0.2365
  895MPD2    H713178   4.540   1.689  13.344 -2.1739  1.0754 -0.0465
  896MPD2     C13179   3.042   3.436   0.892  0.2274  0.3409 -0.5035
  896MPD2    C113180   2.954   3.542   0.907  0.0418  0.6409 -0.4860
  896MPD2    C213181   2.830   3.513   0.958  0.5743  0.0693  0.0643
  896MPD2    C313182   2.801   3.381   0.992 -0.0266 -0.2009  0.2535
  896MPD2    C413183   2.892   3.284   0.977 -0.3248  0.2668  0.0473
  896MPD2    C513184   3.013   3.307   0.927 -0.5323 -0.0297  0.7937
  896MPD2     H13185   2.748   3.584   0.965 -0.1258 -0.5655 -1.7221
  896MPD2    H113186   2.863   3.185   1.008 -0.7668  0.7212  1.0838
  896MPD2    H213187   3.139   3.456   0.847  0.8346 -1.2620  0.0887
  896MPD2    H313188   3.092   3.233   0.932 -2.8702 -2.5362  0.5853
  896MPD2     N13189   2.672   3.351   1.040 -0.4238 -0.3634 -0.0147
  896MPD2    H513190   2.619   3.422   1.090  0.0174  0.2211 -0.3750
  896MPD2    N113191   2.999   3.668   0.870 -0.1889  0.0229  0.3435
  896MPD2    H713192   3.088   3.669   0.822  0.1041 -0.0452  0.8832
  897MPD2     C13193   3.514   1.002  10.938  0.1314 -0.1273 -0.5068
  897MPD2    C113194   3.524   1.133  10.888  0.4617  0.3005 -0.1339
  897MPD2    C213195   3.439   1.236  10.934  0.7381 -0.4055  0.6389
  897MPD2    C313196   3.340   1.203  11.017  0.8551 -0.6495 -0.1888
  897MPD2    C413197   3.351   1.086  11.098  0.4272 -0.7382  0.6286
  897MPD2    C513198   3.443   0.984  11.059  0.0253  0.2931  0.1297
  897MPD2     H13199   3.435   1.332  10.883  0.8664 -1.0341 -0.5427
  897MPD2    H113200   3.290   1.062  11.185 -0.8683 -3.9082 -1.1720
  897MPD2    H213201   3.579   0.921  10.908  0.1400 -0.7245  1.1477
  897MPD2    H313202   3.453   0.893  11.116  2.6041 -0.9522 -2.3493
  897MPD2     N13203   3.229   1.289  11.024  0.9970  0.2489 -0.3407
  897MPD2    H513204   3.224   1.361  10.953  1.2539  0.5138 -0.0916
  897MPD2    N113205   3.610   1.164  10.783 -0.1537  0.1932  0.8044
  897MPD2    H713206   3.600   1.254  10.736  0.7147  0.4493  1.1106
  898MPD2     C13207   0.591   1.234   0.448 -0.3388  0.4092  0.4219
  898MPD2    C113208   0.671   1.340   0.430  0.7783  0.2089 -0.2950
  898MPD2    C213209   0.675   1.406   0.310  0.1127 -0.2504 -0.1484
  898MPD2    C313210   0.585   1.371   0.211 -0.0144 -0.0420  0.6133
  898MPD2    C413211   0.493   1.271   0.225  0.7343  0.6398 -0.0614
  898MPD2    C513212   0.504   1.207   0.348 -0.7893 -0.2573 -0.2668
  898MPD2     H13213   0.735   1.497   0.307  1.6146 -1.2113  0.9220
  898MPD2    H113214   0.415   1.252   0.153 -0.9575 -1.4270  2.3137
  898MPD2    H213215   0.597   1.169   0.535  1.1507  0.0994  0.0923
  898MPD2    H313216   0.439   1.120   0.362 -0.2075 -0.5406  0.6584
  898MPD2     N13217   0.579   1.441   0.091 -0.1982 -0.1587 -0.1734
  898MPD2    H513218   0.625   1.532   0.087  0.3611 -0.5069 -1.5667
  898MPD2    N113219   0.745   1.398   0.532  0.3988 -0.0757  0.1393
  898MPD2    H713220   0.807   1.476   0.512 -2.0227  1.9137  0.3864
  899MPD2     C13221   1.762   1.919  17.439  0.2798 -0.0596  0.3495
  899MPD2    C113222   1.807   2.023  17.516 -0.5756  0.9478 -0.7023
  899MPD2    C213223   1.794   2.017  17.658 -0.7692 -0.1839 -0.1148
  899MPD2    C313224   1.732   1.911  17.707 -1.3474  0.0455 -0.6612
  899MPD2    C413225   1.685   1.811  17.627  0.5656  0.4333 -0.0419
  899MPD2    C513226   1.712   1.809  17.492 -0.2652  0.5830  0.3006
  899MPD2     H13227   1.834   2.097  17.719  1.0841 -2.4647  1.7049
  899MPD2    H113228   1.626   1.728  17.666 -0.8813  1.0509 -0.9498
  899MPD2    H213229   1.771   1.927  17.331 -3.6690 -0.3763  0.0084
  899MPD2    H313230   1.665   1.731  17.433 -1.1489  1.1161  0.3051
  899MPD2     N13231   1.701   1.906   0.103 -0.3299 -0.3934  0.2794
  899MPD2    H513232   1.623   1.850   0.135  0.5766 -0.6409  2.0707
  899MPD2    N113233   1.861   2.137  17.446 -0.5148 -0.2549  0.2496
  899MPD2    H713234   1.851   2.140  17.345  2.6268 -0.8353 -0.0774
  900MPD2     C13235   1.141   4.191  12.926  0.0419 -0.0577  0.0920
  900MPD2    C113236   1.070   4.087  12.869  0.4459  0.2217 -0.6124
  900MPD2    C213237   0.944   4.111  12.811 -0.2146 -0.4711  0.3920
  900MPD2    C313238   0.889   4.237  12.810  0.3089  0.1146  0.0474
  900MPD2    C413239   0.963   4.340  12.867  0.0615  0.1308  0.1612
  900MPD2    C513240   1.087   4.315  12.926  0.0032 -0.3268  0.3433
  900MPD2     H13241   0.887   4.036  12.757 -0.3756  1.3198 -1.9212
  900MPD2    H113242   0.931   4.443  12.853 -1.7746 -0.6869 -1.7501
  900MPD2    H213243   1.245   4.186  12.956  0.3368 -1.5535 -1.1824
  900MPD2    H313244   1.144   4.402  12.958  1.0964  0.1606 -2.8832
  900MPD2     N13245   0.783   4.262  12.722  0.4834  0.1804 -0.3644
  900MPD2    H513246   0.730   4.177  12.703  2.4639 -1.7614  2.7532
  900MPD2    N113247   1.123   3.962  12.852 -0.4974 -0.4044  0.3233
  900MPD2    H713248   1.075   3.910  12.780 -0.0751  1.3211 -1.2088
  901MPD2     C13249   1.019   2.975  12.898  0.1750  0.3976  0.7788
  901MPD2    C113250   1.156   2.979  12.884 -0.2089 -0.3815 -0.6741
  901MPD2    C213251   1.212   3.109  12.874 -0.5416 -0.2658 -0.3542
  901MPD2    C313252   1.134   3.224  12.865 -0.4350 -0.0042  0.7853
  901MPD2    C413253   0.998   3.210  12.857  0.8067 -0.5177  0.2843
  901MPD2    C513254   0.942   3.090  12.887 -0.0925 -0.0839 -0.3532
  901MPD2     H13255   1.318   3.131  12.871  0.1244 -3.4078 -0.0471
  901MPD2    H113256   0.928   3.292  12.853  3.1166  1.4138 -0.8699
  901MPD2    H213257   0.955   2.888  12.904 -2.6315  2.4458  0.4827
  901MPD2    H313258   0.834   3.082  12.880  0.0091 -1.3774 -0.4005
  901MPD2     N13259   1.199   3.345  12.856 -0.2486  0.1881 -1.1020
  901MPD2    H513260   1.300   3.349  12.848 -0.2748 -0.0462 -1.5877
  901MPD2    N113261   1.220   2.859  12.873  0.6234 -0.2686  0.3078
  901MPD2    H713262   1.161   2.779  12.854  1.6815 -0.7161 -1.0370
  902MPD2     C13263   0.164   1.855  12.845  0.7246  1.0239 -0.1514
  902MPD2    C113264   0.225   1.980  12.820 -0.6013 -0.3214  0.2409
  902MPD2    C213265   0.318   1.989  12.720  0.2642 -0.6328  0.7916
  902MPD2    C313266   0.361   1.879  12.651  0.2629  0.0404 -0.1071
  902MPD2    C413267   0.305   1.753  12.678  0.3584 -0.4088  0.2236
  902MPD2    C513268   0.207   1.751  12.768 -0.0624  0.0645  0.7387
  902MPD2     H13269   0.362   2.084  12.696 -1.6511 -0.0972 -0.5948
  902MPD2    H113270   0.330   1.660  12.627 -1.1082  0.3880 -1.9121
  902MPD2    H213271   0.087   1.840  12.920  0.2283  1.9323 -0.4779
  902MPD2    H313272   0.151   1.658  12.778 -1.2388  0.7728  0.7305
  902MPD2     N13273   0.470   1.880  12.561  0.1939 -0.4712 -0.5726
  902MPD2    H513274   0.502   1.791  12.524  0.8731 -0.4473 -0.0508
  902MPD2    N113275   0.192   2.092  12.897 -0.2968  0.5017 -0.0960
  902MPD2    H713276   0.237   2.180  12.874 -0.0807  0.8661  1.7301
  903MPD2     C13277   0.464   2.546  12.361  0.1061  0.6149  0.5139
  903MPD2    C113278   0.432   2.449  12.278 -0.1133 -1.0805 -0.4792
  903MPD2    C213279   0.308   2.445  12.213  0.9482  0.1198 -0.4203
  903MPD2    C313280   0.225   2.563  12.218  1.0469 -1.1744  0.3420
  903MPD2    C413281   0.266   2.663  12.296  0.5311 -0.4868  0.7003
  903MPD2    C513282   0.380   2.660  12.374 -0.1419  0.4114  0.3525
  903MPD2     H13283   0.289   2.362  12.147  0.5702 -0.8250  0.8670
  903MPD2    H113284   0.207   2.755  12.296 -0.2481 -0.9817  4.5834
  903MPD2    H213285   0.555   2.535  12.419  0.3713  0.5430  0.0853
  903MPD2    H313286   0.399   2.741  12.443  0.6868 -2.3423  3.3980
  903MPD2     N13287   0.105   2.558  12.140 -0.4698  0.0360 -0.2876
  903MPD2    H513288   0.084   2.474  12.086 -2.6021  0.2308  0.2496
  903MPD2    N113289   0.524   2.348  12.278 -0.8572  0.1137 -0.1911
  903MPD2    H713290   0.607   2.362  12.335 -0.1637  2.2301 -1.7088
  904MPD2     C13291   4.475   1.043  13.611 -0.4064  0.1856 -0.1061
  904MPD2    C113292   4.451   0.963  13.722 -0.2469  0.2556 -0.1856
  904MPD2    C213293   4.556   0.944  13.820 -0.3452  0.4397 -0.7939
  904MPD2    C313294   4.676   1.001  13.813 -0.7461 -0.7495 -0.3758
  904MPD2    C413295   4.701   1.086  13.704  0.2222  0.1908  0.0739
  904MPD2    C513296   4.599   1.098  13.610  0.8505  0.9471 -0.8679
  904MPD2     H13297   4.522   0.883  13.903 -0.3747  0.0761 -1.0703
  904MPD2    H113298   0.062   1.130  13.682 -0.1654  1.5204  1.0552
  904MPD2    H213299   4.395   1.064  13.540 -2.0875 -0.2987  1.6393
  904MPD2    H313300   4.612   1.166  13.526 -1.1522  1.1095 -1.0328
  904MPD2     N13301   0.035   0.963  13.904  0.1782  0.3104 -0.1675
  904MPD2    H513302   4.728   0.900  13.972  1.3407 -1.1389 -0.7859
  904MPD2    N113303   4.322   0.911  13.737 -0.4813  0.1000 -0.0587
  904MPD2    H713304   4.259   0.932  13.659  1.9901  1.8359 -1.5967
  905MPD2     C13305   4.152   1.339  13.376 -0.1764 -0.1760  0.0735
  905MPD2    C113306   4.165   1.204  13.387  0.5963 -0.1441 -0.5323
  905MPD2    C213307   4.278   1.146  13.328  0.2301  0.2208 -0.4797
  905MPD2    C313308   4.373   1.223  13.267 -0.2090 -0.4667 -0.6610
  905MPD2    C413309   4.356   1.360  13.253 -0.5211 -0.4042  0.3097
  905MPD2    C513310   4.245   1.417  13.307  0.2694  0.4537  0.4803
  905MPD2     H13311   4.286   1.038  13.323 -2.4057 -0.1152  2.2621
  905MPD2    H113312   4.423   1.426  13.200 -0.0525 -2.5904 -1.8359
  905MPD2    H213313   4.069   1.392  13.422  1.1307  1.6176  0.3909
  905MPD2    H313314   4.209   1.516  13.283  0.9523  0.0561 -2.1715
  905MPD2     N13315   4.493   1.169  13.208  0.0416  0.5190  0.1029
  905MPD2    H513316   4.559   1.238  13.173  0.7171 -0.3845 -0.3925
  905MPD2    N113317   4.076   1.128  13.466  0.5144  0.3361  0.2283
  905MPD2    H713318   4.002   1.172  13.520  0.4396  0.8963 -0.3218
  906MPD2     C13319   2.103   1.600  11.029 -0.8079 -0.1869 -0.3854
  906MPD2    C113320   2.081   1.500  10.938 -0.0237 -0.1605 -0.5698
  906MPD2    C213321   2.072   1.373  10.989  0.2248 -0.1411  0.6171
  906MPD2    C313322   2.070   1.349  11.125  0.7594 -0.3995  0.7842
  906MPD2    C413323   2.087   1.450  11.213 -0.0169 -0.1414  0.4011
  906MPD2    C513324   2.107   1.576  11.166  0.4075  0.0703  0.5173
  906MPD2     H13325   2.067   1.297  10.911 -0.4701  0.5526 -0.0176
  906MPD2    H113326   2.092   1.428  11.319  1.7172 -0.2310  0.2938
  906MPD2    H213327   2.112   1.701  10.990  2.0994 -1.2267 -2.3996
  906MPD2    H313328   2.109   1.658  11.236  0.7983 -1.6056  2.4577
  906MPD2     N13329   2.052   1.221  11.183 -0.2748  0.2595 -0.7660
  906MPD2    H513330   2.051   1.218  11.284 -0.1671  3.0192 -0.6712
  906MPD2    N113331   2.086   1.514  10.800 -0.2284 -0.0457  0.3276
  906MPD2    H713332   2.058   1.433  10.745 -0.6572 -0.0033  0.4805
  907MPD2     C13333   1.350   0.053  15.695  0.1826  0.7913 -0.5640
  907MPD2    C113334   1.253   4.690  15.699  0.0864 -0.7216  0.0417
  907MPD2    C213335   1.268   4.593  15.800  0.5354 -0.3193 -0.0885
  907MPD2    C313336   1.363   4.606  15.905 -0.2904 -0.0800 -0.3449
  907MPD2    C413337   1.464   4.695  15.890 -0.2959  0.0733  0.4623
  907MPD2    C513338   1.460   0.051  15.783  0.8653 -0.1267 -0.4425
  907MPD2     H13339   1.198   4.511  15.785  1.1723 -0.5408 -1.8359
  907MPD2    H113340   1.547   4.696  15.959  0.8061 -1.4034 -0.8143
  907MPD2    H213341   1.341   0.141  15.634 -2.7164  0.5130 -0.5259
  907MPD2    H313342   1.530   0.134  15.789  0.0134  0.3970  1.8285
  907MPD2     N13343   1.344   4.523  16.015  0.0529 -0.1759  0.0823
  907MPD2    H513344   1.264   4.462  16.012  1.0975 -1.6661  2.4449
  907MPD2    N113345   1.156   4.677  15.598  0.0887 -0.4440  0.6569
  907MPD2    H713346   1.109   4.588  15.587 -0.1784 -0.3248  0.8439
  908MPD2     C13347   3.611   0.728   9.864  0.4878 -0.6171  0.1055
  908MPD2    C113348   3.720   0.688   9.934  0.4260 -0.3942  0.6363
  908MPD2    C213349   3.759   0.765  10.048  0.9932  0.6010  0.2293
  908MPD2    C313350   3.683   0.878  10.077  0.1608  0.0236  0.7539
  908MPD2    C413351   3.581   0.918   9.996 -0.2459  0.2969 -0.3066
  908MPD2    C513352   3.535   0.829   9.898 -1.4172  0.1712  0.3081
  908MPD2     H13353   3.839   0.738  10.115  0.6219  1.5971  1.0856
  908MPD2    H113354   3.504   0.988  10.028 -1.9574 -1.8707  0.3630
  908MPD2    H213355   3.581   0.666   9.780  0.1289 -0.3893  0.0652
  908MPD2    H313356   3.453   0.846   9.829 -0.7058 -0.5992 -0.7217
  908MPD2     N13357   3.726   0.952  10.188  0.0937  0.5963  0.3888
  908MPD2    H513358   3.781   0.908  10.262 -0.8915 -3.2220 -1.1600
  908MPD2    N113359   3.794   0.576   9.892 -0.0762 -0.0765  0.1316
  908MPD2    H713360   3.773   0.533   9.803 -0.0912  1.1138 -0.4365
  909MPD2     C13361   3.896   3.717  12.033  0.1877 -0.1853  0.6820
  909MPD2    C113362   3.871   3.811  11.935  0.4594  0.1975  0.1785
  909MPD2    C213363   3.767   3.895  11.960 -0.2794  0.0540  0.1942
  909MPD2    C313364   3.694   3.897  12.071 -0.2636 -0.0992 -0.0712
  909MPD2    C413365   3.723   3.801  12.173  0.0554 -0.8361  0.3824
  909MPD2    C513366   3.826   3.710  12.150  0.3324 -0.4737 -0.9218
  909MPD2     H13367   3.743   3.974  11.890  2.2440  1.5662  1.0470
  909MPD2    H113368   3.663   3.791  12.263  1.9172 -1.3287  1.5583
  909MPD2    H213369   3.979   3.647  12.026 -0.4177 -0.9904  1.5857
  909MPD2    H313370   3.841   3.630  12.223 -1.7597 -1.0797 -1.1501
  909MPD2     N13371   3.587   3.984  12.072  0.2730  0.0402 -0.4775
  909MPD2    H513372   3.570   4.047  11.994 -2.2615 -0.9347 -0.7080
  909MPD2    N113373   3.943   3.818  11.820  0.3167 -0.4285 -0.2471
  909MPD2    H713374   3.919   3.889  11.752  1.6333 -2.6868 -3.0357
  910MPD2     C13375   0.095   0.731  15.975  0.1971 -0.1778  0.2223
  910MPD2    C113376   0.178   0.668  15.884 -0.5224 -0.2235 -0.1257
  910MPD2    C213377   0.166   0.699  15.755 -0.6756 -0.6308 -0.7390
  910MPD2    C313378   0.057   0.777  15.706 -0.7484 -0.3728 -0.7061
  910MPD2    C413379   4.699   0.831  15.800  0.0931 -0.1644 -0.5465
  910MPD2    C513380   4.726   0.805  15.929  0.1563 -0.4858  0.2561
  910MPD2     H13381   0.221   0.639  15.684  0.0854 -0.7336 -0.0476
  910MPD2    H113382   4.617   0.897  15.774  0.6617 -1.4655 -5.5403
  910MPD2    H213383   0.121   0.716  16.079 -0.5749 -1.2067  0.2658
  910MPD2    H313384   4.659   0.840  16.006  0.6642  2.2165 -0.5184
  910MPD2     N13385   0.037   0.798  15.564  0.7572  0.3220  1.0675
  910MPD2    H513386   4.686   0.848  15.542  1.7744  1.5717 -0.1004
  910MPD2    N113387   0.270   0.569  15.918 -0.1126 -0.6729 -0.1893
  910MPD2    H713388   0.339   0.547  15.847  1.2879 -0.9677  1.2686
  911MPD2     C13389   3.023   0.758  16.180 -0.0894  0.1636 -0.7755
  911MPD2    C113390   3.035   0.892  16.169  0.4367 -0.3308  0.2555
  911MPD2    C213391   2.918   0.963  16.140  0.0557  0.6892  0.5522
  911MPD2    C313392   2.803   0.900  16.108  0.1288  0.5915  0.1210
  911MPD2    C413393   2.789   0.761  16.110 -0.5802 -0.5845  0.3189
  911MPD2    C513394   2.908   0.692  16.146 -0.4198  0.0824 -0.3447
  911MPD2     H13395   2.925   1.071  16.135 -1.1305  0.7583  0.4106
  911MPD2    H113396   2.704   0.711  16.065  0.0372 -1.7856  0.5020
  911MPD2    H213397   3.109   0.698  16.210  0.6604  0.6073 -2.0283
  911MPD2    H313398   2.914   0.585  16.155 -1.9051  0.0143 -0.1057
  911MPD2     N13399   2.688   0.968  16.073  0.2436  0.3132  0.1389
  911MPD2    H513400   2.609   0.908  16.049 -0.1269  0.9357 -0.2019
  911MPD2    N113401   3.159   0.954  16.199  0.2540 -0.2904 -0.3689
  911MPD2    H713402   3.231   0.889  16.229  2.2144  2.8415  1.6845
  912MPD2     C13403   2.271   0.641  15.559 -1.0307  0.5298  0.3169
  912MPD2    C113404   2.325   0.673  15.685 -0.0215  0.2379 -0.5280
  912MPD2    C213405   2.325   0.565  15.779  0.3070  0.4457 -0.0476
  912MPD2    C313406   2.278   0.443  15.743 -0.0438  0.5462 -0.3951
  912MPD2    C413407   2.222   0.420  15.621 -0.4757 -0.3790 -0.3361
  912MPD2    C513408   2.217   0.519  15.529 -0.5020  0.1240 -0.0145
  912MPD2     H13409   2.358   0.592  15.878 -3.6002 -0.5429  1.5227
  912MPD2    H113410   2.179   0.325  15.594 -0.5180  0.6922 -3.9830
  912MPD2    H213411   2.266   0.717  15.481  1.6230 -1.2845 -1.6098
  912MPD2    H313412   2.183   0.493  15.429  1.1277  1.4228 -0.9050
  912MPD2     N13413   2.270   0.354  15.846 -0.2968 -0.0388 -0.6297
  912MPD2    H513414   2.293   0.393  15.937  0.8430 -0.8786 -0.5558
  912MPD2    N113415   2.354   0.807  15.711  0.0468 -0.3369  0.6444
  912MPD2    H713416   2.326   0.873  15.639  2.2097 -0.5135 -0.3437
  913MPD2     C13417   3.693   3.260  10.949  0.3916  0.8360  0.2864
  913MPD2    C113418   3.727   3.148  10.884 -0.5018  0.6723 -0.8410
  913MPD2    C213419   3.724   3.140  10.749  0.1066 -0.0640 -0.3805
  913MPD2    C313420   3.701   3.253  10.668 -0.3312 -0.3130  0.4213
  913MPD2    C413421   3.675   3.369  10.734  0.0919 -0.2550  0.2845
  913MPD2    C513422   3.679   3.374  10.877 -0.0236  0.3198  0.3392
  913MPD2     H13423   3.754   3.047  10.702 -0.0938  0.1329 -0.9006
  913MPD2    H113424   3.644   3.455  10.675 -1.7010 -0.3073  1.1441
  913MPD2    H213425   3.691   3.265  11.057  2.0508  0.8965  0.3105
  913MPD2    H313426   3.653   3.461  10.935 -0.4486 -0.2253  0.9641
  913MPD2     N13427   3.691   3.252  10.529  0.2453 -0.1973  0.3472
  913MPD2    H513428   3.655   3.339  10.490 -0.3298  0.1476  1.6780
  913MPD2    N113429   3.751   3.039  10.967  0.7357 -0.0705  0.4298
  913MPD2    H713430   3.732   3.052  11.066  0.4691  1.0430  0.2250
  914MPD2     C13431   1.584   3.191  12.140 -0.0820  0.3052  0.4914
  914MPD2    C113432   1.554   3.234  12.264  0.5876 -0.1273  0.1597
  914MPD2    C213433   1.514   3.137  12.357  0.5295  0.0001 -0.6422
  914MPD2    C313434   1.494   3.006  12.321  0.2118 -0.4232  0.2102
  914MPD2    C413435   1.531   2.959  12.196  0.2978  0.5611 -0.3690
  914MPD2    C513436   1.569   3.056  12.110 -0.1035  0.5724  0.6349
  914MPD2     H13437   1.498   3.171  12.459  0.4963 -1.9583 -0.0046
  914MPD2    H113438   1.546   2.853  12.175  1.4290  0.4679  0.9022
  914MPD2    H213439   1.623   3.254  12.061  1.5234 -1.2829  0.0253
  914MPD2    H313440   1.610   3.023  12.015  1.9809 -0.3410  1.8486
  914MPD2     N13441   1.445   2.919  12.421  0.0969 -0.1311  0.6566
  914MPD2    H513442   1.441   2.965  12.512 -0.6291 -0.5352  0.8241
  914MPD2    N113443   1.560   3.373  12.292 -0.0292 -0.1653 -0.0018
  914MPD2    H713444   1.610   3.431  12.226 -1.0369 -0.1977 -0.7872
  915MPD2     C13445   4.428   2.748  15.364  0.3446  0.0492  0.2272
  915MPD2    C113446   4.290   2.736  15.346 -0.5601  0.0648  1.2095
  915MPD2    C213447   4.202   2.745  15.456  0.2829  0.1735  0.0708
  915MPD2    C313448   4.257   2.767  15.587  1.2710  0.0411  0.8825
  915MPD2    C413449   4.388   2.756  15.599 -0.2005 -0.2440 -0.4153
  915MPD2    C513450   4.473   2.756  15.494 -0.3750  0.0173 -0.6903
  915MPD2     H13451   4.096   2.731  15.442  0.1531  0.8378  0.4054
  915MPD2    H113452   4.437   2.758  15.696  0.6206  2.5789 -0.9002
  915MPD2    H213453   4.507   2.756  15.290  1.6940  0.4422  1.6998
  915MPD2    H313454   4.580   2.749  15.507 -0.6160 -1.7880  0.3089
  915MPD2     N13455   4.171   2.784  15.700 -0.6617  0.6629 -0.0031
  915MPD2    H513456   4.073   2.796  15.678 -0.3263  1.9893 -0.7517
  915MPD2    N113457   4.244   2.709  15.219  0.1222 -0.0935  0.2479
  915MPD2    H713458   4.313   2.703  15.146  1.5156  0.3303  1.5397
  916MPD2     C13459   1.769   0.483  15.649 -0.0011  0.6262 -0.3301
  916MPD2    C113460   1.828   0.389  15.733 -0.6693 -0.0687  0.4724
  916MPD2    C213461   1.814   0.254  15.708 -0.2407 -1.3915 -0.1788
  916MPD2    C313462   1.744   0.210  15.598  0.1841 -0.2234  0.4392
  916MPD2    C413463   1.679   0.301  15.515 -0.5102 -0.3426 -0.6012
  916MPD2    C513464   1.696   0.435  15.541  0.6201  0.4435  0.7239
  916MPD2     H13465   1.859   0.188  15.782  2.4041 -1.3349 -1.7646
  916MPD2    H113466   1.623   0.272  15.427 -3.0370  1.6591  0.3430
  916MPD2    H213467   1.760   0.590  15.661 -1.6050  0.8201 -3.3567
  916MPD2    H313468   1.637   0.502  15.480  1.1569  0.1509 -0.1058
  916MPD2     N13469   1.740   0.075  15.588  0.0906 -0.5995 -0.1974
  916MPD2    H513470   1.789   0.019  15.656 -0.2091 -0.8049 -0.1531
  916MPD2    N113471   1.895   0.443  15.844 -0.9394  0.3616  0.0118
  916MPD2    H713472   1.887   0.544  15.850  0.7046  0.6812 -2.8237
  917MPD2     C13473   2.192   3.051  11.145  0.2150  0.2294  0.1019
  917MPD2    C113474   2.253   3.081  11.255 -0.0200 -0.2335  0.2328
  917MPD2    C213475   2.385   3.134  11.234 -0.5495  0.0972  0.1901
  917MPD2    C313476   2.436   3.177  11.118  0.2503  0.1778 -0.1806
  917MPD2    C413477   2.352   3.166  11.015 -0.2402  0.2397  0.2320
  917MPD2    C513478   2.242   3.091  11.030  0.1583 -0.0301  0.2060
  917MPD2     H13479   2.442   3.123  11.325  1.2781 -1.3710 -1.1334
  917MPD2    H113480   2.379   3.201  10.917 -0.2222  1.3263  0.6307
  917MPD2    H213481   2.099   2.995  11.147  0.3446  0.0574  1.1909
  917MPD2    H313482   2.183   3.090  10.939 -0.4708  1.5033  0.5914
  917MPD2     N13483   2.561   3.237  11.101 -0.8973  0.1496 -0.1579
  917MPD2    H513484   2.576   3.273  11.008 -0.8748 -2.0227 -0.9816
  917MPD2    N113485   2.191   3.052  11.382  0.6799 -0.2675  0.3974
  917MPD2    H713486   2.107   2.996  11.388  1.7495 -2.0802 -1.6519
  918MPD2     C13487   2.232   3.660  12.180 -0.5084  0.9147 -0.1706
  918MPD2    C113488   2.343   3.591  12.130  0.4135 -0.1409  1.1257
  918MPD2    C213489   2.318   3.486  12.041 -0.2029 -0.0635  0.2247
  918MPD2    C313490   2.186   3.445  12.004 -0.2139  0.9010 -0.4791
  918MPD2    C413491   2.086   3.515  12.064  0.0468  0.4151  0.6573
  918MPD2    C513492   2.108   3.612  12.158  0.3685 -0.0950 -0.3536
  918MPD2     H13493   2.397   3.441  11.983  0.6481  1.0125  0.5462
  918MPD2    H113494   1.980   3.493  12.058  0.2160  0.0573 -1.2053
  918MPD2    H213495   2.245   3.746  12.244  1.9559 -0.5814  1.3752
  918MPD2    H313496   2.029   3.665  12.210  1.7353 -1.1412  2.7221
  918MPD2     N13497   2.166   3.342  11.916  0.2113  0.6050 -0.0122
  918MPD2    H513498   2.243   3.280  11.893 -0.5434 -0.2701 -0.1929
  918MPD2    N113499   2.478   3.618  12.164  0.5642  0.1046 -0.8680
  918MPD2    H713500   2.554   3.560  12.128  1.3710  0.9873 -0.5923
  919MPD2     C13501   3.435   2.572  11.840 -0.3331  0.9834 -0.0427
  919MPD2    C113502   3.322   2.493  11.824 -0.3321 -0.4994 -0.1319
  919MPD2    C213503   3.246   2.493  11.706  1.1728  0.5807 -1.0552
  919MPD2    C313504   3.291   2.574  11.607 -0.0375  0.0667  0.4615
  919MPD2    C413505   3.391   2.663  11.627 -0.4291  0.2388  0.3083
  919MPD2    C513506   3.473   2.655  11.740 -0.3605 -0.2997 -0.1214
  919MPD2     H13507   3.156   2.435  11.692 -0.0343  1.8836  1.2929
  919MPD2    H113508   3.416   2.735  11.551 -0.9630 -1.1783 -1.2002
  919MPD2    H213509   3.489   2.582  11.934 -1.5067 -0.9016  0.8406
  919MPD2    H313510   3.547   2.733  11.753  0.4670 -0.5094 -3.5753
  919MPD2     N13511   3.221   2.581  11.477 -0.2231  0.5168  0.2863
  919MPD2    H513512   3.267   2.631  11.402  1.8511 -1.8316  0.0142
  919MPD2    N113513   3.270   2.412  11.925 -0.3844 -0.1610  0.2310
  919MPD2    H713514   3.179   2.370  11.908  1.1730 -4.5575  2.6332
  920MPD2     C13515   3.356   2.919  10.557 -0.2897  0.4006  0.0217
  920MPD2    C113516   3.232   2.854  10.543  0.2627  0.5606  0.0400
  920MPD2    C213517   3.172   2.805  10.654  0.3428 -0.2510 -0.5015
  920MPD2    C313518   3.238   2.794  10.771  0.8477  0.0070  0.0885
  920MPD2    C413519   3.357   2.854  10.788  0.3588  0.5287  0.6211
  920MPD2    C513520   3.409   2.920  10.683  0.5255  0.2916  0.5929
  920MPD2     H13521   3.085   2.742  10.640  1.2343 -1.6435  0.1576
  920MPD2    H113522   3.415   2.839  10.878 -1.7387 -3.1121  1.3767
  920MPD2    H213523   3.401   2.971  10.474 -0.6235 -3.1580 -2.3843
  920MPD2    H313524   3.499   2.981  10.684 -0.0481  1.1470 -0.4863
  920MPD2     N13525   3.179   2.714  10.868  0.7723 -0.2578 -0.2700
  920MPD2    H513526   3.103   2.659  10.829  1.6618 -1.5603 -0.1709
  920MPD2    N113527   3.167   2.838  10.422 -0.3930 -0.1757 -0.6502
  920MPD2    H713528   3.070   2.808  10.428 -0.2639 -0.5206 -0.2829
  921MPD2     C13529   3.784   1.829  16.523 -0.0650 -0.3681  0.3997
  921MPD2    C113530   3.860   1.712  16.511 -0.8538  0.1384  0.3860
  921MPD2    C213531   3.796   1.594  16.484 -0.4635  0.4499 -0.2762
  921MPD2    C313532   3.663   1.583  16.452 -0.3342  0.3035  0.0967
  921MPD2    C413533   3.587   1.700  16.463 -0.1452 -0.0963  0.2969
  921MPD2    C513534   3.643   1.823  16.496 -0.0519  0.3715  0.4250
  921MPD2     H13535   3.847   1.499  16.473 -1.6607 -0.2032 -0.1494
  921MPD2    H113536   3.481   1.696  16.439 -0.2758 -1.7551  1.1126
  921MPD2    H213537   3.829   1.927  16.538  0.5396 -0.6871  0.6782
  921MPD2    H313538   3.587   1.915  16.483 -2.9891 -1.4051  0.5212
  921MPD2     N13539   3.611   1.457  16.429 -0.0085  0.2750 -0.0384
  921MPD2    H513540   3.680   1.382  16.421 -0.8497 -0.3613 -1.3522
  921MPD2    N113541   4.001   1.729  16.514 -0.2136 -0.2664  0.3583
  921MPD2    H713542   4.034   1.825  16.517  0.9417 -0.6618  0.5595
  922MPD2     C13543   4.721   4.074  17.321 -0.2379 -0.6048 -0.5563
  922MPD2    C113544   4.663   4.014  17.434  0.0630  0.0758  0.0818
  922MPD2    C213545   4.589   3.900  17.417 -0.6835  0.3709 -0.1324
  922MPD2    C313546   4.572   3.839  17.288 -0.3656 -0.0028 -0.0839
  922MPD2    C413547   4.636   3.890  17.180  0.3565 -1.0710 -0.3849
  922MPD2    C513548   4.716   4.004  17.203 -0.5751  0.9250 -0.0473
  922MPD2     H13549   4.516   3.868  17.491 -0.3212  0.3605  0.2191
  922MPD2    H113550   4.637   3.843  17.082  3.7631 -0.7161 -0.5273
  922MPD2    H213551   0.059   4.153  17.328  1.4143 -2.1292 -0.5118
  922MPD2    H313552   0.027   4.044  17.114 -1.0467 -1.8758 -1.5710
  922MPD2     N13553   4.476   3.739  17.279  0.4213  0.0128  0.0801
  922MPD2    H513554   4.440   3.720  17.372 -0.5036 -0.4682 -0.3828
  922MPD2    N113555   4.666   4.080  17.562  0.0472  0.6303  0.5175
  922MPD2    H713556   4.632   4.025  17.640  1.0439 -0.7600 -0.0263
  923MPD2     C13557   1.168   0.936   9.204 -0.5741 -0.1027 -0.1492
  923MPD2    C113558   1.160   1.056   9.271 -0.0091 -0.7524 -0.1922
  923MPD2    C213559   1.269   1.113   9.341 -0.3510  0.6758 -0.5725
  923MPD2    C313560   1.391   1.054   9.331 -0.1985  0.4018  0.3887
  923MPD2    C413561   1.400   0.940   9.255 -1.0693 -1.1749  0.0110
  923MPD2    C513562   1.291   0.875   9.208  0.2870 -0.7041 -0.0067
  923MPD2     H13563   1.257   1.192   9.414  3.0412  1.7332 -1.1055
  923MPD2    H113564   1.493   0.887   9.237  0.4793  1.8267 -0.9972
  923MPD2    H213565   1.086   0.881   9.160 -1.4216  0.5269  0.6438
  923MPD2    H313566   1.293   0.776   9.164  2.1071 -0.9001  0.5177
  923MPD2     N13567   1.510   1.105   9.387  0.2055  0.2414  0.2651
  923MPD2    H513568   1.591   1.043   9.387 -1.5724 -2.0833 -0.3247
  923MPD2    N113569   1.031   1.105   9.285  0.1876 -0.6917  0.0807
  923MPD2    H713570   0.955   1.041   9.267 -0.2220 -0.2871  0.3502
  924MPD2     C13571   1.348   3.724  16.053  0.4661  0.0994 -0.0956
  924MPD2    C113572   1.343   3.865  16.026  0.1209  0.3129  1.0096
  924MPD2    C213573   1.419   3.951  16.102  0.1491  0.5159  0.2008
  924MPD2    C313574   1.507   3.902  16.199 -0.1735 -0.2567 -0.2869
  924MPD2    C413575   1.515   3.761  16.215  0.0377 -0.1506 -0.0412
  924MPD2    C513576   1.442   3.676  16.134  0.4847 -0.0346  0.2499
  924MPD2     H13577   1.416   4.057  16.085  0.7263  0.3039 -1.1529
  924MPD2    H113578   1.580   3.723  16.294  1.5382  2.2238 -0.1537
  924MPD2    H213579   1.284   3.663  15.991  2.3994 -2.2022  0.1703
  924MPD2    H313580   1.452   3.568  16.135  0.5201 -0.0403 -0.9385
  924MPD2     N13581   1.586   3.969  16.294  0.8827  0.2341  0.1408
  924MPD2    H513582   1.645   3.914  16.355  1.2675  1.7056  1.0943
  924MPD2    N113583   1.239   3.917  15.931 -0.5357  0.2873  0.2567
  924MPD2    H713584   1.183   3.847  15.883 -0.1972  1.1771 -1.4271
  925MPD2     C13585   0.387   1.852  14.465  0.2837  0.0380  0.0179
  925MPD2    C113586   0.271   1.926  14.455 -0.1521  0.0799  0.3540
  925MPD2    C213587   0.225   1.999  14.562  0.1947 -0.0362  1.0641
  925MPD2    C313588   0.291   1.993  14.679 -0.5975 -0.3697  0.2634
  925MPD2    C413589   0.410   1.927  14.691  0.1138 -0.2196 -0.3883
  925MPD2    C513590   0.463   1.868  14.581 -0.3799  0.4171 -0.3642
  925MPD2     H13591   0.132   2.052  14.545 -0.6412 -1.6335  0.5906
  925MPD2    H113592   0.472   1.934  14.780 -0.4320  2.9433 -0.2314
  925MPD2    H213593   0.426   1.798  14.380  0.2311 -1.2020  0.7888
  925MPD2    H313594   0.555   1.811  14.591 -0.1747  0.6381 -0.9552
  925MPD2     N13595   0.231   2.036  14.800  0.5070 -0.1394 -0.3598
  925MPD2    H513596   0.287   2.009  14.879  2.0648 -0.6751 -1.6636
  925MPD2    N113597   0.196   1.918  14.334 -0.0108 -0.7571  0.2145
  925MPD2    H713598   0.113   1.976  14.326 -0.8273 -1.8925  0.4523
  926MPD2     C13599   3.777   0.363  12.751 -0.6545  0.5570 -1.1509
  926MPD2    C113600   3.646   0.419  12.747 -0.7110  0.4712 -0.0963
  926MPD2    C213601   3.613   0.513  12.663 -0.3167 -0.0728 -0.1041
  926MPD2    C313602   3.714   0.574  12.585 -0.5632  0.3473 -0.1430
  926MPD2    C413603   3.844   0.527  12.593  0.2057 -0.3597 -0.6117
  926MPD2    C513604   3.877   0.425  12.674 -0.3584 -0.7450  0.3226
  926MPD2     H13605   3.511   0.549  12.666  0.3978  1.8627  1.0600
  926MPD2    H113606   3.926   0.574  12.542 -1.6576  3.4610 -0.0538
  926MPD2    H213607   3.806   0.287  12.823  0.1069  1.7027 -0.2428
  926MPD2    H313608   3.978   0.390  12.695  0.6471  1.1424 -1.3870
  926MPD2     N13609   3.689   0.688  12.502  0.4145 -0.2603  0.3263
  926MPD2    H513610   3.769   0.719  12.447  0.5015 -2.6688 -0.8931
  926MPD2    N113611   3.541   0.382  12.836 -0.0118  0.4690  0.0261
  926MPD2    H713612   3.456   0.437  12.822 -0.0725  0.4219  0.2140
  927MPD2     C13613   2.987   2.085   0.062  0.0783  0.6279  0.1144
  927MPD2    C113614   3.110   2.129   0.104  0.3913  0.3499 -0.9393
  927MPD2    C213615   3.219   2.120   0.021 -0.1527  0.0222  0.1857
  927MPD2    C313616   3.211   2.051  17.640 -0.6559 -0.2930  0.5887
  927MPD2    C413617   3.093   1.998  17.597 -0.8020  0.0036 -0.4841
  927MPD2    C513618   2.984   2.025  17.677 -0.5030 -0.3055 -0.3240
  927MPD2     H13619   3.312   2.167   0.052  0.7953 -1.4555 -0.4253
  927MPD2    H113620   3.079   1.925  17.519 -0.2387 -0.7025  0.0731
  927MPD2    H213621   2.896   2.083   0.122  0.4917  0.5585  0.7401
  927MPD2    H313622   2.890   1.979  17.649 -1.0404  0.5084  0.1473
  927MPD2     N13623   3.327   2.057  17.554 -0.1353  0.1065  0.2719
  927MPD2    H513624   3.401   2.112  17.597 -0.9594 -0.5992  2.5535
  927MPD2    N113625   3.117   2.183   0.236  0.3077  0.1015 -0.2843
  927MPD2    H713626   3.025   2.174   0.278  0.3618 -0.4154 -0.2805
  928MPD2     C13627   0.932   1.212   1.038 -0.0062 -0.1885 -0.3139
  928MPD2    C113628   1.014   1.316   1.071  0.5808  0.3240  0.8592
  928MPD2    C213629   1.135   1.328   1.008 -0.0471  0.5964 -0.0533
  928MPD2    C313630   1.181   1.230   0.926  0.0045 -0.2608 -1.6991
  928MPD2    C413631   1.090   1.132   0.886  0.3325 -0.1471 -0.0190
  928MPD2    C513632   0.965   1.122   0.944 -0.2225 -0.8887  0.2359
  928MPD2     H13633   1.200   1.414   1.022 -0.5698  0.7869  1.1549
  928MPD2    H113634   1.118   1.059   0.811  0.5806  0.5354 -0.5868
  928MPD2    H213635   0.836   1.205   1.087  0.4794  0.1524  0.7098
  928MPD2    H313636   0.897   1.048   0.902  1.3918 -1.3741 -1.4964
  928MPD2     N13637   1.308   1.241   0.866 -0.0358  0.1290  0.1068
  928MPD2    H513638   1.334   1.174   0.794 -2.8961 -1.0117  0.1446
  928MPD2    N113639   0.975   1.409   1.171  0.6519 -0.3165 -0.1918
  928MPD2    H713640   0.884   1.381   1.207 -0.7711  2.7927 -1.4309
  929MPD2     C13641   1.682   1.375  10.272 -0.1071 -0.3186 -0.1505
  929MPD2    C113642   1.542   1.350  10.278  0.3946 -0.7526  0.1591
  929MPD2    C213643   1.457   1.432  10.205  0.5136 -0.4044 -0.1633
  929MPD2    C313644   1.510   1.542  10.128 -0.4202  0.2313  0.9923
  929MPD2    C413645   1.651   1.568  10.139  0.0662 -0.0081  0.4876
  929MPD2    C513646   1.735   1.482  10.205 -0.1847  0.3456  0.1390
  929MPD2     H13647   1.352   1.411  10.189  1.3186 -4.7841  0.3408
  929MPD2    H113648   1.698   1.650  10.086 -1.5259  1.2614  1.0248
  929MPD2    H213649   1.750   1.323  10.338 -1.6700 -0.4024  1.3930
  929MPD2    H313650   1.842   1.499  10.199 -0.1925  0.4293  0.2279
  929MPD2     N13651   1.428   1.642  10.074 -0.5191  0.3656 -0.1660
  929MPD2    H513652   1.473   1.731  10.054  2.2752 -0.8148  0.8636
  929MPD2    N113653   1.491   1.236  10.343  1.0523 -0.3687  0.0887
  929MPD2    H713654   1.551   1.182  10.405 -1.3668 -0.8294  2.0187
  930MPD2     C13655   2.786   2.901  14.212  0.0310 -0.2084 -0.3372
  930MPD2    C113656   2.914   2.954  14.183 -0.2371 -0.3545  0.8861
  930MPD2    C213657   2.950   2.963  14.051  0.2772  0.9131 -0.6635
  930MPD2    C313658   2.867   2.938  13.945  0.4986 -0.2464 -0.5950
  930MPD2    C413659   2.749   2.883  13.975  0.5788 -0.5948 -0.3516
  930MPD2    C513660   2.708   2.871  14.104 -0.0599 -0.3966 -0.1113
  930MPD2     H13661   3.043   3.013  14.029  0.8777 -0.3709 -1.0527
  930MPD2    H113662   2.684   2.850  13.895  0.5306 -0.6083 -0.3070
  930MPD2    H213663   2.743   2.907  14.311  0.4383  1.9693 -0.3066
  930MPD2    H313664   2.609   2.826  14.108 -1.1259  1.8298 -1.1681
  930MPD2     N13665   2.912   2.968  13.810  0.5197  0.3166 -0.0711
  930MPD2    H513666   3.005   3.007  13.806 -0.2244  1.9345 -1.3543
  930MPD2    N113667   3.008   2.990  14.277 -0.3606  0.3535 -0.8559
  930MPD2    H713668   3.098   3.019  14.239  1.0796 -2.1233  0.6101
  931MPD2     C13669   3.720   2.512   0.616 -0.6393 -0.7245 -0.2022
  931MPD2    C113670   3.621   2.479   0.703  0.6884 -0.2500  0.1574
  931MPD2    C213671   3.652   2.474   0.838  0.1602 -0.1987  0.3069
  931MPD2    C313672   3.783   2.501   0.887  1.1293  0.4028 -1.2129
  931MPD2    C413673   3.876   2.529   0.796  0.5211 -0.2464 -0.7380
  931MPD2    C513674   3.852   2.531   0.661  0.5591  0.1389  0.8189
  931MPD2     H13675   3.579   2.432   0.906 -0.1446 -0.4690 -0.2001
  931MPD2    H113676   3.979   2.549   0.822 -0.3034  2.4580  0.3468
  931MPD2    H213677   3.703   2.499   0.509 -0.8263 -1.5855 -0.0671
  931MPD2    H313678   3.936   2.530   0.592 -1.4090  3.1570 -1.5904
  931MPD2     N13679   3.815   2.502   1.027 -0.3949  0.1361  0.5004
  931MPD2    H513680   3.912   2.503   1.055 -0.4518  1.0026  0.6542
  931MPD2    N113681   3.495   2.446   0.647  0.3229 -0.1723  0.1365
  931MPD2    H713682   3.495   2.445   0.546 -0.3320  0.9510  0.1288
  932MPD2     C13683   0.025   3.053  11.385 -0.5550 -0.2039  0.4357
  932MPD2    C113684   0.134   2.977  11.427 -0.2318  0.5266  0.9994
  932MPD2    C213685   0.113   2.850  11.470 -0.2307 -0.2977  0.3897
  932MPD2    C313686   4.730   2.783  11.444  0.6098  0.0048 -0.1405
  932MPD2    C413687   4.622   2.852  11.407 -0.6914  0.0304  0.3603
  932MPD2    C513688   4.636   2.989  11.379  0.4480  0.9411 -0.1210
  932MPD2     H13689   0.199   2.800  11.511  0.0861  0.0914  0.1990
  932MPD2    H113690   4.524   2.808  11.388  0.1298 -1.7199  0.1328
  932MPD2    H213691   0.039   3.157  11.360  2.4184 -0.3807  1.2723
  932MPD2    H313692   4.551   3.045  11.342  0.2283  1.2446  0.8367
  932MPD2     N13693   4.713   2.645  11.462 -0.5768  0.5207  0.5595
  932MPD2    H513694   4.626   2.603  11.432 -1.3584  0.7334  2.4974
  932MPD2    N113695   0.262   3.032  11.446 -0.5978 -0.0146 -0.1253
  932MPD2    H713696   0.338   2.967  11.465 -1.5037 -0.9908  0.1561
  933MPD2     C13697   0.458   1.302   1.485  0.9755  0.2582  0.2126
  933MPD2    C113698   0.502   1.432   1.512 -0.0491  0.0067 -0.6410
  933MPD2    C213699   0.402   1.526   1.547  0.1368  0.4415  0.0757
  933MPD2    C313700   0.260   1.490   1.541  0.2036  0.0724 -0.5555
  933MPD2    C413701   0.226   1.367   1.502  0.0123 -0.1287  0.0366
  933MPD2    C513702   0.325   1.276   1.476  0.0452  0.6804 -0.3585
  933MPD2     H13703   0.433   1.625   1.578 -1.0959  0.5556  0.9465
  933MPD2    H113704   0.125   1.326   1.497  0.3657 -1.0173  0.2027
  933MPD2    H213705   0.527   1.221   1.467  0.4814 -0.2941  0.7924
  933MPD2    H313706   0.294   1.173   1.465  1.7005  0.3272 -1.8030
  933MPD2     N13707   0.167   1.587   1.583 -0.1132 -0.3429 -0.7222
  933MPD2    H513708   0.207   1.666   1.632 -1.2360  0.3103 -0.8416
  933MPD2    N113709   0.633   1.458   1.499  0.3767 -0.2015  0.4779
  933MPD2    H713710   0.693   1.387   1.457  1.2760  1.5174 -1.1718
  934MPD2     C13711   2.404   2.967   2.302 -0.3573 -0.3520 -0.6227
  934MPD2    C113712   2.511   2.932   2.224 -0.1820  0.9921 -0.1839
  934MPD2    C213713   2.488   2.922   2.088 -0.6049  0.0414 -0.6054
  934MPD2    C313714   2.366   2.960   2.029 -0.2749 -0.4959  0.3038
  934MPD2    C413715   2.268   3.009   2.107  0.1261 -0.2430  0.0256
  934MPD2    C513716   2.291   3.011   2.245  0.1587  0.3577 -0.3506
  934MPD2     H13717   2.575   2.894   2.029  0.6878 -1.9788  2.2247
  934MPD2    H113718   2.166   3.031   2.077  0.2778 -0.3989 -0.6157
  934MPD2    H213719   2.417   2.965   2.410 -0.6888 -1.2911 -0.6074
  934MPD2    H313720   2.214   3.047   2.313 -0.9322  1.7048 -2.2937
  934MPD2     N13721   2.332   2.922   1.895 -0.3438 -0.1535 -0.2621
  934MPD2    H513722   2.237   2.944   1.866 -0.1095  0.9502 -0.1904
  934MPD2    N113723   2.645   2.911   2.267 -0.0442  0.4299  0.9419
  934MPD2    H713724   2.715   2.872   2.205 -0.1004  0.2151  1.0128
  935MPD2     C13725   2.776   2.379   1.176 -0.1087 -0.5987  0.0078
  935MPD2    C113726   2.644   2.352   1.157 -0.0421 -0.3546  0.2790
  935MPD2    C213727   2.551   2.440   1.222  0.9188 -0.1352  0.5179
  935MPD2    C313728   2.598   2.540   1.309  0.3672  0.2445  1.1403
  935MPD2    C413729   2.730   2.560   1.336 -0.9503  0.4371 -0.3906
  935MPD2    C513730   2.814   2.473   1.267  0.9592 -0.0822 -0.0583
  935MPD2     H13731   2.446   2.416   1.217  0.6941  1.1194 -1.1311
  935MPD2    H113732   2.777   2.634   1.400  0.0850 -1.6250  1.2397
  935MPD2    H213733   2.858   2.328   1.127  0.4455 -1.4147  1.7852
  935MPD2    H313734   2.920   2.468   1.286  0.8563 -2.1249 -0.0466
  935MPD2     N13735   2.517   2.620   1.392  0.1974  0.2117  0.2452
  935MPD2    H513736   2.559   2.665   1.473  1.5919 -0.9754  0.1623
  935MPD2    N113737   2.593   2.247   1.083  0.4680 -0.3115 -0.5031
  935MPD2    H713738   2.492   2.252   1.078  0.5237  0.3767 -0.9105
  936MPD2     C13739   0.342   0.333  11.878 -0.5546  0.2771  0.5768
  936MPD2    C113740   0.265   0.434  11.929 -0.0192 -0.2460  0.6532
  936MPD2    C213741   0.278   0.560  11.878 -0.1993  0.1053  0.2277
  936MPD2    C313742   0.368   0.591  11.781  0.0849 -0.5014  0.2311
  936MPD2    C413743   0.440   0.487  11.720  0.2232  0.1211  0.5382
  936MPD2    C513744   0.425   0.364  11.775  0.6754 -0.0065 -0.3670
  936MPD2     H13745   0.221   0.643  11.918 -1.6237 -0.6626 -0.2339
  936MPD2    H113746   0.503   0.501  11.633 -1.0047  2.2674 -0.0266
  936MPD2    H213747   0.338   0.232  11.917  0.0202  0.4662  1.1307
  936MPD2    H313748   0.484   0.281  11.739  1.5316  0.4133  0.0890
  936MPD2     N13749   0.382   0.727  11.742 -0.1798 -0.0436  0.1062
  936MPD2    H513750   0.325   0.789  11.798 -0.3591 -0.0744 -0.0441
  936MPD2    N113751   0.195   0.421  12.045 -0.0772 -0.4039  0.0692
  936MPD2    H713752   0.139   0.504  12.064  0.5164 -0.1451  0.7162
  937MPD2     C13753   3.363   1.720  11.913 -0.4397  0.2490 -0.2319
  937MPD2    C113754   3.401   1.852  11.903  1.0950 -0.4067 -0.0989
  937MPD2    C213755   3.451   1.901  11.789 -0.2424  0.4486 -0.4988
  937MPD2    C313756   3.474   1.823  11.680  0.4862  0.7467  0.1074
  937MPD2    C413757   3.445   1.688  11.690  0.0521  0.1785 -0.1705
  937MPD2    C513758   3.393   1.641  11.806 -0.0210 -0.3368 -0.5873
  937MPD2     H13759   3.470   2.007  11.779 -0.4723  0.6875  1.5333
  937MPD2    H113760   3.475   1.605  11.627 -1.8166  1.0600 -2.1934
  937MPD2    H213761   3.314   1.670  11.996  0.2511 -1.8678 -1.0883
  937MPD2    H313762   3.356   1.541  11.821 -0.0070 -0.1900  0.4272
  937MPD2     N13763   3.530   1.876  11.565 -0.5899  0.2518  0.3360
  937MPD2    H513764   3.544   1.977  11.571 -0.9574  0.4817 -2.4774
  937MPD2    N113765   3.344   1.950  11.990 -0.0973  0.0147 -0.2496
  937MPD2    H713766   3.379   2.045  11.984 -1.8808  0.6826 -0.0093
  938MPD2     C13767   1.308   2.371   0.757  0.7505  0.2342 -0.1248
  938MPD2    C113768   1.263   2.494   0.800 -0.1294  0.9521  0.6027
  938MPD2    C213769   1.228   2.518   0.933  0.2154 -0.1848 -0.7263
  938MPD2    C313770   1.233   2.416   1.032  0.0919 -0.5524  0.0856
  938MPD2    C413771   1.270   2.292   0.984  0.1676 -0.0009  0.4072
  938MPD2    C513772   1.314   2.273   0.850  0.0682 -0.6053 -0.1772
  938MPD2     H13773   1.209   2.619   0.967  1.1094 -0.6477  1.1829
  938MPD2    H113774   1.276   2.204   1.046  1.7559  0.9971  1.6566
  938MPD2    H213775   1.338   2.349   0.655  3.3137  0.7574  0.4960
  938MPD2    H313776   1.343   2.171   0.826  2.2929  0.1153 -0.5936
  938MPD2     N13777   1.188   2.429   1.169 -0.2037  0.0067 -0.5897
  938MPD2    H513778   1.204   2.350   1.230  1.9943 -0.7717 -2.1732
  938MPD2    N113779   1.282   2.609   0.715 -0.0562 -0.2256 -0.1867
  938MPD2    H713780   1.269   2.705   0.745  0.5709  0.2873 -1.5391
  939MPD2     C13781   2.408   3.576   0.728 -0.1650  0.6458  0.1385
  939MPD2    C113782   2.526   3.639   0.709 -0.1685  0.0371  0.2638
  939MPD2    C213783   2.637   3.564   0.684  0.0263  0.0203 -0.5826
  939MPD2    C313784   2.623   3.430   0.662 -0.3311 -0.2080  0.5444
  939MPD2    C413785   2.500   3.369   0.672 -0.0655 -0.3160 -0.6099
  939MPD2    C513786   2.394   3.445   0.703  0.2215  0.1885 -0.2323
  939MPD2     H13787   2.732   3.617   0.685  0.5123 -0.8719 -0.0886
  939MPD2    H113788   2.478   3.267   0.645 -0.4044 -0.2179 -0.7102
  939MPD2    H213789   2.315   3.619   0.763 -0.1266  2.5451 -2.1244
  939MPD2    H313790   2.295   3.402   0.707  0.7029 -0.8747  0.2533
  939MPD2     N13791   2.733   3.344   0.631 -0.1763 -0.2520  0.0039
  939MPD2    H513792   2.706   3.247   0.625 -0.7760 -0.0767 -0.1861
  939MPD2    N113793   2.526   3.776   0.732  0.0611  0.5244  0.0156
  939MPD2    H713794   2.454   3.821   0.788 -1.3319 -0.5700 -0.9132
  940MPD2     C13795   0.932   0.312  13.143  0.6917 -0.7473 -0.4747
  940MPD2    C113796   0.817   0.245  13.178  0.2019  0.2920 -0.7168
  940MPD2    C213797   0.714   0.245  13.094 -0.3923  0.4422 -0.1873
  940MPD2    C313798   0.717   0.295  12.960  0.5715  0.0597  0.1362
  940MPD2    C413799   0.836   0.345  12.918 -0.9392 -0.0877 -0.1183
  940MPD2    C513800   0.943   0.343  13.008 -0.0718 -0.2923  0.6936
  940MPD2     H13801   0.620   0.207  13.133  0.5726 -0.0753  1.6627
  940MPD2    H113802   0.845   0.358  12.811  0.3038 -0.2297 -0.0285
  940MPD2    H213803   1.016   0.310  13.211  0.5664 -1.8810 -0.3489
  940MPD2    H313804   1.043   0.369  12.975  0.4381 -1.3322  1.4152
  940MPD2     N13805   0.606   0.308  12.865  0.4991  0.2922 -0.1670
  940MPD2    H513806   0.623   0.346  12.773  1.5141  0.3485  0.0496
  940MPD2    N113807   0.799   0.186  13.309 -0.0004  0.6712 -0.1767
  940MPD2    H713808   0.701   0.167  13.326 -0.1567  0.0768 -1.6661
  941MPD2     C13809   0.598   4.176   9.600 -0.0434  0.2915  0.6153
  941MPD2    C113810   0.702   4.188   9.690 -0.9109 -0.5876 -0.3575
  941MPD2    C213811   0.713   4.092   9.789 -0.3690 -0.4541 -0.7965
  941MPD2    C313812   0.624   3.988   9.801 -0.0673  0.5871 -0.1700
  941MPD2    C413813   0.523   3.980   9.711 -0.6372  0.7125  0.2154
  941MPD2    C513814   0.512   4.064   9.601 -0.9300  0.2669  0.7301
  941MPD2     H13815   0.789   4.097   9.866  0.0995 -0.1719 -1.2767
  941MPD2    H113816   0.461   3.891   9.714  0.9705 -0.3663  1.4786
  941MPD2    H213817   0.581   4.236   9.512  1.4142  1.2093  0.9661
  941MPD2    H313818   0.452   4.036   9.515 -1.0315  2.1317  0.1888
  941MPD2     N13819   0.629   3.894   9.902  0.1870  0.5841  0.4202
  941MPD2    H513820   0.544   3.837   9.902  0.1311  0.6698 -0.2469
  941MPD2    N113821   0.782   4.307   9.684 -1.3101  0.5105  0.0787
  941MPD2    H713822   0.858   4.326   9.749 -0.8630 -1.4112  0.1244
  942MPD2     C13823   4.276   1.782  10.292  0.2209  0.5899 -0.5147
  942MPD2    C113824   4.356   1.832  10.195 -0.1031  0.0928  0.7582
  942MPD2    C213825   4.458   1.751  10.147  1.1215 -0.6551 -0.2484
  942MPD2    C313826   4.477   1.628  10.187 -0.4012 -0.5113 -0.2555
  942MPD2    C413827   4.392   1.576  10.275 -0.2971  0.1056 -0.3439
  942MPD2    C513828   4.298   1.652  10.333  0.1756  0.5677 -0.0614
  942MPD2     H13829   4.515   1.792  10.064 -0.3373  0.5955 -0.6432
  942MPD2    H113830   4.388   1.472  10.306  0.6609  0.4774  1.0497
  942MPD2    H213831   4.190   1.831  10.334  0.4077 -0.4198  1.0466
  942MPD2    H313832   4.235   1.610  10.411  0.6937  1.2302  0.7227
  942MPD2     N13833   4.585   1.546  10.138  0.3254  0.6089  0.2789
  942MPD2    H513834   4.595   1.459  10.189  0.1141  0.0254 -0.6655
  942MPD2    N113835   4.341   1.963  10.152 -0.2977 -0.0520  0.0674
  942MPD2    H713836   4.422   1.992  10.099  0.0319 -1.5965 -0.2901
  943MPD2     C13837   4.122   4.663   9.622  0.0537  0.4736 -0.0181
  943MPD2    C113838   4.099   4.566   9.724 -0.2946  0.5779 -0.2532
  943MPD2    C213839   4.178   4.573   9.840  0.4861  0.4138  0.1530
  943MPD2    C313840   4.276   4.676   9.852  0.0728 -0.5291  0.1941
  943MPD2    C413841   4.289   0.041   9.754  0.0473 -0.1633 -0.0350
  943MPD2    C513842   4.213   0.032   9.638 -0.0294  0.5311  0.5670
  943MPD2     H13843   4.157   4.515   9.929  0.6290 -0.9548 -0.6906
  943MPD2    H113844   4.358   0.123   9.767  1.4283 -1.6182  1.8435
  943MPD2    H213845   4.063   4.669   9.532  0.1332  0.9199 -0.0376
  943MPD2    H313846   4.227   0.103   9.557  0.8483 -0.3461 -0.0450
  943MPD2     N13847   4.354   4.688   9.970 -0.0839 -0.0524  0.6504
  943MPD2    H513848   4.400   0.042   9.984 -0.2344  0.1161  0.0745
  943MPD2    N113849   4.007   4.462   9.692  0.5915  0.3313 -0.2109
  943MPD2    H713850   3.940   4.472   9.616  1.6058  5.1308 -0.4650
  944MPD2     C13851   3.752   3.842  11.063  0.1196  0.3137  0.3951
  944MPD2    C113852   3.735   3.797  11.192 -0.2752 -0.7860  0.7603
  944MPD2    C213853   3.628   3.842  11.272 -0.6271  0.6075  0.1136
  944MPD2    C313854   3.553   3.946  11.235  0.6749  0.4752 -0.4708
  944MPD2    C413855   3.567   3.989  11.103  0.0113  0.4588  0.2431
  944MPD2    C513856   3.663   3.935  11.021 -0.3113  0.2365  0.6176
  944MPD2     H13857   3.601   3.791  11.364  2.0405  1.4981  1.3820
  944MPD2    H113858   3.506   4.062  11.050 -1.1192 -0.8479 -0.2671
  944MPD2    H213859   3.821   3.800  10.991  1.0396  0.9003  0.9272
  944MPD2    H313860   3.666   3.964  10.916 -1.5554 -2.4221 -0.1437
  944MPD2     N13861   3.452   3.995  11.329 -0.0209  0.2516 -0.3088
  944MPD2    H513862   3.428   3.936  11.408 -1.4242  2.1560  0.6910
  944MPD2    N113863   3.814   3.681  11.232  0.5674  0.3924  0.4569
  944MPD2    H713864   3.889   3.651  11.169 -0.5643  0.6537 -1.0257
    1TMC1    C113865   1.824   4.055  14.927 -0.8297  0.5027 -0.9151
    1TMC1    C213866   1.733   3.994  15.007 -0.2256  0.2389 -0.7343
    1TMC1    C313867   1.765   3.860  15.040  0.0154  0.2031  0.4582
    1TMC1    C413868   1.949   3.998  14.897 -0.4546 -0.5669 -0.0751
    1TMC1    C513869   1.973   3.865  14.937 -0.3135  0.2570  1.2023
    1TMC1    C613870   1.880   3.793  15.009 -0.2099 -0.1401  0.1450
    1TMC1     C13871   1.814   4.198  14.932 -0.5690  0.6427  0.1529
    1TMC1     O13872   1.747   4.250  15.023 -0.1929  0.0871  0.0608
    1TMC1     H13873   1.634   4.038  15.016 -1.0490 -1.9259  0.8611
    1TMC1    H113874   2.026   4.057  14.848  0.4970  0.5291  2.7325
    1TMC1    H213875   1.890   3.690  15.042 -1.6864  0.2014  1.6177
    1TMC1    C713876   2.104   3.809  14.910  0.2168  0.3843  0.2191
    1TMC1    C813877   1.672   3.797  15.121 -0.1555 -0.1606  0.3496
    1TMC1    O113878   2.210   3.870  14.933 -0.1697 -0.2183 -0.4014
    1TMC1    O213879   1.553   3.824  15.122 -0.3424  0.5086  0.2935
    1TMC1    O313880   2.073   3.724  14.804 -0.0699  0.6538 -0.4465
    1TMC1    H313881   1.976   3.714  14.789  0.1655 -0.1605 -1.4283
    1TMC1    O513882   1.736   3.774  15.232 -0.2637 -0.6123 -0.0991
    1TMC1    H513883   1.832   3.796  15.230 -0.0310 -1.5562  0.4356
    2MPD2     C13884   2.000   4.663  14.832 -0.4485 -0.1303 -0.3478
    2MPD2    C113885   1.989   4.595  14.708  0.2016  0.1925 -0.1828
    2MPD2    C213886   1.948   4.464  14.711 -0.6968  0.1778 -0.3273
    2MPD2    C313887   1.906   4.403  14.829  0.1274 -0.3273  0.1380
    2MPD2    C413888   1.917   4.473  14.948  0.3879 -0.2109 -0.2815
    2MPD2    C513889   1.977   4.593  14.946 -0.7187  0.1505 -0.8817
    2MPD2     H13890   1.964   4.390  14.633  0.3913 -1.2008  1.1787
    2MPD2    H113891   1.905   4.424  15.044 -1.2943  0.3608 -0.1987
    2MPD2    H213892   2.026   0.033  14.839 -0.9485 -0.0075 -0.3718
    2MPD2    H313893   1.988   4.648  15.039  2.1110 -1.9088 -0.0196
    2MPD2     N13894   1.882   4.260  14.832 -0.5047 -0.1561  0.0687
    2MPD2    H513895   1.902   4.199  14.754 -1.8088 -1.4040  0.7040
    2MPD2    N113896   2.023   4.668  14.591 -0.4113  0.2028  0.1920
    2MPD2    H713897   2.044   0.030  14.611  1.6258  0.3745 -2.8100
    3TMC2    C113898   2.055   4.713  14.350  0.2621  1.0784  0.1446
    3TMC2    C213899   2.163   0.060  14.387  0.1558 -0.2305  0.9739
    3TMC2    C313900   2.193   0.158  14.302 -0.3542 -0.7317 -0.3830
    3TMC2    C413901   1.994   4.723  14.228 -0.9672  0.3197 -0.1514
    3TMC2    C513902   2.046   0.080  14.142 -0.5463 -0.1199 -0.0042
    3TMC2    C613903   2.136   0.177  14.181  0.8175  0.1205 -0.0171
    3TMC2     C13904   1.999   4.622  14.458  0.1819 -0.3349 -0.0744
    3TMC2     O13905   1.961   4.512  14.415  0.0794  0.5164 -0.0919
    3TMC2     H13906   2.218   0.046  14.479  2.0697  1.3147  0.0503
    3TMC2    H113907   1.909   4.661  14.205  0.4059 -0.4518 -3.1789
    3TMC2    H213908   2.170   0.257  14.117 -1.0772  0.0481 -1.1023
    3TMC2    C713909   1.959   0.118  14.026 -0.0949  0.5792  0.4220
    3TMC2    C813910   2.287   0.257  14.345 -0.3252 -0.2138 -0.3111
    3TMC2    O113911   1.848   0.071  14.021 -0.1926  0.7687  0.4779
    3TMC2    O213912   2.366   0.314  14.265 -1.1678 -0.0690 -0.0950
    3TMC2    O513913   2.220   0.325  14.443  0.0391 -0.3790  0.1436
    3TMC2    H513914   2.149   0.278  14.492 -1.5865  0.1378 -1.7074
    4TMC2    C113915   2.271   0.632  13.252  0.4891 -0.7160 -0.0190
    4TMC2    C213916   2.406   0.628  13.223  0.3845 -0.4075 -0.9329
    4TMC2    C313917   2.482   0.522  13.257  0.6467  0.5172 -0.2956
    4TMC2    C413918   2.218   0.543  13.341 -0.6662 -0.3842  0.0507
    4TMC2    C513919   2.301   0.447  13.384 -0.0216  0.2117 -0.2749
    4TMC2    C613920   2.427   0.426  13.343 -0.0044 -0.2446  0.1388
    4TMC2     C13921   2.191   0.742  13.203  0.1617  0.2774 -0.0609
    4TMC2     O13922   2.257   0.836  13.174  1.1242 -0.4987  0.1646
    4TMC2     H13923   2.444   0.695  13.147  2.1594  0.0782  0.3614
    4TMC2    H113924   2.119   0.561  13.380 -1.5853 -0.8331 -2.0650
    4TMC2    H213925   2.491   0.353  13.391 -1.5412 -1.4651  0.3179
    4TMC2    C713926   2.243   0.349  13.465 -0.6512 -0.0400 -0.0537
    4TMC2    C813927   2.575   0.487  13.151  0.6260  0.2607  0.2225
    4TMC2    O113928   2.322   0.290  13.538 -0.8869  0.2041 -0.0918
    4TMC2    O213929   2.561   0.525  13.036  0.1812  0.0473 -0.2570
    4TMC2    O513930   2.625   0.370  13.194 -0.0886 -0.3859 -0.0499
    4TMC2    H513931   2.656   0.377  13.287  1.8403 -1.9008 -0.5730
    5MPD2     C13932   1.773   0.991  13.063 -0.4460  0.5264  0.8374
    5MPD2    C113933   1.731   0.867  13.098  0.0272  0.0135  0.1963
    5MPD2    C213934   1.829   0.777  13.147  0.4562 -0.0626  0.5771
    5MPD2    C313935   1.963   0.819  13.153  0.7986 -0.3843  0.2147
    5MPD2    C413936   1.995   0.946  13.106  0.2294 -0.6070 -1.2159
    5MPD2    C513937   1.901   1.030  13.068  0.0271 -0.3343  0.3783
    5MPD2     H13938   1.801   0.680  13.186  0.7123 -0.5748 -0.5002
    5MPD2    H113939   2.097   0.980  13.095  0.7408 -2.1187 -1.1868
    5MPD2    H213940   1.704   1.065  13.023 -0.2311  0.6886  0.7660
    5MPD2    H313941   1.926   1.129  13.030 -0.5913 -0.4389 -0.3068
    5MPD2     N13942   2.055   0.719  13.197 -0.4305  0.1921 -0.1517
    5MPD2    H513943   2.020   0.626  13.218  0.3700 -0.0449  0.1400
    5MPD2    N113944   1.599   0.817  13.079  0.4969  0.3153 -0.3679
    5MPD2    H713945   1.570   0.736  13.132  1.6824  0.2078  0.1168
    6MPD1     C13946   4.433   1.383  12.879  0.2208  0.5227 -0.6511
    6MPD1    C113947   4.548   1.444  12.834 -0.1413 -0.4135  0.3023
    6MPD1    C213948   4.660   1.366  12.820 -0.6972 -0.0921  0.1092
    6MPD1    C313949   4.654   1.228  12.854 -0.0527  0.4933 -0.4166
    6MPD1    C413950   4.539   1.167  12.888  0.3130  0.2239  0.0767
    6MPD1    C513951   4.423   1.246  12.891  0.4415 -0.0771 -0.2489
    6MPD1     H13952   0.022   1.413  12.809 -1.1389  0.3984 -1.7157
    6MPD1    H113953   4.527   1.060  12.885 -0.3798  0.2985  0.2078
    6MPD1    H213954   4.341   1.440  12.884 -0.1297 -0.3294  2.7892
    6MPD1    H313955   4.327   1.198  12.905 -0.2082  1.3243  0.0649
    6MPD1     N13956   0.033   1.150  12.858  0.1021  0.1344  0.0889
    6MPD1    H513957   0.028   1.055  12.894 -2.2190  0.4345  0.5335
    6MPD1    N113958   4.560   1.580  12.830 -0.4715  0.0057 -0.3592
    6MPD1    H613959   4.625   1.610  12.757 -0.6972  0.8228 -0.2150
    6MPD1    H713960   4.471   1.615  12.796 -1.0077  0.2144  1.2549
    7MPD2     C13961   0.621   0.836  13.295  0.1229 -0.1193 -0.1993
    7MPD2    C113962   0.662   0.835  13.163 -0.5895  0.2434  0.0753
    7MPD2    C213963   0.791   0.817  13.127  0.1380 -0.0800  0.5163
    7MPD2    C313964   0.874   0.770  13.219  1.3621 -0.5741 -0.0225
    7MPD2    C413965   0.838   0.750  13.349  0.1158  0.2905  0.2938
    7MPD2    C513966   0.707   0.784  13.384  1.2177 -0.2733 -0.1514
    7MPD2     H13967   0.828   0.834  13.027 -2.3698 -0.0648 -0.4122
    7MPD2    H113968   0.913   0.726  13.423 -0.4597 -2.1546  0.0614
    7MPD2    H213969   0.517   0.851  13.323  0.2759 -1.5400  1.1135
    7MPD2    H313970   0.681   0.794  13.489  0.6821  0.2904 -0.3375
    7MPD2     N13971   0.999   0.738  13.166 -0.3490 -0.8724 -0.0705
    7MPD2    H513972   1.002   0.723  13.065  0.6762 -2.5557  0.2120
    7MPD2    N113973   0.580   0.871  13.054 -0.1974  0.2351  0.2709
    7MPD2    H713974   0.626   0.860  12.965 -1.1184 -0.4102 -0.1159
    8TMC3    C113975   1.218   0.691  13.125  0.2655  0.0334  0.1007
    8TMC3    C213976   1.328   0.771  13.126  0.7695  0.2038 -0.2335
    8TMC3    C313977   1.380   0.805  13.003  0.4771  0.1002 -1.4087
    8TMC3    C413978   1.164   0.642  13.007 -0.3817  1.1470 -0.4932
    8TMC3    C513979   1.210   0.688  12.881 -0.2651 -0.3336  0.7518
    8TMC3    C613980   1.313   0.772  12.885  0.2140  0.3887 -0.4635
    8TMC3     C13981   1.114   0.729  13.228  0.1244 -0.6114 -0.1868
    8TMC3     O13982   1.144   0.764  13.341  0.1043 -0.1548 -0.0811
    8TMC3     H13983   1.351   0.806  13.226  1.5315 -0.8693 -0.0329
    8TMC3    H113984   1.079   0.575  13.012  0.2752  0.4374  1.1579
    8TMC3    H213985   1.344   0.803  12.786 -0.4797 -1.2009 -1.1771
    8TMC3    C713986   1.092   0.729  12.808  0.2590  0.1254 -0.1623
    8TMC3    C813987   1.506   0.873  12.996 -0.6361 -0.0966  0.1515
    8TMC3    O113988   0.991   0.725  12.877  0.0262  0.2257 -0.3036
    8TMC3    O213989   1.523   0.957  12.910  0.7807  0.1741  0.7199
    9TMC3    C113990   0.250   1.058  12.786  0.5606 -0.5010  0.5081
    9TMC3    C213991   0.330   1.052  12.677  0.0730 -0.4786  0.7116
    9TMC3    C313992   0.429   0.962  12.684 -0.8268 -0.1309  0.0304
    9TMC3    C413993   0.275   1.007  12.905  0.7783  0.7820 -0.2518
    9TMC3    C513994   0.394   0.944  12.919 -0.4300 -0.3326 -0.0529
    9TMC3    C613995   0.469   0.908  12.807  0.7392  0.0862  0.1745
    9TMC3     C13996   0.154   1.165  12.787  0.2951 -0.1600 -0.0477
    9TMC3     O13997   0.188   1.264  12.724 -0.2791 -0.5529 -0.9874
    9TMC3     H13998   0.309   1.098  12.581  0.2863  0.2796  1.0262
    9TMC3    H113999   0.224   1.031  12.998 -1.4596  0.9202 -1.5253
    9TMC3    H214000   0.547   0.833  12.798 -0.6065 -0.7386 -4.6035
    9TMC3    C714001   0.449   0.907  13.059 -0.4251  0.1790  0.0245
    9TMC3    C814002   0.531   0.957  12.575  0.2746 -0.1242 -0.4575
    9TMC3    O114003   0.374   0.918  13.157  0.1425 -0.0520 -0.6833
    9TMC3    O214004   0.491   0.955  12.460  0.3173  0.9727  0.3832
   10MPD2     C14005   0.990   0.772  12.461 -0.2038 -0.3483 -0.6273
   10MPD2    C114006   0.983   0.797  12.598 -0.1063 -0.3549 -0.6904
   10MPD2    C214007   0.877   0.861  12.655  0.3540 -0.2018 -0.5684
   10MPD2    C314008   0.771   0.901  12.576 -0.1392 -0.2939  0.0640
   10MPD2    C414009   0.775   0.867  12.444  0.0042 -0.0519  0.4320
   10MPD2    C514010   0.874   0.800  12.388  0.1685  0.8886  0.6658
   10MPD2     H14011   0.863   0.884  12.760 -2.0210 -1.6425 -0.5497
   10MPD2    H114012   0.691   0.896  12.381 -1.5353 -0.9798  2.0306
   10MPD2    H214013   1.062   0.711  12.408  0.5529  0.5921 -0.6771
   10MPD2    H314014   0.866   0.772  12.284 -0.9650 -1.1943  1.3361
   10MPD2     N14015   0.656   0.961  12.631  0.0872  0.1186  0.1453
   10MPD2    H514016   0.656   0.981  12.731  3.4556 -1.1799  0.3990
   10MPD2    N114017   1.097   0.758  12.675  0.1429  0.1115 -0.6077
   10MPD2    H714018   1.177   0.736  12.616 -0.3739 -0.4733 -1.0861
   11MPD2     C14019   1.852   0.219  13.774 -0.1723  0.0413 -0.0107
   11MPD2    C114020   1.980   0.223  13.802 -0.1259 -0.3262 -0.2209
   11MPD2    C214021   2.068   0.259  13.702  0.1730  0.2176 -0.1746
   11MPD2    C314022   2.021   0.294  13.578  0.2716  0.4532 -0.1771
   11MPD2    C414023   1.886   0.299  13.554 -0.9359 -0.1471 -0.3230
   11MPD2    C514024   1.808   0.262  13.656  0.1125 -0.0960 -0.0920
   11MPD2     H14025   2.173   0.238  13.716  0.0052  0.8157  2.0529
   11MPD2    H114026   1.837   0.325  13.461 -0.2987 -0.3453 -0.7176
   11MPD2    H214027   1.768   0.200  13.840 -0.4143 -0.9028 -0.5913
   11MPD2    H314028   1.704   0.248  13.628  1.2307 -1.7610 -3.3500
   11MPD2     N14029   2.098   0.343  13.468 -0.6683  0.5425  0.0867
   11MPD2    H514030   2.044   0.387  13.395  0.5812  0.6030 -0.7922
   11MPD2    N114031   2.034   0.187  13.928  0.0824 -0.4754  0.2865
   11MPD2    H714032   2.133   0.203  13.945  0.5126 -2.5350 -0.2013
    1MPD1     C14033   4.194   1.407  16.863  0.2468  0.1026  0.1171
    1MPD1    C114034   4.251   1.281  16.841 -0.2430  0.5073 -0.3290
    1MPD1    C214035   4.391   1.272  16.874 -0.4518 -0.0934  0.4964
    1MPD1    C314036   4.457   1.379  16.930  0.4523 -0.4002 -0.2801
    1MPD1    C414037   4.391   1.500  16.958 -0.0704  0.5143 -0.2263
    1MPD1    C514038   4.260   1.514  16.927 -0.6136 -1.0339 -0.1725
    1MPD1     H14039   4.435   1.173  16.869  1.6506  1.0385 -3.2911
    1MPD1    H114040   4.438   1.589  16.997  1.9484 -0.8361  0.4437
    1MPD1    H214041   4.089   1.428  16.843  0.4428 -0.5299 -1.5326
    1MPD1    H314042   4.206   1.607  16.943 -0.1310 -0.6895 -0.5080
    1MPD1     N14043   4.591   1.373  16.981  0.4305  0.6671 -0.4167
    1MPD1    H514044   4.623   1.455  17.031  3.0408 -1.7633  1.9111
    1MPD1    N114045   4.176   1.166  16.791 -0.0674  0.5052 -0.6634
    1MPD1    H614046   4.084   1.193  16.755  0.3043  0.1135 -1.9157
    1MPD1    H714047   4.160   1.115  16.878 -1.0821  0.3980 -0.9165
    2MPD1     C14048   0.144   1.353   0.145  0.4823  0.6127 -0.0979
    2MPD1    C114049   0.154   1.221   0.102  0.4254 -0.4193  0.3677
    2MPD1    C214050   0.171   1.202  17.703  0.0716 -0.1605  0.0009
    2MPD1    C314051   0.175   1.310  17.619  0.7506 -0.0883 -0.1878
    2MPD1    C414052   0.166   1.444  17.660  0.5160 -0.5514 -0.3097
    2MPD1    C514053   0.163   1.460   0.057  0.5145  0.4197  0.3774
    2MPD1     H14054   0.195   1.103  17.667 -0.1856  0.0568 -0.7781
    2MPD1    H114055   0.170   1.529  17.593  1.2312  0.7197  1.3543
    2MPD1    H214056   0.147   1.369   0.253  1.6168  3.7003 -0.5998
    2MPD1    H314057   0.170   1.556   0.108  0.6290  0.5570  0.1055
    2MPD1     N14058   0.172   1.286  17.478 -0.2726 -0.2020 -0.3621
    2MPD1    H514059   0.191   1.192  17.446  0.6432 -0.9093  2.2387
    2MPD1    N114060   0.137   1.110   0.184 -0.1910  0.2203 -0.0341
    2MPD1    H614061   0.171   1.020   0.151 -0.4182  0.1292 -0.0208
    2MPD1    H714062   0.157   1.122   0.283  0.7343 -2.5070  0.1109
    3TMC3    C114063   0.140   1.308  17.258  0.5212  0.0647 -0.0046
    3TMC3    C214064   0.251   1.237  17.231  0.4563  0.8313 -0.1778
    3TMC3    C314065   0.264   1.190  17.106 -0.4118  0.0870  0.9418
    3TMC3    C414066   0.038   1.330  17.168 -0.3565 -0.0238 -0.2809
    3TMC3    C514067   0.061   1.283  17.036 -0.6473 -0.9035  0.2323
    3TMC3    C614068   0.170   1.205  17.007 -0.4957 -0.5656  0.2322
    3TMC3     C14069   0.126   1.369  17.384 -0.1859 -0.4042  0.4804
    3TMC3     O14070   0.050   1.462  17.394  0.4084 -0.0047 -0.6939
    3TMC3     H14071   0.340   1.229  17.291  1.2296  0.2493 -1.3999
    3TMC3    H114072   4.690   1.394  17.192 -0.1081  0.5580 -0.9643
    3TMC3    H214073   0.176   1.148  16.915  0.5710 -0.7077  0.3841
    3TMC3    C714074   4.677   1.265  16.955 -0.0012 -0.7301  0.4897
    3TMC3    C814075   0.355   1.080  17.090  0.4306  0.2642  0.1797
    3TMC3    O114076   4.661   1.168  16.886 -0.8555 -0.2212 -0.0242
    3TMC3    O214077   0.406   1.039  17.190 -0.7802  0.1155 -0.1345
    4MPD1     C14078   0.682   0.773  16.854 -0.1198 -0.6121 -0.2957
    4MPD1    C114079   0.637   0.855  16.752  0.8687 -0.3206 -0.2607
    4MPD1    C214080   0.532   0.947  16.789 -0.4737 -0.2496  0.5294
    4MPD1    C314081   0.479   0.955  16.918  0.0486  0.5644 -0.7048
    4MPD1    C414082   0.518   0.849  17.002 -0.2168 -0.2671 -0.2515
    4MPD1    C514083   0.613   0.764  16.971  0.9273  0.3140  0.1686
    4MPD1     H14084   0.498   1.024  16.720 -1.4425 -0.0480  1.2250
    4MPD1    H114085   0.477   0.844  17.102  2.0349 -2.5491  0.5589
    4MPD1    H214086   0.762   0.702  16.839  0.9889  0.8422 -1.3750
    4MPD1    H314087   0.634   0.687  17.045 -1.1690  0.3340  0.7862
    4MPD1     N14088   0.395   1.062  16.960 -0.6392 -0.5774  0.5557
    4MPD1    H514089   0.383   1.138  16.894  0.7170 -0.6527  0.2047
    4MPD1    N114090   0.701   0.859  16.627  0.6880  0.4451 -0.6071
    4MPD1    H614091   0.635   0.891  16.556  2.4783  2.0775 -1.5525
    4MPD1    H714092   0.744   0.772  16.597  0.2346 -1.1769  3.4359
    1TCq1    O114093   3.761   1.419  12.117 -0.0883  0.1953  0.2092
    1TCq1    C114094   3.654   1.493  12.064  0.0819 -0.2991 -0.4748
    1TCq1    O214095   3.574   1.545  12.139  0.8146  0.1507 -0.0453
    1TCq1    C214096   3.707   1.549  11.942  0.3913 -0.4056  0.2590
    1TCq1    C314097   3.770   1.463  11.863 -0.0023 -0.0673  0.4580
    1TCq1    C414098   3.846   1.509  11.763  0.3690  0.1747  0.1944
    1TCq1    C514099   3.849   1.642  11.732  0.2345 -0.1749  0.3637
    1TCq1    C614100   3.772   1.728  11.808 -0.0265  0.0901 -0.1956
    1TCq1    C714101   3.701   1.683  11.917 -0.0744  0.1722 -0.0592
    1TCq1    C814102   3.816   1.875  11.813  0.2892 -0.4611  0.3446
    1TCq1    O414103   3.775   1.947  11.903  0.0604  0.1912  0.2707
    1TCq1    C914104   3.889   1.410  11.663 -0.4870  0.5099  0.3230
    1TCq1    O514105   3.984   1.446  11.591 -0.4734  0.7839 -0.7078
    1TCq1    O614106   3.829   1.298  11.657 -1.0149  0.4063 -0.2473
    1TCq1    H114107   3.823   1.390  12.047 -1.5753 -1.5990 -0.3257
    1TCq1    H214108   3.748   1.357  11.863 -0.0390 -0.0584 -3.2186
    1TCq1    H314109   3.922   1.674  11.658  0.1177  0.6553  0.6022
    1TCq1    H414110   3.658   1.747  11.994  0.8827  0.2212  0.4332
    2MPD1     C14111   4.147   2.235  11.641  0.4845 -0.8211  0.4217
    2MPD1    C114112   4.128   2.145  11.541 -0.3482 -0.6144 -0.4462
    2MPD1    C214113   4.032   2.053  11.556 -0.3651  0.8410 -0.2115
    2MPD1    C314114   3.971   2.030  11.681 -0.1222  1.0803  0.3549
    2MPD1    C414115   4.002   2.113  11.787  0.7519  0.1658  0.0036
    2MPD1    C514116   4.084   2.218  11.759  0.0412 -0.0479 -1.0149
    2MPD1     H14117   4.006   1.995  11.468 -0.7129  1.7505 -0.7069
    2MPD1    H114118   3.959   2.118  11.886  2.2054  1.2958  0.5709
    2MPD1    H214119   4.213   2.320  11.624 -1.0078 -0.2054 -2.3024
    2MPD1    H314120   4.097   2.295  11.834  1.3010  0.9594 -2.2788
    2MPD1     N14121   3.893   1.911  11.700  0.1336 -0.9231 -0.4512
    2MPD1    H514122   3.892   1.851  11.618 -1.9471  0.2805 -1.2869
    2MPD1    N114123   4.177   2.169  11.411  0.8686 -0.0570 -0.5548
    2MPD1    H614124   4.193   2.082  11.360 -1.3676 -0.0184 -1.3384
    2MPD1    H714125   4.264   2.222  11.416 -0.1093  1.5125 -0.2538
    1TMC1    C114126   4.544   3.482   1.010 -0.9909  0.7152  0.2471
    1TMC1    C214127   4.545   3.418   0.888 -0.2154 -0.2287 -0.0890
    1TMC1    C314128   4.632   3.313   0.870 -0.8939  0.2432 -0.1622
    1TMC1    C414129   4.648   3.466   1.098 -0.4561 -0.2677  0.4969
    1TMC1    C514130   0.013   3.385   1.067 -0.5083 -0.3454  0.2500
    1TMC1    C614131   0.005   3.301   0.955  0.2311  0.6066  0.6090
    1TMC1     C14132   4.438   3.568   1.036  0.4240  0.6260 -0.3255
    1TMC1     O14133   4.356   3.585   0.950  0.8210  0.0178 -0.2101
    1TMC1     H14134   4.468   3.437   0.815  1.4224 -1.0386 -2.0142
    1TMC1    H114135   4.662   3.530   1.184 -0.1533 -0.7287  0.7828
    1TMC1    H214136   0.076   3.221   0.940 -0.5577 -0.0954  0.5829
    1TMC1    C714137   0.115   3.368   1.166 -0.3089  0.3137  0.1336
    1TMC1    C814138   4.632   3.232   0.738  0.4222  0.0021  0.2684
    1TMC1    O114139   0.103   3.398   1.287  0.1753  0.3003  0.4138
    1TMC1    O214140   4.732   3.185   0.688  0.2610  0.6271 -0.0164
    1TMC1    O314141   0.231   3.352   1.103 -0.1767  0.0805 -0.2260
    1TMC1    H314142   0.231   3.362   1.005 -0.4808 -0.1693 -0.2532
    1TMC1    O514143   4.509   3.184   0.711 -0.6632  0.2531  0.1118
    1TMC1    H514144   4.433   3.215   0.765  1.0736 -1.0587  3.3020
    2MPD1     C14145   4.160   3.851   1.362 -0.4236 -0.8209 -0.1236
    2MPD1    C114146   4.268   3.787   1.425  0.1730 -0.6096 -0.1419
    2MPD1    C214147   4.355   3.700   1.363  0.3413 -0.4198  0.8452
    2MPD1    C314148   4.338   3.675   1.230  1.1468 -0.6051 -0.3227
    2MPD1    C414149   4.249   3.747   1.165 -0.2759  0.0408 -0.3332
    2MPD1    C514150   4.157   3.824   1.226  0.1177  0.3816 -0.7907
    2MPD1     H14151   4.436   3.654   1.418  0.9347 -0.3089  0.0747
    2MPD1    H114152   4.237   3.736   1.058  1.2598 -1.8231 -0.3150
    2MPD1    H214153   4.094   3.917   1.417 -0.0207 -1.0400  0.6255
    2MPD1    H314154   4.083   3.877   1.167  0.0842  0.1964 -0.9150
    2MPD1     N14155   4.430   3.590   1.167 -0.2372  0.8238 -0.1839
    2MPD1    H514156   4.484   3.537   1.235 -0.4857  0.3324 -0.3719
    2MPD1    N114157   4.287   3.819   1.559  0.2108 -0.4800  0.1344
    2MPD1    H614158   4.203   3.850   1.608  0.0605 -0.3161 -0.2267
    2MPD1    H714159   4.296   3.733   1.612  0.9708 -0.7967 -0.5113
    1MPD1     C14160   2.528   0.901  11.968 -0.1706 -0.2975 -0.3163
    1MPD1    C114161   2.466   0.966  12.073  0.5708 -0.6220 -0.0046
    1MPD1    C214162   2.501   1.097  12.103 -0.6108 -0.1483  0.3333
    1MPD1    C314163   2.584   1.173  12.028 -0.0329  0.0054 -0.1267
    1MPD1    C414164   2.631   1.105  11.912  0.4638 -0.1217 -0.1781
    1MPD1    C514165   2.613   0.969  11.887 -0.2474 -1.0401  0.1916
    1MPD1     H14166   2.453   1.148  12.186 -0.6157  1.2819 -0.5440
    1MPD1    H114167   2.692   1.162  11.843 -1.0060  0.4515 -1.0141
    1MPD1    H214168   2.516   0.797  11.943 -0.9922 -0.5264  1.0028
    1MPD1    H314169   2.653   0.924  11.797  0.4830  1.1268 -0.5569
    1MPD1     N14170   2.603   1.309  12.056 -0.3081 -0.3963 -0.2030
    1MPD1    H514171   2.572   1.342  12.147  1.7319 -1.2865  0.8108
    1MPD1    N114172   2.398   0.885  12.165 -0.2326 -0.0200  0.0025
    1MPD1    H614173   2.344   0.942  12.229  0.9664  0.8245  0.2651
    1MPD1    H714174   2.341   0.809  12.127 -1.6641  0.0517  2.0410
    2MPD1     C14175   2.495   2.184   9.795 -0.4754 -0.8830 -0.4649
    2MPD1    C114176   2.422   2.220   9.904  0.1798  0.4153 -0.6422
    2MPD1    C214177   2.488   2.218  10.024  0.0455  0.1500 -0.3034
    2MPD1    C314178   2.618   2.187  10.045  0.0328 -0.4923  0.6953
    2MPD1    C414179   2.700   2.152   9.935 -0.6701  0.0286  0.9107
    2MPD1    C514180   2.633   2.154   9.810 -0.0105  0.0534  0.0624
    2MPD1     H14181   2.433   2.255  10.110 -3.9108  0.3250 -2.9067
    2MPD1    H114182   2.808   2.144   9.929 -0.8802 -1.5764 -0.9127
    2MPD1    H214183   2.445   2.181   9.698  1.8840 -0.7702 -1.6954
    2MPD1    H314184   2.699   2.146   9.725 -1.2852 -2.0516 -0.7102
    2MPD1     N14185   2.680   2.192  10.174 -0.6661  0.5921  0.4609
    2MPD1    H514186   2.782   2.190  10.174 -0.6961 -1.0955 -0.1030
    2MPD1    N114187   2.287   2.261   9.888 -0.3273  0.1694 -0.4409
    2MPD1    H614188   2.273   2.239   9.789 -0.8174  1.5065 -0.6584
    2MPD1    H714189   2.274   2.359   9.911 -0.4426  0.5738 -2.2070
    3MPD1     C14190   3.491   2.480  10.678 -0.1005  0.1737  0.2623
    3MPD1    C114191   3.448   2.370  10.743 -0.4131  0.0242  1.4261
    3MPD1    C214192   3.329   2.308  10.702 -0.1056  0.8907  0.3570
    3MPD1    C314193   3.241   2.369  10.609 -0.1242  0.0278 -0.3746
    3MPD1    C414194   3.292   2.483  10.549 -0.6085  0.9871  0.0042
    3MPD1    C514195   3.418   2.530  10.574 -0.1044 -0.2085  0.2244
    3MPD1     H14196   3.294   2.215  10.745  0.8898  1.0014  1.4113
    3MPD1    H114197   3.230   2.541  10.481  1.1539  2.7772 -0.0891
    3MPD1    H214198   3.576   2.542  10.704  0.1661 -0.0371 -0.1140
    3MPD1    H314199   3.434   2.628  10.532  2.2320 -0.8144 -0.3055
    3MPD1     N14200   3.111   2.312  10.591  0.1510  0.1262 -0.5299
    3MPD1    H514201   3.087   2.243  10.661  1.1168  1.0884  0.7587
    3MPD1    N114202   3.497   2.339  10.875 -0.4140  0.8809 -0.4728
    3MPD1    H614203   3.584   2.388  10.893  0.2107 -0.4495  0.1012
    3MPD1    H714204   3.500   2.241  10.900 -0.2517  1.1245  0.4677
    4MPD2     C14205   2.298   2.012  12.026  0.6119 -0.0188  0.5427
    4MPD2    C114206   2.435   2.019  12.020  0.1484 -0.2688 -0.4113
    4MPD2    C214207   2.501   2.130  11.965  0.3926  0.0450 -0.3302
    4MPD2    C314208   2.429   2.229  11.905 -0.4252 -0.0314  0.8621
    4MPD2    C414209   2.290   2.217  11.898 -0.5483 -0.2062  0.4486
    4MPD2    C514210   2.223   2.104  11.958  0.8394  0.2375  0.0688
    4MPD2     H14211   2.609   2.127  11.962  0.4573  1.5899  0.3737
    4MPD2    H114212   2.227   2.299  11.867  0.8212  0.6093 -0.1940
    4MPD2    H214213   2.245   1.931  12.076 -0.5726  0.4903  0.1092
    4MPD2    H314214   2.115   2.093  11.954  0.6654  1.9080 -0.0146
    4MPD2     N14215   2.494   2.320  11.825  0.4735 -0.8652  0.9240
    4MPD2    H514216   2.595   2.311  11.832  0.6623  0.1793 -0.5400
    4MPD2    N114217   2.516   1.923  12.080  0.4153 -0.2989  0.5362
    4MPD2    H714218   2.616   1.939  12.078  0.3967 -0.1919  0.4588
    5TMC3    C114219   2.596   1.710  12.147  0.3548 -0.5952 -0.0286
    5TMC3    C214220   2.586   1.578  12.115  0.0070  0.9327  0.0269
    5TMC3    C314221   2.689   1.527  12.042 -0.6141  0.8365  0.2767
    5TMC3    C414222   2.717   1.779  12.146  0.4696 -0.1105 -0.6435
    5TMC3    C514223   2.816   1.722  12.081  0.1195 -0.1151  0.1139
    5TMC3    C614224   2.800   1.601  12.021  0.4209 -0.2206 -0.1021
    5TMC3     C14225   2.478   1.792  12.117 -0.1265  0.1266  0.0840
    5TMC3     O14226   2.373   1.743  12.088  0.4694 -0.0265  0.0086
    5TMC3     H14227   2.489   1.531  12.115  1.8249 -2.8356 -4.1091
    5TMC3    H114228   2.727   1.878  12.190 -0.3506 -1.6337  2.9680
    5TMC3    H214229   2.884   1.559  11.966  1.1459 -0.2915  1.0705
    5TMC3    C714230   2.859   1.825  11.988  0.9581  0.3737  0.3019
    5TMC3    C814231   2.675   1.398  11.978  0.0099 -0.1601 -0.6146
    5TMC3    O114232   2.778   1.919  11.983  0.7590  0.0419 -0.2093
    5TMC3    O214233   2.739   1.383  11.874  0.0764 -0.2154  0.7422
    6TMC3    C114234   2.697   2.237  10.405  0.1804 -0.4787 -0.6384
    6TMC3    C214235   2.834   2.266  10.388  0.1196  0.3554  0.3598
    6TMC3    C314236   2.897   2.287  10.503 -0.6467 -0.3469 -0.2724
    6TMC3    C414237   2.634   2.235  10.532  0.2803 -0.2014  0.3898
    6TMC3    C514238   2.712   2.260  10.642  0.7335  1.2724  0.3965
    6TMC3    C614239   2.844   2.280  10.627  0.7061 -0.1463 -0.1889
    6TMC3     C14240   2.612   2.207  10.294  0.4820  0.2266  0.2062
    6TMC3     O14241   2.494   2.191  10.318  0.1419  0.3575 -0.0539
    6TMC3     H14242   2.874   2.297  10.293 -0.2397 -0.4853 -0.0633
    6TMC3    H114243   2.526   2.229  10.532  0.3994 -2.3734 -0.3776
    6TMC3    H214244   2.911   2.303  10.710 -1.2888  4.7224  0.0641
    6TMC3    C714245   2.664   2.297  10.774  0.3045  0.1720  0.3837
    6TMC3    C814246   3.032   2.340  10.481  0.3097  0.8560 -0.6204
    6TMC3    O114247   2.738   2.351  10.859  0.0891  0.0490  0.4460
    6TMC3    O214248   3.057   2.394  10.373  0.3735  0.4036  1.0268
    7MPD2     C14249   3.096   2.034  11.596 -0.2800  0.6022  0.1419
    7MPD2    C114250   3.010   2.091  11.684  0.0407  0.1188  0.4909
    7MPD2    C214251   2.966   2.018  11.795  1.2657 -0.3836  0.5071
    7MPD2    C314252   3.019   1.889  11.816  0.1636 -0.2538 -0.7429
    7MPD2    C414253   3.104   1.832  11.722  0.2757 -0.5645 -0.3638
    7MPD2    C514254   3.127   1.903  11.604  0.3540  0.1434  0.4051
    7MPD2     H14255   2.902   2.066  11.869 -1.1905 -2.9710  0.1013
    7MPD2    H114256   3.134   1.728  11.722 -2.2552 -1.3026  0.8203
    7MPD2    H214257   3.125   2.092  11.509  1.1741 -0.6620 -0.2135
    7MPD2    H314258   3.191   1.860  11.528 -1.1744  0.4196 -1.0524
    7MPD2     N14259   2.967   1.801  11.911 -0.1755 -0.0814  0.0389
    7MPD2    H514260   2.994   1.704  11.900  3.8057  0.8778  1.3759
    7MPD2    N114261   2.949   2.213  11.652 -0.1097 -0.5672  0.3825
    7MPD2    H714262   2.981   2.251  11.563 -1.7969 -1.3339 -0.5402
    8TMC3    C114263   2.773   2.378  11.648  0.3248 -0.5538  0.1939
    8TMC3    C214264   2.753   2.356  11.513 -0.4832  0.6741 -0.4775
    8TMC3    C314265   2.639   2.394  11.451  0.6561 -0.1148  1.1698
    8TMC3    C414266   2.667   2.427  11.719  0.6911  0.0850 -0.5655
    8TMC3    C514267   2.551   2.450  11.659 -0.3188  0.1791  0.0437
    8TMC3    C614268   2.539   2.441  11.526  0.4448 -0.5049  0.3704
    8TMC3     C14269   2.852   2.278  11.724 -0.0672  1.0286 -0.7393
    8TMC3     O14270   2.800   2.246  11.832  0.4641  0.1988  0.0361
    8TMC3     H14271   2.831   2.327  11.444 -0.5950  0.1267 -0.3695
    8TMC3    H114272   2.689   2.449  11.822  2.0685 -0.0982 -0.8204
    8TMC3    H214273   2.444   2.476  11.490  0.9668  1.9245  1.3117
    8TMC3    C714274   2.438   2.398  11.731  1.2023 -0.1297  0.1385
    8TMC3    C814275   2.618   2.366  11.312  0.7474 -0.4719  0.3741
    8TMC3    O114276   2.328   2.395  11.674 -0.1234 -0.6800 -0.1558
    8TMC3    O214277   2.712   2.380  11.238 -0.4494  0.2409  0.3585
    9MPD2     C14278   2.295   2.378  11.128 -0.3686 -0.1054  0.3688
    9MPD2    C114279   2.431   2.358  11.137  0.6863  0.2012  0.1965
    9MPD2    C214280   2.515   2.335  11.025 -0.3290 -0.1102  0.0604
    9MPD2    C314281   2.457   2.339  10.898 -0.7372  0.0835 -0.0230
    9MPD2    C414282   2.320   2.357  10.889 -0.1486 -0.6155  0.6308
    9MPD2    C514283   2.245   2.385  11.000 -0.2026  0.2832  0.2100
    9MPD2     H14284   2.619   2.308  11.032 -0.0138  0.9983 -0.5385
    9MPD2    H114285   2.283   2.377  10.789 -0.8827  0.5357  1.1305
    9MPD2    H214286   2.229   2.411  11.206 -2.8739  1.5099 -2.4316
    9MPD2    H314287   2.137   2.394  10.997 -0.1759  0.8458  1.1130
    9MPD2     N14288   2.525   2.293  10.785  0.3038 -0.6723 -0.3694
    9MPD2    H514289   2.477   2.279  10.697  0.2068 -2.0951 -0.0978
    9MPD2    N114290   2.479   2.364  11.275  0.8167  0.0276  0.1092
    9MPD2    H714291   2.409   2.370  11.348 -1.4394 -1.5164 -1.9680
    1MPD1     C14292   1.444   1.565  15.835  0.1985 -0.4633  0.1634
    1MPD1    C114293   1.572   1.520  15.838 -0.1317 -0.1107  0.0833
    1MPD1    C214294   1.630   1.507  15.714  0.1015 -0.2203  0.3208
    1MPD1    C314295   1.564   1.552  15.598  0.0184 -0.1511  0.0720
    1MPD1    C414296   1.437   1.600  15.605  0.4910  0.1960 -0.4158
    1MPD1    C514297   1.375   1.616  15.724 -0.4721  0.2450  0.5718
    1MPD1     H14298   1.732   1.470  15.707  0.2796  0.4389 -0.5129
    1MPD1    H114299   1.386   1.637  15.517  0.6853  1.4566 -0.0099
    1MPD1    H214300   1.375   1.561  15.919 -0.3228 -0.1229 -0.2511
    1MPD1    H314301   1.281   1.668  15.736 -0.3548  0.1488  1.8622
    1MPD1     N14302   1.613   1.546  15.465  0.1064 -0.8946  0.3105
    1MPD1    H514303   1.551   1.579  15.392 -1.1774 -1.3077  1.2050
    1MPD1    N114304   1.618   1.461  15.960 -0.8000  0.0686  0.2995
    1MPD1    H614305   1.720   1.454  15.966 -0.5213  1.8247 -2.4412
    1MPD1    H714306   1.589   1.510  16.044  0.0814 -0.0889  0.6949
    2TMC2    C114307   1.656   1.575  15.071 -0.0129  0.2832 -0.3640
    2TMC2    C214308   1.718   1.475  15.003 -0.9814 -0.9337  0.4445
    2TMC2    C314309   1.790   1.386  15.075 -0.2640  0.5397 -0.2076
    2TMC2    C414310   1.681   1.595  15.205  0.2231  0.3454  0.0220
    2TMC2    C514311   1.747   1.502  15.282  0.2814  0.9115 -0.5444
    2TMC2    C614312   1.795   1.392  15.213  0.3091  0.1844 -0.5611
    2TMC2     C14313   1.559   1.657  15.000 -0.3959  0.1947  0.2648
    2TMC2     O14314   1.573   1.647  14.881  0.0375 -0.3168 -0.2180
    2TMC2     H14315   1.715   1.466  14.895 -0.7866  2.6623  0.1256
    2TMC2    H114316   1.643   1.688  15.244 -1.8864 -1.0402  1.2894
    2TMC2    H214317   1.841   1.302  15.254  0.0351 -0.5387 -1.8484
    2TMC2    C714318   1.733   1.493  15.423 -0.3567 -0.7178 -0.9599
    2TMC2    C814319   1.856   1.283  15.001  0.4404 -0.4006 -0.3354
    2TMC2    O114320   1.801   1.408  15.476 -0.1224 -0.5610  0.5754
    2TMC2    O214321   1.954   1.232  15.048 -0.1903  0.3261 -0.1084
    2TMC2    O514322   1.771   1.232  14.908  0.0066  0.1596  0.0789
    2TMC2    H514323   1.678   1.264  14.918  0.4701  1.3649  0.6269
    3MPD1     C14324   1.121   1.901  14.936 -0.6828  0.2637  0.4074
    3MPD1    C114325   1.123   1.868  15.069 -0.1841  0.6975 -0.4909
    3MPD1    C214326   1.240   1.818  15.112  0.4217  0.4757  0.1825
    3MPD1    C314327   1.342   1.773  15.027 -0.1768  0.1921  0.3498
    3MPD1    C414328   1.327   1.800  14.887 -0.1531 -0.5201  0.1652
    3MPD1    C514329   1.215   1.866  14.841 -0.1633  0.5000 -0.0209
    3MPD1     H14330   1.249   1.799  15.218  0.4517  4.0152  0.8282
    3MPD1    H114331   1.407   1.780  14.816 -0.7463 -3.8376  0.4509
    3MPD1    H214332   1.037   1.960  14.900  0.0251  0.5132 -0.8605
    3MPD1    H314333   1.226   1.900  14.738  0.6531 -2.4608 -0.9106
    3MPD1     N14334   1.459   1.716  15.076 -0.4934 -0.1206 -0.9083
    3MPD1    H514335   1.454   1.683  15.172 -0.0409  0.8423 -0.5573
    3MPD1    N114336   1.022   1.908  15.158  0.7219  0.3375 -0.4855
    3MPD1    H614337   1.037   1.998  15.204 -0.0435 -1.0799  2.5638
    3MPD1    H714338   0.942   1.926  15.098  0.7846  1.8974 -0.0959
    1TMC1    C114339   0.649   4.358  13.899 -0.5514 -0.0657 -0.3372
    1TMC1    C214340   0.560   4.377  13.800 -0.3338 -0.3845  0.3506
    1TMC1    C314341   0.454   4.457  13.821 -0.0589  1.0493 -0.0330
    1TMC1    C414342   0.633   4.415  14.022 -0.6075  0.0009 -0.4920
    1TMC1    C514343   0.537   4.510  14.040 -0.5208  0.5374 -0.0607
    1TMC1    C614344   0.443   4.526  13.935 -0.1255 -0.1069 -0.6771
    1TMC1     C14345   0.748   4.248  13.898 -0.0793 -0.5778  0.3124
    1TMC1     O14346   0.792   4.205  14.004  0.5258  0.3779 -0.2100
    1TMC1     H14347   0.559   4.323  13.706  4.9160  0.0073  0.0417
    1TMC1    H114348   0.695   4.390  14.107 -0.2318  2.7751  0.0476
    1TMC1    H214349   0.367   4.601  13.952 -0.9728 -1.9791  3.9606
    1TMC1    C714350   0.530   4.592  14.155  0.9315  0.2424  0.1512
    1TMC1    C814351   0.337   4.449  13.732  0.6094 -0.4511 -0.7362
    1TMC1    O114352   0.539   4.539  14.263 -0.3916  0.0132 -0.4216
    1TMC1    O214353   0.267   4.550  13.729  0.1057  0.4324 -0.2736
    1TMC1    O314354   0.503   4.722  14.127  0.0326  0.6935 -0.3848
    1TMC1    H314355   0.534   4.732  14.034  3.4055  1.9703  0.8606
    1TMC1    O514356   0.292   4.325  13.761  0.2815 -0.5965 -0.4883
    1TMC1    H514357   0.369   4.266  13.777  1.7668  1.6880  0.7502
    2MPD2     C14358   0.960   4.158  13.621 -0.0830 -0.0837  0.2094
    2MPD2    C114359   0.898   4.141  13.744  0.0596  0.5651 -0.6054
    2MPD2    C214360   0.911   4.023  13.810 -0.4484 -0.6123 -0.0086
    2MPD2    C314361   0.988   3.922  13.759 -0.6276  0.0751  0.3438
    2MPD2    C414362   1.058   3.939  13.641 -1.1500  0.5911  0.1317
    2MPD2    C514363   1.036   4.055  13.578  0.8610  0.1567 -0.0879
    2MPD2     H14364   0.857   4.004  13.902 -0.9051  2.5447  0.3663
    2MPD2    H114365   1.127   3.865  13.602  0.5784  1.6532  1.2205
    2MPD2    H214366   0.946   4.243  13.555 -0.1983 -0.7344 -0.6089
    2MPD2    H314367   1.085   4.083  13.486 -1.1410 -0.2875 -1.2879
    2MPD2     N14368   0.987   3.805  13.830  0.4888 -0.3334 -0.0440
    2MPD2    H514369   0.933   3.806  13.916 -0.3392  3.3132 -0.5958
    2MPD2    N114370   0.809   4.240  13.773  0.3693  0.1649 -0.0166
    2MPD2    H714371   0.789   4.306  13.699 -0.2896  0.5345  0.4921
    3TCq1    O114372   1.185   3.270  14.089 -0.1688  0.0293 -0.1263
    3TCq1    C114373   1.175   3.265  13.958 -0.0654  0.5119  0.5700
    3TCq1    O214374   1.269   3.246  13.882 -0.0113  0.3542  0.1646
    3TCq1    C214375   1.066   3.363  13.941  0.2226 -0.2297  0.2085
    3TCq1    C314376   0.950   3.347  14.012  0.4510 -0.0115  0.4796
    3TCq1    C414377   0.868   3.453  14.014  0.6682  0.3933 -0.1632
    3TCq1    C514378   0.902   3.568  13.947  0.0847 -0.1266 -0.6933
    3TCq1    C614379   1.023   3.578  13.881 -0.0778 -0.6937 -0.1122
    3TCq1    C714380   1.111   3.477  13.882  0.0562 -0.4207  0.2238
    3TCq1    C814381   1.064   3.694  13.804  0.3586  0.3346  0.2263
    3TCq1    O414382   1.149   3.682  13.719  0.4852  0.2809 -0.4532
    3TCq1    C914383   0.744   3.451  14.089 -0.5867 -0.0902  0.0810
    3TCq1    O514384   0.665   3.549  14.063  0.5900 -0.0058 -0.4872
    3TCq1    O614385   0.723   3.355  14.171 -0.3142 -0.1057  0.2226
    3TCq1    H114386   1.113   3.320  14.133 -0.9566 -0.0121 -1.3892
    3TCq1    H214387   0.921   3.262  14.072 -1.3512  0.9833  1.0151
    3TCq1    H314388   0.832   3.650  13.959  0.9529  0.4723  0.2707
    3TCq1    H414389   1.211   3.483  13.841 -0.3372 -0.5787 -0.7628
    1MPD2     C14390   0.006   0.697  14.802  0.5250  1.1604 -0.6277
    1MPD2    C114391   4.656   0.601  14.857  0.3552  0.1069 -0.9881
    1MPD2    C214392   4.713   0.483  14.898 -0.8538 -0.0272 -0.3493
    1MPD2    C314393   0.116   0.472  14.903 -0.5362  0.4284  0.6107
    1MPD2    C414394   0.195   0.572  14.855 -0.5846 -0.1303 -0.4464
    1MPD2    C514395   0.140   0.687  14.809  0.0868 -0.8357  0.3959
    1MPD2     H14396   4.642   0.410  14.935 -1.2875 -1.6467 -4.4659
    1MPD2    H114397   0.303   0.568  14.871 -0.5534  0.2987 -0.5513
    1MPD2    H214398   4.693   0.784  14.759 -0.3735 -0.4749 -2.9308
    1MPD2    H314399   0.196   0.773  14.774  0.9580 -1.9234 -0.8696
    1MPD2     N14400   0.181   0.372  14.969 -0.1792  0.6272  0.0518
    1MPD2    H514401   0.282   0.374  14.960 -0.2030  1.9602  0.1889
    1MPD2    N114402   4.518   0.623  14.857  0.2205  0.2709  0.1912
    1MPD2    H714403   4.483   0.702  14.803 -1.7326 -0.7917 -0.1258
    2TMC3    C114404   4.288   0.567  14.891  0.1237  0.3146 -1.6223
    2TMC3    C214405   4.226   0.451  14.938  0.2552 -0.1872  0.7467
    2TMC3    C314406   4.137   0.393  14.854 -0.8266 -0.1681 -0.3148
    2TMC3    C414407   4.254   0.627  14.773  0.0845  0.6828  0.2541
    2TMC3    C514408   4.160   0.559  14.696 -0.3385  0.0953 -0.5879
    2TMC3    C614409   4.091   0.451  14.737  0.1282  0.3631  0.4350
    2TMC3     C14410   4.428   0.545  14.930  0.6985  0.0163 -0.4533
    2TMC3     O14411   4.443   0.449  15.002  0.0700 -0.3080 -0.2942
    2TMC3     H14412   4.234   0.415  15.040  1.5720 -1.6909  0.1144
    2TMC3    H114413   4.310   0.714  14.739 -0.4433 -0.4249 -3.4223
    2TMC3    H214414   4.020   0.396  14.677 -0.0147 -2.2394  3.0048
    2TMC3    C714415   4.113   0.624  14.581 -0.2753  0.4976  0.0067
    2TMC3    C814416   4.154   0.252  14.838 -0.2335 -0.6861 -0.0049
    2TMC3    O114417   4.018   0.571  14.521 -0.6141  0.3252 -0.5329
    2TMC3    O214418   4.073   0.182  14.779  0.5177 -0.3022  0.3651
    3TCq1    O114419   4.597   1.624  14.288  0.1640  0.3309 -0.0843
    3TCq1    C114420   4.550   1.555  14.394  0.1533  0.4103  0.0056
    3TCq1    O214421   4.604   1.460  14.445 -0.1341 -0.4654  0.0044
    3TCq1    C214422   4.400   1.554  14.390  0.3239 -0.1012 -0.1209
    3TCq1    C314423   4.329   1.677  14.375 -0.1073 -0.6801  0.7640
    3TCq1    C414424   4.192   1.671  14.378  0.2511 -0.4759  0.0487
    3TCq1    C514425   4.125   1.553  14.379 -0.3737  0.2925  0.3843
    3TCq1    C614426   4.204   1.433  14.373  0.0619  0.0157  0.6634
    3TCq1    C714427   4.343   1.435  14.386 -0.2751 -0.3318 -0.2688
    3TCq1    C814428   4.131   1.316  14.333  0.2968 -0.1332  0.0660
    3TCq1    O414429   4.015   1.345  14.301  0.5573 -0.2184 -0.8729
    3TCq1    C914430   4.118   1.791  14.386  0.2482 -0.0850  0.9554
    3TCq1    O514431   4.177   1.892  14.426  0.5169  0.1437  0.1910
    3TCq1    O614432   3.991   1.768  14.373 -0.5199  0.5415 -0.1952
    3TCq1    H114433   4.543   1.695  14.247  2.1524  1.0455 -1.4576
    3TCq1    H214434   4.385   1.769  14.383  0.1440 -0.5423 -2.4029
    3TCq1    H314435   4.019   1.551  14.403 -0.6010  0.5666 -0.5644
    3TCq1    H414436   4.401   1.347  14.361 -0.6356 -1.1756  1.8175
    4MPD2     C14437   4.054   1.031  14.264 -0.5242  0.5594  0.1042
    4MPD2    C114438   4.142   1.064  14.360 -0.0056  0.5614 -0.4072
    4MPD2    C214439   4.185   0.966  14.448 -0.4621 -0.0273 -0.2100
    4MPD2    C314440   4.133   0.838  14.452  0.6797  0.4163  0.6431
    4MPD2    C414441   4.042   0.808  14.351  0.4299  0.0814  0.6654
    4MPD2    C514442   4.002   0.908  14.266 -0.1746  0.2446 -0.0969
    4MPD2     H14443   4.261   0.990  14.521 -1.0935  0.5683  0.2496
    4MPD2    H114444   4.004   0.708  14.335  0.2621  0.3342 -0.5081
    4MPD2    H214445   4.023   1.099  14.186 -0.4488  1.5929  0.9757
    4MPD2    H314446   3.918   0.893  14.199  1.1210 -1.8901 -1.2312
    4MPD2     N14447   4.170   0.748  14.561  0.1091 -0.3221  0.5367
    4MPD2    H514448   4.257   0.778  14.605  0.4326 -1.9955  1.0190
    4MPD2    N114449   4.192   1.199  14.365  0.0428  0.0317  0.8162
    4MPD2    H714450   4.277   1.212  14.418  0.4028  0.5881  0.0982
    5TMC2    C114451   0.161   4.684  15.019  0.2956  0.0703  0.2022
    5TMC2    C214452   0.155   4.639  15.146  0.0737 -0.1956 -0.0270
    5TMC2    C314453   0.180   0.001  15.242  0.0675 -0.9091  0.1760
    5TMC2    C414454   0.189   0.077  14.984 -0.7095 -0.3933 -0.3217
    5TMC2    C514455   0.221   0.176  15.077  0.1993  0.2426 -0.4056
    5TMC2    C614456   0.208   0.133  15.209 -0.3716 -0.6552  0.3985
    5TMC2     C14457   0.052   4.641  14.934 -0.4799 -0.3090 -0.5366
    5TMC2     O14458   0.060   4.540  14.866  0.2058 -0.9978  0.3979
    5TMC2     H14459   0.145   4.532  15.158  0.8451 -0.5319 -2.3971
    5TMC2    H114460   0.177   0.102  14.880  0.6578 -0.0130 -0.3928
    5TMC2    H214461   0.233   0.198  15.292 -0.4016 -1.3899  0.9710
    5TMC2    C714462   0.126   0.276  15.048 -0.2654  0.3577  0.5735
    5TMC2    C814463   0.198   4.699  15.382 -0.3892 -0.3379 -0.2060
    5TMC2    O114464   0.006   0.249  15.065 -0.7228  0.3983  0.1286
    5TMC2    O214465   0.277   0.014  15.459 -0.4021  0.4683  0.2595
    5TMC2    O514466   0.133   4.585  15.401 -0.2187  0.5544 -0.9776
    5TMC2    H514467   0.058   4.573  15.337 -1.0238  0.7004 -0.0593
    6MPD2     C14468   4.300   4.733  14.789 -0.1360  0.1017 -0.2871
    6MPD2    C114469   4.342   0.100  14.868 -0.0813  0.2691 -0.1583
    6MPD2    C214470   4.468   0.092  14.928 -0.6463  0.1879 -0.3675
    6MPD2    C314471   4.557   4.731  14.891 -0.4093  0.1023 -0.0931
    6MPD2    C414472   4.518   4.633  14.802  0.4847  0.4270  0.6953
    6MPD2    C514473   4.386   4.632  14.757 -0.1954  0.0109  1.1276
    6MPD2     H14474   4.505   0.167  14.996 -0.6196 -1.4397  1.4284
    6MPD2    H114475   4.584   4.552  14.770  0.7570  1.6865 -1.8850
    6MPD2    H214476   4.208   0.007  14.733 -0.2843  0.0809 -0.0493
    6MPD2    H314477   4.357   4.556  14.685 -1.3564  1.3533  0.1794
    6MPD2     N14478   4.683   4.735  14.963 -0.4176 -0.4859  0.3117
    6MPD2    H514479   4.702   0.090  15.005  0.7078  0.5018 -2.3240
    6MPD2    N114480   4.277   0.215  14.885  1.2978 -0.5076 -0.3921
    6MPD2    H714481   4.326   0.292  14.929  1.4768  0.2867 -1.9775
  945NH3     N114482   0.568   1.278  13.588 -0.2583  0.5670 -0.1790
  945NH3     H214483   0.661   1.238  13.581 -0.7269 -0.9592  2.1872
  945NH3     H314484   0.543   1.299  13.684  0.1880  1.4166 -0.2535
  945NH3     H414485   0.571   1.371  13.548 -2.2616  0.6583 -0.1449
  946SOD     NA14486   3.444   4.564   4.691 -0.0268  0.1413 -0.0430
  947SOD     NA14487   3.782   0.076  13.063 -0.2723  0.1050  0.6406
  948SOD     NA14488   3.986   0.101   4.856 -0.2527 -0.2988 -0.0587
  949SOD     NA14489   4.544   0.684  10.425  0.0458 -0.1587 -0.2884
  950SOD     NA14490   4.421   3.333  13.006 -0.3198  0.3724 -0.0757
  951SOD     NA14491   2.302   4.026  10.009 -0.5814  0.3192 -0.1135
  952SOD     NA14492   0.428   4.097  14.285  0.0005 -0.0006  0.1382
  953SOD     NA14493   1.971   1.025  15.164  0.2993  0.5769 -0.0080
  954SOL     OW14494   2.846   1.846   8.082 -0.9169 -0.4015 -0.7590
  954SOL    HW114495   2.827   1.886   8.167  1.9600  0.0706 -0.3500
  954SOL    HW214496   2.940   1.858   8.073 -0.8589  1.1453  1.7795
  955SOL     OW14497   1.529   4.601  13.168 -0.4090  0.1931  0.5784
  955SOL    HW114498   1.566   4.513  13.172 -1.0203  0.0311  2.6052
  955SOL    HW214499   1.469   4.602  13.242 -1.0519  1.0135  0.0402
  956SOL     OW14500   0.046   2.119  15.325  0.0351  0.0576  0.2802
  956SOL    HW114501   0.017   2.203  15.360  0.3105 -0.5148  1.9030
  956SOL    HW214502   4.721   2.060  15.371 -0.8139  1.1695  0.6207
  957SOL     OW14503   2.653   1.877  13.338  0.4338  0.4712  0.2349
  957SOL    HW114504   2.561   1.857  13.320 -0.0640  2.1117  0.9484
  957SOL    HW214505   2.650   1.951  13.400  1.5597  1.0681 -0.4371
  958SOL     OW14506   2.177   2.111   6.294 -0.1816 -0.5616  0.1096
  958SOL    HW114507   2.156   2.140   6.205  2.8265  0.7240 -0.1908
  958SOL    HW214508   2.122   2.169   6.346 -0.3228 -0.1017 -0.5482
  959SOL     OW14509   2.514   0.445   6.516  0.5040  0.5276  0.2614
  959SOL    HW114510   2.461   0.516   6.480 -2.8994 -2.9508 -1.6536
  959SOL    HW214511   2.450   0.382   6.551  1.6825 -0.2451  1.0506
  960SOL     OW14512   1.484   1.428  17.140 -0.3501 -0.0269 -0.0200
  960SOL    HW114513   1.579   1.427  17.128 -0.5031  0.1480 -1.2641
  960SOL    HW214514   1.483   1.461  17.230 -0.5411  0.0158 -0.0377
  961SOL     OW14515   1.110   3.496  14.677 -0.1865 -0.2852  0.3384
  961SOL    HW114516   1.064   3.547  14.744  0.7308  0.3673  0.4772
  961SOL    HW214517   1.129   3.569  14.618 -0.2681 -0.8798 -0.4176
  962SOL     OW14518   0.581   3.780   5.561  0.0008  0.1246 -0.1031
  962SOL    HW114519   0.550   3.741   5.643  1.4333  2.6971  1.6766
  962SOL    HW214520   0.636   3.715   5.518 -2.4416  0.6383 -4.0303
  963SOL     OW14521   4.246   4.040  16.490 -0.8744  1.0068  0.2646
  963SOL    HW114522   4.216   3.986  16.563  1.8587  1.4474  1.7102
  963SOL    HW214523   4.170   4.087  16.455  0.0185  1.3538 -1.1463
  964SOL     OW14524   2.022   0.649   1.144  0.1533 -0.0565 -0.2238
  964SOL    HW114525   1.950   0.684   1.093 -2.8111 -2.8406  2.0784
  964SOL    HW214526   2.021   0.559   1.113 -0.8363 -0.2392  0.3503
  965SOL     OW14527   4.716   4.337  13.249  0.2236  0.2773  0.3049
  965SOL    HW114528   0.014   4.282  13.178 -2.3140  1.3789 -1.7421
  965SOL    HW214529   4.721   4.428  13.220  2.6638  0.3438  0.9069
  966SOL     OW14530   3.811   3.965   5.717  0.4017  0.1916 -0.0464
  966SOL    HW114531   3.851   3.976   5.803 -1.9069  1.7274  0.8473
  966SOL    HW214532   3.838   3.875   5.701 -0.7152  0.1719 -1.7549
  967SOL     OW14533   0.511   0.803   4.769  0.1385  0.0130 -0.1465
  967SOL    HW114534   0.424   0.839   4.789 -0.5722 -1.3193 -0.8176
  967SOL    HW214535   0.547   0.813   4.857  4.1758  0.2940 -1.8501
  968SOL     OW14536   0.955   1.066   4.817  0.4422  0.3269 -0.5213
  968SOL    HW114537   0.901   1.137   4.851 -1.3148 -0.9862 -0.5743
  968SOL    HW214538   0.894   1.022   4.757  0.3733 -1.4737  0.8588
  969SOL     OW14539   1.960   0.845   1.565 -0.0714 -0.5573  0.2957
  969SOL    HW114540   2.050   0.813   1.574  0.2575 -0.2712 -1.8901
  969SOL    HW214541   1.935   0.872   1.653 -0.3414  2.0783 -0.5782
  970SOL     OW14542   1.314   3.230   5.254 -0.0005  0.6527  0.0131
  970SOL    HW114543   1.319   3.220   5.159  4.3271  2.2475  0.0698
  970SOL    HW214544   1.393   3.184   5.283 -1.1582 -0.4145  1.4825
  971SOL     OW14545   3.105   0.918   8.273  0.1315 -0.5171 -0.4830
  971SOL    HW114546   3.022   0.943   8.233 -1.0377 -1.2879  1.4569
  971SOL    HW214547   3.076   0.852   8.337  1.8449  1.0513  1.8933
  972SOL     OW14548   1.916   0.672   3.766  0.1703 -0.0177 -0.3578
  972SOL    HW114549   1.849   0.659   3.699  1.4185 -0.5298 -1.4960
  972SOL    HW214550   1.996   0.647   3.720  0.9342  0.3760  0.7557
  973SOL     OW14551   2.396   3.555   3.257 -0.1098 -0.0176  0.2160
  973SOL    HW114552   2.417   3.519   3.343 -1.7772 -0.4936  0.4310
  973SOL    HW214553   2.314   3.596   3.285 -0.5062 -0.5835 -0.1203
  974SOL     OW14554   0.438   2.742   6.626 -0.7454 -0.0374  0.4173
  974SOL    HW114555   0.479   2.812   6.678  0.3948 -2.6348  3.0318
  974SOL    HW214556   0.357   2.784   6.598 -0.5203 -0.6420 -1.1544
  975SOL     OW14557   1.058   2.898   8.880  0.0698 -0.4687  0.0090
  975SOL    HW114558   1.058   2.812   8.838 -0.0626 -0.4492 -0.0321
  975SOL    HW214559   1.070   2.870   8.971  0.4280  0.4483  0.2486
  976SOL     OW14560   4.039   0.977   1.023 -0.3621  0.4913  0.6654
  976SOL    HW114561   4.035   0.951   1.115 -1.4944  2.1024  1.0773
  976SOL    HW214562   4.090   0.910   0.977 -4.2773 -0.7243 -1.9342
  977SOL     OW14563   3.678   2.552   9.026 -0.0006 -0.2710 -0.7061
  977SOL    HW114564   3.759   2.594   8.997  0.0087  0.6072  0.6033
  977SOL    HW214565   3.640   2.534   8.940 -1.7904  1.0911 -0.1958
  978SOL     OW14566   1.939   4.295  11.455 -0.0276  0.5448 -1.2970
  978SOL    HW114567   1.950   4.239  11.378 -0.2753  0.8796 -1.5700
  978SOL    HW214568   1.979   4.248  11.529 -0.1240  1.1803 -0.8452
  979SOL     OW14569   3.065   0.775   6.391  0.3231 -0.2918  0.7047
  979SOL    HW114570   2.990   0.832   6.407  1.4433  1.1762  0.6638
  979SOL    HW214571   3.137   0.834   6.372 -1.6116  1.3918 -1.4235
  980SOL     OW14572   3.554   4.638   7.026 -0.3640 -0.3405 -0.0934
  980SOL    HW114573   3.571   4.722   6.985  1.2112 -0.3072  0.6467
  980SOL    HW214574   3.600   4.573   6.973  0.1375  0.1391 -0.2359
  981SOL     OW14575   3.585   0.515   0.730  0.0528  0.6163  0.3064
  981SOL    HW114576   3.577   0.432   0.776 -2.5105 -0.1471 -1.5119
  981SOL    HW214577   3.574   0.572   0.806  1.0783  1.1710  0.0489
  982SOL     OW14578   3.603   2.063   8.643  0.0173  0.0853  0.6078
  982SOL    HW114579   3.525   2.012   8.663 -0.0716 -0.1608 -0.3955
  982SOL    HW214580   3.571   2.117   8.571 -0.4367  2.9260  2.9510
  983SOL     OW14581   1.455   3.369  15.872 -0.2508 -0.4662 -0.3011
  983SOL    HW114582   1.534   3.413  15.904 -0.6624  1.3434 -1.7448
  983SOL    HW214583   1.487   3.325  15.794 -1.9088 -2.2681  0.0266
  984SOL     OW14584   0.072   0.854   5.074  0.1686 -0.3181  0.1044
  984SOL    HW114585   0.108   0.894   5.153 -3.3759  2.0964  0.4984
  984SOL    HW214586   4.720   0.892   5.061  0.2865  0.5973  1.9869
  985SOL     OW14587   1.620   0.624   3.734 -0.2475 -0.2752 -0.4001
  985SOL    HW114588   1.656   0.595   3.650  2.9660 -0.0490  0.9169
  985SOL    HW214589   1.635   0.545   3.786  0.3663  0.6396  0.8049
  986SOL     OW14590   1.555   1.266   3.943 -0.2598  0.3510  0.6012
  986SOL    HW114591   1.650   1.271   3.949 -0.1836 -0.0487 -0.2794
  986SOL    HW214592   1.534   1.241   4.033 -1.5656  2.2671  0.8392
  987SOL     OW14593   0.158   3.083   8.471  0.6737  0.5644  0.5689
  987SOL    HW114594   0.098   3.153   8.497  0.7932  0.3997  1.2897
  987SOL    HW214595   0.098   3.010   8.455  0.3914  1.1252 -0.9094
  988SOL     OW14596   4.149   1.692   2.566  0.5224  0.3241  0.1339
  988SOL    HW114597   4.130   1.707   2.473 -1.6471 -0.8271  0.4019
  988SOL    HW214598   4.124   1.777   2.603 -3.0653 -1.2201  1.1809
  989SOL     OW14599   1.902   0.881   5.983 -0.3744 -0.1186 -0.0122
  989SOL    HW114600   1.819   0.879   6.031  0.5471 -0.2138  1.5723
  989SOL    HW214601   1.963   0.869   6.056  0.3880 -0.9240 -0.7756
  990SOL     OW14602   4.194   4.299   7.848  0.1839  0.6269  0.9689
  990SOL    HW114603   4.137   4.270   7.920 -0.2080  2.2160  1.2981
  990SOL    HW214604   4.164   4.386   7.821 -1.1136 -0.0788  0.1825
  991SOL     OW14605   1.786   3.183   4.329  0.3327  0.2032 -0.3754
  991SOL    HW114606   1.869   3.216   4.294  0.1466 -0.0363 -1.0408
  991SOL    HW214607   1.788   3.096   4.288  0.1439  0.0408 -0.0385
  992SOL     OW14608   1.849   3.409   7.077  0.2661 -0.2031  0.1564
  992SOL    HW114609   1.839   3.379   6.987 -1.3128  0.6515  0.0526
  992SOL    HW214610   1.760   3.433   7.101 -0.5379 -1.5704 -1.5119
  993SOL     OW14611   3.742   2.184   7.425 -0.4561 -0.0640 -0.7257
  993SOL    HW114612   3.787   2.266   7.401 -3.2803  2.1330  1.4774
  993SOL    HW214613   3.654   2.221   7.428  0.1683  1.3326  0.7454
  994SOL     OW14614   0.304   0.560   1.050  0.4931  0.4472 -1.0998
  994SOL    HW114615   0.374   0.499   1.071 -0.1367  0.0728 -0.0779
  994SOL    HW214616   0.286   0.541   0.958  2.3463 -3.0535 -0.7394
  995SOL     OW14617   4.220   0.675   5.317 -0.1224  0.1665 -0.5111
  995SOL    HW114618   4.283   0.741   5.345 -2.7430  0.9301  3.6899
  995SOL    HW214619   4.240   0.659   5.225  4.3222  2.7769 -0.0009
  996SOL     OW14620   0.977   0.964  14.189  0.2136 -0.3727 -0.0022
  996SOL    HW114621   0.896   1.015  14.183  0.6417  0.4292  1.0443
  996SOL    HW214622   1.012   0.966  14.100 -3.0286  0.6717 -1.2480
  997SOL     OW14623   3.472   0.160   9.133  0.0015  0.0416 -0.5081
  997SOL    HW114624   3.400   0.220   9.154  0.0411  0.0656 -0.4422
  997SOL    HW214625   3.538   0.224   9.106 -0.9014  0.3213 -2.0846
  998SOL     OW14626   3.984   4.666  14.815 -0.6241  0.1220 -0.3304
  998SOL    HW114627   3.998   4.660  14.910  0.0133 -1.7141 -0.5438
  998SOL    HW214628   4.001   0.024  14.800 -1.0473  0.0259 -1.3541
  999SOL     OW14629   0.044   3.508   5.773 -0.0953 -0.3046  0.0976
  999SOL    HW114630   4.728   3.572   5.821  1.6505 -1.9690  4.1252
  999SOL    HW214631   0.121   3.499   5.829  1.0310  0.2012 -1.3460
 1000SOL     OW14632   1.312   0.611  13.469 -0.2297 -0.3030  0.3408
 1000SOL    HW114633   1.245   0.675  13.445 -1.7801 -1.1180  2.4581
 1000SOL    HW214634   1.285   0.535  13.417  1.0887 -0.4054 -0.1968
 1001SOL     OW14635   0.815   2.730   1.952  0.3609 -0.3850  0.6178
 1001SOL    HW114636   0.883   2.753   2.015  0.2502 -0.9088  0.9240
 1001SOL    HW214637   0.860   2.694   1.875 -1.5629 -0.5634 -0.4289
 1002SOL     OW14638   0.059   4.523   1.794  0.0591 -0.9654  0.4156
 1002SOL    HW114639   4.706   4.529   1.758 -0.4275  0.9961  1.9114
 1002SOL    HW214640   0.104   4.544   1.712 -0.4659 -1.8270 -0.0874
 1003SOL     OW14641   1.784   2.548   5.362 -0.0336  0.0224  0.1200
 1003SOL    HW114642   1.857   2.606   5.380  0.1277 -0.2790  0.4357
 1003SOL    HW214643   1.825   2.466   5.391 -1.3457 -0.1567  1.4852
 1004SOL     OW14644   1.867   3.119  13.159 -0.0350  0.1384 -0.2311
 1004SOL    HW114645   1.773   3.132  13.144  0.0471 -0.9068 -1.6365
 1004SOL    HW214646   1.857   3.122  13.254  1.1059 -0.2731 -0.1043
 1005SOL     OW14647   2.358   1.869  12.696  0.3544  0.3964 -0.2933
 1005SOL    HW114648   2.297   1.847  12.767  0.1266 -0.0579 -0.6297
 1005SOL    HW214649   2.296   1.875  12.623  0.0181 -0.8190 -0.0982
 1006SOL     OW14650   4.657   4.306   8.086 -0.3749 -0.0359 -0.1991
 1006SOL    HW114651   4.634   4.389   8.128 -1.3855 -0.6846  0.5280
 1006SOL    HW214652   0.009   4.321   8.049  0.0404  0.6140  1.0377
 1007SOL     OW14653   2.972   1.557   4.961 -0.9170 -0.0381  0.3395
 1007SOL    HW114654   2.992   1.479   5.013  1.4654 -1.2255 -2.3572
 1007SOL    HW214655   3.015   1.625   5.011 -0.1439  0.0464 -0.4457
 1008SOL     OW14656   2.933   3.229   3.544 -0.1419  0.0406 -0.0161
 1008SOL    HW114657   2.974   3.314   3.530  2.3750 -1.3277 -0.9425
 1008SOL    HW214658   2.931   3.232   3.639 -0.3186  0.2746 -0.0270
 1009SOL     OW14659   3.280   1.666   5.224  0.6664  0.2477  0.2515
 1009SOL    HW114660   3.275   1.581   5.267 -2.0893  0.6747  0.8101
 1009SOL    HW214661   3.188   1.692   5.225  0.1295 -1.5953  0.1201
 1010SOL     OW14662   1.614   2.653   8.877  0.4618  0.6680 -0.0870
 1010SOL    HW114663   1.675   2.701   8.934  0.0478 -0.6101  1.4468
 1010SOL    HW214664   1.553   2.615   8.941  0.9660  0.7359  0.4367
 1011SOL     OW14665   1.118   1.310  17.254  0.3669  0.7962  0.3109
 1011SOL    HW114666   1.031   1.346  17.272 -0.0876  0.2298 -0.7645
 1011SOL    HW214667   1.171   1.390  17.252  2.3031 -0.5124 -0.1548
 1012SOL     OW14668   1.774   0.731  17.686  0.2692 -0.4369  0.2348
 1012SOL    HW114669   1.697   0.683  17.716  0.3279 -0.8871 -0.3380
 1012SOL    HW214670   1.765   0.718  17.592  0.2442 -1.4637  0.3778
 1013SOL     OW14671   3.692   3.578   8.362  0.0959  0.1094 -0.0030
 1013SOL    HW114672   3.628   3.615   8.423  0.5522 -1.2325  1.2837
 1013SOL    HW214673   3.708   3.649   8.300  2.2809 -2.5070 -2.4440
 1014SOL     OW14674   2.834   0.900   1.994  0.1145  0.0506  0.5346
 1014SOL    HW114675   2.776   0.895   1.918  1.2269 -1.9244 -0.1787
 1014SOL    HW214676   2.922   0.906   1.956 -0.0231  0.9763  0.3687
 1015SOL     OW14677   0.997   2.706   8.189  0.2254 -0.2699  0.1765
 1015SOL    HW114678   1.056   2.759   8.242 -0.0613  2.3715 -2.1598
 1015SOL    HW214679   0.987   2.761   8.112  0.7516  0.3402  0.5457
 1016SOL     OW14680   3.861   2.100   3.471  0.4248 -0.7728  0.0160
 1016SOL    HW114681   3.922   2.171   3.456  0.8169 -1.2404 -0.5987
 1016SOL    HW214682   3.819   2.127   3.552  0.1816 -2.4245  0.4492
 1017SOL     OW14683   0.612   1.944   6.612 -0.0685  0.4143  0.0356
 1017SOL    HW114684   0.645   1.925   6.524  1.8467 -1.3775  1.1487
 1017SOL    HW214685   0.601   2.038   6.602 -0.5134  0.0157 -3.1960
 1018SOL     OW14686   3.494   3.593  13.684  0.4580  0.7597  0.3893
 1018SOL    HW114687   3.471   3.647  13.608 -2.0826  1.6120  1.7424
 1018SOL    HW214688   3.544   3.648  13.744 -2.9667  2.3322  1.7822
 1019SOL     OW14689   2.498   1.843   5.605 -0.7712 -0.0745 -0.1889
 1019SOL    HW114690   2.486   1.807   5.693  0.1337  1.4931  0.5628
 1019SOL    HW214691   2.485   1.937   5.614  0.8799  0.1263  0.1087
 1020SOL     OW14692   1.738   3.503   7.844  0.1785 -0.3277 -0.5743
 1020SOL    HW114693   1.815   3.461   7.805  2.3793  0.1120  3.2979
 1020SOL    HW214694   1.704   3.434   7.900 -1.1771  0.4298 -0.4739
 1021SOL     OW14695   0.603   2.696   5.373  0.0021 -0.3021 -0.1030
 1021SOL    HW114696   0.631   2.605   5.374 -0.1272 -0.3421 -0.0491
 1021SOL    HW214697   0.689   2.737   5.368 -1.0297  2.1103  1.7315
 1022SOL     OW14698   3.676   1.294   2.087 -0.2009  0.0841 -0.1993
 1022SOL    HW114699   3.648   1.362   2.149  1.2255  0.0793  0.4285
 1022SOL    HW214700   3.684   1.343   2.004  0.9100 -1.7455 -1.1620
 1023SOL     OW14701   0.426   0.733   0.794 -0.3234  0.7586 -0.0759
 1023SOL    HW114702   0.347   0.681   0.777  0.8647 -1.1496  0.1936
 1023SOL    HW214703   0.488   0.682   0.742  0.5422  1.5957  0.1453
 1024SOL     OW14704   1.080   1.202   2.743  0.6045  0.4052 -0.4819
 1024SOL    HW114705   1.161   1.198   2.692  0.5452  2.2286 -0.7182
 1024SOL    HW214706   1.087   1.127   2.801  0.5514  0.9614  0.2461
 1025SOL     OW14707   0.617   2.426   9.587 -0.2710  0.3661 -0.5202
 1025SOL    HW114708   0.655   2.488   9.649 -1.3592 -1.2852  1.7936
 1025SOL    HW214709   0.692   2.397   9.535 -1.5527 -1.4362 -1.3661
 1026SOL     OW14710   4.228   0.825  13.166  0.4277  0.8391  0.1419
 1026SOL    HW114711   4.305   0.881  13.163  0.3686  0.9418  0.5227
 1026SOL    HW214712   4.250   0.791  13.253  2.3840  2.4259  0.2619
 1027SOL     OW14713   0.877   0.993  11.327 -0.1006 -0.3844  0.4277
 1027SOL    HW114714   0.818   1.061  11.357  0.9275  0.7872 -0.1731
 1027SOL    HW214715   0.808   0.928  11.336 -0.9479  0.6829  1.5295
 1028SOL     OW14716   3.218   0.892   3.779 -0.4398 -0.2183  0.1266
 1028SOL    HW114717   3.209   0.987   3.779 -1.4284 -0.3254 -1.8086
 1028SOL    HW214718   3.269   0.873   3.858  0.4741  0.1397 -0.3735
 1029SOL     OW14719   2.546   2.677   6.078 -0.0534 -0.0554  0.1426
 1029SOL    HW114720   2.525   2.615   6.009 -1.1540  2.6988 -1.9766
 1029SOL    HW214721   2.637   2.701   6.059 -0.0540  0.9703  1.4014
 1030SOL     OW14722   1.244   0.812  17.501 -0.1225 -0.3592 -0.2189
 1030SOL    HW114723   1.187   0.759  17.556 -1.0548  1.2125  0.3468
 1030SOL    HW214724   1.317   0.754  17.480 -0.7376 -1.4347  0.6280
 1031SOL     OW14725   2.863   1.818   7.549 -0.1046  0.0702 -0.0862
 1031SOL    HW114726   2.876   1.731   7.585  0.8645  1.2915  2.5105
 1031SOL    HW214727   2.858   1.804   7.454  0.2850  2.6550 -0.5004
 1032SOL     OW14728   0.980   2.406  10.441 -0.3800  0.3533  0.1943
 1032SOL    HW114729   0.936   2.322  10.448  1.0553 -0.3991  0.1655
 1032SOL    HW214730   0.957   2.451  10.522  0.6204  0.6513  0.3055
 1033SOL     OW14731   4.587   3.972   8.732 -0.4721  0.3122  0.6274
 1033SOL    HW114732   4.610   3.967   8.825 -1.0610  0.2398  0.7666
 1033SOL    HW214733   4.497   3.939   8.736 -0.5999  0.4580 -1.0189
 1034SOL     OW14734   3.799   4.291  12.551  0.5823 -0.3754  0.5087
 1034SOL    HW114735   3.816   4.198  12.569 -0.2962 -0.5592  0.4144
 1034SOL    HW214736   3.856   4.324  12.620 -1.8182  1.6202  1.5104
 1035SOL     OW14737   2.178   1.274   5.608 -0.0631  0.4185  0.0238
 1035SOL    HW114738   2.218   1.357   5.633 -2.0864  1.0392  1.1975
 1035SOL    HW214739   2.155   1.285   5.516 -0.3056 -3.8680 -0.4423
 1036SOL     OW14740   1.390   2.209   2.927  0.0913 -0.4754 -0.6320
 1036SOL    HW114741   1.442   2.206   3.008 -2.0759 -0.7204  0.7558
 1036SOL    HW214742   1.445   2.249   2.860 -0.0929  1.2153  0.2250
 1037SOL     OW14743   1.159   3.572   3.024  0.0341  0.4413 -0.3207
 1037SOL    HW114744   1.206   3.568   3.107 -1.0416 -0.1876  0.2736
 1037SOL    HW214745   1.217   3.621   2.966  1.9923 -1.9612 -0.4185
 1038SOL     OW14746   0.442   4.090   9.182  0.2273 -0.6739 -0.4699
 1038SOL    HW114747   0.472   4.102   9.091  1.4336 -3.7763 -0.4669
 1038SOL    HW214748   0.488   4.008   9.196  2.4127  0.6343  0.0045
 1039SOL     OW14749   3.765   2.156   6.568 -0.5214 -0.2821  0.0620
 1039SOL    HW114750   3.768   2.231   6.509  1.4353 -0.1632  0.3096
 1039SOL    HW214751   3.857   2.129   6.561  0.2647  2.6587 -1.0265
 1040SOL     OW14752   2.155   3.967   8.478  0.3641  0.6519 -0.0320
 1040SOL    HW114753   2.156   3.899   8.410 -1.6180  1.8271 -1.2508
 1040SOL    HW214754   2.103   3.920   8.544  1.7505 -0.4826  0.2549
 1041SOL     OW14755   1.277   2.722   6.823 -0.3877  0.1523  0.5292
 1041SOL    HW114756   1.287   2.735   6.728  0.4780 -1.2470  0.4266
 1041SOL    HW214757   1.182   2.712   6.826 -0.4593  0.5985 -0.1770
 1042SOL     OW14758   0.877   4.536  16.310  0.3087 -0.3484 -0.7557
 1042SOL    HW114759   0.924   4.548  16.392  1.8068 -1.2218 -1.5038
 1042SOL    HW214760   0.793   4.495  16.331  1.0973 -0.9983  1.0911
 1043SOL     OW14761   3.126   2.126   2.928 -0.1178  0.3040  0.1732
 1043SOL    HW114762   3.033   2.147   2.936 -0.4311 -1.6888  1.8806
 1043SOL    HW214763   3.162   2.202   2.882  0.7366 -0.9790 -1.2685
 1044SOL     OW14764   0.774   1.631  12.825 -0.0995 -0.3312 -0.1459
 1044SOL    HW114765   0.789   1.705  12.884 -1.7269 -0.0561 -0.0801
 1044SOL    HW214766   0.686   1.596  12.841  0.0595 -0.3468  0.6657
 1045SOL     OW14767   0.278   1.662   3.113  0.2650  0.0894  0.3859
 1045SOL    HW114768   0.334   1.680   3.189  1.7268  0.4320 -0.7681
 1045SOL    HW214769   0.215   1.604   3.154  1.1227 -1.9917 -1.2617
 1046SOL     OW14770   0.193   4.361  13.425 -0.0829  0.0472 -0.0792
 1046SOL    HW114771   0.179   4.452  13.452  1.9075  0.2572  0.2433
 1046SOL    HW214772   0.144   4.360  13.342  1.4853  0.5537 -1.0134
 1047SOL     OW14773   4.158   3.739   1.815  0.0499 -0.3472  0.0613
 1047SOL    HW114774   4.142   3.717   1.907 -2.2623 -1.8291 -0.7015
 1047SOL    HW214775   4.213   3.664   1.795 -0.5072 -0.9670  0.8700
 1048SOL     OW14776   0.980   3.754   8.271  0.2124 -0.5190 -0.4054
 1048SOL    HW114777   1.002   3.846   8.252 -1.5750 -0.1540 -0.7119
 1048SOL    HW214778   1.046   3.710   8.217  0.2762 -0.0589 -0.7081
 1049SOL     OW14779   1.242   0.987   8.314 -0.3955  0.1966 -0.1748
 1049SOL    HW114780   1.249   0.907   8.365  2.1924  0.8849  0.5703
 1049SOL    HW214781   1.257   1.066   8.367  1.8789 -0.8032  0.6820
 1050SOL     OW14782   4.357   3.857   8.815  0.1078  0.4505 -0.6556
 1050SOL    HW114783   4.317   3.773   8.794  2.9288 -1.0185 -0.1685
 1050SOL    HW214784   4.401   3.834   8.897  2.6545  0.1222 -2.0908
 1051SOL     OW14785   3.442   4.026   6.467  0.0907  0.0910  0.0191
 1051SOL    HW114786   3.443   3.957   6.402 -0.3704 -0.5555  0.6998
 1051SOL    HW214787   3.431   4.094   6.400  2.4502  1.1322  0.6775
 1052SOL     OW14788   0.823   0.176   5.366 -0.3251 -0.0141 -0.1355
 1052SOL    HW114789   0.751   0.121   5.335 -1.0435  1.4663 -1.1060
 1052SOL    HW214790   0.847   0.131   5.447 -1.2740 -0.1274  0.0790
 1053SOL     OW14791   1.745   4.237   7.312 -0.2596  0.2462 -0.4449
 1053SOL    HW114792   1.809   4.284   7.258 -0.4759  0.0209 -0.8962
 1053SOL    HW214793   1.762   4.270   7.400 -0.4167 -2.2039  0.4840
 1054SOL     OW14794   0.284   1.526   7.722  0.4350  0.9138  0.0738
 1054SOL    HW114795   0.297   1.538   7.628 -1.0738 -0.8020 -0.3607
 1054SOL    HW214796   0.189   1.526   7.735  0.5148  0.8667  0.6720
 1055SOL     OW14797   4.174   2.051   1.964 -0.1931 -0.0891  0.0927
 1055SOL    HW114798   4.207   2.036   2.053  0.8183  0.5637 -0.1709
 1055SOL    HW214799   4.226   1.982   1.924 -2.5339 -0.3531 -2.4412
 1056SOL     OW14800   2.819   2.150  17.139  0.1339 -0.5367 -0.3028
 1056SOL    HW114801   2.762   2.146  17.063 -1.6821 -0.1891  1.0563
 1056SOL    HW214802   2.904   2.117  17.108  0.1001  0.4240 -1.3910
 1057SOL     OW14803   1.343   3.883  17.220  0.0318  0.3702  0.1794
 1057SOL    HW114804   1.283   3.924  17.282 -0.6284  0.5156 -0.5451
 1057SOL    HW214805   1.412   3.949  17.222 -0.2971  0.7052  0.4246
 1058SOL     OW14806   1.654   2.170   5.958  1.2606  0.3700 -0.3511
 1058SOL    HW114807   1.678   2.095   5.904 -0.4358  0.4492 -1.2322
 1058SOL    HW214808   1.568   2.140   5.989  1.6696  1.5372  1.9154
 1059SOL     OW14809   3.308   4.447  13.236  0.4985 -0.1457  0.1961
 1059SOL    HW114810   3.212   4.453  13.230  0.3136 -3.7335 -0.4789
 1059SOL    HW214811   3.332   4.537  13.258  1.1724 -0.0760 -0.7988
 1060SOL     OW14812   4.513   2.460   5.440  0.2648  0.1214  0.5016
 1060SOL    HW114813   4.556   2.544   5.428 -2.7912  1.6286 -0.0103
 1060SOL    HW214814   4.584   2.398   5.426 -0.9310 -0.9790 -0.7212
 1061SOL     OW14815   4.403   3.322  10.305 -0.8050  0.4453  0.4612
 1061SOL    HW114816   4.376   3.239  10.266  1.5873  0.4895 -1.3799
 1061SOL    HW214817   4.463   3.295  10.375  0.6027 -0.3343 -1.0414
 1062SOL     OW14818   3.601   2.717   7.769  0.1029 -0.3348 -0.4301
 1062SOL    HW114819   3.656   2.640   7.780  0.7390  0.4378  1.7784
 1062SOL    HW214820   3.537   2.685   7.706  0.8020  0.9217 -1.7971
 1063SOL     OW14821   2.051   0.888   8.502  0.0705  0.3247 -0.0310
 1063SOL    HW114822   2.081   0.801   8.530  1.1702  0.7031 -0.0339
 1063SOL    HW214823   2.129   0.943   8.504  0.6389 -0.5173  1.1568
 1064SOL     OW14824   2.485   2.999  15.741 -0.3303  0.1022  0.4383
 1064SOL    HW114825   2.423   2.943  15.694 -1.0639  2.6102 -1.6406
 1064SOL    HW214826   2.548   3.018  15.671 -0.9996 -0.4071 -0.3095
 1065SOL     OW14827   1.262   1.892  16.777  0.0573 -0.3095 -0.3570
 1065SOL    HW114828   1.258   1.985  16.755  3.0518 -0.0864 -0.0243
 1065SOL    HW214829   1.329   1.854  16.719  0.6718 -0.5652  0.5191
 1066SOL     OW14830   4.500   3.791   4.585 -0.4576 -0.0045 -0.2795
 1066SOL    HW114831   4.571   3.749   4.537 -0.6720  0.2597 -0.8371
 1066SOL    HW214832   4.482   3.722   4.648  1.3665 -1.8398 -1.7851
 1067SOL     OW14833   2.569   1.182   9.239 -0.4956 -0.1320 -0.0865
 1067SOL    HW114834   2.519   1.261   9.216 -0.8695  0.6308  3.3396
 1067SOL    HW214835   2.503   1.116   9.217 -1.1837  0.1486  1.1170
 1068SOL     OW14836   2.265   4.442   7.516 -0.0441  0.1095  0.3108
 1068SOL    HW114837   2.218   4.517   7.479 -0.1507 -0.5455 -0.8652
 1068SOL    HW214838   2.249   4.371   7.454 -1.3910  2.2143 -1.7863
 1069SOL     OW14839   0.342   3.884   2.014  0.0188  0.0273 -0.1231
 1069SOL    HW114840   0.281   3.811   2.022  0.3766 -0.1719  0.7767
 1069SOL    HW214841   0.344   3.911   1.922  0.4230  2.6479  0.6610
 1070SOL     OW14842   1.645   2.555   7.959  0.7445 -0.0741  0.3816
 1070SOL    HW114843   1.737   2.552   7.932  0.1001 -2.7278 -1.4770
 1070SOL    HW214844   1.607   2.597   7.882 -1.2496 -0.6143  1.0693
 1071SOL     OW14845   2.154   2.657  12.881  0.1283 -0.5199  0.4314
 1071SOL    HW114846   2.130   2.749  12.866 -3.2539 -1.3161  1.0670
 1071SOL    HW214847   2.118   2.614  12.804 -0.1465  0.7627 -0.1604
 1072SOL     OW14848   2.040   1.124   6.813 -0.4130  0.2438  0.1252
 1072SOL    HW114849   1.987   1.189   6.861  0.3663  1.0640 -0.1256
 1072SOL    HW214850   2.124   1.171   6.811  0.6149 -1.7421 -2.3509
 1073SOL     OW14851   2.929   1.358   2.538  0.1618 -0.3194  0.4570
 1073SOL    HW114852   2.864   1.287   2.542  1.4947 -1.5715 -0.0896
 1073SOL    HW214853   2.974   1.328   2.459 -1.3300 -0.9515 -0.1483
 1074SOL     OW14854   2.630   4.730   7.599 -0.1699 -0.1320 -0.2232
 1074SOL    HW114855   2.621   4.651   7.546 -2.2863  1.6094 -2.4770
 1074SOL    HW214856   2.536   0.009   7.614  1.0292  5.2959  2.1225
 1075SOL     OW14857   4.723   3.505   3.530  0.3070 -0.1455 -0.6482
 1075SOL    HW114858   0.082   3.524   3.523 -0.2081  2.6133  0.1749
 1075SOL    HW214859   4.690   3.545   3.450 -1.0221  0.8376  0.4030
 1076SOL     OW14860   2.525   1.437   9.168  0.0349  0.1730  0.2832
 1076SOL    HW114861   2.605   1.483   9.196  0.2165  0.0188  0.0222
 1076SOL    HW214862   2.452   1.478   9.214  0.3106  0.6041  0.3412
 1077SOL     OW14863   0.624   1.862  16.640 -0.0455  0.1787  0.0379
 1077SOL    HW114864   0.626   1.948  16.682  1.6721  0.3162 -0.3143
 1077SOL    HW214865   0.656   1.813  16.716 -0.7807 -2.2503 -1.2408
 1078SOL     OW14866   2.247   2.156  15.650 -0.2239  0.3432 -0.6561
 1078SOL    HW114867   2.240   2.108  15.732  2.7122  1.4415  0.2552
 1078SOL    HW214868   2.341   2.143  15.632 -0.2044  0.7343 -0.8193
 1079SOL     OW14869   3.609   2.371   9.359  0.4100  0.7369 -0.4119
 1079SOL    HW114870   3.558   2.340   9.434 -1.3093  0.7010 -1.5990
 1079SOL    HW214871   3.673   2.299   9.359 -1.5078 -0.9916 -3.3151
 1080SOL     OW14872   1.531   2.605  12.065 -0.4328  0.2665 -0.2588
 1080SOL    HW114873   1.460   2.573  12.010 -0.9452  0.9165  0.0292
 1080SOL    HW214874   1.479   2.634  12.140 -0.6756  1.3641 -0.8530
 1081SOL     OW14875   4.453   3.912  11.342  0.4830 -0.0155 -0.3898
 1081SOL    HW114876   4.506   3.926  11.264  1.9178  1.8206  0.9222
 1081SOL    HW214877   4.496   3.836  11.380 -0.7038 -1.1668 -1.3281
 1082SOL     OW14878   0.395   0.064   5.023  0.3142  0.0080 -0.0002
 1082SOL    HW114879   0.320   0.008   5.042  0.3851 -0.3383 -0.7136
 1082SOL    HW214880   0.361   0.152   5.038  1.5342  0.5522 -0.3809
 1083SOL     OW14881   1.457   0.580   5.767  0.6057  0.0595  0.7041
 1083SOL    HW114882   1.498   0.619   5.689 -1.8447  0.6127 -0.2898
 1083SOL    HW214883   1.429   0.491   5.748 -1.4549  0.9331 -0.2551
 1084SOL     OW14884   2.335   0.202   8.458 -0.0869  0.6282  0.6610
 1084SOL    HW114885   2.342   0.285   8.505 -2.9295 -0.1391  2.4424
 1084SOL    HW214886   2.393   0.150   8.514 -1.0905  0.2813  1.3865
 1085SOL     OW14887   1.623   2.940   6.358  0.0437  0.6537  0.3924
 1085SOL    HW114888   1.709   2.929   6.400 -0.3415 -1.3588  0.6333
 1085SOL    HW214889   1.641   3.001   6.287 -0.7013  2.0398  1.3880
 1086SOL     OW14890   2.344   4.093   6.028 -0.9403 -0.2463 -0.0814
 1086SOL    HW114891   2.352   4.187   6.010 -2.3376 -0.0998  0.0066
 1086SOL    HW214892   2.432   4.079   6.061 -0.0417  1.5420 -1.6808
 1087SOL     OW14893   3.326   0.658   5.165 -0.6090 -0.3730 -0.2414
 1087SOL    HW114894   3.288   0.614   5.240 -2.4664  1.3727 -0.1517
 1087SOL    HW214895   3.416   0.666   5.199 -0.3415  1.4289 -1.3420
 1088SOL     OW14896   1.578   2.795   1.894 -0.0079  0.3687  0.0821
 1088SOL    HW114897   1.629   2.724   1.934  0.5123  1.2641  1.0344
 1088SOL    HW214898   1.550   2.837   1.976  1.6165 -0.1150  0.8938
 1089SOL     OW14899   2.544   1.060   8.467 -0.0494 -0.2372  0.3896
 1089SOL    HW114900   2.586   0.983   8.429  0.3397  0.2442 -0.1479
 1089SOL    HW214901   2.622   1.111   8.491  1.1936 -1.5330 -0.9419
 1090SOL     OW14902   0.924   0.746  16.151 -0.3192  0.3522 -0.3941
 1090SOL    HW114903   0.958   0.835  16.140 -1.0091  0.8321  1.2751
 1090SOL    HW214904   0.955   0.735  16.241 -1.1743 -0.1223 -0.1601
 1091SOL     OW14905   1.281   1.538   0.296 -0.2079  0.1523 -0.1428
 1091SOL    HW114906   1.190   1.539   0.267 -0.0204  2.9113 -0.6297
 1091SOL    HW214907   1.268   1.510   0.387 -4.1193  1.2208 -0.4108
 1092SOL     OW14908   0.723   4.731   7.978  0.0254  0.4216  0.3518
 1092SOL    HW114909   0.758   0.011   7.890  2.1564  0.9162  1.2947
 1092SOL    HW214910   0.689   4.642   7.982 -0.6123  0.7150  1.5294
 1093SOL     OW14911   2.946   0.967   4.195 -0.4304 -0.4580 -0.7407
 1093SOL    HW114912   2.890   0.892   4.213  0.7159 -1.2465 -0.4473
 1093SOL    HW214913   2.896   1.042   4.229 -0.2640 -1.9591  2.7099
 1094SOL     OW14914   3.294   2.076   9.952 -0.3012 -0.0612 -0.2728
 1094SOL    HW114915   3.249   2.141  10.006 -0.2000 -0.2111 -0.0082
 1094SOL    HW214916   3.295   2.115   9.864 -1.1965  3.1669  1.1771
 1095SOL     OW14917   2.014   0.242  15.073  0.0105 -0.4986 -0.0995
 1095SOL    HW114918   2.006   0.181  15.146  2.8065 -1.3736 -0.5104
 1095SOL    HW214919   1.923   0.271  15.068  1.3076  3.1547 -2.7568
 1096SOL     OW14920   2.174   0.134   1.906 -0.5604 -0.3083 -0.1663
 1096SOL    HW114921   2.117   0.170   1.973  1.5804 -2.0653  2.5828
 1096SOL    HW214922   2.173   0.042   1.932  0.1932  0.7346  3.5513
 1097SOL     OW14923   2.754   0.382   0.000 -0.1874 -0.0758 -0.2405
 1097SOL    HW114924   2.837   0.349   0.035 -0.3035  0.5027  0.5728
 1097SOL    HW214925   2.701   0.302   0.002  0.2604 -0.4002 -1.3278
 1098SOL     OW14926   0.241   2.337   4.475  0.5649 -0.0830 -0.7120
 1098SOL    HW114927   0.277   2.264   4.424  2.1038  1.3188 -1.6343
 1098SOL    HW214928   0.185   2.385   4.414 -0.7804 -0.3635  0.3014
 1099SOL     OW14929   1.156   4.119   1.589  0.1360  0.1663 -0.0525
 1099SOL    HW114930   1.157   4.081   1.501  2.2504 -0.0362  0.0491
 1099SOL    HW214931   1.153   4.038   1.640  1.0459  0.4108  0.3940
 1100SOL     OW14932   1.551   0.259   1.615 -0.5546 -0.4015 -0.3179
 1100SOL    HW114933   1.551   0.228   1.706  1.9287  2.7651  0.7740
 1100SOL    HW214934   1.467   0.302   1.596 -0.4080  0.1241  0.2063
 1101SOL     OW14935   0.576   2.312   4.229  0.1793 -0.0616  0.5508
 1101SOL    HW114936   0.567   2.402   4.197 -2.7438 -0.2953  0.6981
 1101SOL    HW214937   0.639   2.270   4.170 -2.0252 -2.3345 -0.2082
 1102SOL     OW14938   0.700   4.679   7.188  0.2904  0.2297 -0.6114
 1102SOL    HW114939   0.655   4.734   7.124 -1.6548 -0.7537 -0.1059
 1102SOL    HW214940   0.633   4.618   7.221 -1.4265  2.5302  0.1471
 1103SOL     OW14941   2.254   0.543  12.685  0.4029  0.0710  0.3441
 1103SOL    HW114942   2.324   0.607  12.668 -2.0482  2.3049 -1.2474
 1103SOL    HW214943   2.193   0.544  12.612  1.8781 -1.4212 -0.8987
 1104SOL     OW14944   0.577   3.760   4.752 -0.1726 -0.0518 -0.2502
 1104SOL    HW114945   0.556   3.753   4.659  0.0038  0.0309 -0.2966
 1104SOL    HW214946   0.593   3.669   4.776  0.6242  0.1404 -0.0748
 1105SOL     OW14947   2.907   4.295  13.547 -0.3600 -0.1178  0.4382
 1105SOL    HW114948   2.923   4.361  13.614 -0.1871 -1.1093  1.3653
 1105SOL    HW214949   2.996   4.278  13.517 -0.3957  1.0235 -0.2898
 1106SOL     OW14950   1.382   2.408  13.604  0.2571  0.0691 -0.1170
 1106SOL    HW114951   1.318   2.467  13.643  0.5173 -0.2808  0.8443
 1106SOL    HW214952   1.416   2.455  13.528 -0.5620  0.2193 -0.3897
 1107SOL     OW14953   4.628   4.097   4.975  0.4245 -0.1739 -0.6317
 1107SOL    HW114954   4.544   4.053   4.988  0.7501 -0.2756  1.1234
 1107SOL    HW214955   4.679   4.017   4.962  0.9279  0.2322 -1.1772
 1108SOL     OW14956   0.207   1.680   4.639 -0.5147  0.1196  0.1766
 1108SOL    HW114957   0.239   1.758   4.595  1.5374 -0.6057  0.4170
 1108SOL    HW214958   0.244   1.605   4.593  2.1562  0.1985  2.1966
 1109SOL     OW14959   0.351   2.977   2.048 -0.3379  0.1344  0.1292
 1109SOL    HW114960   0.323   2.888   2.066 -2.4752  0.3932 -1.8984
 1109SOL    HW214961   0.444   2.959   2.035 -0.4582 -0.7611  0.5074
 1110SOL     OW14962   1.744   2.536  15.247 -0.0594 -0.2605  0.4623
 1110SOL    HW114963   1.746   2.521  15.153 -1.6095 -3.2029  0.9138
 1110SOL    HW214964   1.830   2.506  15.276 -1.3795 -3.0400  1.4797
 1111SOL     OW14965   3.584   4.068   2.497 -0.2941 -0.5457  0.3078
 1111SOL    HW114966   3.638   4.115   2.434 -2.0475 -0.2055 -0.9229
 1111SOL    HW214967   3.640   4.008   2.547 -0.7571 -1.8980 -0.7943
 1112SOL     OW14968   0.412   1.315   3.834 -0.9328  0.0702 -0.2044
 1112SOL    HW114969   0.349   1.282   3.897  0.4740  1.7442  2.0773
 1112SOL    HW214970   0.495   1.289   3.875 -0.3643  0.0864 -1.3320
 1113SOL     OW14971   0.165   1.788  17.279  0.0672  0.6675 -0.4686
 1113SOL    HW114972   0.120   1.827  17.204 -0.7841 -2.8706 -1.8134
 1113SOL    HW214973   0.104   1.727  17.319  1.0908 -0.0670 -0.0221
 1114SOL     OW14974   0.132   0.292   7.321  0.1574 -0.4638 -0.2393
 1114SOL    HW114975   0.219   0.313   7.355 -0.3233  0.3939  0.4594
 1114SOL    HW214976   0.124   0.354   7.250  0.0422 -0.4408 -0.2062
 1115SOL     OW14977   3.197   2.444   3.407  0.1866 -0.0671  0.3257
 1115SOL    HW114978   3.187   2.461   3.313  1.1155  0.2718  0.2929
 1115SOL    HW214979   3.272   2.386   3.407  0.4423  0.2702  1.6540
 1116SOL     OW14980   3.036   1.865   4.776 -0.3153 -0.0544  0.0536
 1116SOL    HW114981   3.062   1.892   4.864 -0.6423 -2.2453  0.8183
 1116SOL    HW214982   2.955   1.819   4.799  0.2625 -0.4731  1.2188
 1117SOL     OW14983   3.559   4.178  16.536  0.2926 -0.2069  0.1701
 1117SOL    HW114984   3.631   4.235  16.509 -2.1273  2.6306 -0.3411
 1117SOL    HW214985   3.476   4.219  16.511  0.4094 -0.0585  0.0268
 1118SOL     OW14986   2.007   1.043   6.250 -0.5262 -0.2484  0.5978
 1118SOL    HW114987   2.047   0.965   6.211 -0.5833  0.8534 -1.6607
 1118SOL    HW214988   2.086   1.084   6.287 -1.0454  1.1601  0.1013
 1119SOL     OW14989   1.310   0.942  16.948 -0.4160  0.8355  0.0754
 1119SOL    HW114990   1.296   1.033  16.976  2.2177  1.0628  0.6850
 1119SOL    HW214991   1.225   0.916  16.913 -0.4021 -0.6793  1.1825
 1120SOL     OW14992   0.517   2.845   4.813  0.2053 -0.0817 -0.1700
 1120SOL    HW114993   0.533   2.752   4.824 -1.7508 -0.4118 -0.0434
 1120SOL    HW214994   0.421   2.852   4.818  0.3181  1.6082 -0.1190
 1121SOL     OW14995   4.576   1.455   8.422  0.3881  0.3241 -0.0433
 1121SOL    HW114996   4.665   1.455   8.458  0.0743  2.0304  0.7372
 1121SOL    HW214997   4.517   1.484   8.491  1.5722  2.3819  0.0983
 1122SOL     OW14998   1.884   2.431  10.639  0.5070  0.3315 -0.1816
 1122SOL    HW114999   1.799   2.437  10.597 -0.0121  2.6133  1.1785
 1122SOL    HW215000   1.896   2.514  10.686  0.6949 -0.0328  0.4255
 1123SOL     OW15001   1.101   3.582   3.942 -0.8418 -0.3781  0.4436
 1123SOL    HW115002   1.138   3.581   3.854 -1.4997  1.2222  0.1441
 1123SOL    HW215003   1.058   3.667   3.947  0.2569  0.2296 -0.4878
 1124SOL     OW15004   1.150   0.427  11.732 -0.1806  0.1695 -0.2247
 1124SOL    HW115005   1.198   0.427  11.814  0.2233  1.1673 -0.4511
 1124SOL    HW215006   1.220   0.437  11.667  1.0827 -2.0604  0.8024
 1125SOL     OW15007   0.121   2.194   5.843 -0.4049  0.4151  0.0192
 1125SOL    HW115008   0.093   2.279   5.811 -3.0700 -0.1361  0.9255
 1125SOL    HW215009   0.217   2.201   5.845 -0.4198  0.4279  0.8785
 1126SOL     OW15010   0.225   1.807  12.342 -0.6026 -0.0281  0.0728
 1126SOL    HW115011   0.247   1.899  12.355 -1.1829 -0.1099  1.6131
 1126SOL    HW215012   0.290   1.772  12.280 -0.7635 -0.5063  0.1727
 1127SOL     OW15013   0.947   4.426   7.852 -0.0711 -0.9127 -0.1242
 1127SOL    HW115014   0.940   4.425   7.756 -2.8077 -0.0003  0.0845
 1127SOL    HW215015   0.858   4.433   7.884 -0.4008  1.8897 -1.6557
 1128SOL     OW15016   0.067   3.458   3.780  0.0342  0.0150 -0.1950
 1128SOL    HW115017   0.064   3.548   3.812 -3.0432  0.5991 -2.1366
 1128SOL    HW215018   0.025   3.473   3.695  0.6639  1.6016 -0.2243
 1129SOL     OW15019   2.114   3.606   3.029 -0.1239  0.7401  0.2028
 1129SOL    HW115020   2.065   3.607   2.947  0.8860 -1.7848 -0.4254
 1129SOL    HW215021   2.179   3.549   2.988  0.8337  1.8628  0.1550
 1130SOL     OW15022   4.064   2.928   4.399 -0.1790 -0.0703  0.1992
 1130SOL    HW115023   4.149   2.913   4.441 -1.9384 -1.0771  3.3703
 1130SOL    HW215024   4.034   2.838   4.405  0.3122 -0.2123  0.5467
 1131SOL     OW15025   1.752   1.099  11.331  0.1073 -0.1097  0.4029
 1131SOL    HW115026   1.731   1.189  11.306  1.4566 -0.3276 -1.4901
 1131SOL    HW215027   1.663   1.069  11.352 -0.2087 -0.0136 -0.7695
 1132SOL     OW15028   0.410   0.342   3.563  0.0740  0.0415 -0.1688
 1132SOL    HW115029   0.424   0.277   3.493 -0.2468  2.5881 -2.5795
 1132SOL    HW215030   0.473   0.409   3.541 -0.5620  1.1094  1.2715
 1133SOL     OW15031   0.234   1.461   8.236  0.2096  0.3504  0.0994
 1133SOL    HW115032   0.282   1.519   8.294 -0.1445  0.4267  0.3155
 1133SOL    HW215033   0.146   1.499   8.240 -0.6125 -1.6054  0.6209
 1134SOL     OW15034   4.134   2.844  10.883  0.1714  0.4198 -0.3531
 1134SOL    HW115035   4.170   2.838  10.972 -0.3819  5.9133  0.2534
 1134SOL    HW215036   4.200   2.907  10.854  1.2920  0.0816  1.4671
 1135SOL     OW15037   3.980   2.355   3.419 -0.4609 -0.1737  0.2081
 1135SOL    HW115038   3.967   2.422   3.352 -1.3831 -0.7146 -0.1463
 1135SOL    HW215039   3.973   2.413   3.495 -2.1038 -1.0661  0.7152
 1136SOL     OW15040   1.019   0.385   0.116  0.2147 -0.0395 -0.4956
 1136SOL    HW115041   0.970   0.355   0.192  0.3304 -1.5487 -1.0246
 1136SOL    HW215042   0.951   0.438   0.074 -0.8520  0.6752  2.1740
 1137SOL     OW15043   3.131   4.169   9.823 -0.4299 -0.4841  0.0536
 1137SOL    HW115044   3.146   4.079   9.793  1.8587  0.2653 -0.9747
 1137SOL    HW215045   3.142   4.157   9.918 -1.2971  0.5598  0.2890
 1138SOL     OW15046   1.958   4.156  14.004  0.1061  0.0547 -0.0947
 1138SOL    HW115047   1.964   4.217  14.077 -0.4287  0.8929 -0.7607
 1138SOL    HW215048   1.892   4.100  14.045  0.4041  1.1297  1.8507
 1139SOL     OW15049   1.218   4.355   5.715 -0.0693 -0.0919  0.4289
 1139SOL    HW115050   1.146   4.385   5.660  1.2863  0.0783 -1.2326
 1139SOL    HW215051   1.292   4.381   5.661 -1.2554  1.5719 -0.4118
 1140SOL     OW15052   1.226   3.935   2.481 -0.2969  0.4779  0.4733
 1140SOL    HW115053   1.143   3.914   2.524 -0.8512  1.4864 -0.1076
 1140SOL    HW215054   1.288   3.946   2.553  0.1406  0.4318  0.1071
 1141SOL     OW15055   0.381   4.695   3.491  0.4433  0.0298  0.0082
 1141SOL    HW115056   0.310   4.676   3.552 -1.6230  0.5061 -2.2171
 1141SOL    HW215057   0.457   4.690   3.549  1.4225 -0.5364 -1.3246
 1142SOL     OW15058   2.319   1.537   8.913  0.3832  0.3620  0.4290
 1142SOL    HW115059   2.404   1.562   8.948  0.9734 -0.3646 -0.4795
 1142SOL    HW215060   2.301   1.461   8.968  1.7523  0.4942  1.0492
 1143SOL     OW15061   2.987   4.278  12.675 -1.0445  0.6358 -0.5293
 1143SOL    HW115062   3.044   4.299  12.601  0.0022 -0.8179 -0.1478
 1143SOL    HW215063   2.917   4.326  12.631 -1.8708  1.5603  1.7702
 1144SOL     OW15064   0.959   1.362   3.611 -0.3268  0.5758  0.5555
 1144SOL    HW115065   1.046   1.395   3.636  1.1059 -1.5478 -1.7142
 1144SOL    HW215066   0.969   1.327   3.523  2.5181 -0.8530  1.4523
 1145SOL     OW15067   4.487   2.218  15.505 -0.1253 -0.0617  0.4419
 1145SOL    HW115068   4.523   2.143  15.456 -1.3453 -0.6329  0.4239
 1145SOL    HW215069   4.558   2.279  15.485  1.6287 -1.7243  1.5791
 1146SOL     OW15070   1.998   0.091   1.541 -0.7772  0.2062  0.0052
 1146SOL    HW115071   1.941   0.098   1.617  0.8442  0.5907  1.1772
 1146SOL    HW215072   1.995   4.731   1.537  1.2929  0.1669 -0.7864
 1147SOL     OW15073   1.207   2.391   3.389  0.2448 -0.2599 -0.0441
 1147SOL    HW115074   1.296   2.408   3.420  1.4779 -1.0230 -3.1917
 1147SOL    HW215075   1.216   2.400   3.294 -0.2921 -0.8754 -0.1551
 1148SOL     OW15076   3.217   4.042   7.868  0.2322 -0.1350 -0.6820
 1148SOL    HW115077   3.184   3.963   7.910  4.7116 -1.3896  0.5004
 1148SOL    HW215078   3.185   4.041   7.778  1.0296 -1.4810 -0.9538
 1149SOL     OW15079   1.569   2.065   4.470  0.4374  0.4347 -0.0187
 1149SOL    HW115080   1.650   2.088   4.424 -0.2178  1.4659 -0.6580
 1149SOL    HW215081   1.576   1.971   4.455  1.3689  0.0543  2.8923
 1150SOL     OW15082   2.900   4.643   2.186 -0.3458  0.2098  0.3667
 1150SOL    HW115083   2.934   4.556   2.167 -2.2170 -0.0791 -1.7777
 1150SOL    HW215084   2.927   4.705   2.118 -1.2782 -0.1982 -0.3839
 1151SOL     OW15085   4.510   0.746  12.680  0.0059  0.4803  0.1591
 1151SOL    HW115086   4.492   0.679  12.746  0.2840  0.2923  0.0424
 1151SOL    HW215087   4.564   0.698  12.618 -0.9165 -0.8369  0.3752
 1152SOL     OW15088   4.361   0.078   5.609  0.0354  0.6365  0.5053
 1152SOL    HW115089   4.382   0.153   5.663 -0.4599  1.9438 -1.1147
 1152SOL    HW215090   4.435   0.093   5.550 -1.3700 -0.0998 -1.4699
 1153SOL     OW15091   1.594   3.054   7.817 -0.0994 -0.2809  0.5203
 1153SOL    HW115092   1.676   3.103   7.818 -0.1619 -0.1495 -1.8315
 1153SOL    HW215093   1.602   2.995   7.742 -0.5724 -1.2358  1.2204
 1154SOL     OW15094   2.708   0.143   8.235 -0.2785 -0.0978 -0.5287
 1154SOL    HW115095   2.622   0.102   8.226  0.3193 -1.4998  0.0248
 1154SOL    HW215096   2.749   0.084   8.172 -1.4611 -0.8569 -0.6005
 1155SOL     OW15097   0.889   3.176   7.753  0.8549  0.3440 -0.1271
 1155SOL    HW115098   0.942   3.256   7.755 -0.1627  1.0401 -1.3531
 1155SOL    HW215099   0.809   3.197   7.705  0.9486 -2.2778 -1.3924
 1156SOL     OW15100   4.577   1.503   5.321  0.2656 -0.5821 -0.2547
 1156SOL    HW115101   4.542   1.550   5.246  1.2609  1.4857  0.5703
 1156SOL    HW215102   4.502   1.504   5.381  0.0272 -0.6285 -0.5524
 1157SOL     OW15103   1.998   0.553   5.328  0.2895 -0.0872  1.2178
 1157SOL    HW115104   1.956   0.509   5.253  0.5975 -2.0437  2.1987
 1157SOL    HW215105   2.050   0.485   5.371 -0.0208  1.2328  3.6655
 1158SOL     OW15106   0.422   1.559  12.440 -0.4139 -0.1881  0.3713
 1158SOL    HW115107   0.427   1.598  12.353  0.3760  0.6186  0.7761
 1158SOL    HW215108   0.334   1.522  12.430 -1.0840  1.2313  0.9931
 1159SOL     OW15109   1.370   0.552   8.350  0.0898  0.1253  0.3047
 1159SOL    HW115110   1.351   0.500   8.428 -0.4231 -0.7659 -0.4147
 1159SOL    HW215111   1.409   0.632   8.386 -1.9148  1.6040 -0.7605
 1160SOL     OW15112   4.308   4.531   8.678 -0.3602  0.0845 -0.1502
 1160SOL    HW115113   4.255   4.460   8.642 -0.1006 -0.4541  0.5228
 1160SOL    HW215114   4.380   4.531   8.615 -1.3305 -1.1777 -1.2771
 1161SOL     OW15115   4.536   4.130  16.771  0.1952  0.1741  0.0954
 1161SOL    HW115116   4.484   4.209  16.760 -1.5725 -0.5778  3.1308
 1161SOL    HW215117   4.623   4.168  16.783  0.4734 -0.3288 -0.3560
 1162SOL     OW15118   2.883   0.654   3.522  0.3530 -0.2477 -0.0962
 1162SOL    HW115119   2.944   0.645   3.596  0.6010  0.1914 -0.2494
 1162SOL    HW215120   2.798   0.639   3.564  0.4839 -0.1510  0.2006
 1163SOL     OW15121   2.691   3.016   6.832 -0.1127  0.8607 -0.0335
 1163SOL    HW115122   2.772   3.020   6.883  0.8413  0.6243 -1.5262
 1163SOL    HW215123   2.627   2.973   6.889 -0.3534 -0.3070 -1.1812
 1164SOL     OW15124   2.558   0.368  16.738 -0.2576 -0.5421  0.1940
 1164SOL    HW115125   2.520   0.359  16.825  0.0084  1.4308  0.5181
 1164SOL    HW215126   2.498   0.426  16.691  1.8448  0.0359 -1.7780
 1165SOL     OW15127   1.591   0.969  16.148  0.6628  0.0978 -0.9063
 1165SOL    HW115128   1.608   1.031  16.076 -1.8956  1.5675 -0.2273
 1165SOL    HW215129   1.548   1.029  16.209  1.0511 -2.8683  2.3037
 1166SOL     OW15130   0.062   0.792   2.851 -0.2954 -0.2637 -0.1566
 1166SOL    HW115131   0.055   0.887   2.841 -0.7265 -0.4060 -1.1239
 1166SOL    HW215132   0.156   0.777   2.841 -0.7654 -1.5117 -2.6415
 1167SOL     OW15133   3.968   4.171   1.349  0.4121 -0.2510 -0.5081
 1167SOL    HW115134   3.928   4.089   1.380 -2.2027  2.0755  2.3665
 1167SOL    HW215135   4.046   4.186   1.403  1.0851 -0.9194 -1.3123
 1168SOL     OW15136   3.440   0.853   3.587 -0.2377 -0.5578 -0.0024
 1168SOL    HW115137   3.350   0.845   3.619 -0.4515  1.5658 -0.1115
 1168SOL    HW215138   3.458   0.777   3.531 -0.2757 -0.3359 -0.3106
 1169SOL     OW15139   3.176   0.574   8.248  0.1855  0.5991  0.5768
 1169SOL    HW115140   3.105   0.588   8.311 -1.8212  1.7118 -1.9786
 1169SOL    HW215141   3.166   0.481   8.227 -1.0366  0.8735 -0.0242
 1170SOL     OW15142   1.991   0.866   6.904  0.5867  0.1449  0.4903
 1170SOL    HW115143   2.042   0.941   6.875  0.2913 -0.7493 -2.3420
 1170SOL    HW215144   1.919   0.870   6.840  0.2246  0.3806  0.9137
 1171SOL     OW15145   3.358   1.446   6.337 -0.3868 -0.1815  0.2313
 1171SOL    HW115146   3.329   1.536   6.334 -0.6078 -0.2648 -0.0651
 1171SOL    HW215147   3.415   1.435   6.261 -1.8620  2.7324 -1.2581
 1172SOL     OW15148   2.383   4.562   2.430 -0.1661 -0.6226  0.1089
 1172SOL    HW115149   2.297   4.522   2.444  0.2565 -1.6184 -0.1006
 1172SOL    HW215150   2.410   4.512   2.353 -0.4970 -0.6269 -0.0032
 1173SOL     OW15151   2.244   2.147   8.086  0.0833 -0.2403 -0.5464
 1173SOL    HW115152   2.307   2.217   8.068 -0.7699  0.5164 -0.5962
 1173SOL    HW215153   2.179   2.172   8.021  1.7357  0.3387 -1.9691
 1174SOL     OW15154   3.974   3.999   2.772  0.2666 -0.7869  0.2090
 1174SOL    HW115155   3.922   4.061   2.823 -0.1484 -1.0192  0.0617
 1174SOL    HW215156   4.058   4.043   2.757 -0.6720  0.5481 -1.0736
 1175SOL     OW15157   1.897   2.437   2.109  0.7189 -0.5390 -0.1147
 1175SOL    HW115158   1.851   2.429   2.192 -1.4712  2.4257 -1.0528
 1175SOL    HW215159   1.947   2.355   2.101  0.3423 -0.8291  0.5224
 1176SOL     OW15160   2.109   2.754  16.615  0.9961  0.0975  0.4323
 1176SOL    HW115161   2.056   2.813  16.670 -1.0856 -0.2052 -1.2427
 1176SOL    HW215162   2.066   2.759  16.529  1.7122  0.1743  0.0835
 1177SOL     OW15163   3.318   2.386   7.173  0.1230  0.2949 -0.0737
 1177SOL    HW115164   3.335   2.369   7.265  0.1729  0.0622 -0.1244
 1177SOL    HW215165   3.300   2.479   7.180 -2.0682 -0.0063 -1.5164
 1178SOL     OW15166   4.346   0.908   2.091  0.3555 -0.1349  0.1880
 1178SOL    HW115167   4.299   0.977   2.138 -1.4009 -3.1455  2.8750
 1178SOL    HW215168   4.429   0.955   2.084  0.5112 -0.0715  2.4387
 1179SOL     OW15169   4.635   1.271   6.771  0.0260  0.2136 -0.6838
 1179SOL    HW115170   4.575   1.330   6.815  0.1449 -0.0233 -0.2003
 1179SOL    HW215171   4.704   1.275   6.838 -0.2166  0.4141 -0.4483
 1180SOL     OW15172   3.381   3.239  13.096  0.5106 -0.7363 -0.1978
 1180SOL    HW115173   3.332   3.220  13.177 -3.3093 -0.8130 -2.5180
 1180SOL    HW215174   3.435   3.310  13.131 -0.6360  0.2706 -0.4484
 1181SOL     OW15175   2.335   4.337   5.891 -0.3429 -0.1991  0.3659
 1181SOL    HW115176   2.385   4.363   5.814 -0.8077 -1.3801 -0.3366
 1181SOL    HW215177   2.254   4.387   5.882 -0.0118  0.1557 -0.5751
 1182SOL     OW15178   4.274   2.257   6.123 -0.1345 -0.3124 -0.4328
 1182SOL    HW115179   4.321   2.339   6.136 -0.6582 -0.1245  0.2072
 1182SOL    HW215180   4.323   2.213   6.192  0.1729  0.5572 -0.0936
 1183SOL     OW15181   1.483   3.934   9.094 -0.0671 -0.4783 -0.1267
 1183SOL    HW115182   1.512   3.938   9.185 -1.7069  1.5596  0.2954
 1183SOL    HW215183   1.444   4.021   9.093 -0.9017 -0.8563 -0.1619
 1184SOL     OW15184   3.743   1.687   4.974  0.8222 -0.4104 -0.1989
 1184SOL    HW115185   3.783   1.614   5.022  0.3158 -0.8146 -0.3912
 1184SOL    HW215186   3.658   1.652   4.947  1.2493 -2.1316  0.6537
 1185SOL     OW15187   4.443   0.144  11.092 -0.7279  0.1797 -0.1071
 1185SOL    HW115188   4.435   0.058  11.050 -3.7928  1.1701 -1.6230
 1185SOL    HW215189   4.532   0.135  11.126 -1.0667 -1.4662  0.3415
 1186SOL     OW15190   1.918   0.455  13.270  0.1756 -0.1636  0.3417
 1186SOL    HW115191   1.823   0.450  13.277  0.1837  1.2267  1.6037
 1186SOL    HW215192   1.926   0.438  13.176 -2.5055 -0.4744  0.1816
 1187SOL     OW15193   0.693   0.717   2.648  0.6772  0.4508  0.2138
 1187SOL    HW115194   0.784   0.728   2.675  0.1015  3.7255  0.8352
 1187SOL    HW215195   0.657   0.733   2.736 -0.4650  1.5169 -0.4349
 1188SOL     OW15196   1.313   3.962   3.483 -0.7126  0.4159 -0.1705
 1188SOL    HW115197   1.278   4.007   3.406 -0.8861 -0.7235 -0.7734
 1188SOL    HW215198   1.274   4.016   3.551 -1.8905 -1.4902  0.6868
 1189SOL     OW15199   1.891   0.673   5.686  0.0012  0.2127  0.2496
 1189SOL    HW115200   1.962   0.611   5.702  0.1020  0.1296 -0.5070
 1189SOL    HW215201   1.893   0.739   5.755 -0.5064  0.1258  0.3452
 1190SOL     OW15202   3.913   2.668   6.929 -0.1369  0.2043  0.0414
 1190SOL    HW115203   3.886   2.759   6.938 -0.5198  0.1381 -0.4616
 1190SOL    HW215204   3.922   2.658   6.834  0.6285  3.5636 -0.2433
 1191SOL     OW15205   2.189   1.713   8.742 -0.1307  0.0818  0.2496
 1191SOL    HW115206   2.263   1.701   8.683 -0.4093 -0.4202  0.0048
 1191SOL    HW215207   2.217   1.650   8.808 -3.0438 -2.2850 -0.7704
 1192SOL     OW15208   1.399   2.471   4.032 -0.3809  0.1495 -0.2955
 1192SOL    HW115209   1.369   2.532   4.100 -1.9066 -0.9701  0.0341
 1192SOL    HW215210   1.326   2.490   3.972  0.0762  1.8693 -0.3181
 1193SOL     OW15211   1.146   4.274   8.027  0.4734  0.1350  0.3211
 1193SOL    HW115212   1.086   4.336   7.986 -0.0569  0.9431  2.3263
 1193SOL    HW215213   1.219   4.334   8.042 -0.2104  1.1116 -0.2885
 1194SOL     OW15214   0.658   4.058   0.518  0.1218  0.1904 -0.8704
 1194SOL    HW115215   0.623   4.147   0.517 -3.6842 -1.2937 -1.1508
 1194SOL    HW215216   0.575   4.011   0.530  0.0698  0.3916 -0.4345
 1195SOL     OW15217   3.122   2.270   4.117  0.2752  0.0526 -0.7714
 1195SOL    HW115218   3.049   2.212   4.137 -1.0941  1.3528 -2.0773
 1195SOL    HW215219   3.081   2.316   4.044  2.0699  1.3991 -0.9236
 1196SOL     OW15220   2.765   4.561   5.987 -0.3861  0.4957  0.1275
 1196SOL    HW115221   2.705   4.568   5.913 -1.2239  0.1972  0.7779
 1196SOL    HW215222   2.703   4.591   6.054 -0.6802  0.0230  0.0628
 1197SOL     OW15223   2.698   0.198  12.290 -0.7495  0.6480  0.3294
 1197SOL    HW115224   2.709   0.183  12.196  0.3646 -3.4203  1.1100
 1197SOL    HW215225   2.604   0.213  12.292 -0.4582  2.0266  4.3394
 1198SOL     OW15226   3.713   0.760   6.936 -0.1235 -0.4612  0.7244
 1198SOL    HW115227   3.805   0.738   6.922 -0.6845 -0.4618 -2.8880
 1198SOL    HW215228   3.736   0.808   7.016  0.2774  1.2789 -0.4428
 1199SOL     OW15229   2.046   4.467   3.101 -0.9146 -0.4073  0.5827
 1199SOL    HW115230   1.984   4.472   3.028  1.6520  1.7133 -1.4650
 1199SOL    HW215231   2.046   4.377   3.134 -1.0286  0.1801  2.1813
 1200SOL     OW15232   4.627   0.846   7.391  0.3480 -0.7907  0.0693
 1200SOL    HW115233   4.639   0.772   7.332  0.8051 -0.4189 -0.2953
 1200SOL    HW215234   4.699   0.823   7.450  0.3914  1.4008  0.8538
 1201SOL     OW15235   1.045   1.406   7.127 -0.0722 -0.1978 -0.1527
 1201SOL    HW115236   1.064   1.486   7.176 -1.0021 -0.2722  0.3426
 1201SOL    HW215237   0.952   1.421   7.110  0.0450  1.7795  0.9560
 1202SOL     OW15238   4.704   2.616   6.445 -0.1750 -0.4139 -0.0076
 1202SOL    HW115239   0.041   2.586   6.501  0.1754  1.1680  0.3848
 1202SOL    HW215240   4.633   2.626   6.508 -0.3812  0.4360 -0.3683
 1203SOL     OW15241   4.119   0.284   7.821 -0.1266  0.3038  0.3717
 1203SOL    HW115242   4.052   0.342   7.786  0.4492  0.6723 -0.1202
 1203SOL    HW215243   4.168   0.338   7.883  1.1220  0.1057 -0.4320
 1204SOL     OW15244   0.815   4.642   1.500  0.9173  0.4445  0.3969
 1204SOL    HW115245   0.898   4.607   1.533  1.1429  1.1288  0.5399
 1204SOL    HW215246   0.790   4.696   1.575 -3.0774 -0.6047 -0.1808
 1205SOL     OW15247   0.819   3.606   3.211 -0.0384  0.5293 -0.5469
 1205SOL    HW115248   0.814   3.519   3.172  0.9822  0.3540 -0.2921
 1205SOL    HW215249   0.808   3.567   3.298 -1.0487 -0.1789 -0.9928
 1206SOL     OW15250   4.017   4.720   9.204 -0.5417 -0.2638  0.2232
 1206SOL    HW115251   4.100   4.675   9.222  0.0314  0.4153 -0.7205
 1206SOL    HW215252   4.048   0.050   9.141 -1.2299  0.3041  0.4720
 1207SOL     OW15253   2.427   2.512  16.446  0.1145  0.2630 -0.2853
 1207SOL    HW115254   2.403   2.422  16.424  0.2610  0.8234 -2.7958
 1207SOL    HW215255   2.522   2.509  16.432  0.1920  0.6597  0.1653
 1208SOL     OW15256   1.759   2.815   5.991  0.0345  0.1631  0.1572
 1208SOL    HW115257   1.725   2.725   5.989 -1.1771  0.5846  2.5698
 1208SOL    HW215258   1.852   2.813   6.015 -0.2918  1.5237  1.4921
 1209SOL     OW15259   0.436   1.602   0.627 -0.0803  0.4052  0.4841
 1209SOL    HW115260   0.508   1.622   0.567 -0.7953 -1.0505 -0.8714
 1209SOL    HW215261   0.440   1.679   0.684  5.1588  0.9052 -0.5649
 1210SOL     OW15262   2.854   0.598   0.810  0.1814  0.3996  0.3653
 1210SOL    HW115263   2.945   0.617   0.785  0.9445 -3.5584  0.1254
 1210SOL    HW215264   2.800   0.670   0.776  2.1774  1.4637 -0.5451
 1211SOL     OW15265   4.515   4.565   5.081  0.2533  0.2434  0.2322
 1211SOL    HW115266   4.530   4.484   5.033  0.6111  0.2506  0.3303
 1211SOL    HW215267   4.441   4.602   5.033 -0.1038  0.6352  1.0724
 1212SOL     OW15268   2.927   3.788   1.297 -0.5028  0.0371 -0.2942
 1212SOL    HW115269   2.907   3.710   1.348  1.3806 -0.7446 -0.7794
 1212SOL    HW215270   2.987   3.752   1.233 -1.2685  2.1985 -2.2445
 1213SOL     OW15271   1.047   4.253  13.229  0.6345  0.4967 -0.2947
 1213SOL    HW115272   1.073   4.203  13.152  0.2635  1.2713 -0.9201
 1213SOL    HW215273   0.952   4.237  13.225  0.3514  2.3584 -1.0961
 1214SOL     OW15274   3.834   1.581  16.831 -0.5035  0.8431 -0.3234
 1214SOL    HW115275   3.819   1.486  16.829  2.3113  0.3995  0.1407
 1214SOL    HW215276   3.747   1.620  16.839 -0.3075  0.6274  2.5962
 1215SOL     OW15277   4.590   3.794   8.246  0.5366  0.0249  0.2496
 1215SOL    HW115278   4.661   3.858   8.239  0.8423 -0.0182  2.7891
 1215SOL    HW215279   4.600   3.772   8.338 -1.4343  0.3948  0.5504
 1216SOL     OW15280   2.572   0.549   8.171 -0.5853  0.7017 -0.1154
 1216SOL    HW115281   2.519   0.489   8.224 -2.9786  3.6646  0.8270
 1216SOL    HW215282   2.643   0.571   8.231  0.6657 -0.4296 -1.2077
 1217SOL     OW15283   3.166   0.286   6.193 -0.0447 -0.0693 -0.0364
 1217SOL    HW115284   3.087   0.233   6.201 -0.3704  0.2381 -1.1591
 1217SOL    HW215285   3.209   0.287   6.279 -0.9042  1.7423  0.3753
 1218SOL     OW15286   2.612   4.199  11.152  0.2587  0.4521 -0.1987
 1218SOL    HW115287   2.580   4.222  11.239  1.0560 -0.0819  0.2349
 1218SOL    HW215288   2.632   4.285  11.115  1.2791  0.6583  0.8313
 1219SOL     OW15289   2.558   1.327   8.800  0.0534  0.3532 -0.4822
 1219SOL    HW115290   2.621   1.323   8.872 -1.4312  0.9991  0.8476
 1219SOL    HW215291   2.478   1.361   8.840  0.7630  1.3719  0.0657
 1220SOL     OW15292   4.104   1.543  15.083  0.3648  0.8747  0.5209
 1220SOL    HW115293   4.035   1.527  15.018  2.9122  4.0380 -2.9714
 1220SOL    HW215294   4.090   1.473  15.147  0.6702 -1.3388 -1.8860
 1221SOL     OW15295   1.488   1.340   7.825  0.0563 -0.5672  0.5471
 1221SOL    HW115296   1.572   1.376   7.854  0.2265 -0.0407 -0.5978
 1221SOL    HW215297   1.485   1.262   7.881 -0.1666 -0.9889 -0.0450
 1222SOL     OW15298   4.122   0.707   1.259 -0.3616 -0.4297  0.0128
 1222SOL    HW115299   4.029   0.729   1.257 -0.4670 -0.8982 -0.1434
 1222SOL    HW215300   4.146   0.703   1.352 -0.1546  0.5237  0.0036
 1223SOL     OW15301   2.170   1.441   0.307  0.8595 -0.4068 -0.9154
 1223SOL    HW115302   2.103   1.501   0.276 -0.2624 -1.5555 -0.7156
 1223SOL    HW215303   2.206   1.396   0.231  0.2328 -2.5074  0.0246
 1224SOL     OW15304   0.909   1.141   3.954  0.1751 -0.7097 -0.1726
 1224SOL    HW115305   0.929   1.048   3.941 -2.3201 -1.1380 -0.8285
 1224SOL    HW215306   1.000   1.171   3.945  0.3236 -1.4024 -1.0092
 1225SOL     OW15307   3.603   2.109   1.899 -0.3196  0.6086  0.2900
 1225SOL    HW115308   3.641   2.188   1.862 -0.1514  0.9530  1.1985
 1225SOL    HW215309   3.686   2.064   1.917 -1.2434 -1.2067  0.0655
 1226SOL     OW15310   4.635   2.677   6.194  0.2128  0.4058 -0.4247
 1226SOL    HW115311   4.723   2.704   6.166  1.3487 -1.7823  1.0675
 1226SOL    HW215312   4.649   2.664   6.287  0.9692  0.9627 -0.4544
 1227SOL     OW15313   3.840   4.694  14.044 -0.3959  0.2876  0.2603
 1227SOL    HW115314   3.910   4.679  14.108  0.4954  2.6255 -0.1712
 1227SOL    HW215315   3.868   4.633  13.975 -1.2066  2.0759 -1.6374
 1228SOL     OW15316   2.868   3.624   3.896 -0.2313  0.2467  0.0486
 1228SOL    HW115317   2.954   3.667   3.895  0.1568 -0.5458 -0.3640
 1228SOL    HW215318   2.828   3.653   3.978  0.0769  0.2596  0.1972
 1229SOL     OW15319   4.497   2.885   5.632 -0.2322 -0.3347  0.1009
 1229SOL    HW115320   4.464   2.923   5.551  0.6857 -1.1304 -0.6319
 1229SOL    HW215321   4.587   2.872   5.602  0.0046  2.2758 -0.3151
 1230SOL     OW15322   3.920   0.359  11.773 -0.4935 -0.2985 -0.2628
 1230SOL    HW115323   3.899   0.452  11.770 -1.3926 -0.4450  1.4561
 1230SOL    HW215324   3.972   0.356  11.853 -0.1084  1.0856 -0.4677
 1231SOL     OW15325   3.022   1.937   5.052  0.6695  0.0399 -0.2624
 1231SOL    HW115326   3.072   2.017   5.071 -0.8265  1.2436 -1.4577
 1231SOL    HW215327   3.018   1.888   5.134  1.3602  0.6892  0.1632
 1232SOL     OW15328   1.046   4.412   5.028  0.2202  0.3281 -0.2095
 1232SOL    HW115329   1.006   4.367   5.102  1.0399  2.0789  1.3003
 1232SOL    HW215330   1.110   4.348   4.999  0.8849  0.7998  0.2083
 1233SOL     OW15331   3.667   3.071   5.008 -0.2555  0.0169  0.9213
 1233SOL    HW115332   3.618   2.993   4.981  1.0795 -0.8449  0.9759
 1233SOL    HW215333   3.606   3.144   5.004 -0.9767 -0.6461 -0.3364
 1234SOL     OW15334   4.592   0.477  10.967 -0.6825  0.0317 -0.7608
 1234SOL    HW115335   4.513   0.462  10.915  0.0837 -1.8145 -1.3925
 1234SOL    HW215336   4.649   0.407  10.934  0.5736 -0.3653  2.2203
 1235SOL     OW15337   1.228   2.125   6.263 -0.0861  0.0150 -0.5995
 1235SOL    HW115338   1.154   2.127   6.201 -0.7664  0.4627  0.2246
 1235SOL    HW215339   1.194   2.177   6.336 -0.0175  0.0459 -0.5894
 1236SOL     OW15340   0.167   1.222   4.005  0.3652  0.1114 -0.0018
 1236SOL    HW115341   0.082   1.250   3.971  0.6080 -0.8631 -1.4216
 1236SOL    HW215342   0.157   1.238   4.099 -0.9358 -1.0596  0.0577
 1237SOL     OW15343   0.219   3.687   6.992 -0.5525  0.2129  0.4927
 1237SOL    HW115344   0.169   3.617   6.949  0.7566 -1.7307  2.1387
 1237SOL    HW215345   0.254   3.637   7.066  0.9079  1.0928  0.3993
 1238SOL     OW15346   2.735   4.527  11.305  0.2254  0.6649 -0.4026
 1238SOL    HW115347   2.682   4.496  11.231  0.1385  1.9677 -0.8799
 1238SOL    HW215348   2.783   4.447  11.325 -0.9651  0.2578  0.8263
 1239SOL     OW15349   1.225   0.174   7.773  0.1022  0.5110 -0.0410
 1239SOL    HW115350   1.291   0.221   7.825  0.1201 -0.7518  1.0599
 1239SOL    HW215351   1.226   0.234   7.698 -1.7726  0.1937 -0.3114
 1240SOL     OW15352   2.301   3.829   2.691 -0.2719  0.0155 -0.4646
 1240SOL    HW115353   2.238   3.824   2.618  1.0900  1.5424 -1.7469
 1240SOL    HW215354   2.348   3.746   2.680 -1.1025 -0.6176  0.8732
 1241SOL     OW15355   3.736   0.866   8.830  0.6308 -0.2441 -0.1587
 1241SOL    HW115356   3.709   0.775   8.844 -0.8936  0.7403  3.2400
 1241SOL    HW215357   3.718   0.902   8.917 -0.9865  1.4540 -1.2278
 1242SOL     OW15358   3.066   0.899   4.540  0.2871 -0.0327 -0.5876
 1242SOL    HW115359   3.008   0.858   4.476 -1.5180  2.2931 -0.4574
 1242SOL    HW215360   3.098   0.819   4.581  0.9000  0.7194  0.3930
 1243SOL     OW15361   2.967   0.842   1.703 -0.6388  0.3676 -0.0568
 1243SOL    HW115362   3.006   0.876   1.784  1.1697 -2.0179  0.0885
 1243SOL    HW215363   3.027   0.769   1.686 -0.8700  0.4411 -1.1527
 1244SOL     OW15364   0.921   3.523   4.294  0.2490 -0.5766  0.1213
 1244SOL    HW115365   1.016   3.516   4.283  0.4261  2.5847 -0.2655
 1244SOL    HW215366   0.932   3.541   4.388  0.2732 -1.3858  0.2743
 1245SOL     OW15367   0.146   1.806  10.456 -0.0392  0.2856 -0.1545
 1245SOL    HW115368   0.171   1.896  10.481  1.1295 -0.1567  0.2993
 1245SOL    HW215369   0.116   1.816  10.366  0.2534  2.2144 -0.0366
 1246SOL     OW15370   3.741   4.482   1.761  0.0167 -0.0323  0.7758
 1246SOL    HW115371   3.700   4.540   1.697  2.3507  0.1095 -0.5756
 1246SOL    HW215372   3.748   4.405   1.704 -1.6582  1.0872 -0.9258
 1247SOL     OW15373   0.668   2.056   7.742 -0.3988 -0.3204  0.5309
 1247SOL    HW115374   0.741   2.009   7.783 -1.1183 -0.0409  2.1235
 1247SOL    HW215375   0.601   2.056   7.810 -0.5707 -0.7169  0.3602
 1248SOL     OW15376   4.117   1.433  16.257 -0.4525 -0.3361  0.1479
 1248SOL    HW115377   4.124   1.387  16.340 -1.4220 -2.4715 -0.9676
 1248SOL    HW215378   4.199   1.417  16.209  0.2555  0.2226  1.1732
 1249SOL     OW15379   3.263   4.294  16.273 -0.1685  0.6816 -0.1508
 1249SOL    HW115380   3.245   4.289  16.366  2.4855 -2.2710  0.2075
 1249SOL    HW215381   3.321   4.217  16.268  0.2864  0.9107  1.7777
 1250SOL     OW15382   0.282   0.178  14.009 -0.1517  0.1070  0.6898
 1250SOL    HW115383   0.285   0.258  14.062  0.0909 -0.3343  1.3467
 1250SOL    HW215384   0.307   0.119  14.081  0.2724 -0.7885 -0.1984
 1251SOL     OW15385   2.030   0.989   0.344  0.1210 -0.0193 -0.1434
 1251SOL    HW115386   2.018   0.927   0.416  1.0560 -0.6947 -0.5704
 1251SOL    HW215387   2.026   1.072   0.393  1.2355 -0.9701  1.5749
 1252SOL     OW15388   2.010   0.861   1.994  0.1310 -0.4006  0.3382
 1252SOL    HW115389   1.941   0.867   1.928  0.1252 -1.3848  0.2426
 1252SOL    HW215390   1.962   0.900   2.068  3.5111  1.4965  1.5172
 1253SOL     OW15391   0.540   0.968   6.152  0.1899  0.5242 -0.5570
 1253SOL    HW115392   0.582   0.892   6.112  0.1451  0.8173 -1.1570
 1253SOL    HW215393   0.475   0.920   6.204 -1.9159  1.9776 -1.8224
 1254SOL     OW15394   0.214   0.591   2.223 -0.1951  0.1310  0.3399
 1254SOL    HW115395   0.239   0.668   2.172 -0.8773  2.0526  2.8794
 1254SOL    HW215396   0.252   0.609   2.309  1.1481 -2.5621  0.3063
 1255SOL     OW15397   1.859   1.287   6.909  0.0995  0.8524 -0.2050
 1255SOL    HW115398   1.830   1.369   6.869  2.6619  0.8459 -2.0831
 1255SOL    HW215399   1.773   1.245   6.919  0.6890 -0.0759  0.9935
 1256SOL     OW15400   1.717   0.764   7.694  0.4359 -0.0343 -0.0507
 1256SOL    HW115401   1.767   0.819   7.633  3.0248 -0.7585  1.4276
 1256SOL    HW215402   1.625   0.786   7.677  0.7621  1.9194  0.7238
 1257SOL     OW15403   3.291   4.566   7.011 -0.2472  0.3991  0.6093
 1257SOL    HW115404   3.283   4.490   7.068 -0.1996  0.4511  0.6849
 1257SOL    HW215405   3.373   4.602   7.046  0.1731  0.4841 -0.4570
 1258SOL     OW15406   2.549   2.012   2.169 -0.1463 -0.2038  0.7326
 1258SOL    HW115407   2.481   2.058   2.120 -0.8891 -1.2562  0.7784
 1258SOL    HW215408   2.521   2.019   2.261  2.9447  0.1854  1.6434
 1259SOL     OW15409   0.090   1.533   8.535  0.0317  0.0109 -0.0318
 1259SOL    HW115410   0.172   1.491   8.563 -0.3303 -1.6064 -1.4204
 1259SOL    HW215411   0.117   1.619   8.502  1.0349 -0.4261 -0.3376
 1260SOL     OW15412   0.280   3.508   5.922  0.1483  0.3419  0.4089
 1260SOL    HW115413   0.233   3.437   5.965 -0.6032  0.9204  0.5625
 1260SOL    HW215414   0.368   3.502   5.958 -0.0973 -1.9158  0.5860
 1261SOL     OW15415   0.915   1.720   4.555  0.7230  0.0963  0.0284
 1261SOL    HW115416   0.845   1.774   4.591 -0.2419 -0.3817 -1.1331
 1261SOL    HW215417   0.991   1.778   4.566 -0.9540  2.3795 -0.3413
 1262SOL     OW15418   3.828   1.468  13.723  0.1959 -0.2352 -0.5637
 1262SOL    HW115419   3.895   1.414  13.765 -0.1885  1.4796  2.2763
 1262SOL    HW215420   3.883   1.545  13.713 -0.3472  0.0775 -1.1366
 1263SOL     OW15421   1.793   4.329  12.348  0.0096 -0.1534 -0.1328
 1263SOL    HW115422   1.799   4.408  12.295  1.6112 -1.7351 -2.3110
 1263SOL    HW215423   1.885   4.303  12.339 -0.0655  0.1390 -1.8095
 1264SOL     OW15424   3.729   0.933   7.495  0.2607 -0.2012 -0.6010
 1264SOL    HW115425   3.816   0.910   7.463 -0.2028 -2.2257 -0.3886
 1264SOL    HW215426   3.673   0.882   7.436  0.0195  1.0232 -1.4342
 1265SOL     OW15427   2.729   4.032   9.536  0.0252 -0.1495  0.6883
 1265SOL    HW115428   2.681   3.994   9.463  0.1153 -0.5501  0.8347
 1265SOL    HW215429   2.817   4.014   9.503 -0.5480 -0.8344 -0.4763
 1266SOL     OW15430   1.136   3.381   0.112 -0.3289 -0.3511  0.1943
 1266SOL    HW115431   1.068   3.323   0.145 -1.1513 -0.1468 -1.1074
 1266SOL    HW215432   1.208   3.356   0.170  0.6755 -0.8457 -1.2702
 1267SOL     OW15433   4.152   1.054   8.993 -0.2989  0.7779  0.3652
 1267SOL    HW115434   4.234   1.019   8.957 -0.9793  0.3734 -0.7946
 1267SOL    HW215435   4.091   1.041   8.920  0.8625 -1.8313 -0.1339
 1268SOL     OW15436   0.887   3.449   3.720  0.5253 -0.1652  0.5729
 1268SOL    HW115437   0.845   3.486   3.642 -1.9547 -3.0220  0.5681
 1268SOL    HW215438   0.810   3.428   3.772  0.5183 -1.1007  0.1755
 1269SOL     OW15439   4.480   0.716  13.017  0.0690  0.1961  0.2449
 1269SOL    HW115440   4.574   0.702  13.020 -0.8367 -5.7157  1.5432
 1269SOL    HW215441   4.465   0.717  13.111  2.3259 -1.0502  0.6225
 1270SOL     OW15442   3.802   4.256   3.412  0.0201 -0.1065 -0.1075
 1270SOL    HW115443   3.753   4.328   3.450  1.7638  0.5392  0.9014
 1270SOL    HW215444   3.868   4.297   3.356 -1.8314  1.4826 -1.1171
 1271SOL     OW15445   2.580   2.982   4.288 -0.3274  0.2165 -0.0784
 1271SOL    HW115446   2.605   2.915   4.225  1.8394  0.8910  0.0606
 1271SOL    HW215447   2.500   2.943   4.322  0.8612 -1.0064  1.3168
 1272SOL     OW15448   3.999   0.463  17.566 -0.1949  0.7123  0.1279
 1272SOL    HW115449   4.085   0.449  17.526 -0.5068 -1.5329  0.2666
 1272SOL    HW215450   3.956   0.526  17.508  1.4878  1.3977 -0.3719
 1273SOL     OW15451   3.405   0.663  11.173 -0.1678 -0.2534  0.1413
 1273SOL    HW115452   3.401   0.659  11.077 -0.2752 -1.9776  0.2064
 1273SOL    HW215453   3.326   0.613  11.191  0.6532 -0.7813  2.2805
 1274SOL     OW15454   0.903   1.463   7.592  0.3036  0.3091 -0.2649
 1274SOL    HW115455   0.960   1.387   7.604  0.6910  0.3722 -1.6659
 1274SOL    HW215456   0.823   1.412   7.575  0.4467 -0.1813  0.5693
 1275SOL     OW15457   3.280   0.046   4.035  0.1703  0.7240 -0.5513
 1275SOL    HW115458   3.219   0.119   4.032 -0.6511 -0.0602 -2.7411
 1275SOL    HW215459   3.276   0.004   3.949  2.9782  1.5684 -1.0916
 1276SOL     OW15460   0.229   2.955   6.140 -0.1035 -0.4998  0.2130
 1276SOL    HW115461   0.151   3.001   6.109 -0.5334 -0.7128  0.9830
 1276SOL    HW215462   0.244   2.896   6.067 -0.9604 -1.5011  0.8500
 1277SOL     OW15463   0.385   3.731   9.439 -0.3421 -0.4565  0.5217
 1277SOL    HW115464   0.387   3.675   9.362 -0.7034  0.7669 -0.3804
 1277SOL    HW215465   0.460   3.701   9.490 -1.4583 -3.5194  0.3730
 1278SOL     OW15466   1.123   2.266   8.516 -0.6463 -0.1861  0.8495
 1278SOL    HW115467   1.032   2.255   8.546 -0.9976  0.0831 -0.1310
 1278SOL    HW215468   1.112   2.322   8.440  2.6892  1.3620  1.4881
 1279SOL     OW15469   2.848   4.018   7.564 -0.2313  0.4752  0.1846
 1279SOL    HW115470   2.807   3.955   7.624 -0.5508 -0.3281 -0.8718
 1279SOL    HW215471   2.924   3.968   7.534  1.5975  2.2117  1.9343
 1280SOL     OW15472   2.629   0.488   5.710 -0.2712  0.3187  0.1150
 1280SOL    HW115473   2.725   0.481   5.707 -0.2548  0.7005 -0.1358
 1280SOL    HW215474   2.600   0.473   5.800  0.7156  0.0456  0.3873
 1281SOL     OW15475   3.172   0.405  13.425 -0.4766 -0.4861 -0.7037
 1281SOL    HW115476   3.265   0.411  13.402 -0.4619  2.2859  0.0315
 1281SOL    HW215477   3.171   0.447  13.511 -2.6129 -0.7852 -0.5689
 1282SOL     OW15478   2.053   0.642   2.380  0.1380 -0.6897  0.0763
 1282SOL    HW115479   1.960   0.637   2.359 -0.7804  1.7351  3.6457
 1282SOL    HW215480   2.040   0.652   2.475  0.0078 -0.4795  0.0352
 1283SOL     OW15481   4.637   4.541   8.830  0.7129 -0.2660  0.4313
 1283SOL    HW115482   4.659   4.452   8.857  1.2178 -1.0957 -2.6357
 1283SOL    HW215483   4.724   4.572   8.804  0.2388  1.7010  1.2478
 1284SOL     OW15484   0.407   4.303   8.591  0.4223  0.0321  0.1108
 1284SOL    HW115485   0.440   4.346   8.670 -1.4008  0.1487  0.8142
 1284SOL    HW215486   0.344   4.243   8.631 -1.0823  0.6901 -1.2826
 1285SOL     OW15487   2.470   2.268  13.138  0.0727  0.0051 -0.5378
 1285SOL    HW115488   2.414   2.234  13.207  2.3054 -1.7097  0.4367
 1285SOL    HW215489   2.405   2.311  13.083  1.5337  1.4697 -1.1231
 1286SOL     OW15490   4.429   4.098   5.558  0.2454  0.0966 -0.7242
 1286SOL    HW115491   4.494   4.109   5.627  0.5693  0.5106 -1.0888
 1286SOL    HW215492   4.385   4.182   5.553 -2.2735 -1.0617  2.8334
 1287SOL     OW15493   3.774   3.201  17.250 -0.0806  0.5860 -0.5597
 1287SOL    HW115494   3.741   3.218  17.162 -0.8609  2.0334  0.0035
 1287SOL    HW215495   3.744   3.111  17.255  1.6716  0.1331  1.9128
 1288SOL     OW15496   1.692   0.039   6.534  0.1060  0.4772 -0.0185
 1288SOL    HW115497   1.782   0.072   6.535 -0.2863  1.4674  2.7784
 1288SOL    HW215498   1.692   4.720   6.613  1.2134 -1.8040 -1.5917
 1289SOL     OW15499   2.509   4.211   7.192 -0.1447 -0.1206 -0.5432
 1289SOL    HW115500   2.486   4.177   7.106 -1.1659 -2.2178  0.5514
 1289SOL    HW215501   2.576   4.275   7.168 -0.1182 -0.4260 -1.2893
 1290SOL     OW15502   0.015   1.985   6.586 -0.3137  0.2838  0.2621
 1290SOL    HW115503   4.697   2.032   6.651 -1.1691  1.6173 -1.4136
 1290SOL    HW215504   4.686   1.919   6.559  0.3092 -0.0810 -0.3058
 1291SOL     OW15505   1.272   1.590   8.259 -0.1497  0.2190 -0.1998
 1291SOL    HW115506   1.355   1.544   8.255 -1.6256 -2.4408 -0.3572
 1291SOL    HW215507   1.293   1.658   8.195  1.8318 -0.0700  0.1430
 1292SOL     OW15508   3.812   2.865   8.261  0.2265  0.1058 -0.5124
 1292SOL    HW115509   3.874   2.861   8.334  0.3762 -0.3287 -0.6639
 1292SOL    HW215510   3.814   2.773   8.236  3.0124 -0.1240  0.5276
 1293SOL     OW15511   4.307   0.303   0.766  0.6064 -0.5408  0.4025
 1293SOL    HW115512   4.347   0.378   0.723 -0.1606  1.2087  2.7299
 1293SOL    HW215513   4.217   0.335   0.756  0.5986 -0.7631 -0.2102
 1294SOL     OW15514   4.466   4.624   3.657  0.1413 -0.3070 -0.1503
 1294SOL    HW115515   4.554   4.659   3.671 -0.1725  0.6347 -0.5525
 1294SOL    HW215516   4.456   4.611   3.563 -1.8944  1.3876 -0.1657
 1295SOL     OW15517   1.499   0.847   0.092  0.1283 -0.7148  0.3883
 1295SOL    HW115518   1.484   0.752   0.101  0.7423 -0.7533  1.0110
 1295SOL    HW215519   1.594   0.855   0.099 -0.1803  2.5413  0.5868
 1296SOL     OW15520   4.062   1.057   2.110 -0.0327 -0.0898 -0.0963
 1296SOL    HW115521   4.083   1.103   2.192 -3.2613 -0.0479  0.7107
 1296SOL    HW215522   4.127   1.085   2.045  1.7823 -0.5902  1.4795
 1297SOL     OW15523   3.480   0.390   6.993 -0.2905 -0.0552  0.4266
 1297SOL    HW115524   3.543   0.414   6.926 -0.0258  0.2737  0.7957
 1297SOL    HW215525   3.432   0.473   6.999 -0.3568 -0.0866  0.3160
 1298SOL     OW15526   3.479   4.319   7.202  0.4368 -0.2003 -0.4295
 1298SOL    HW115527   3.466   4.256   7.132 -0.0542 -0.0125 -0.5046
 1298SOL    HW215528   3.574   4.333   7.206  0.6321 -1.6467 -0.1823
 1299SOL     OW15529   2.247   0.904   2.585 -0.6085  0.0455  0.8110
 1299SOL    HW115530   2.251   0.998   2.604  1.1392  1.0313 -4.6159
 1299SOL    HW215531   2.330   0.878   2.624 -0.6236 -1.1278  0.0352
 1300SOL     OW15532   4.233   0.505   7.252 -0.5683  0.1256  0.7558
 1300SOL    HW115533   4.219   0.592   7.214 -1.7003 -0.5453 -0.3660
 1300SOL    HW215534   4.173   0.461   7.192 -0.1969  0.5184  0.0896
 1301SOL     OW15535   1.738   1.651   3.713  0.0858 -0.1911  0.1570
 1301SOL    HW115536   1.760   1.733   3.669 -0.2447 -1.1287 -1.7425
 1301SOL    HW215537   1.732   1.591   3.639  1.4722 -0.0500 -0.0685
 1302SOL     OW15538   0.559   0.876   3.149 -0.4894  0.5282 -0.4348
 1302SOL    HW115539   0.486   0.830   3.193 -0.4094 -1.7120 -2.6547
 1302SOL    HW215540   0.621   0.873   3.222 -0.4568  1.5600 -0.4277
 1303SOL     OW15541   1.660   1.635   7.130  0.1205  0.2771  0.0205
 1303SOL    HW115542   1.629   1.660   7.043  0.1650 -0.3181 -0.1677
 1303SOL    HW215543   1.739   1.689   7.127  0.6390 -0.5294 -0.7208
 1304SOL     OW15544   0.423   1.042   3.475 -0.4582 -0.2950 -0.1435
 1304SOL    HW115545   0.344   1.095   3.466 -0.3843 -0.0391  0.6939
 1304SOL    HW215546   0.399   0.950   3.465  1.8303 -1.1862  2.2973
 1305SOL     OW15547   3.834   3.572  14.955  0.3532  0.4403 -0.8474
 1305SOL    HW115548   3.774   3.520  15.008  0.4795  2.5641  1.3982
 1305SOL    HW215549   3.810   3.542  14.868 -0.3876  0.0126 -0.4937
 1306SOL     OW15550   0.310   2.346  11.904  0.1805  0.4140  0.4914
 1306SOL    HW115551   0.312   2.302  11.989  0.7316  0.0977  0.3103
 1306SOL    HW215552   0.312   2.272  11.844  2.0986 -0.8062  2.0592
 1307SOL     OW15553   4.076   0.922   9.476  0.8371 -0.1901  0.0209
 1307SOL    HW115554   4.122   0.888   9.399  1.3814  0.6039  0.0036
 1307SOL    HW215555   4.072   0.845   9.532  2.6321 -2.8811 -3.6132
 1308SOL     OW15556   2.201   2.421   1.027  0.1011  0.2286  0.1643
 1308SOL    HW115557   2.245   2.505   1.018  0.4940 -0.0150 -0.1413
 1308SOL    HW215558   2.170   2.398   0.939 -0.0344 -0.7059  0.4517
 1309SOL     OW15559   1.271   4.612   0.059  0.3344 -0.8975 -0.2789
 1309SOL    HW115560   1.185   4.650   0.040  0.7705 -0.4261 -1.3679
 1309SOL    HW215561   1.295   4.575  17.713 -0.3646 -2.3015  0.1450
 1310SOL     OW15562   2.990   3.861  12.836  0.0264  0.1124  0.1602
 1310SOL    HW115563   3.058   3.820  12.890 -0.5726  0.8877  1.4832
 1310SOL    HW215564   2.914   3.819  12.874  0.4709  0.6831  1.6713
 1311SOL     OW15565   2.800   1.111   8.734  0.4045 -0.0527  0.0942
 1311SOL    HW115566   2.809   1.197   8.773  0.7568 -0.8085  1.6809
 1311SOL    HW215567   2.747   1.071   8.803 -1.6349  2.8416  0.1849
 1312SOL     OW15568   3.589   4.395   4.760 -0.1206  0.1651 -0.1265
 1312SOL    HW115569   3.596   4.300   4.765  2.3388  0.4161  0.8929
 1312SOL    HW215570   3.675   4.423   4.791 -0.9231  2.2614  0.2216
 1313SOL     OW15571   2.264   4.543   8.650  0.1211 -0.1652 -0.1616
 1313SOL    HW115572   2.184   4.562   8.601  1.0813  1.6590 -1.0600
 1313SOL    HW215573   2.223   4.533   8.736  0.7608 -0.5142  0.0981
 1314SOL     OW15574   0.324   1.485   8.649  0.5905  0.0871  0.1022
 1314SOL    HW115575   0.378   1.409   8.631  2.1996  0.5534  2.9163
 1314SOL    HW215576   0.340   1.494   8.743 -1.5893  0.9921  0.3983
 1315SOL     OW15577   3.378   1.130   3.893  0.0718  0.6350 -0.3495
 1315SOL    HW115578   3.373   1.037   3.918  3.9331  0.3495 -0.5936
 1315SOL    HW215579   3.470   1.148   3.912  0.0717 -1.5868  1.9328
 1316SOL     OW15580   0.208   2.174   8.151  0.4028 -0.0517  0.6145
 1316SOL    HW115581   0.222   2.253   8.202  1.6096  1.7823 -2.5425
 1316SOL    HW215582   0.290   2.133   8.179  1.1994 -0.4744 -2.3148
 1317SOL     OW15583   1.603   1.901   8.613 -0.6154 -0.2117  0.4291
 1317SOL    HW115584   1.620   1.992   8.635 -1.1441 -0.3174  1.2800
 1317SOL    HW215585   1.538   1.885   8.681 -0.8276 -1.1234  0.0105
 1318SOL     OW15586   0.708   0.494  12.620  0.1465  0.0020  0.0936
 1318SOL    HW115587   0.755   0.418  12.585  0.7246  0.1881  0.4651
 1318SOL    HW215588   0.735   0.563  12.560 -0.1270 -1.6351 -1.8939
 1319SOL     OW15589   0.362   4.268   9.795 -0.7552  0.0279  0.4338
 1319SOL    HW115590   0.277   4.238   9.762 -1.3479  0.1160  1.8387
 1319SOL    HW215591   0.415   4.193   9.769  0.3164  0.5010  1.2325
 1320SOL     OW15592   1.472   0.354   9.597  0.0142 -0.3304  0.3525
 1320SOL    HW115593   1.557   0.398   9.602  0.0838 -0.4952  0.6627
 1320SOL    HW215594   1.457   0.355   9.503  2.4385  2.2326 -0.0044
 1321SOL     OW15595   3.502   1.307   2.980  0.1120 -0.0092  0.2261
 1321SOL    HW115596   3.478   1.215   2.971  0.5037 -0.1273  0.3729
 1321SOL    HW215597   3.454   1.346   3.053 -0.0139  0.8674 -0.3245
 1322SOL     OW15598   0.476   2.231  12.821 -0.2105 -0.0093  0.2969
 1322SOL    HW115599   0.412   2.294  12.788  2.5862  2.4559 -0.3594
 1322SOL    HW215600   0.511   2.193  12.742 -0.1178  0.0542  0.3074
 1323SOL     OW15601   3.606   0.205  14.230  0.0434  0.1308 -0.3329
 1323SOL    HW115602   3.553   0.251  14.164 -1.0104  0.0066  0.4379
 1323SOL    HW215603   3.552   0.127  14.246  1.9752 -0.6793  2.1418
 1324SOL     OW15604   1.632   2.187   7.085 -0.6819 -0.2341 -0.6401
 1324SOL    HW115605   1.727   2.191   7.093 -0.8263 -0.1614  1.0362
 1324SOL    HW215606   1.604   2.255   7.024  0.0110  0.3413 -0.3031
 1325SOL     OW15607   3.812   4.262   4.069 -0.1800 -0.2644 -0.0006
 1325SOL    HW115608   3.775   4.181   4.105  2.0926 -0.4306  1.9294
 1325SOL    HW215609   3.744   4.272   4.002  0.4684 -1.7741 -0.8707
 1326SOL     OW15610   3.717   1.852   0.416  0.1932  0.0802 -0.0041
 1326SOL    HW115611   3.629   1.886   0.397 -0.2976 -1.3204 -0.1912
 1326SOL    HW215612   3.732   1.788   0.347 -0.3181  0.5389 -0.5452
 1327SOL     OW15613   2.346   1.718   4.148  0.2327 -0.7027 -0.2224
 1327SOL    HW115614   2.402   1.644   4.173 -1.1368 -1.3238  1.0289
 1327SOL    HW215615   2.396   1.765   4.082  3.0919 -0.0327  2.4258
 1328SOL     OW15616   3.914   0.428   7.703 -0.0390  0.2288 -0.1470
 1328SOL    HW115617   3.828   0.468   7.713  0.2963  0.9973 -0.3184
 1328SOL    HW215618   3.977   0.500   7.704  1.2948 -0.9380  1.3153
 1329SOL     OW15619   2.362   3.024  10.728  0.0500 -0.3608  0.2967
 1329SOL    HW115620   2.397   3.001  10.642  1.9181 -0.4602  1.0981
 1329SOL    HW215621   2.364   2.940  10.775  2.6430 -0.5229 -0.1036
 1330SOL     OW15622   3.310   1.338   4.697  0.2730  0.4255  0.5001
 1330SOL    HW115623   3.398   1.332   4.735  0.8394  0.0205 -0.8567
 1330SOL    HW215624   3.278   1.248   4.702 -0.6932  0.8028  1.0529
 1331SOL     OW15625   1.381   4.347   1.045  0.1647 -0.6019 -0.7638
 1331SOL    HW115626   1.418   4.397   1.117 -0.3431 -0.9766 -0.2428
 1331SOL    HW215627   1.300   4.396   1.029  0.0590 -0.0612  1.4479
 1332SOL     OW15628   2.604   1.067  17.165 -0.0756 -0.0463  0.1885
 1332SOL    HW115629   2.692   1.078  17.130 -0.4070 -0.0346 -0.6570
 1332SOL    HW215630   2.622   0.984  17.208  3.5137  0.6354  0.0117
 1333SOL     OW15631   4.468   2.987   8.361  0.0381  0.2738 -0.5972
 1333SOL    HW115632   4.534   2.950   8.303  1.1432 -0.5567  1.1931
 1333SOL    HW215633   4.513   3.009   8.443 -1.9820 -1.8052  1.0805
 1334SOL     OW15634   1.346   0.923   2.822  0.0159  0.0872 -0.4427
 1334SOL    HW115635   1.398   0.945   2.745  2.5589  0.8020  1.5078
 1334SOL    HW215636   1.395   0.964   2.893  1.4228 -1.9714 -0.2091
 1335SOL     OW15637   3.419   3.091   2.349  0.1038  0.1657 -0.0736
 1335SOL    HW115638   3.470   3.068   2.271 -0.2061  0.9394 -0.5043
 1335SOL    HW215639   3.345   3.030   2.345  0.4074 -0.2767  0.9991
 1336SOL     OW15640   3.476   2.130   4.929  0.3613  0.1935 -0.0672
 1336SOL    HW115641   3.492   2.142   5.023  2.1537 -1.8026 -0.1010
 1336SOL    HW215642   3.553   2.167   4.888  1.3431 -1.8339 -0.0720
 1337SOL     OW15643   2.326   0.695   4.202 -0.4443 -0.3294 -0.5102
 1337SOL    HW115644   2.295   0.748   4.276 -3.9931 -2.1481 -0.7318
 1337SOL    HW215645   2.238   0.676   4.171 -2.0295  1.3139  3.0300
 1338SOL     OW15646   2.933   0.450   8.659 -0.2532 -0.4628  0.1866
 1338SOL    HW115647   2.895   0.434   8.572 -0.4587  0.7736  0.0433
 1338SOL    HW215648   3.027   0.444   8.643 -0.3589  0.0044 -0.6134
 1339SOL     OW15649   0.445   1.513  10.912 -0.4733  0.1837 -0.3625
 1339SOL    HW115650   0.444   1.609  10.916 -2.5573  0.1429  0.0879
 1339SOL    HW215651   0.538   1.493  10.909 -0.9867 -1.9003 -2.2481
 1340SOL     OW15652   0.944   0.265   1.260 -0.2863 -0.1229 -0.1716
 1340SOL    HW115653   0.891   0.344   1.250 -0.7826 -0.6067 -1.4013
 1340SOL    HW215654   0.917   0.212   1.185  1.4370 -0.2981 -0.6672
 1341SOL     OW15655   2.587   1.410  11.649 -0.0207 -0.1180 -0.0426
 1341SOL    HW115656   2.641   1.419  11.727  1.8645  2.3227 -1.6726
 1341SOL    HW215657   2.636   1.342  11.603  1.2745  1.5201 -1.0708
 1342SOL     OW15658   3.199   0.319   3.716 -0.2026  0.2695 -0.1055
 1342SOL    HW115659   3.223   0.232   3.748  0.5575  0.5805  0.1623
 1342SOL    HW215660   3.179   0.361   3.800 -1.2550  1.1651 -0.7913
 1343SOL     OW15661   3.872   4.133  13.130  0.1897  0.1605  0.4848
 1343SOL    HW115662   3.816   4.149  13.205 -0.7207 -1.8483  0.2215
 1343SOL    HW215663   3.951   4.168  13.172  0.4343 -0.2602  0.3786
 1344SOL     OW15664   2.958   1.913   8.393  0.0733 -0.1589  0.4621
 1344SOL    HW115665   2.870   1.947   8.380  0.7893  0.8267 -1.7502
 1344SOL    HW215666   2.990   1.962   8.468 -0.0842  1.4036 -0.4907
 1345SOL     OW15667   1.342   3.261   5.705  0.6376  0.8628 -0.1671
 1345SOL    HW115668   1.254   3.289   5.728  1.1672  1.4290  1.1907
 1345SOL    HW215669   1.374   3.235   5.791  0.4775  0.3707 -0.2557
 1346SOL     OW15670   0.321   3.351   3.432 -0.3383 -0.1745 -0.2299
 1346SOL    HW115671   0.262   3.294   3.382 -0.7736  1.1257 -1.2016
 1346SOL    HW215672   0.278   3.436   3.420  0.8483  0.4635  0.1166
 1347SOL     OW15673   2.391   1.160   5.729 -0.6707 -0.0204 -0.2252
 1347SOL    HW115674   2.424   1.091   5.672  0.7771  0.7826 -0.3667
 1347SOL    HW215675   2.328   1.201   5.670 -0.7839 -0.4637 -0.4131
 1348SOL     OW15676   1.250   1.697  11.280 -0.2681  0.4782 -0.0778
 1348SOL    HW115677   1.345   1.699  11.271 -0.2306 -1.3045 -0.1753
 1348SOL    HW215678   1.238   1.607  11.310  1.1091 -0.5253 -2.5372
 1349SOL     OW15679   0.587   1.810   4.230  0.6095  0.7158 -0.9419
 1349SOL    HW115680   0.658   1.860   4.271  1.5694 -0.7852 -0.7375
 1349SOL    HW215681   0.614   1.719   4.246 -1.9472 -0.3805 -2.9377
 1350SOL     OW15682   0.086   2.913   5.581  0.5983  0.6670 -0.0097
 1350SOL    HW115683   0.180   2.897   5.595  0.1394 -0.6483  1.4745
 1350SOL    HW215684   0.091   3.001   5.543  1.8757  1.6885  2.4961
 1351SOL     OW15685   2.668   1.396  15.326 -0.0742 -0.4115 -0.2564
 1351SOL    HW115686   2.644   1.453  15.400  2.1359  0.3462 -0.1307
 1351SOL    HW215687   2.642   1.310  15.358  1.7809 -0.6762  0.5345
 1352SOL     OW15688   1.843   3.863   9.228  0.0302  0.3455 -0.1187
 1352SOL    HW115689   1.764   3.816   9.254 -1.0523  0.6000 -2.9454
 1352SOL    HW215690   1.882   3.804   9.164 -1.7783  0.0757 -0.9706
 1353SOL     OW15691   0.963   2.509  16.894 -0.0727  0.2720 -0.8928
 1353SOL    HW115692   0.897   2.463  16.946 -1.1108  1.2771 -1.3450
 1353SOL    HW215693   1.003   2.442  16.838  1.0435  0.9218 -0.8591
 1354SOL     OW15694   1.465   0.749  16.833 -0.5263 -0.0749 -0.3986
 1354SOL    HW115695   1.490   0.812  16.765  0.7491 -0.7586 -0.5704
 1354SOL    HW215696   1.421   0.810  16.892 -1.2370  1.0013 -2.0416
 1355SOL     OW15697   0.548   3.585   7.138  0.3325 -0.0328 -0.1752
 1355SOL    HW115698   0.575   3.661   7.189 -3.2118  0.6530  0.7151
 1355SOL    HW215699   0.565   3.616   7.049  2.3660  1.4106  0.7222
 1356SOL     OW15700   1.729   3.914   9.604  0.1413 -0.7660 -0.4439
 1356SOL    HW115701   1.811   3.960   9.584  0.4496 -1.1064  0.0377
 1356SOL    HW215702   1.692   3.909   9.516  0.8122 -0.2896 -0.7606
 1357SOL     OW15703   2.201   0.506   7.722  0.7798 -0.4779  0.3331
 1357SOL    HW115704   2.183   0.589   7.765 -1.5736 -1.2096  0.7489
 1357SOL    HW215705   2.169   0.436   7.780 -0.7058  2.0421  2.5677
 1358SOL     OW15706   2.820   2.037   5.985  0.2145  0.2456 -0.3204
 1358SOL    HW115707   2.907   2.008   6.014  0.0139 -1.2246 -1.1785
 1358SOL    HW215708   2.793   1.957   5.939 -0.4716  0.2493  0.0629
 1359SOL     OW15709   0.399   2.112   8.819  0.7049  0.2265 -0.0002
 1359SOL    HW115710   0.324   2.168   8.838  0.6787  0.0716  0.3633
 1359SOL    HW215711   0.374   2.094   8.729 -0.5253 -2.1752  0.8286
 1360SOL     OW15712   0.449   2.211  17.031  0.0531 -0.0501  0.0438
 1360SOL    HW115713   0.410   2.128  17.060  1.0296 -0.1452  1.0970
 1360SOL    HW215714   0.459   2.256  17.115 -3.5520 -0.5156  0.7307
 1361SOL     OW15715   1.415   3.913   6.182  0.3902  0.4268 -0.0050
 1361SOL    HW115716   1.363   3.913   6.101 -0.2036  1.3109  0.3794
 1361SOL    HW215717   1.428   3.819   6.193  0.9262  0.3387 -1.3475
 1362SOL     OW15718   4.708   0.984  11.732  0.1066  0.3282  0.0339
 1362SOL    HW115719   0.029   0.954  11.804  0.4285 -2.7179 -1.4880
 1362SOL    HW215720   0.025   0.964  11.655  1.8390  1.5119  0.8976
 1363SOL     OW15721   2.996   0.668   2.896 -0.6210  0.1492 -0.6109
 1363SOL    HW115722   2.954   0.628   2.819 -0.2530 -1.4600  0.0261
 1363SOL    HW215723   2.915   0.676   2.946 -0.0835  0.2496  0.2351
 1364SOL     OW15724   4.522   3.257   6.748 -0.0828  0.5174 -0.3097
 1364SOL    HW115725   4.469   3.188   6.707  0.8251  0.1940 -0.9354
 1364SOL    HW215726   4.507   3.240   6.841  0.7752 -2.1727 -0.6600
 1365SOL     OW15727   2.288   3.468   2.187  0.1802 -0.0601  0.0530
 1365SOL    HW115728   2.262   3.480   2.278 -0.6731 -0.8954 -0.0816
 1365SOL    HW215729   2.209   3.428   2.150  0.0528 -0.6480  0.9690
 1366SOL     OW15730   0.559   1.170   5.013  0.1356 -0.7624 -0.0078
 1366SOL    HW115731   0.652   1.177   4.991  0.0507 -0.3518 -0.2211
 1366SOL    HW215732   0.532   1.259   5.035 -0.5271 -0.7735 -0.7482
 1367SOL     OW15733   1.974   1.105  16.392 -0.4022  0.3739 -0.2697
 1367SOL    HW115734   1.953   1.036  16.329 -1.6963 -2.0265  2.7827
 1367SOL    HW215735   2.038   1.053  16.440  1.8583  2.3590 -1.1042
 1368SOL     OW15736   2.685   3.062   6.206 -0.4044  0.3442 -0.1776
 1368SOL    HW115737   2.690   3.100   6.294  0.4978 -2.7779  1.1116
 1368SOL    HW215738   2.621   2.995   6.230  1.9476 -2.3887 -1.5549
 1369SOL     OW15739   4.454   3.782   6.074  0.4489 -0.1537  0.3716
 1369SOL    HW115740   4.401   3.706   6.051  1.2872 -0.8124  0.6191
 1369SOL    HW215741   4.542   3.743   6.075  0.4503 -0.1424  0.8325
 1370SOL     OW15742   1.974   1.926   7.549 -0.3558  0.3460 -0.4993
 1370SOL    HW115743   2.047   1.882   7.507 -0.1129  0.8583 -0.6197
 1370SOL    HW215744   2.016   1.936   7.634  0.0814 -2.3959 -0.4174
 1371SOL     OW15745   2.369   4.506   4.854 -0.0241 -0.1245 -0.4882
 1371SOL    HW115746   2.443   4.550   4.895 -0.3753 -0.8399  0.8962
 1371SOL    HW215747   2.316   4.583   4.832 -0.9530 -0.5198  0.3767
 1372SOL     OW15748   2.656   3.885   2.911 -0.8379 -0.4255  0.4108
 1372SOL    HW115749   2.585   3.851   2.965 -2.0572  0.6488 -0.4961
 1372SOL    HW215750   2.732   3.858   2.961 -0.3219  0.2349 -0.0196
 1373SOL     OW15751   4.695   2.784   9.432  0.0492  0.1315 -0.0145
 1373SOL    HW115752   4.648   2.777   9.515  1.7696 -1.0358  0.8470
 1373SOL    HW215753   4.722   2.876   9.425 -3.2906  1.3040  2.6337
 1374SOL     OW15754   3.052   2.621   4.775 -0.0429  0.1362 -0.4108
 1374SOL    HW115755   3.038   2.559   4.846 -0.2345  1.9835  1.1472
 1374SOL    HW215756   3.090   2.561   4.710 -1.4954 -0.5575 -0.6325
 1375SOL     OW15757   1.804   1.139  12.002  0.3032  0.0156  0.6608
 1375SOL    HW115758   1.826   1.223  12.043 -0.3261 -0.4219  1.9061
 1375SOL    HW215759   1.856   1.142  11.922 -1.0224  0.1401 -0.2020
 1376SOL     OW15760   2.807   3.392   8.770  0.1295  0.0924  0.7280
 1376SOL    HW115761   2.742   3.450   8.731 -0.6888 -0.1698  1.7131
 1376SOL    HW215762   2.763   3.307   8.775  2.3544 -0.9793  2.1899
 1377SOL     OW15763   2.948   3.745   1.863  0.3147 -0.2664  0.7778
 1377SOL    HW115764   3.040   3.727   1.880  0.2888  0.2884  1.5165
 1377SOL    HW215765   2.897   3.664   1.864 -1.0644  0.5526 -2.5257
 1378SOL     OW15766   4.518   3.325   4.022 -0.2636 -0.6729  0.0257
 1378SOL    HW115767   4.449   3.259   4.015 -0.8242 -0.1614  0.6776
 1378SOL    HW215768   4.483   3.396   3.969 -1.6790 -1.9675 -0.7472
 1379SOL     OW15769   2.708   3.464   7.893 -0.3576 -0.0464  0.1906
 1379SOL    HW115770   2.671   3.552   7.902  1.5464  0.5200  2.7525
 1379SOL    HW215771   2.629   3.412   7.905 -1.2043  1.5641  1.7274
 1380SOL     OW15772   0.829   0.421   3.874 -0.0673  0.3520 -0.2425
 1380SOL    HW115773   0.919   0.446   3.851  0.2421 -1.5647 -1.0805
 1380SOL    HW215774   0.797   0.378   3.795  0.3467 -0.4962  0.0488
 1381SOL     OW15775   1.356   3.919  13.860 -0.2467  0.6089 -0.0016
 1381SOL    HW115776   1.306   3.928  13.779 -1.6604 -4.4330  0.3398
 1381SOL    HW215777   1.436   3.963  13.832  0.0584  0.3990  0.5492
 1382SOL     OW15778   4.066   2.230   8.097 -0.5886  0.3924 -0.5793
 1382SOL    HW115779   4.067   2.309   8.151  1.0831 -0.0252 -0.0039
 1382SOL    HW215780   4.095   2.165   8.160 -2.7386  0.6285  0.6534
 1383SOL     OW15781   4.696   3.851  13.345 -0.1466 -0.6637  0.3096
 1383SOL    HW115782   0.002   3.928  13.385 -0.2744 -0.6122  0.3411
 1383SOL    HW215783   4.667   3.820  13.430 -0.8055  0.3549  0.4658
 1384SOL     OW15784   0.495   0.092   3.025  0.0140 -0.0092 -0.3377
 1384SOL    HW115785   0.572   0.060   2.979  0.3786  1.0710 -0.4861
 1384SOL    HW215786   0.426   0.079   2.960 -0.6509  2.8739 -0.2167
 1385SOL     OW15787   3.814   2.792   4.951 -0.2559  0.3104 -0.2036
 1385SOL    HW115788   3.887   2.731   4.964  0.1948  0.6915 -0.9085
 1385SOL    HW215789   3.855   2.842   4.880  0.2127 -1.5864 -1.2904
 1386SOL     OW15790   2.041   4.242   6.040  0.2907 -0.0977 -0.1569
 1386SOL    HW115791   2.006   4.207   6.122  1.5863 -0.6981  0.1554
 1386SOL    HW215792   2.067   4.161   5.995 -0.4004  0.0995 -0.8971
 1387SOL     OW15793   2.892   3.929   4.978 -0.2510  0.1070 -0.2829
 1387SOL    HW115794   2.839   3.995   5.023 -0.9816 -2.2841  2.3990
 1387SOL    HW215795   2.869   3.937   4.886 -0.1278 -0.6558 -0.3798
 1388SOL     OW15796   2.812   0.354   1.191 -0.0797  0.5539  0.0015
 1388SOL    HW115797   2.790   0.405   1.269  0.9435 -0.1709  0.7535
 1388SOL    HW215798   2.868   0.282   1.220 -0.1133  0.4676 -0.1435
 1389SOL     OW15799   0.840   0.297  11.496 -0.1845  0.3180  0.0793
 1389SOL    HW115800   0.785   0.220  11.508 -0.3043  0.2862 -0.6415
 1389SOL    HW215801   0.812   0.355  11.567 -2.5433 -0.7281  0.0034
 1390SOL     OW15802   1.332   2.888   7.837 -0.2764  0.8438 -0.1376
 1390SOL    HW115803   1.413   2.939   7.831  0.4335 -0.3644 -0.7400
 1390SOL    HW215804   1.313   2.869   7.745  1.7054  0.5744 -0.4842
 1391SOL     OW15805   1.667   2.186  10.071 -0.1147  0.3647 -0.7238
 1391SOL    HW115806   1.669   2.221  10.160 -2.2867  0.7122 -0.8218
 1391SOL    HW215807   1.587   2.134  10.072  0.8990 -1.1993  0.0467
 1392SOL     OW15808   4.022   2.407   8.860  0.0483  0.5304  0.2140
 1392SOL    HW115809   4.103   2.381   8.903  1.0718  1.1441 -1.3749
 1392SOL    HW215810   3.977   2.450   8.933 -0.6649  0.9893 -0.4958
 1393SOL     OW15811   1.128   4.283   2.614 -0.4873  0.1720 -0.1558
 1393SOL    HW115812   1.185   4.355   2.586  0.0735 -0.5832 -0.9527
 1393SOL    HW215813   1.188   4.212   2.636  1.9364  2.6310  1.1972
 1394SOL     OW15814   0.835   1.218  10.042 -0.0996  0.8567 -0.3786
 1394SOL    HW115815   0.913   1.266  10.068 -1.4841  1.3963  2.7820
 1394SOL    HW215816   0.813   1.263   9.960  0.9184  1.1802 -0.4712
 1395SOL     OW15817   4.560   4.277   1.971 -0.6354  0.7975 -0.4379
 1395SOL    HW115818   4.537   4.352   2.026  0.7066 -0.0231  1.2308
 1395SOL    HW215819   4.547   4.202   2.028 -2.6168  1.8461  0.5040
 1396SOL     OW15820   3.993   1.289  15.293  0.5726  0.0045 -0.0669
 1396SOL    HW115821   3.952   1.229  15.231 -0.7392  0.1014  0.7066
 1396SOL    HW215822   4.077   1.242  15.292 -0.4451 -1.8483 -0.0983
 1397SOL     OW15823   3.566   3.558  15.506 -0.4257 -0.0384  0.7493
 1397SOL    HW115824   3.631   3.607  15.455 -0.6419 -1.1658 -0.6224
 1397SOL    HW215825   3.511   3.517  15.439  1.7639 -1.2242 -0.3555
 1398SOL     OW15826   1.378   0.719   6.312 -0.4046 -0.4976  0.0164
 1398SOL    HW115827   1.388   0.804   6.271  0.7233  1.2729  3.9173
 1398SOL    HW215828   1.311   0.682   6.255 -0.7705 -0.4618  0.4181
 1399SOL     OW15829   2.277   4.107   0.163 -0.0987 -0.1011  0.4119
 1399SOL    HW115830   2.286   4.115   0.258  0.3313  1.2049  0.2631
 1399SOL    HW215831   2.198   4.053   0.167 -0.2121  0.0748  0.5714
 1400SOL     OW15832   2.718   2.413  15.295 -0.1851 -0.4619 -0.2508
 1400SOL    HW115833   2.699   2.502  15.323  1.6993  0.4156 -1.7335
 1400SOL    HW215834   2.776   2.430  15.221 -1.1070  0.5015 -0.7525
 1401SOL     OW15835   2.123   3.811  13.160  0.2929 -0.1158 -0.0832
 1401SOL    HW115836   2.209   3.771  13.174  0.1707  0.0062  0.9770
 1401SOL    HW215837   2.098   3.774  13.075 -1.5709  0.3906  0.2448
 1402SOL     OW15838   0.074   2.660   9.785 -0.2087  0.5615  0.2740
 1402SOL    HW115839   0.050   2.692   9.872  1.1882 -1.3067  1.3457
 1402SOL    HW215840   0.003   2.704   9.738 -0.1074  0.9695  0.5019
 1403SOL     OW15841   4.426   1.938  11.103  0.1501  0.7725  0.4249
 1403SOL    HW115842   4.383   1.954  11.187 -2.3620  1.2254 -0.9427
 1403SOL    HW215843   4.401   1.847  11.086 -0.7903  1.0685  0.2281
 1404SOL     OW15844   0.924   0.724  16.411 -0.2964 -0.3388 -0.0911
 1404SOL    HW115845   0.939   0.670  16.488  2.0727  0.2702 -0.1262
 1404SOL    HW215846   0.906   0.806  16.458  1.3786 -1.2565  2.1359
 1405SOL     OW15847   1.196   3.128   2.144  0.0499 -0.2411 -0.0752
 1405SOL    HW115848   1.233   3.055   2.096  1.8563  1.2988 -1.0063
 1405SOL    HW215849   1.261   3.134   2.214  0.0593 -0.5157 -0.0613
 1406SOL     OW15850   0.584   2.768   4.440 -0.2763 -0.4862 -0.1211
 1406SOL    HW115851   0.515   2.830   4.416  2.7193  2.4285 -1.2466
 1406SOL    HW215852   0.532   2.695   4.473  0.4900 -0.5638  0.9324
 1407SOL     OW15853   1.685   4.063   3.801 -0.6433  0.0597  0.0210
 1407SOL    HW115854   1.727   3.984   3.836  0.0598  1.6723  2.8237
 1407SOL    HW215855   1.653   4.035   3.716  1.4979  0.8709 -1.0586
 1408SOL     OW15856   0.590   1.041   2.466  0.3764  0.5766 -0.1921
 1408SOL    HW115857   0.683   1.026   2.479 -0.1918 -1.2302  1.7414
 1408SOL    HW215858   0.596   1.049   2.371  1.3804  1.6176 -0.0344
 1409SOL     OW15859   0.212   0.182   6.109 -0.0072 -0.3311 -0.4283
 1409SOL    HW115860   0.186   0.206   6.020 -1.8009 -0.0236  0.1865
 1409SOL    HW215861   0.262   0.102   6.096 -2.2798 -1.7691 -0.2552
 1410SOL     OW15862   3.014   4.691   4.612 -0.2730 -0.1098  0.2820
 1410SOL    HW115863   2.952   0.009   4.561 -1.8994 -2.0851  0.2239
 1410SOL    HW215864   3.009   4.727   4.700  3.1049  0.7777  0.1041
 1411SOL     OW15865   0.376   3.896   6.988  0.5162 -0.1082  0.5490
 1411SOL    HW115866   0.321   3.818   6.991 -0.9071  0.9153  0.9521
 1411SOL    HW215867   0.459   3.867   7.027  1.3780  0.3179 -0.9948
 1412SOL     OW15868   0.121   2.812   4.293  0.3060  0.0719  0.1883
 1412SOL    HW115869   0.063   2.845   4.362 -0.4006 -1.8546  0.5124
 1412SOL    HW215870   0.074   2.832   4.211 -1.3203  0.0563  1.1139
 1413SOL     OW15871   3.752   3.277   8.822  0.1347  0.0907  0.0398
 1413SOL    HW115872   3.675   3.232   8.858 -1.5836  2.4979 -0.6333
 1413SOL    HW215873   3.720   3.299   8.735  0.4666 -0.8128 -0.3179
 1414SOL     OW15874   0.723   0.225  17.175 -0.5942 -0.1558 -0.1844
 1414SOL    HW115875   0.645   0.181  17.141  0.4110 -0.4572 -2.0631
 1414SOL    HW215876   0.676   0.295  17.220  1.3345  1.0861 -0.1060
 1415SOL     OW15877   2.107   3.239   1.913 -0.3404 -0.5276  0.1601
 1415SOL    HW115878   2.049   3.171   1.948  0.1009 -2.0230 -2.0218
 1415SOL    HW215879   2.084   3.313   1.970  0.2570 -1.0470  1.0681
 1416SOL     OW15880   3.110   2.445   8.056  0.1309  0.3297 -0.8219
 1416SOL    HW115881   3.178   2.457   7.990 -0.0357 -1.1862 -1.2749
 1416SOL    HW215882   3.118   2.350   8.066 -0.2980  0.2124 -1.6003
 1417SOL     OW15883   4.725   1.589   7.971 -0.2109 -0.5188 -0.0748
 1417SOL    HW115884   0.056   1.545   7.918 -0.9666 -1.0471 -0.5901
 1417SOL    HW215885   4.695   1.521   8.032  2.0756  0.0321  1.6307
 1418SOL     OW15886   3.759   0.155   2.885  0.1328 -0.1799 -0.2785
 1418SOL    HW115887   3.818   0.105   2.942  1.3009  0.8236 -0.6094
 1418SOL    HW215888   3.802   0.241   2.887  0.2960 -0.2819  0.4229
 1419SOL     OW15889   1.200   3.239   9.906 -0.0991  0.3179  0.2486
 1419SOL    HW115890   1.148   3.310   9.944  1.6858  1.5348  0.4314
 1419SOL    HW215891   1.206   3.191   9.988 -0.4159  0.5835  0.4295
 1420SOL     OW15892   2.515   3.564  16.995 -0.2243 -0.3008 -0.0120
 1420SOL    HW115893   2.514   3.537  17.087 -1.2581  0.7709  0.2925
 1420SOL    HW215894   2.544   3.483  16.953  0.9881  0.7021 -1.1328
 1421SOL     OW15895   4.143   0.129   7.591  0.0803 -0.3058  0.4329
 1421SOL    HW115896   4.161   0.191   7.519 -2.6030 -0.3303 -0.2708
 1421SOL    HW215897   4.116   0.178   7.669 -0.1563 -0.2459  0.3153
 1422SOL     OW15898   4.260   0.818  17.017  0.0841 -0.0652  0.2976
 1422SOL    HW115899   4.236   0.767  17.095 -2.4157 -1.4814 -1.4311
 1422SOL    HW215900   4.228   0.901  17.052  0.7726  1.6457 -3.1787
 1423SOL     OW15901   3.795   4.541   7.859  0.1388  0.2837 -0.5464
 1423SOL    HW115902   3.705   4.510   7.850  0.5632 -1.1028  0.0436
 1423SOL    HW215903   3.821   4.475   7.923 -1.3786  0.3645  0.1388
 1424SOL     OW15904   0.609   1.871  17.246  0.0234  0.4641  0.6891
 1424SOL    HW115905   0.631   1.872  17.339  1.2392 -0.5706  0.4054
 1424SOL    HW215906   0.681   1.924  17.212 -0.3194  0.5110  0.0339
 1425SOL     OW15907   2.738   0.503   6.300 -0.0575 -0.3216  0.3632
 1425SOL    HW115908   2.732   0.464   6.387 -0.6159  1.2180  1.0173
 1425SOL    HW215909   2.679   0.579   6.309 -1.8021 -1.5374 -0.8340
 1426SOL     OW15910   0.232   0.321   6.351  0.3126  0.0751  0.1156
 1426SOL    HW115911   0.208   0.281   6.268  1.8442 -0.5565 -0.0240
 1426SOL    HW215912   0.150   0.302   6.396  1.2603 -1.8753  1.0311
 1427SOL     OW15913   3.007   1.726  16.018  0.0766  0.4538 -0.2381
 1427SOL    HW115914   3.092   1.696  15.986 -0.2779 -0.1619 -0.6183
 1427SOL    HW215915   2.969   1.639  16.030  1.6628 -0.0345  1.2825
 1428SOL     OW15916   2.686   3.254   3.684  0.0086 -0.0551  0.1718
 1428SOL    HW115917   2.714   3.259   3.593 -2.1842  0.8168 -0.4556
 1428SOL    HW215918   2.604   3.206   3.677  0.7852 -1.2917 -0.4255
 1429SOL     OW15919   0.682   1.321  11.112 -0.3934 -0.4767 -0.0259
 1429SOL    HW115920   0.608   1.259  11.109  0.3658 -1.2884 -1.7455
 1429SOL    HW215921   0.724   1.323  11.027 -2.6946  0.6344 -1.1407
 1430SOL     OW15922   1.255   2.140   1.582  0.0351 -0.2160  0.2667
 1430SOL    HW115923   1.191   2.178   1.642  1.1923  0.3893  1.0958
 1430SOL    HW215924   1.280   2.060   1.627  0.3925 -0.8883 -1.1034
 1431SOL     OW15925   4.362   3.121   3.342 -0.1065 -0.2541  0.7600
 1431SOL    HW115926   4.298   3.089   3.406  0.4837  2.2313  2.6144
 1431SOL    HW215927   4.389   3.201   3.388  0.9270 -0.9955  1.4520
 1432SOL     OW15928   4.117   2.189   2.750 -0.3469  0.0664 -0.0595
 1432SOL    HW115929   4.125   2.222   2.839 -3.1093 -0.2118  0.2900
 1432SOL    HW215930   4.190   2.129   2.740 -1.3405 -1.2489  0.6336
 1433SOL     OW15931   1.025   4.473  16.824 -0.1494  0.0374  0.3227
 1433SOL    HW115932   0.961   4.401  16.820  1.4007 -1.3464  0.3375
 1433SOL    HW215933   1.066   4.454  16.740 -0.9293  0.5389 -0.1704
 1434SOL     OW15934   2.943   2.986   6.957  0.6611  0.4783  0.1832
 1434SOL    HW115935   3.004   2.999   7.030  1.5988 -1.8541 -0.1822
 1434SOL    HW215936   2.917   2.896   6.976 -0.1165  1.0794  1.8977
 1435SOL     OW15937   1.267   1.969   2.870  0.6431 -0.0184 -0.1985
 1435SOL    HW115938   1.307   2.055   2.869 -0.7953  0.6749  1.3124
 1435SOL    HW215939   1.339   1.908   2.887 -0.4862 -1.4179 -0.4015
 1436SOL     OW15940   2.387   2.396   6.463 -0.0506 -0.0696 -0.1539
 1436SOL    HW115941   2.298   2.426   6.483  0.6731  2.4091 -0.6570
 1436SOL    HW215942   2.393   2.431   6.374 -0.6161 -3.1613 -1.3951
 1437SOL     OW15943   4.307   0.096   8.152 -0.1562 -0.5514 -0.3947
 1437SOL    HW115944   4.331   0.150   8.077  0.0445 -0.5443 -0.3236
 1437SOL    HW215945   4.393   0.067   8.180 -0.1954  0.8559  1.1600
 1438SOL     OW15946   4.497   2.276   2.439  0.3044  0.0784  0.4941
 1438SOL    HW115947   4.443   2.340   2.485 -1.7451 -1.6430  0.4713
 1438SOL    HW215948   4.441   2.265   2.362 -0.7107 -0.3253  1.2953
 1439SOL     OW15949   3.534   4.122  11.765 -0.2800 -0.1237 -0.3537
 1439SOL    HW115950   3.516   4.204  11.811 -2.8543 -1.3192  0.7863
 1439SOL    HW215951   3.629   4.136  11.764 -0.0539 -1.4168  1.5630
 1440SOL     OW15952   3.057   4.404   3.878 -0.2448  0.5290  0.1846
 1440SOL    HW115953   2.984   4.387   3.818 -0.6402 -0.9799  1.0794
 1440SOL    HW215954   3.073   4.311   3.894 -0.9656  0.3520 -0.1169
 1441SOL     OW15955   2.336   2.897  15.519  0.0792  0.2304  0.5392
 1441SOL    HW115956   2.308   2.806  15.529  0.0632  0.1318 -0.3287
 1441SOL    HW215957   2.345   2.906  15.424 -0.0931  0.5320  0.5506
 1442SOL     OW15958   2.817   1.697  17.498  0.4581  0.6693 -0.2750
 1442SOL    HW115959   2.727   1.701  17.531  0.2467 -2.2116 -0.5067
 1442SOL    HW215960   2.810   1.623  17.438 -0.2603  1.4489 -1.1405
 1443SOL     OW15961   0.939   2.012   6.572 -0.1467 -0.4264 -0.1260
 1443SOL    HW115962   0.881   2.073   6.618  1.7117  1.6115 -0.4956
 1443SOL    HW215963   0.871   1.963   6.526 -2.4545  2.8622 -0.2349
 1444SOL     OW15964   1.156   2.795   7.599  0.0130 -0.1009  0.4091
 1444SOL    HW115965   1.196   2.861   7.543 -0.8427  0.5431  0.5691
 1444SOL    HW215966   1.105   2.736   7.543  3.0863 -0.2614 -2.2093
 1445SOL     OW15967   1.343   4.589  16.875 -0.3272 -0.5466  0.2378
 1445SOL    HW115968   1.329   4.628  16.789 -0.5948  0.9871  0.9782
 1445SOL    HW215969   1.439   4.589  16.883 -0.3285  0.5563  0.1860
 1446SOL     OW15970   1.034   3.682   4.804 -0.0141 -0.0250 -0.3233
 1446SOL    HW115971   0.987   3.765   4.816 -0.7316 -0.4347 -0.3301
 1446SOL    HW215972   1.116   3.718   4.836  0.3077  0.4331 -1.6595
 1447SOL     OW15973   4.296   4.347   2.744  0.0425  0.0705  0.0940
 1447SOL    HW115974   4.271   4.294   2.819  1.6904 -2.2413 -0.9988
 1447SOL    HW215975   4.217   4.350   2.690 -0.7216 -1.2887  1.1499
 1448SOL     OW15976   3.500   1.812   5.716  0.8398  0.8845  0.4087
 1448SOL    HW115977   3.518   1.885   5.655 -3.3210  1.0079 -0.6445
 1448SOL    HW215978   3.582   1.765   5.701  0.3978 -0.2424  1.5669
 1449SOL     OW15979   0.516   2.003   7.313  0.0187  0.0393 -0.1789
 1449SOL    HW115980   0.477   2.022   7.228 -2.2711 -2.1809  0.3970
 1449SOL    HW215981   0.506   2.086   7.360  0.1224  0.2453 -0.5206
 1450SOL     OW15982   3.163   2.453   5.223  0.2665 -0.0557  0.2555
 1450SOL    HW115983   3.194   2.405   5.300  1.9908  1.6921  0.6695
 1450SOL    HW215984   3.250   2.488   5.200  1.0107 -2.2226 -0.2073
 1451SOL     OW15985   0.565   0.362   2.783  0.1795 -0.0142 -0.3744
 1451SOL    HW115986   0.616   0.303   2.839 -0.5485 -1.5238 -1.2852
 1451SOL    HW215987   0.519   0.296   2.730  1.6291 -0.3868 -1.1660
 1452SOL     OW15988   4.284   2.905   0.776 -0.7178 -0.3084  0.0060
 1452SOL    HW115989   4.283   2.946   0.690  3.4038  1.4864  0.8111
 1452SOL    HW215990   4.194   2.916   0.809  0.0750  0.4767  1.9352
 1453SOL     OW15991   0.152   4.048   4.530 -0.3547 -0.8977 -0.1094
 1453SOL    HW115992   0.246   4.051   4.545 -0.0930 -0.5546 -1.8293
 1453SOL    HW215993   0.124   3.967   4.573  0.9162  0.2634  2.8788
 1454SOL     OW15994   0.363   4.630  10.162 -0.5529  0.3075 -0.2004
 1454SOL    HW115995   0.437   4.682  10.130  0.3428  1.1574  3.2288
 1454SOL    HW215996   0.283   4.652  10.114 -0.2079  1.6532 -0.1582
 1455SOL     OW15997   0.937   1.951   8.701  0.3040  1.0116 -0.6380
 1455SOL    HW115998   0.943   1.925   8.609 -1.6796  1.3542 -0.8721
 1455SOL    HW215999   0.920   1.868   8.747 -1.1755  1.9632  0.5426
 1456SOL     OW16000   3.459   2.233   6.127 -0.1849 -0.1781  0.2322
 1456SOL    HW116001   3.490   2.143   6.119  0.5776  0.3041 -2.2925
 1456SOL    HW216002   3.529   2.286   6.090 -0.6886  1.8859  2.1859
 1457SOL     OW16003   1.393   2.962   4.402  0.0682  0.7395 -0.2023
 1457SOL    HW116004   1.307   2.969   4.442  0.3504  0.6005  0.4223
 1457SOL    HW216005   1.454   2.939   4.472  1.3311  2.4219 -0.7314
 1458SOL     OW16006   1.307   2.585  17.352 -0.4662 -0.4242 -0.7129
 1458SOL    HW116007   1.312   2.678  17.333  2.9354 -0.3639  0.5517
 1458SOL    HW216008   1.302   2.547  17.264  1.1655 -0.9148 -0.5961
 1459SOL     OW16009   3.418   3.622  14.896  0.2727  0.0915 -0.4113
 1459SOL    HW116010   3.446   3.685  14.963 -0.1329  0.0561 -0.2052
 1459SOL    HW216011   3.392   3.545  14.948 -0.8784  0.3959 -0.5380
 1460SOL     OW16012   2.641   1.498   1.743 -0.1441  0.6992 -0.6548
 1460SOL    HW116013   2.716   1.546   1.707 -0.6157  1.2553 -0.8987
 1460SOL    HW216014   2.686   1.446   1.810 -0.1490  0.5854 -0.7401
 1461SOL     OW16015   1.380   2.124   8.042 -0.2299 -0.0282 -0.0850
 1461SOL    HW116016   1.291   2.112   8.009 -0.1335  0.4611 -0.5250
 1461SOL    HW216017   1.367   2.105   8.135  0.8921  0.3063  0.1411
 1462SOL     OW16018   3.151   1.999   7.342 -0.0493  0.6562  0.2339
 1462SOL    HW116019   3.206   2.045   7.278 -0.8632 -0.6207 -1.3767
 1462SOL    HW216020   3.182   1.911   7.323 -1.0262  0.9300 -2.6848
 1463SOL     OW16021   0.986   4.395   8.738  0.4593 -0.0842 -0.4277
 1463SOL    HW116022   1.028   4.314   8.707 -1.6487 -2.4453  2.8738
 1463SOL    HW216023   1.024   4.468   8.690  2.0503 -0.5300  0.1489
 1464SOL     OW16024   0.828   2.320  11.953  1.0496 -0.0946 -0.0433
 1464SOL    HW116025   0.864   2.271  12.026 -1.9351  0.7631  2.0393
 1464SOL    HW216026   0.817   2.406  11.994  1.6274  0.1763 -0.4655
 1465SOL     OW16027   2.106   0.262   6.231  0.7460  0.2856  0.5965
 1465SOL    HW116028   2.177   0.205   6.260  0.8815  0.7421  1.1520
 1465SOL    HW216029   2.107   0.327   6.301 -1.2604 -2.2358  2.9720
 1466SOL     OW16030   1.188   2.555   3.854  0.6085  0.8506  0.0060
 1466SOL    HW116031   1.094   2.542   3.847  0.4688  0.7902  2.0439
 1466SOL    HW216032   1.199   2.587   3.764 -0.9747 -1.7652 -1.1350
 1467SOL     OW16033   3.907   1.847   6.284  0.6423  0.1472  0.0584
 1467SOL    HW116034   3.944   1.853   6.196 -0.8729  0.5188 -0.5604
 1467SOL    HW216035   3.981   1.807   6.330  0.8523  1.1607  0.6042
 1468SOL     OW16036   3.917   1.856   6.836  0.0597 -0.0996  0.3496
 1468SOL    HW116037   3.942   1.947   6.820  1.8705 -0.5991  0.3010
 1468SOL    HW216038   3.860   1.843   6.760  0.2464  1.0449 -0.0004
 1469SOL     OW16039   2.786   0.294   2.666 -0.2004 -0.0441 -0.2939
 1469SOL    HW116040   2.857   0.256   2.718 -0.0175 -1.3123 -1.4684
 1469SOL    HW216041   2.834   0.325   2.589 -0.8682  0.2898 -0.5682
 1470SOL     OW16042   1.707   4.163   4.752 -0.2036 -0.2079  0.7077
 1470SOL    HW116043   1.634   4.136   4.808 -1.1536 -1.5715 -1.1996
 1470SOL    HW216044   1.776   4.150   4.816 -1.1030 -1.0441  1.4962
 1471SOL     OW16045   1.348   4.453   7.847 -0.3878 -0.6144 -0.0456
 1471SOL    HW116046   1.293   4.401   7.788 -0.9800  0.5476 -0.5186
 1471SOL    HW216047   1.395   4.508   7.784 -0.2331 -3.6332 -2.5501
 1472SOL     OW16048   2.523   4.221   6.215 -0.0011  0.6097  0.1623
 1472SOL    HW116049   2.600   4.274   6.238  2.2328 -1.6853 -1.9925
 1472SOL    HW216050   2.538   4.146   6.272  2.5115  1.5761  0.8107
 1473SOL     OW16051   1.024   0.300   6.123  0.0306  0.0232  0.0256
 1473SOL    HW116052   1.104   0.352   6.110 -0.0594  0.4519  1.1048
 1473SOL    HW216053   1.048   0.247   6.199  0.4032 -0.3075 -0.3216
 1474SOL     OW16054   2.893   2.820  10.475 -0.2855  0.4853 -0.4554
 1474SOL    HW116055   2.856   2.832  10.563  0.0193 -0.3079 -0.2201
 1474SOL    HW216056   2.836   2.880  10.427  0.1415  0.3731 -1.0895
 1475SOL     OW16057   3.480   1.152   4.380 -0.1694 -0.1816  0.0208
 1475SOL    HW116058   3.484   1.090   4.307  0.2308  1.8939 -1.6918
 1475SOL    HW216059   3.573   1.164   4.398  0.3380 -3.0860 -0.5873
 1476SOL     OW16060   1.446   2.618   4.591 -0.0574  0.7933  0.0577
 1476SOL    HW116061   1.502   2.540   4.590 -0.3968  0.5304  1.2623
 1476SOL    HW216062   1.486   2.658   4.514  0.0332  1.2436  0.3447
 1477SOL     OW16063   0.008   3.260  17.007 -0.0989  0.0253 -0.1205
 1477SOL    HW116064   0.028   3.168  17.027  2.6981  0.0292 -2.9769
 1477SOL    HW216065   4.654   3.259  16.973 -2.0277  2.0342  4.8317
 1478SOL     OW16066   1.812   3.064   2.624 -0.4379  0.2276  0.7694
 1478SOL    HW116067   1.740   3.013   2.663 -0.8796 -0.9710 -1.5610
 1478SOL    HW216068   1.852   2.992   2.576 -1.1016  0.6806 -0.4711
 1479SOL     OW16069   2.994   3.578  10.075  0.1948  0.3277  0.5071
 1479SOL    HW116070   2.913   3.533  10.051 -0.5823  0.9232  2.0447
 1479SOL    HW216071   3.046   3.560   9.997 -0.0729 -2.2166  0.9057
 1480SOL     OW16072   4.483   1.446   5.600  0.0298 -0.6941  0.1975
 1480SOL    HW116073   4.403   1.402   5.570 -0.3373 -0.6935  1.1855
 1480SOL    HW216074   4.538   1.372   5.624  1.7192  0.7254  0.6564
 1481SOL     OW16075   1.071   3.535   7.419 -0.5168 -0.8897  0.0675
 1481SOL    HW116076   1.050   3.483   7.496 -1.9277 -2.2267 -1.2220
 1481SOL    HW216077   1.166   3.517   7.415  0.0449  1.9838  0.7059
 1482SOL     OW16078   1.069   1.763   4.920 -0.0296  0.4281  0.1751
 1482SOL    HW116079   1.102   1.807   4.998  1.3450  0.2047 -0.2658
 1482SOL    HW216080   0.996   1.821   4.899  0.1551  0.8266  0.6538
 1483SOL     OW16081   4.234   4.604  12.964 -0.4812 -0.7242  0.4461
 1483SOL    HW116082   4.261   4.529  13.016 -0.8632  0.2767  2.1072
 1483SOL    HW216083   4.279   4.595  12.880 -0.4398  0.9469  0.2918
 1484SOL     OW16084   3.491   3.400   6.881 -0.3598 -0.5693  0.6708
 1484SOL    HW116085   3.539   3.471   6.839  1.5781 -1.9978  0.4578
 1484SOL    HW216086   3.559   3.335   6.899 -0.2355 -0.6940 -0.2436
 1485SOL     OW16087   1.758   2.147   3.783 -0.0125 -0.8643  0.4391
 1485SOL    HW116088   1.685   2.207   3.796  1.3623  0.9494 -0.2444
 1485SOL    HW216089   1.829   2.201   3.818  0.2106 -1.0400  0.2587
 1486SOL     OW16090   3.133   2.623   1.334  0.1030 -0.6734  0.5409
 1486SOL    HW116091   3.193   2.556   1.300  1.4235 -0.1420  1.8214
 1486SOL    HW216092   3.077   2.638   1.258 -1.4946  0.3971  1.9280
 1487SOL     OW16093   3.359   1.152   7.859  0.2926 -0.0237 -0.1523
 1487SOL    HW116094   3.281   1.119   7.905  1.1019 -1.0658  0.4715
 1487SOL    HW216095   3.331   1.146   7.768  0.7907  2.4860 -0.4542
 1488SOL     OW16096   2.474   1.463   4.960  0.0664 -0.4968  0.2684
 1488SOL    HW116097   2.555   1.512   4.979  0.5235 -1.1979  0.1145
 1488SOL    HW216098   2.463   1.472   4.865  0.2311  0.8447  0.3769
 1489SOL     OW16099   1.874   0.857  10.749 -0.8249  0.0565 -0.5090
 1489SOL    HW116100   1.819   0.906  10.810  0.0726 -0.7197  0.9201
 1489SOL    HW216101   1.845   0.901  10.669 -0.9574 -1.3997 -1.2731
 1490SOL     OW16102   0.336   3.228   8.335 -0.3929  0.6471  0.2877
 1490SOL    HW116103   0.285   3.177   8.399 -0.8941  0.2907 -0.3914
 1490SOL    HW216104   0.343   3.312   8.379 -0.2991  0.9311 -0.2750
 1491SOL     OW16105   3.828   4.520   4.292  0.1963 -0.0653 -0.0911
 1491SOL    HW116106   3.766   4.539   4.222 -0.0613  1.5279  0.5498
 1491SOL    HW216107   3.887   4.470   4.237  0.9708  1.1810 -0.3960
 1492SOL     OW16108   3.186   0.764   6.883  0.7412  0.2541  0.4227
 1492SOL    HW116109   3.116   0.772   6.948  0.9859 -1.7914  0.9502
 1492SOL    HW216110   3.136   0.718   6.816  0.8321 -1.1238  1.3140
 1493SOL     OW16111   1.114   1.973   1.018  0.4028  0.2230  0.1524
 1493SOL    HW116112   1.202   1.937   1.026  0.6342  0.8029  0.2498
 1493SOL    HW216113   1.063   1.892   1.022 -3.2348  2.3991 -1.3915
 1494SOL     OW16114   3.226   0.861   2.916  0.1761 -0.1968 -0.2840
 1494SOL    HW116115   3.159   0.793   2.920  0.8304 -0.7476  1.5632
 1494SOL    HW216116   3.193   0.920   2.848  2.4369 -1.1097 -2.1654
 1495SOL     OW16117   4.202   3.886  15.502 -0.2889  0.1529 -0.4055
 1495SOL    HW116118   4.227   3.833  15.578 -1.3515  0.3970  0.1128
 1495SOL    HW216119   4.279   3.875  15.446 -0.4436 -0.0078 -0.5871
 1496SOL     OW16120   1.810   4.510   7.521 -0.5078 -0.0173 -0.3009
 1496SOL    HW116121   1.881   4.574   7.517 -0.2163 -0.2799  0.6918
 1496SOL    HW216122   1.771   4.517   7.434  1.0879  0.2878 -0.9948
 1497SOL     OW16123   1.420   1.505   3.949  0.2045 -0.2005 -0.2057
 1497SOL    HW116124   1.456   1.419   3.925 -0.6167 -0.4868 -0.3873
 1497SOL    HW216125   1.360   1.494   4.023  0.2463 -0.6565 -0.2386
 1498SOL     OW16126   2.425   0.381   6.229  0.1600 -0.5288  0.2452
 1498SOL    HW116127   2.497   0.408   6.286  3.2405  0.9094 -4.2765
 1498SOL    HW216128   2.411   0.289   6.252  0.1493 -0.5829  0.0177
 1499SOL     OW16129   1.831   1.469  11.475  0.1760 -0.4153 -0.0982
 1499SOL    HW116130   1.796   1.414  11.405  4.4873 -2.3243 -0.7421
 1499SOL    HW216131   1.888   1.532  11.431  1.4926  0.3520  2.7573
 1500SOL     OW16132   0.444   2.518   1.084 -0.6301  0.8057  0.1742
 1500SOL    HW116133   0.394   2.471   1.151 -2.7999  1.7780 -0.7610
 1500SOL    HW216134   0.439   2.612   1.099  0.3563  0.8688  0.1320
 1501SOL     OW16135   4.124   2.400  17.383 -0.0158  0.6498  0.0502
 1501SOL    HW116136   4.062   2.378  17.452  1.9149  0.9096  1.8344
 1501SOL    HW216137   4.071   2.427  17.307 -3.6480 -0.5700  2.1585
 1502SOL     OW16138   0.850   1.241   1.457  0.0088  0.2972  0.4334
 1502SOL    HW116139   0.924   1.244   1.518 -0.7091 -0.4075  1.3224
 1502SOL    HW216140   0.835   1.150   1.433 -0.5677 -0.3254  3.1821
 1503SOL     OW16141   4.468   2.696   7.374 -0.0911  0.4268  0.1989
 1503SOL    HW116142   4.528   2.770   7.382  1.0624 -0.5241  0.2466
 1503SOL    HW216143   4.507   2.664   7.292  1.0604 -2.4567  1.8866
 1504SOL     OW16144   2.330   1.628  12.431  0.5615  0.2924 -0.3742
 1504SOL    HW116145   2.264   1.648  12.364 -0.8085  1.1682  1.2187
 1504SOL    HW216146   2.271   1.604  12.502  0.1829 -1.6771 -1.3390
 1505SOL     OW16147   0.104   1.792   8.779 -0.1179 -0.0622 -0.4522
 1505SOL    HW116148   0.126   1.781   8.872  0.0609 -1.2848 -0.6385
 1505SOL    HW216149   0.012   1.819   8.780 -1.3559 -4.2423 -0.7730
 1506SOL     OW16150   1.445   1.163  16.313  0.5483  0.2484 -0.4851
 1506SOL    HW116151   1.354   1.135  16.321  1.7037 -3.6333 -0.6068
 1506SOL    HW216152   1.455   1.190  16.404  0.2761  0.6724 -0.5829
 1507SOL     OW16153   4.089   0.150  12.795  0.2042 -0.1668 -0.0439
 1507SOL    HW116154   4.056   0.163  12.706  0.7222 -0.0158 -0.2186
 1507SOL    HW216155   4.184   0.156  12.779  0.1907 -1.3420 -0.6024
 1508SOL     OW16156   2.398   0.578   7.296  0.1559  0.3023 -0.1011
 1508SOL    HW116157   2.459   0.637   7.341 -1.0079 -0.3675  2.3452
 1508SOL    HW216158   2.318   0.588   7.346  0.4285 -0.8985  0.5642
 1509SOL     OW16159   0.776   0.694  17.563  0.4633 -0.0559  0.0181
 1509SOL    HW116160   0.843   0.762  17.568  0.2482  0.0142  1.9892
 1509SOL    HW216161   0.705   0.741  17.519  1.7628  1.1308 -0.8045
 1510SOL     OW16162   0.353   3.917  10.283 -0.4043  0.1964  0.2501
 1510SOL    HW116163   0.365   3.936  10.376  1.0394 -1.5244  0.4014
 1510SOL    HW216164   0.325   3.826  10.296 -0.5176  0.3774  1.2598
 1511SOL     OW16165   3.433   1.152   2.086 -0.0897 -0.0048  0.4018
 1511SOL    HW116166   3.524   1.171   2.063 -0.3172  1.3740  0.6527
 1511SOL    HW216167   3.441   1.127   2.179 -0.9360  3.6926  1.4790
 1512SOL     OW16168   1.107   1.052  17.369  0.4021 -0.7990  0.0906
 1512SOL    HW116169   1.202   1.040  17.368  0.5931  0.7395 -0.4715
 1512SOL    HW216170   1.096   1.129  17.314 -0.5618  0.7308  2.4180
 1513SOL     OW16171   4.276   1.751   3.418  0.0856  0.2402  0.0456
 1513SOL    HW116172   4.284   1.778   3.509 -1.6187 -0.9627  0.5553
 1513SOL    HW216173   4.205   1.808   3.388 -0.2885  1.1415  2.6270
 1514SOL     OW16174   4.711   1.006   8.800 -0.7666  0.5071 -0.0076
 1514SOL    HW116175   0.049   1.018   8.739  0.0395 -2.1749  0.4254
 1514SOL    HW216176   4.673   1.094   8.795  1.4723  1.4543 -0.4887
 1515SOL     OW16177   3.407   3.540   0.521  0.7762 -0.0947 -0.3507
 1515SOL    HW116178   3.425   3.524   0.428 -1.3229  0.4159 -0.8472
 1515SOL    HW216179   3.494   3.566   0.551 -0.1736  1.3510  1.1391
 1516SOL     OW16180   3.458   1.739  12.540 -0.1053  0.3934 -0.0461
 1516SOL    HW116181   3.452   1.645  12.556  3.1205  0.0337 -1.0545
 1516SOL    HW216182   3.439   1.737  12.446  2.0465 -4.3641 -0.3671
 1517SOL     OW16183   1.425   2.119   7.254 -0.1690 -0.1942 -0.0204
 1517SOL    HW116184   1.379   2.195   7.289 -0.5451 -0.5486  0.2451
 1517SOL    HW216185   1.505   2.155   7.216 -0.7825  0.5060 -0.6469
 1518SOL     OW16186   1.439   2.673  13.531  0.2043  0.6066  0.4538
 1518SOL    HW116187   1.386   2.656  13.609  0.4152  0.6759  0.6114
 1518SOL    HW216188   1.366   2.701  13.477  1.9973  1.8353 -1.3076
 1519SOL     OW16189   2.674   4.730   0.400 -0.2709  0.2940 -0.0534
 1519SOL    HW116190   2.769   4.724   0.395 -0.2949  0.5582 -0.9928
 1519SOL    HW216191   2.667   0.088   0.421 -2.3441  0.2153 -0.3494
 1520SOL     OW16192   2.633   0.185   5.495  0.1923  0.1994 -0.3450
 1520SOL    HW116193   2.712   0.214   5.542 -1.0126  1.1433  1.1169
 1520SOL    HW216194   2.598   0.115   5.550  0.7343 -0.9103 -1.4336
 1521SOL     OW16195   2.833   0.039  15.598 -0.0178 -0.1586 -0.0663
 1521SOL    HW116196   2.798   0.013  15.682 -0.4610 -2.0339 -0.8284
 1521SOL    HW216197   2.753   0.029  15.547 -1.2359  1.3667  1.5746
 1522SOL     OW16198   0.413   4.012   5.302 -0.3599 -0.8292 -0.2015
 1522SOL    HW116199   0.507   4.015   5.318 -0.1476  0.0207 -1.6610
 1522SOL    HW216200   0.386   3.937   5.356 -0.4293 -1.1523 -0.6889
 1523SOL     OW16201   1.303   2.296  10.348  0.1187  0.5707  0.3245
 1523SOL    HW116202   1.212   2.306  10.376 -0.4064  1.1517 -1.5520
 1523SOL    HW216203   1.292   2.291  10.253  0.2357 -0.5647  0.3741
 1524SOL     OW16204   4.710   2.075   7.631  0.1740  0.4242  0.5306
 1524SOL    HW116205   0.007   2.161   7.604 -0.0193  0.0344 -0.9078
 1524SOL    HW216206   0.020   2.075   7.716  0.0382  1.1976  0.6047
 1525SOL     OW16207   0.970   2.755   4.934  0.1745 -0.0631  0.4023
 1525SOL    HW116208   0.973   2.828   4.996 -0.8689 -0.1844  0.5985
 1525SOL    HW216209   1.006   2.801   4.858 -0.5676  1.5402  0.9998
 1526SOL     OW16210   3.779   4.455   2.267 -0.1106 -0.3923  0.2287
 1526SOL    HW116211   3.759   4.361   2.269  0.8532 -0.6259 -1.5253
 1526SOL    HW216212   3.751   4.484   2.180  2.1292 -0.6125 -0.5680
 1527SOL     OW16213   0.169   1.468  12.515 -0.4247  0.3049  0.0791
 1527SOL    HW116214   0.105   1.539  12.518 -1.0950 -0.3997  3.1961
 1527SOL    HW216215   0.168   1.427  12.602  1.2088 -0.1171 -0.0948
 1528SOL     OW16216   0.516   2.972   5.418  0.1511  0.0800  0.3259
 1528SOL    HW116217   0.570   2.896   5.441 -0.4335 -0.5288 -0.3417
 1528SOL    HW216218   0.496   2.965   5.325 -1.0875  1.1658  0.5067
 1529SOL     OW16219   1.643   3.940  15.890  0.0776  0.0668 -0.5395
 1529SOL    HW116220   1.698   3.879  15.940  0.4642  2.3743  1.8349
 1529SOL    HW216221   1.566   3.886  15.872 -0.4442  1.4079 -2.2671
 1530SOL     OW16222   4.199   3.778   4.584 -0.4334 -0.5334  0.3791
 1530SOL    HW116223   4.288   3.785   4.620  0.4430  0.2113 -1.9642
 1530SOL    HW216224   4.160   3.836   4.650  0.7391  1.5315 -0.7500
 1531SOL     OW16225   1.008   4.096   7.560  0.5405  0.7934 -0.2590
 1531SOL    HW116226   1.019   4.060   7.649 -0.7006  0.0321 -0.4189
 1531SOL    HW216227   0.982   4.015   7.516 -1.1516  1.3440 -0.2549
 1532SOL     OW16228   4.475   3.113  13.027  0.8330 -0.6727  0.2888
 1532SOL    HW116229   4.551   3.105  13.085  1.6822  0.0140 -0.7319
 1532SOL    HW216230   4.479   3.027  12.985  0.0769 -0.2202 -0.7013
 1533SOL     OW16231   0.687   2.737  11.341 -0.1806  0.2034 -0.3636
 1533SOL    HW116232   0.690   2.648  11.374  0.6901  0.0601 -0.8185
 1533SOL    HW216233   0.768   2.750  11.291 -0.1107  1.4258  0.0558
 1534SOL     OW16234   1.632   4.318   1.643  0.9109 -0.3003 -0.3925
 1534SOL    HW116235   1.606   4.406   1.616 -1.5712 -0.0657  2.7772
 1534SOL    HW216236   1.552   4.277   1.675  1.2019  0.5916  1.4799
 1535SOL     OW16237   2.869   2.199  15.810  0.2919 -0.4693 -0.6457
 1535SOL    HW116238   2.842   2.134  15.875  0.8899  1.1589  1.2525
 1535SOL    HW216239   2.897   2.145  15.736 -0.5827  0.8861 -1.9503
 1536SOL     OW16240   0.125   4.415   9.368 -0.1152 -0.5128  0.1112
 1536SOL    HW116241   0.120   4.414   9.463  0.2883 -0.5505  0.1282
 1536SOL    HW216242   0.121   4.509   9.350 -1.4601 -1.3793 -4.3946
 1537SOL     OW16243   0.230   3.121   4.173  0.5152  0.6308 -0.7089
 1537SOL    HW116244   0.222   3.033   4.137  0.3942  0.3467  0.0185
 1537SOL    HW216245   0.198   3.166   4.094 -3.5160 -0.0485  0.5780
 1538SOL     OW16246   0.710   2.263   5.828  0.4286  0.1319 -1.0248
 1538SOL    HW116247   0.634   2.221   5.868  1.1183 -0.7862 -0.6863
 1538SOL    HW216248   0.785   2.240   5.883  0.1988 -1.3570 -1.3412
 1539SOL     OW16249   1.965   2.963   7.044 -0.5907 -0.5270  0.0011
 1539SOL    HW116250   2.045   2.926   7.082 -0.5059  0.7391  1.0591
 1539SOL    HW216251   1.953   3.040   7.100 -0.5383  0.6889 -1.6651
 1540SOL     OW16252   0.195   2.533   7.741 -0.0981 -0.3503  0.0807
 1540SOL    HW116253   0.199   2.618   7.784  1.1097 -0.8558  0.9692
 1540SOL    HW216254   0.274   2.487   7.769  0.4408  1.3763  1.3914
 1541SOL     OW16255   1.665   2.448   0.668 -0.1101  0.5916 -0.1256
 1541SOL    HW116256   1.626   2.362   0.682  0.6272  0.4583  1.1610
 1541SOL    HW216257   1.676   2.452   0.573 -0.5540  0.1317 -0.1926
 1542SOL     OW16258   4.052   3.946   6.586  0.3447 -0.1690 -0.2313
 1542SOL    HW116259   4.106   3.868   6.594 -0.8021 -1.0660 -1.2403
 1542SOL    HW216260   4.108   4.010   6.542  1.7319  0.0772  1.8998
 1543SOL     OW16261   3.847   1.684   5.369 -0.4677 -0.5165 -0.0439
 1543SOL    HW116262   3.878   1.598   5.339 -1.5616 -1.4738  1.5944
 1543SOL    HW216263   3.919   1.736   5.332 -0.6903 -0.5475 -0.5249
 1544SOL     OW16264   4.283   1.663   9.053  0.0669  0.3571  0.0611
 1544SOL    HW116265   4.232   1.704   8.982  1.8600  0.4889 -1.1382
 1544SOL    HW216266   4.353   1.627   8.999  1.5957 -0.9330  2.9016
 1545SOL     OW16267   1.234   1.562   6.745 -0.1836  0.9067 -0.0990
 1545SOL    HW116268   1.197   1.600   6.825  0.0828 -0.2463  0.5690
 1545SOL    HW216269   1.271   1.481   6.781  0.7904  0.1985 -2.7019
 1546SOL     OW16270   4.629   1.866   3.915  0.3097  0.3483 -0.3653
 1546SOL    HW116271   4.544   1.894   3.881  0.0950 -0.4495 -0.4789
 1546SOL    HW216272   4.657   1.817   3.837 -3.0918 -0.3262 -1.1450
 1547SOL     OW16273   1.187   3.459  16.935  0.0403 -0.0017  0.6967
 1547SOL    HW116274   1.143   3.544  16.939  1.5387  0.8165 -0.2178
 1547SOL    HW216275   1.115   3.398  16.916  1.9559 -2.0470  0.0566
 1548SOL     OW16276   2.857   1.975   8.816 -0.2781  0.4490  0.1700
 1548SOL    HW116277   2.810   2.006   8.739 -1.0861  1.2619  0.9918
 1548SOL    HW216278   2.803   2.003   8.890  1.4664 -0.0156  1.6250
 1549SOL     OW16279   1.867   3.513   6.018 -0.1560 -0.8990 -0.2688
 1549SOL    HW116280   1.795   3.560   5.977 -0.1855  0.4000  1.2694
 1549SOL    HW216281   1.852   3.533   6.110  0.8440 -0.3794 -0.2173
 1550SOL     OW16282   0.153   4.438   4.759 -0.3233 -0.4155 -0.2908
 1550SOL    HW116283   0.073   4.421   4.809 -0.8758  1.1093 -0.6474
 1550SOL    HW216284   0.219   4.372   4.778 -1.1563 -1.4245 -0.9345
 1551SOL     OW16285   0.213   0.699   1.372  0.4411 -0.3194  0.2373
 1551SOL    HW116286   0.261   0.730   1.295 -1.3695 -0.4831 -0.9636
 1551SOL    HW216287   0.179   0.619   1.332 -0.1614 -0.4232  0.9556
 1552SOL     OW16288   4.103   2.225   3.775 -0.1528 -0.2298  0.3488
 1552SOL    HW116289   4.031   2.278   3.809  0.4279 -1.5227  3.5238
 1552SOL    HW216290   4.170   2.291   3.755 -0.6311 -0.1822 -1.1364
 1553SOL     OW16291   2.046   4.702   5.603 -0.3331 -0.0579  0.3976
 1553SOL    HW116292   2.042   4.715   5.508 -0.6083  1.4504  0.6055
 1553SOL    HW216293   2.015   0.055   5.624  0.6575  0.6635 -1.1853
 1554SOL     OW16294   3.189   0.896   1.456  0.2849 -0.4789  0.2534
 1554SOL    HW116295   3.254   0.876   1.389  2.6368  0.1042  2.3700
 1554SOL    HW216296   3.114   0.836   1.444  0.7952 -1.1110  0.2210
 1555SOL     OW16297   1.737   1.056  17.421 -0.1058  0.1037  0.1590
 1555SOL    HW116298   1.757   1.006  17.342  0.6978  0.8502 -0.1136
 1555SOL    HW216299   1.708   1.134  17.373 -0.0216 -1.4362 -2.3928
 1556SOL     OW16300   3.819   3.670   9.479  0.1755 -0.2360 -0.3118
 1556SOL    HW116301   3.842   3.756   9.515  1.0948 -0.9313  0.7566
 1556SOL    HW216302   3.855   3.629   9.558 -0.2278  0.0771  0.0381
 1557SOL     OW16303   2.106   3.023  12.567 -0.1777  0.3703 -0.5263
 1557SOL    HW116304   2.013   3.048  12.569 -0.4255 -0.7077  1.3079
 1557SOL    HW216305   2.134   3.025  12.658  1.4242  0.1725 -1.0106
 1558SOL     OW16306   4.413   1.594   3.211  0.8357 -0.0692 -0.1016
 1558SOL    HW116307   4.330   1.546   3.207  1.8080 -1.8097  1.0055
 1558SOL    HW216308   4.377   1.667   3.261 -1.5726 -1.4094  0.1294
 1559SOL     OW16309   2.740   1.958  11.575  0.2782 -0.6413  0.4918
 1559SOL    HW116310   2.755   1.865  11.555  1.5914 -0.5437  1.0492
 1559SOL    HW216311   2.814   1.992  11.625  0.3520 -1.3715  0.8764
 1560SOL     OW16312   4.622   2.854   9.686 -0.0991  0.3563 -0.0341
 1560SOL    HW116313   4.535   2.816   9.672 -0.0386  0.3779 -0.4805
 1560SOL    HW216314   4.602   2.942   9.716  0.6707  0.8799 -1.0648
 1561SOL     OW16315   0.146   1.560   1.007 -0.1967 -0.8422 -0.4136
 1561SOL    HW116316   0.060   1.573   0.967  0.6626  0.6686 -1.7775
 1561SOL    HW216317   0.147   1.619   1.083 -1.8551  0.5317 -1.4516
 1562SOL     OW16318   2.543   2.516   9.877  0.5083  0.1991 -0.6160
 1562SOL    HW116319   2.608   2.553   9.936 -1.3091  0.9782  0.9252
 1562SOL    HW216320   2.482   2.498   9.949  0.8001  0.2448 -0.3631
 1563SOL     OW16321   1.223   0.200   0.057 -0.5184 -0.4022  0.0490
 1563SOL    HW116322   1.165   0.127   0.035 -0.6260 -0.3905  0.2897
 1563SOL    HW216323   1.157   0.269   0.068  1.0853  1.0346  0.7123
 1564SOL     OW16324   2.803   4.254   7.403  0.6064 -0.2985 -0.1610
 1564SOL    HW116325   2.777   4.174   7.448  0.8520  0.1866  0.8285
 1564SOL    HW216326   2.879   4.275   7.457  0.3560 -0.5679  0.2919
 1565SOL     OW16327   2.569   3.531   1.540 -0.1846  0.1508  0.2139
 1565SOL    HW116328   2.497   3.569   1.490 -1.8432 -2.8190  0.3759
 1565SOL    HW216329   2.583   3.594   1.611 -0.2877  0.5253 -0.0976
 1566SOL     OW16330   0.006   3.956   7.327  0.2866  0.2323  0.0009
 1566SOL    HW116331   0.068   3.896   7.368  0.3832 -0.0428 -0.5485
 1566SOL    HW216332   0.040   3.974   7.240  2.3934 -0.5674  0.6822
 1567SOL     OW16333   4.167   2.490   1.121 -0.2714  0.3609  0.0945
 1567SOL    HW116334   4.204   2.508   1.035 -0.9621 -1.5112 -0.5942
 1567SOL    HW216335   4.192   2.572   1.163 -0.8954  1.2245 -1.2608
 1568SOL     OW16336   4.103   1.154   4.568  0.4246  0.1987 -0.5723
 1568SOL    HW116337   4.062   1.233   4.533 -0.2537  0.3552  0.5856
 1568SOL    HW216338   4.070   1.094   4.502 -0.4821  1.0322 -0.8688
 1569SOL     OW16339   4.524   4.570  13.587  0.1202 -0.5561  0.2279
 1569SOL    HW116340   4.537   4.573  13.682  0.3997  2.3966  0.0868
 1569SOL    HW216341   4.532   4.476  13.573  0.6504 -0.3823 -0.7000
 1570SOL     OW16342   1.840   1.350  12.173  0.6464 -0.1120  0.2703
 1570SOL    HW116343   1.823   1.418  12.107  1.7442 -0.8320 -0.7483
 1570SOL    HW216344   1.935   1.339  12.167  0.8301  2.4777 -1.7834
 1571SOL     OW16345   2.961   0.730   8.942  0.4118  0.3379  0.2980
 1571SOL    HW116346   3.052   0.719   8.972  0.7562  2.5610  0.1158
 1571SOL    HW216347   2.944   0.638   8.921 -0.4187  0.8428 -1.2590
 1572SOL     OW16348   3.421   2.715   2.122  0.0462  0.3337  0.0969
 1572SOL    HW116349   3.425   2.804   2.158 -1.2641  1.0720 -1.5611
 1572SOL    HW216350   3.487   2.720   2.052  1.7161 -1.0828  1.5803
 1573SOL     OW16351   0.166   0.015   2.677 -0.0304 -0.1754  0.1274
 1573SOL    HW116352   0.115   4.669   2.678  2.2227 -1.5846  0.5605
 1573SOL    HW216353   0.113   0.075   2.624  0.3078  0.5801  0.6420
 1574SOL     OW16354   4.735   4.688  10.260  0.1705 -0.0587  0.4527
 1574SOL    HW116355   4.704   4.606  10.299  1.4686 -2.0032 -2.5886
 1574SOL    HW216356   0.058   4.652  10.193 -0.2619 -0.5584  0.3452
 1575SOL     OW16357   1.650   1.778   1.160 -0.5771 -0.6993  0.5748
 1575SOL    HW116358   1.648   1.767   1.256  1.2660  0.9352  0.8048
 1575SOL    HW216359   1.742   1.802   1.148 -0.8953  0.1936 -0.0732
 1576SOL     OW16360   3.005   3.237   2.494 -0.0534 -0.1558  0.1658
 1576SOL    HW116361   3.040   3.159   2.535  1.0510  0.0176 -0.4311
 1576SOL    HW216362   3.004   3.215   2.400 -1.1777 -0.8156  0.3339
 1577SOL     OW16363   0.466   0.061   2.405  0.2086  0.3701 -0.3945
 1577SOL    HW116364   0.497   0.144   2.369  0.2078  0.0707 -1.0925
 1577SOL    HW216365   0.504   4.730   2.348 -1.1444  0.6894 -1.6690
 1578SOL     OW16366   0.640   2.680  10.980  0.3871 -0.0524  0.5840
 1578SOL    HW116367   0.638   2.629  11.061 -1.6526 -1.0265 -0.0784
 1578SOL    HW216368   0.726   2.653  10.947 -0.0696 -2.5425  1.4083
 1579SOL     OW16369   3.059   2.986  15.678 -0.1278 -0.0937  0.0779
 1579SOL    HW116370   3.115   3.023  15.610  0.3930  0.5998  0.8822
 1579SOL    HW216371   2.985   3.047  15.669  0.6054  0.5660 -1.5385
 1580SOL     OW16372   1.870   1.078   1.132 -0.1320  0.0684 -0.2282
 1580SOL    HW116373   1.913   1.158   1.162 -1.1874  0.7480 -0.5131
 1580SOL    HW216374   1.934   1.015   1.166 -3.0547 -2.6534  0.2941
 1581SOL     OW16375   2.575   2.642  14.272 -0.0387  0.0699 -0.0435
 1581SOL    HW116376   2.505   2.685  14.223  1.5124 -1.9824 -4.0504
 1581SOL    HW216377   2.528   2.652  14.355 -0.7126 -2.0806 -0.1683
 1582SOL     OW16378   4.644   2.976   4.986  0.3070 -0.7310  0.4437
 1582SOL    HW116379   4.682   3.015   5.065 -1.0786 -0.1460  0.8243
 1582SOL    HW216380   4.711   2.912   4.961  0.1996 -0.9324  0.6605
 1583SOL     OW16381   1.083   2.550  14.461  0.1628  0.0385 -0.2208
 1583SOL    HW116382   1.107   2.631  14.416  0.3790 -0.0656 -0.2935
 1583SOL    HW216383   0.989   2.566  14.471 -0.1935 -2.4003  0.2308
 1584SOL     OW16384   0.347   3.940   1.752 -0.5837 -0.0763  0.4283
 1584SOL    HW116385   0.417   3.989   1.709  0.0295 -1.6236 -0.3583
 1584SOL    HW216386   0.274   3.999   1.733 -0.4567  0.3433  1.2321
 1585SOL     OW16387   4.229   2.260   3.369  0.0640 -0.1935  0.0451
 1585SOL    HW116388   4.185   2.186   3.328  2.1257 -1.1660 -0.4619
 1585SOL    HW216389   4.157   2.313   3.403  1.6260  1.1634  1.2332
 1586SOL     OW16390   4.123   0.618   7.682 -0.3768 -0.6875 -0.1391
 1586SOL    HW116391   4.152   0.671   7.609  0.5255 -1.2279 -0.1702
 1586SOL    HW216392   4.131   0.685   7.750  0.8500 -0.3564 -0.6309
 1587SOL     OW16393   0.656   2.252  17.220  0.2411 -0.2890  0.2710
 1587SOL    HW116394   0.687   2.263  17.309 -0.0972 -1.0672  0.4817
 1587SOL    HW216395   0.687   2.163  17.202 -0.7738 -1.0292  2.3107
 1588SOL     OW16396   1.333   0.177   9.717 -0.0270  0.1130 -0.0081
 1588SOL    HW116397   1.373   0.249   9.669  1.2862 -1.1769 -0.8685
 1588SOL    HW216398   1.245   0.193   9.685  0.2330 -0.8383 -1.1816
 1589SOL     OW16399   2.245   0.151   5.812 -0.2640  0.1636  0.4590
 1589SOL    HW116400   2.337   0.134   5.829 -0.3425 -0.5690  0.1627
 1589SOL    HW216401   2.205   0.093   5.876 -1.4891  2.7449  2.0580
 1590SOL     OW16402   0.020   1.412   7.726 -0.0780 -0.5724 -0.4434
 1590SOL    HW116403   0.016   1.409   7.630 -1.0176 -0.1804 -0.4113
 1590SOL    HW216404   4.668   1.443   7.750 -0.1806 -1.1557 -0.0526
 1591SOL     OW16405   1.120   0.961   4.220 -0.4851 -0.5431 -0.5044
 1591SOL    HW116406   1.191   0.962   4.155  0.9647 -0.7620  1.0719
 1591SOL    HW216407   1.130   1.050   4.252 -0.0317 -1.1055  0.9301
 1592SOL     OW16408   0.660   3.800  14.068 -0.6411 -0.1588  0.5490
 1592SOL    HW116409   0.565   3.804  14.075 -0.5444  2.4278  0.5453
 1592SOL    HW216410   0.667   3.705  14.066  1.0435  0.0564 -3.2833
 1593SOL     OW16411   3.797   2.205   3.717  0.9436 -0.2027 -0.2830
 1593SOL    HW116412   3.751   2.147   3.778  0.5504 -0.8684 -1.2092
 1593SOL    HW216413   3.831   2.266   3.783 -1.7975  0.2167  0.7367
 1594SOL     OW16414   0.259   3.757   8.595 -0.1238  0.1664 -0.1459
 1594SOL    HW116415   0.179   3.804   8.569 -1.6356 -0.9363  2.4721
 1594SOL    HW216416   0.256   3.683   8.535 -0.3312 -0.0812  0.1688
 1595SOL     OW16417   1.367   2.970   7.530  0.2248 -0.2170 -0.1649
 1595SOL    HW116418   1.450   2.973   7.578  1.1212  1.1508 -1.7986
 1595SOL    HW216419   1.397   2.978   7.439 -0.8317 -1.4816 -0.6308
 1596SOL     OW16420   4.726   1.939  11.275  0.3254  0.0341  0.3205
 1596SOL    HW116421   0.072   1.892  11.297  0.4077  0.3929  0.7845
 1596SOL    HW216422   4.700   1.899  11.192 -1.6750  1.1728  0.4188
 1597SOL     OW16423   2.078   0.238  14.639  0.4733  0.1823  0.2612
 1597SOL    HW116424   2.134   0.281  14.703 -2.8332  1.7854  2.0731
 1597SOL    HW216425   1.988   0.245  14.672  0.7126  0.5494  0.8485
 1598SOL     OW16426   0.578   0.448   1.044 -0.4125  0.4724 -1.1371
 1598SOL    HW116427   0.595   0.542   1.046  0.7528  0.2095  1.1641
 1598SOL    HW216428   0.613   0.428   0.958 -0.4505 -2.1830 -0.5193
 1599SOL     OW16429   3.791   0.072   7.915  0.7361  0.1039 -0.4559
 1599SOL    HW116430   3.772   4.715   7.898 -2.4110  0.8642 -0.9654
 1599SOL    HW216431   3.703   0.088   7.949  0.4758 -0.7251 -0.7525
 1600SOL     OW16432   2.683   4.134   9.053 -0.3697  0.2359 -0.0138
 1600SOL    HW116433   2.630   4.064   9.015  0.0864 -0.5408  0.7657
 1600SOL    HW216434   2.732   4.082   9.117 -1.3356 -0.3834  0.2240
 1601SOL     OW16435   0.002   1.177   7.501 -0.4361  0.4689 -0.3208
 1601SOL    HW116436   0.006   1.149   7.410  0.1455  1.3305 -0.5635
 1601SOL    HW216437   0.079   1.125   7.524 -0.7308 -0.4765 -1.4935
 1602SOL     OW16438   0.705   2.217   3.064  0.2783  0.4244  0.5509
 1602SOL    HW116439   0.613   2.203   3.042  0.2423  2.6939 -0.7810
 1602SOL    HW216440   0.697   2.312   3.059 -2.4346  0.1639 -0.2412
 1603SOL     OW16441   1.255   0.367   6.831 -0.3721  0.0578  0.4302
 1603SOL    HW116442   1.167   0.403   6.844 -0.6075  0.5209 -2.2981
 1603SOL    HW216443   1.284   0.318   6.908 -1.0690 -1.5554 -0.3496
 1604SOL     OW16444   4.336   3.312   2.891  0.0920  0.4962 -0.2909
 1604SOL    HW116445   4.312   3.255   2.964 -2.2851 -0.0862 -1.5161
 1604SOL    HW216446   4.352   3.253   2.817  0.2429  0.2657 -0.0756
 1605SOL     OW16447   2.023   4.657   0.380 -0.2232 -0.3713  0.0939
 1605SOL    HW116448   2.058   4.571   0.357  1.1834 -0.7165  3.5771
 1605SOL    HW216449   2.069   4.713   0.317  0.2693  0.0326  0.8124
 1606SOL     OW16450   4.328   3.293   4.412 -0.4066 -0.2270  0.2479
 1606SOL    HW116451   4.277   3.331   4.340 -0.5366  1.2999  1.1383
 1606SOL    HW216452   4.269   3.282   4.486 -0.5144  0.0906  0.2089
 1607SOL     OW16453   0.960   2.206  12.185 -0.0489  0.1436 -0.0887
 1607SOL    HW116454   1.047   2.244  12.176 -0.7048  1.7722  0.3668
 1607SOL    HW216455   0.945   2.223  12.278 -0.7261 -0.8816 -0.0099
 1608SOL     OW16456   0.855   2.895  13.420 -0.4422 -0.2956 -0.6797
 1608SOL    HW116457   0.885   2.811  13.385 -1.0550 -0.9366  0.3277
 1608SOL    HW216458   0.761   2.883  13.428  0.0486 -1.8205  2.6659
 1609SOL     OW16459   3.719   4.358  16.449 -0.0707  0.2270 -0.4030
 1609SOL    HW116460   3.751   4.447  16.438 -0.6611  0.5590  0.6332
 1609SOL    HW216461   3.713   4.325  16.359 -0.4307  0.4062 -0.4434
 1610SOL     OW16462   0.724   1.232  17.557 -0.1114  0.1445  0.2577
 1610SOL    HW116463   0.715   1.167  17.487  2.0875 -0.8018  0.8217
 1610SOL    HW216464   0.632   1.245  17.579 -0.0610 -0.5448  0.9085
 1611SOL     OW16465   3.006   1.426   0.915  0.2561  0.1811 -0.5689
 1611SOL    HW116466   2.969   1.428   0.827 -0.4053 -0.8891 -0.3191
 1611SOL    HW216467   3.081   1.370   0.893  1.3493  1.3464  0.1876
 1612SOL     OW16468   2.100   2.237  13.125 -0.8033 -0.1823  0.0743
 1612SOL    HW116469   2.155   2.160  13.109 -0.7816 -0.7764  3.0230
 1612SOL    HW216470   2.149   2.308  13.083 -0.0344 -0.2784  0.8201
 1613SOL     OW16471   3.353   4.041   1.526  0.3497 -0.0484 -0.1302
 1613SOL    HW116472   3.363   3.968   1.464 -0.0187  0.4248 -0.7490
 1613SOL    HW216473   3.258   4.043   1.538 -0.2012 -3.8121 -3.6698
 1614SOL     OW16474   3.470   1.962   7.655  0.4353 -0.6397  0.4628
 1614SOL    HW116475   3.423   1.885   7.686 -1.2744  1.3233  2.7970
 1614SOL    HW216476   3.548   1.919   7.620  0.3804 -0.0578 -0.3644
 1615SOL     OW16477   3.226   0.816  14.199  0.0756 -0.2983 -0.0480
 1615SOL    HW116478   3.321   0.825  14.196  0.0595 -0.5356 -1.5149
 1615SOL    HW216479   3.209   0.749  14.132  0.0840  1.0065 -1.3414
 1616SOL     OW16480   4.113   3.161   5.747  0.3062  0.4601  0.3264
 1616SOL    HW116481   4.088   3.115   5.828 -1.3332 -1.2518 -1.1600
 1616SOL    HW216482   4.205   3.134   5.740  0.7944  1.4580  2.8263
 1617SOL     OW16483   1.912   4.244   3.832 -0.4415 -0.5255 -0.0494
 1617SOL    HW116484   1.831   4.194   3.833 -1.9181  1.8294 -1.2874
 1617SOL    HW216485   1.963   4.192   3.894  1.4953  0.5548 -0.7091
 1618SOL     OW16486   2.038   4.629   1.978 -0.1663  0.8638 -0.3838
 1618SOL    HW116487   1.958   4.606   2.024  0.8520  0.4165  1.1661
 1618SOL    HW216488   2.064   4.541   1.949  1.3781  0.6532  1.6764
 1619SOL     OW16489   4.139   3.263   5.292  0.2569  0.4902  0.0893
 1619SOL    HW116490   4.105   3.203   5.358  0.8179 -2.0216 -1.9110
 1619SOL    HW216491   4.086   3.227   5.221  1.8872 -1.0489 -0.3532
 1620SOL     OW16492   2.015   4.077   4.027  0.4540  0.4153  0.0513
 1620SOL    HW116493   1.994   3.986   4.009 -0.1696  0.8013 -1.1858
 1620SOL    HW216494   2.031   4.078   4.121 -0.0553 -0.6123  0.1429
 1621SOL     OW16495   3.989   3.672   4.436  0.3663  0.1904  0.1239
 1621SOL    HW116496   4.069   3.702   4.478  1.0370 -2.0293  0.4242
 1621SOL    HW216497   3.930   3.677   4.511  0.9302 -0.3285  0.6020
 1622SOL     OW16498   0.751   0.904   8.199 -0.0853  0.1659 -0.3568
 1622SOL    HW116499   0.763   0.999   8.193 -1.7805  0.3964 -0.1433
 1622SOL    HW216500   0.840   0.871   8.210  0.0882  0.1836 -1.7844
 1623SOL     OW16501   0.073   3.324  11.180 -0.4619  0.9079  0.1682
 1623SOL    HW116502   0.132   3.313  11.255  0.1625 -1.8991 -0.6973
 1623SOL    HW216503   4.735   3.361  11.229  0.0118 -0.3232  1.8162
 1624SOL     OW16504   3.575   4.441  17.144 -0.2211 -0.1464 -0.5776
 1624SOL    HW116505   3.586   4.361  17.093  0.0621 -1.5854  1.7398
 1624SOL    HW216506   3.646   4.439  17.207 -2.0908  0.8445  1.5661
 1625SOL     OW16507   2.614   3.011  10.012  0.2805  0.0255 -0.0198
 1625SOL    HW116508   2.579   2.969   9.934 -0.0808  0.1442  0.0791
 1625SOL    HW216509   2.569   2.961  10.081  0.8454 -2.4015 -1.4458
 1626SOL     OW16510   4.270   3.694   5.795 -1.0798 -0.3092  0.0026
 1626SOL    HW116511   4.257   3.789   5.791  0.1857 -0.2287 -2.1631
 1626SOL    HW216512   4.282   3.658   5.707 -0.1625 -0.7886  0.3208
 1627SOL     OW16513   1.955   0.241   5.562 -0.1314  0.0106  0.2940
 1627SOL    HW116514   1.952   0.309   5.629  1.1101  0.6273 -0.2700
 1627SOL    HW216515   1.900   0.284   5.497  0.2089  0.8170  0.5283
 1628SOL     OW16516   2.765   0.285   7.014 -0.2523  0.1405 -0.1320
 1628SOL    HW116517   2.805   0.299   7.101 -0.3186 -1.9424  0.2169
 1628SOL    HW216518   2.748   0.374   6.982  0.7456  0.4716  0.2382
 1629SOL     OW16519   2.084   1.861   8.540  0.2037  0.5824  0.7733
 1629SOL    HW116520   2.118   1.837   8.626 -0.4311 -0.2870  0.7817
 1629SOL    HW216521   1.997   1.824   8.559  0.6917  0.9874  3.8986
 1630SOL     OW16522   1.963   0.288  16.897 -0.4710  0.0449  0.1166
 1630SOL    HW116523   1.920   0.288  16.982  0.9242 -0.9060  0.8288
 1630SOL    HW216524   2.045   0.246  16.924 -0.1251  1.1463  0.7874
 1631SOL     OW16525   2.569   3.313  16.899 -0.4776 -0.1210 -0.4019
 1631SOL    HW116526   2.623   3.296  16.822  0.5309  0.6941  0.1240
 1631SOL    HW216527   2.509   3.239  16.900 -0.4463 -0.1212  0.8921
 1632SOL     OW16528   0.998   1.004  16.098  0.2360  0.1940 -0.2794
 1632SOL    HW116529   0.951   1.083  16.124  1.0519  0.2928  0.8944
 1632SOL    HW216530   1.083   1.047  16.087 -0.0400  0.4015 -1.6212
 1633SOL     OW16531   0.909   0.991  14.906  0.1787 -0.2875  0.0122
 1633SOL    HW116532   0.872   0.915  14.952 -1.5967  1.0645  0.8085
 1633SOL    HW216533   0.980   1.018  14.964  0.3474  0.3999 -0.5177
 1634SOL     OW16534   4.325   3.526   3.924 -1.1465 -0.0838 -0.1573
 1634SOL    HW116535   4.307   3.504   3.833 -0.9574 -0.7308 -0.0378
 1634SOL    HW216536   4.308   3.620   3.910 -1.5929 -0.2472 -0.7082
 1635SOL     OW16537   0.036   0.887   6.578 -0.2316 -0.4669 -0.6167
 1635SOL    HW116538   4.703   0.953   6.564  1.3417  1.9118  2.9840
 1635SOL    HW216539   0.085   0.903   6.497  1.2701  0.2290  0.4187
 1636SOL     OW16540   2.879   0.496  11.609  0.3629  0.2733  0.0354
 1636SOL    HW116541   2.809   0.486  11.673 -1.1561  0.2662 -1.6356
 1636SOL    HW216542   2.936   0.548  11.665  0.8830  1.0464 -1.2092
 1637SOL     OW16543   0.996   3.601   7.719 -0.2999  0.2332 -0.0569
 1637SOL    HW116544   0.972   3.661   7.649 -1.4039  0.5123  0.5624
 1637SOL    HW216545   0.919   3.603   7.776  0.1843  3.0558  0.5031
 1638SOL     OW16546   3.545   3.669   9.815  0.3309  0.3811  0.6266
 1638SOL    HW116547   3.588   3.590   9.848 -1.2998 -0.5860  0.4719
 1638SOL    HW216548   3.607   3.740   9.830  3.0736 -1.9854  0.4347
 1639SOL     OW16549   2.985   2.661  16.182 -0.1010 -0.5670 -0.1586
 1639SOL    HW116550   2.935   2.690  16.105  1.9339  1.5437 -0.7018
 1639SOL    HW216551   3.054   2.728  16.178  0.0403 -0.6902  0.2294
 1640SOL     OW16552   1.068   3.016   3.884 -0.5869  0.4155 -0.2018
 1640SOL    HW116553   1.145   3.030   3.829 -0.9391  3.0147 -0.0525
 1640SOL    HW216554   1.006   3.071   3.835 -3.7859 -4.6446 -1.7427
 1641SOL     OW16555   1.762   4.433  11.854 -0.6970 -0.4984 -0.0089
 1641SOL    HW116556   1.855   4.456  11.849 -0.8643  0.2502  0.3221
 1641SOL    HW216557   1.732   4.478  11.933  0.3880  1.1420 -0.5246
 1642SOL     OW16558   3.190   3.605   7.616 -0.0875 -0.3347  0.1711
 1642SOL    HW116559   3.104   3.621   7.577 -0.2372  1.4576  1.2623
 1642SOL    HW216560   3.164   3.532   7.673 -0.4453 -0.3826 -0.0521
 1643SOL     OW16561   3.549   0.702   9.471  0.1889  0.0907 -0.7369
 1643SOL    HW116562   3.571   0.777   9.526  1.0407 -0.8810  0.2364
 1643SOL    HW216563   3.455   0.718   9.460  0.0297 -0.6431 -0.4348
 1644SOL     OW16564   3.145   3.010  13.062 -0.4888 -0.3052 -0.2849
 1644SOL    HW116565   3.182   3.047  13.142  0.7939 -1.1561 -0.4937
 1644SOL    HW216566   3.222   2.962  13.033 -0.2460  0.7002 -1.3160
 1645SOL     OW16567   1.693   0.770   4.867 -0.1289 -0.5609 -1.2234
 1645SOL    HW116568   1.686   0.852   4.819 -1.0383 -0.2400 -0.5373
 1645SOL    HW216569   1.620   0.721   4.829 -1.7287 -1.0777  2.5417
 1646SOL     OW16570   4.575   4.418   0.920 -0.0036 -0.4345  0.1122
 1646SOL    HW116571   4.557   4.399   1.012  0.2920 -0.3130  0.1931
 1646SOL    HW216572   4.529   4.502   0.910 -1.9072 -1.7211 -2.0633
 1647SOL     OW16573   3.421   0.352   8.464  0.4772  0.0953  0.1091
 1647SOL    HW116574   3.498   0.408   8.464  0.4873  0.0821  0.1880
 1647SOL    HW216575   3.455   0.277   8.416 -1.2671 -0.3985 -0.3522
 1648SOL     OW16576   4.569   4.526   8.257  0.4775  0.2414  0.2558
 1648SOL    HW116577   4.623   4.593   8.298  0.9530  0.5243 -0.8296
 1648SOL    HW216578   4.529   4.484   8.333 -0.8565 -0.5899 -0.8934
 1649SOL     OW16579   1.674   3.447  11.016 -0.1157 -0.2869 -1.0504
 1649SOL    HW116580   1.583   3.418  11.022 -1.3376  3.5379 -1.1032
 1649SOL    HW216581   1.672   3.535  11.054 -0.8539  0.4124 -2.7195
 1650SOL     OW16582   0.090   2.153   3.790 -0.0095 -0.8646 -0.2124
 1650SOL    HW116583   0.009   2.143   3.740  0.4912  1.2551 -1.4557
 1650SOL    HW216584   0.147   2.188   3.721  0.1862  1.6306  1.2147
 1651SOL     OW16585   1.125   3.004   9.514  0.3809  0.2260 -0.1273
 1651SOL    HW116586   1.036   2.987   9.544  0.3196  0.6252 -0.0879
 1651SOL    HW216587   1.113   2.988   9.421  0.4094 -0.2391 -0.0524
 1652SOL     OW16588   3.623   3.813  14.957  0.2059  0.1560  0.3373
 1652SOL    HW116589   3.706   3.830  15.001  0.7059 -0.2393 -0.4523
 1652SOL    HW216590   3.645   3.779  14.870 -1.1818 -2.9484  1.1919
 1653SOL     OW16591   1.884   0.051   1.796 -0.2234 -0.2254 -0.1441
 1653SOL    HW116592   1.844   0.134   1.825  1.3145 -0.4808  2.7189
 1653SOL    HW216593   1.927   0.012   1.872 -1.4030  0.5092  0.8909
 1654SOL     OW16594   1.917   0.106   5.127 -0.6111  0.2884 -0.1021
 1654SOL    HW116595   1.902   0.013   5.107 -2.7439  0.4538  0.7412
 1654SOL    HW216596   1.838   0.142   5.085  0.0320  0.0055 -1.5526
 1655SOL     OW16597   2.182   3.752   3.352  0.0049  0.0636 -0.3673
 1655SOL    HW116598   2.206   3.800   3.431 -0.7817  1.0864 -0.7594
 1655SOL    HW216599   2.123   3.816   3.313 -1.3850 -1.5143 -0.8489
 1656SOL     OW16600   0.430   3.551   9.241 -0.3471 -0.4783  0.1338
 1656SOL    HW116601   0.392   3.476   9.195  1.6122 -0.3279 -1.7502
 1656SOL    HW216602   0.518   3.534   9.208 -0.1976  1.7874 -0.6184
 1657SOL     OW16603   2.317   4.203  10.160 -0.0188 -0.3422 -0.5729
 1657SOL    HW116604   2.407   4.213  10.193 -0.3282  0.4378  0.0573
 1657SOL    HW216605   2.263   4.222  10.237  0.2696 -1.4559 -0.0859
 1658SOL     OW16606   3.046   3.923   9.287  0.1002  0.4702  0.5000
 1658SOL    HW116607   3.126   3.876   9.264 -1.7054 -1.3063 -2.1955
 1658SOL    HW216608   2.994   3.903   9.209  1.8053 -1.3996 -0.1381
 1659SOL     OW16609   1.037   3.293   9.656 -0.3553 -0.8666 -0.0841
 1659SOL    HW116610   0.986   3.212   9.661  0.0371 -1.1591 -0.6947
 1659SOL    HW216611   1.067   3.296   9.747 -3.2335 -0.6379  0.8531
 1660SOL     OW16612   2.721   2.011   8.283  0.2268  0.0755 -0.1503
 1660SOL    HW116613   2.658   1.961   8.335  0.7440  1.7252  2.0420
 1660SOL    HW216614   2.675   2.094   8.271  0.0885  0.3339  2.1162
 1661SOL     OW16615   0.769   3.403   5.931 -0.0781  0.2206  0.1972
 1661SOL    HW116616   0.682   3.423   5.963 -0.0556  1.2138 -0.3834
 1661SOL    HW216617   0.812   3.448   6.004 -1.1717  2.3168 -0.4703
 1662SOL     OW16618   1.789   2.239   6.593  0.1066 -0.2031  0.6285
 1662SOL    HW116619   1.730   2.314   6.585 -1.1529 -1.1749  0.9174
 1662SOL    HW216620   1.737   2.181   6.648  0.3918 -1.2736 -0.2404
 1663SOL     OW16621   4.448   0.859   3.428 -0.4795 -0.1024  0.2934
 1663SOL    HW116622   4.505   0.904   3.366  0.1819  1.2148  1.8619
 1663SOL    HW216623   4.445   0.913   3.507  1.1438  0.7369 -0.2155
 1664SOL     OW16624   1.485   2.864   3.481  0.1462  0.0920 -0.6145
 1664SOL    HW116625   1.497   2.818   3.564 -0.8948 -1.7012 -1.4735
 1664SOL    HW216626   1.572   2.904   3.475  0.1183  0.3297  0.5554
 1665SOL     OW16627   0.843   1.433  10.544 -0.2830 -0.1733 -0.1851
 1665SOL    HW116628   0.904   1.392  10.482 -0.4962 -1.0776  0.2026
 1665SOL    HW216629   0.752   1.411  10.522 -0.4548 -1.5110  1.9228
 1666SOL     OW16630   4.567   0.647   1.807 -0.2978  0.1024  0.3800
 1666SOL    HW116631   4.508   0.577   1.781  1.1940 -0.1199 -2.4740
 1666SOL    HW216632   4.643   0.591   1.823 -1.5425 -2.0066 -1.1056
 1667SOL     OW16633   1.600   4.524   4.470 -0.3498  0.2552  0.0116
 1667SOL    HW116634   1.654   4.601   4.487 -2.1170  1.3241  0.8406
 1667SOL    HW216635   1.551   4.548   4.391 -1.7484  0.2040  0.8643
 1668SOL     OW16636   2.336   2.260   2.784 -0.4160 -0.1305 -0.3630
 1668SOL    HW116637   2.335   2.304   2.869  0.4611 -0.9282  0.0581
 1668SOL    HW216638   2.368   2.176   2.815 -1.1223 -0.7611 -1.3533
 1669SOL     OW16639   4.188   3.779   3.818 -0.2864  0.1215  0.3786
 1669SOL    HW116640   4.118   3.835   3.852 -1.5074 -0.5707 -0.9988
 1669SOL    HW216641   4.267   3.828   3.843 -1.8434  1.9504  1.7408
 1670SOL     OW16642   1.966   2.317   6.314 -0.0925  0.1019  1.1680
 1670SOL    HW116643   1.891   2.300   6.372  0.4745 -0.7473  1.6469
 1670SOL    HW216644   1.945   2.274   6.230  1.2336 -1.6735  1.7609
 1671SOL     OW16645   2.684   2.524  13.197 -0.7743 -0.2457  0.8885
 1671SOL    HW116646   2.714   2.606  13.236  1.5985 -1.9111  2.5526
 1671SOL    HW216647   2.690   2.464  13.272 -1.8504 -1.2746  0.1607
 1672SOL     OW16648   4.668   0.008   8.619  0.4186  0.3728  0.2440
 1672SOL    HW116649   4.667   0.072   8.690 -1.0312  0.5485  0.0784
 1672SOL    HW216650   4.617   4.676   8.665 -0.7951  0.1705 -1.4003
 1673SOL     OW16651   2.696   0.978   4.599 -0.2357 -0.3409 -0.0782
 1673SOL    HW116652   2.611   0.934   4.604 -1.4445  1.8723 -1.3848
 1673SOL    HW216653   2.737   0.938   4.675 -0.9606  0.8892  0.9425
 1674SOL     OW16654   0.842   3.902   5.266 -0.8456 -0.6783  0.5115
 1674SOL    HW116655   0.927   3.858   5.277  0.2601  1.2316 -0.4290
 1674SOL    HW216656   0.801   3.843   5.202  0.1940  0.8131 -1.5188
 1675SOL     OW16657   4.180   4.305   1.884 -0.0995  0.3118  0.4306
 1675SOL    HW116658   4.271   4.318   1.858  0.3084 -1.7175  0.8901
 1675SOL    HW216659   4.162   4.377   1.945  1.2794  2.0249 -1.1803
 1676SOL     OW16660   4.061   2.179   4.435 -0.2264 -0.1274  0.1100
 1676SOL    HW116661   3.988   2.117   4.432 -0.3392  0.0485 -0.7121
 1676SOL    HW216662   4.140   2.125   4.426  0.1830  0.7632 -1.4715
 1677SOL     OW16663   2.942   4.714  13.510 -0.4038 -0.3629  0.4874
 1677SOL    HW116664   3.038   4.704  13.510 -0.5698 -1.8728 -1.6602
 1677SOL    HW216665   2.940   0.007  13.419 -1.7329 -1.2331  0.2420
 1678SOL     OW16666   3.841   2.294  10.286  0.2346  0.0532 -0.5765
 1678SOL    HW116667   3.809   2.372  10.241  0.2087  0.8872  0.8777
 1678SOL    HW216668   3.807   2.321  10.372  0.7338  1.2582 -0.7460
 1679SOL     OW16669   2.991   3.577   9.707  0.2796 -0.4746 -0.6907
 1679SOL    HW116670   3.058   3.590   9.640  0.4505  3.5447  0.2211
 1679SOL    HW216671   2.958   3.493   9.676 -0.3385 -0.3252 -0.4241
 1680SOL     OW16672   3.134   2.696   0.920 -1.0656 -0.1313 -0.5426
 1680SOL    HW116673   3.086   2.723   0.998 -0.0991  1.8414 -0.6117
 1680SOL    HW216674   3.097   2.747   0.848  3.0285  4.2573  0.4111
 1681SOL     OW16675   4.659   1.404  11.328  0.3266 -0.2877  0.1761
 1681SOL    HW116676   4.574   1.393  11.371 -0.2054  2.1670 -0.2513
 1681SOL    HW216677   4.698   1.317  11.328  3.4349  1.1057  1.3300
 1682SOL     OW16678   0.145   1.490  14.398 -0.2647  0.4118 -0.0547
 1682SOL    HW116679   0.151   1.562  14.462  1.6202 -0.3257  0.6104
 1682SOL    HW216680   0.057   1.458  14.414 -0.0773  0.6789  1.5333
 1683SOL     OW16681   1.137   1.839   8.377 -0.4742 -0.0767  0.5180
 1683SOL    HW116682   1.179   1.920   8.349 -0.5358 -0.1607  0.1754
 1683SOL    HW216683   1.153   1.778   8.305  1.9943 -0.3166  1.2555
 1684SOL     OW16684   3.821   2.107  17.548  0.6301  0.4240  0.0648
 1684SOL    HW116685   3.871   2.122  17.467  0.0562  1.2548 -0.1428
 1684SOL    HW216686   3.857   2.021  17.566  0.8552  0.1923 -1.5334
 1685SOL     OW16687   0.102   3.581   4.424  0.1582  0.1905  0.0321
 1685SOL    HW116688   0.077   3.585   4.516  0.7689 -0.4127  0.2304
 1685SOL    HW216689   0.164   3.508   4.414  0.9841  0.5366  2.6501
 1686SOL     OW16690   2.113   2.676   5.599  0.2954 -0.2346 -0.4597
 1686SOL    HW116691   2.182   2.716   5.544  2.9453  0.3552  3.2839
 1686SOL    HW216692   2.116   2.742   5.668  0.9024 -0.7935  0.0499
 1687SOL     OW16693   3.646   4.374  13.540 -0.1977 -0.4094  0.3524
 1687SOL    HW116694   3.645   4.467  13.564  0.5762  0.2964 -2.3429
 1687SOL    HW216695   3.607   4.338  13.619  0.2583  0.2549  0.8902
 1688SOL     OW16696   4.159   2.934   3.995 -0.2221  0.6802  0.2767
 1688SOL    HW116697   4.063   2.942   3.998 -0.3054 -0.0804 -0.2141
 1688SOL    HW216698   4.174   2.980   4.077  0.5122  1.3128 -0.2138
 1689SOL     OW16699   1.988   1.792   3.901 -0.2201 -0.8650 -0.0678
 1689SOL    HW116700   1.948   1.839   3.828 -0.8240  2.1697  2.2297
 1689SOL    HW216701   1.940   1.709   3.890 -1.1710 -0.3334  0.0975
 1690SOL     OW16702   4.152   4.724  10.995  0.6475 -0.1753 -0.0621
 1690SOL    HW116703   4.072   4.685  10.959 -0.6297  0.1548  2.4425
 1690SOL    HW216704   4.136   0.084  10.993 -0.6182 -0.3734  0.3207
 1691SOL     OW16705   3.956   0.470   0.095  0.0743  0.0784 -0.1821
 1691SOL    HW116706   3.975   0.459   0.002  2.6432  1.0010  0.2105
 1691SOL    HW216707   4.002   0.553   0.110  2.6264 -1.4341  0.4485
 1692SOL     OW16708   4.392   4.249  10.312 -0.5032 -0.0725 -0.3825
 1692SOL    HW116709   4.359   4.166  10.349 -0.2910 -0.1967 -0.4718
 1692SOL    HW216710   4.469   4.221  10.263  1.1215  2.4644  0.7245
 1693SOL     OW16711   0.243   3.273  10.023 -0.5617  0.2805  0.4596
 1693SOL    HW116712   0.323   3.321  10.046 -0.6922  0.4350  0.5956
 1693SOL    HW216713   0.227   3.300   9.932 -1.6827 -1.5646  0.1218
 1694SOL     OW16714   3.648   0.491   6.466  0.3111  0.0631  0.4702
 1694SOL    HW116715   3.615   0.555   6.403  0.6313 -0.5475 -0.3156
 1694SOL    HW216716   3.660   0.551   6.540 -2.8592 -0.3950  1.3571
 1695SOL     OW16717   4.216   3.223   6.488  0.3999 -0.0230  0.2521
 1695SOL    HW116718   4.122   3.216   6.471  0.9106 -4.7513 -0.3990
 1695SOL    HW216719   4.212   3.303   6.541  0.1204 -0.1208  0.3806
 1696SOL     OW16720   3.108   0.631   6.645  0.6899  0.0139  0.0104
 1696SOL    HW116721   3.090   0.675   6.562 -0.6518  1.8924  1.3082
 1696SOL    HW216722   3.034   0.571   6.651 -1.7050  3.0475  0.3818
 1697SOL     OW16723   2.239   0.609  10.616 -0.5711  0.0957  0.6641
 1697SOL    HW116724   2.218   0.695  10.579  1.9950  1.3917  2.2652
 1697SOL    HW216725   2.268   0.634  10.704  0.3715  1.2201  0.0345
 1698SOL     OW16726   3.189   1.029   0.982  0.3744  0.0119 -0.3566
 1698SOL    HW116727   3.190   1.108   0.929 -1.5703  0.2703 -0.0052
 1698SOL    HW216728   3.231   1.050   1.066 -2.7493  0.2760  1.1175
 1699SOL     OW16729   1.214   4.113   3.719  0.0715 -0.1280 -0.2360
 1699SOL    HW116730   1.255   4.183   3.769 -2.0169 -0.0869  1.4033
 1699SOL    HW216731   1.232   4.040   3.778 -1.1136 -0.4640 -0.2705
 1700SOL     OW16732   1.668   4.305  16.569 -0.0301  0.0301  0.0563
 1700SOL    HW116733   1.695   4.276  16.482 -2.4731 -1.1204 -0.3103
 1700SOL    HW216734   1.742   4.366  16.573  1.6767 -2.0690  0.6210
 1701SOL     OW16735   1.281   3.526   2.456  0.0480  0.2034  0.0382
 1701SOL    HW116736   1.259   3.564   2.541  0.4008  0.9647 -0.2090
 1701SOL    HW216737   1.203   3.544   2.403 -0.1754 -0.3179  0.1895
 1702SOL     OW16738   0.045   4.129   7.840  0.3415 -0.5152  0.4214
 1702SOL    HW116739   4.715   4.175   7.893  0.5591 -0.2360  0.4477
 1702SOL    HW216740   0.068   4.197   7.776  0.8809 -0.2374  0.9174
 1703SOL     OW16741   1.147   0.915   0.376  0.0423  0.7666  0.3930
 1703SOL    HW116742   1.242   0.920   0.369  0.0937 -1.1315 -0.0992
 1703SOL    HW216743   1.132   0.838   0.430 -0.7948 -2.2490 -4.1571
 1704SOL     OW16744   1.581   1.570   5.373 -0.0434 -0.6243 -0.3218
 1704SOL    HW116745   1.602   1.525   5.455 -1.7551  0.1520  0.5420
 1704SOL    HW216746   1.667   1.596   5.340  0.9970 -2.1630  1.1872
 1705SOL     OW16747   0.127   2.329   6.767 -0.1636 -0.2628 -0.0858
 1705SOL    HW116748   0.212   2.316   6.726 -1.7655 -2.0981 -2.7676
 1705SOL    HW216749   0.128   2.264   6.837 -2.5465 -0.0954  0.0992
 1706SOL     OW16750   2.096   1.041   4.169  0.4921 -0.9582  0.3698
 1706SOL    HW116751   2.075   1.112   4.230  0.0558  0.6035 -1.5840
 1706SOL    HW216752   2.038   0.972   4.202 -0.6225 -0.0909  0.2341
 1707SOL     OW16753   1.400   2.875   5.546 -0.2160 -0.4733  0.3022
 1707SOL    HW116754   1.438   2.956   5.512 -0.8284 -0.7317 -0.9956
 1707SOL    HW216755   1.466   2.814   5.514  0.0680  1.4895 -2.8243
 1708SOL     OW16756   1.780   0.862  17.224 -0.2039  0.4852  0.4131
 1708SOL    HW116757   1.792   0.781  17.274 -1.6425  0.5747  0.9217
 1708SOL    HW216758   1.868   0.895  17.207  0.9539 -1.7103  2.1005
 1709SOL     OW16759   0.826   2.601   7.837  0.6048 -0.0432  0.3293
 1709SOL    HW116760   0.870   2.527   7.879  1.7257 -0.4500 -1.5637
 1709SOL    HW216761   0.898   2.664   7.843  1.5944 -0.9690 -2.0044
 1710SOL     OW16762   1.228   0.805   1.938 -0.1126 -0.5240  0.4225
 1710SOL    HW116763   1.271   0.768   1.861  1.1663  1.4971  0.1614
 1710SOL    HW216764   1.297   0.837   1.995 -2.0814  0.8117  2.0549
 1711SOL     OW16765   1.285   1.001  15.879 -0.7225  0.2660 -0.1301
 1711SOL    HW116766   1.311   0.944  15.951  1.2118  2.5584  0.9742
 1711SOL    HW216767   1.263   1.078  15.930  1.6742 -0.0536  1.3927
 1712SOL     OW16768   1.505   1.489  17.395  0.3350 -0.1283  0.0065
 1712SOL    HW116769   1.584   1.488  17.449 -0.0467 -0.9953  0.5355
 1712SOL    HW216770   1.461   1.408  17.420 -2.1607  0.5404 -2.2236
 1713SOL     OW16771   0.244   3.829  14.930  0.3576  0.3341 -0.3327
 1713SOL    HW116772   0.188   3.813  14.854  0.1054 -0.8825  0.1162
 1713SOL    HW216773   0.187   3.892  14.975  1.4723 -0.5871  2.3299
 1714SOL     OW16774   1.136   0.744  11.114 -0.4244  0.3658 -0.0717
 1714SOL    HW116775   1.153   0.767  11.205 -1.2473 -0.8006  0.3689
 1714SOL    HW216776   1.190   0.669  11.089 -0.6344 -0.2535  1.3504
 1715SOL     OW16777   1.477   3.249  12.725 -0.4444 -0.0065  0.1383
 1715SOL    HW116778   1.559   3.298  12.727 -0.5573  0.1440  0.9285
 1715SOL    HW216779   1.449   3.294  12.645 -0.4354  0.2299  0.2686
 1716SOL     OW16780   4.612   0.065   5.191 -0.5268 -0.4244  0.9917
 1716SOL    HW116781   4.660   0.096   5.114 -0.1760 -0.1120  1.3402
 1716SOL    HW216782   4.581   4.716   5.156 -2.7511  1.2289 -1.0516
 1717SOL     OW16783   1.501   4.419   2.195 -0.4878 -0.4483 -0.6100
 1717SOL    HW116784   1.533   4.384   2.278 -1.0476 -1.7344 -0.9381
 1717SOL    HW216785   1.477   4.340   2.148  0.4379 -1.3823  0.5063
 1718SOL     OW16786   1.879   0.894   7.512 -0.4750 -0.0821  0.2420
 1718SOL    HW116787   1.884   0.961   7.580 -0.1260 -0.8654  0.9927
 1718SOL    HW216788   1.947   0.830   7.533  1.2486  2.2239  1.6928
 1719SOL     OW16789   4.217   3.032   3.556 -0.0230 -0.2056  0.3617
 1719SOL    HW116790   4.163   2.952   3.554  0.6369 -0.6736  1.2545
 1719SOL    HW216791   4.176   3.083   3.626 -0.4543  1.2141 -0.9418
 1720SOL     OW16792   3.612   1.021   9.314  0.3985 -0.0447 -0.3975
 1720SOL    HW116793   3.546   1.086   9.335  1.9130  1.5929 -0.6255
 1720SOL    HW216794   3.628   0.965   9.389  1.1664 -0.1338 -0.6193
 1721SOL     OW16795   3.192   4.639  15.855 -0.2803 -0.0266  0.0171
 1721SOL    HW116796   3.233   4.725  15.859 -0.7944  0.2193 -0.0368
 1721SOL    HW216797   3.245   4.596  15.923  0.8258  2.6662  0.8456
 1722SOL     OW16798   2.475   2.164   9.427  0.2505  0.4508 -0.6254
 1722SOL    HW116799   2.505   2.091   9.372 -0.0628  0.4790 -0.8403
 1722SOL    HW216800   2.406   2.203   9.374 -0.5642  0.3570  0.3679
 1723SOL     OW16801   4.245   2.519   3.629  0.2761  0.2610  0.5317
 1723SOL    HW116802   4.323   2.463   3.625 -0.1404 -0.4307  2.2807
 1723SOL    HW216803   4.280   2.582   3.566 -2.1048  1.5457  0.5212
 1724SOL     OW16804   3.680   4.405  14.007 -0.1254 -0.0411 -0.7925
 1724SOL    HW116805   3.725   4.332  14.049 -1.9527 -0.1798  0.9356
 1724SOL    HW216806   3.749   4.437  13.949 -1.2638 -0.2310 -2.2541
 1725SOL     OW16807   1.502   3.721  15.753  0.4635  0.3631  0.0745
 1725SOL    HW116808   1.412   3.696  15.732 -0.7212  3.1951  1.8017
 1725SOL    HW216809   1.516   3.784  15.682  1.7990  0.1439  0.1450
 1726SOL     OW16810   4.225   4.088   6.451  0.1053  0.2313 -0.5026
 1726SOL    HW116811   4.243   4.158   6.388  1.1790  0.8690  0.5075
 1726SOL    HW216812   4.310   4.043   6.454 -0.0031  0.0129 -0.7067
 1727SOL     OW16813   0.948   0.873   3.932  0.2865 -0.3601  0.1822
 1727SOL    HW116814   0.941   0.786   3.972 -0.1006  0.1196  1.1666
 1727SOL    HW216815   1.028   0.865   3.881 -0.3933  0.3150 -0.9778
 1728SOL     OW16816   2.904   2.245   5.192  0.0521  0.0715 -0.7640
 1728SOL    HW116817   2.809   2.255   5.193 -0.0235 -0.7948  1.5651
 1728SOL    HW216818   2.904   2.159   5.235  4.0552  0.8170  0.7568
 1729SOL     OW16819   3.746   3.958   7.813 -0.0622  0.4930 -0.1538
 1729SOL    HW116820   3.755   4.048   7.782  0.2070 -0.8196 -3.8856
 1729SOL    HW216821   3.830   3.944   7.856  1.5185  0.2140 -3.3500
 1730SOL     OW16822   2.567   4.689   6.147  0.1745  0.1636 -0.1893
 1730SOL    HW116823   2.543   4.706   6.238 -0.5477 -0.0353 -0.3402
 1730SOL    HW216824   2.489   4.643   6.114 -0.7943  1.6976 -0.0493
 1731SOL     OW16825   0.390   3.832   4.334  0.1158  0.1987 -0.1351
 1731SOL    HW116826   0.442   3.891   4.280  2.0721 -2.8306 -1.5806
 1731SOL    HW216827   0.389   3.879   4.417 -0.0561  0.2437 -0.1638
 1732SOL     OW16828   2.010   4.107   1.623  0.3133  0.1431  0.2835
 1732SOL    HW116829   2.070   4.063   1.682 -1.2943  0.8482  2.4286
 1732SOL    HW216830   1.926   4.103   1.668 -0.1549  0.1867 -0.5906
 1733SOL     OW16831   1.632   3.726  17.303 -0.0941  0.2971  0.0895
 1733SOL    HW116832   1.578   3.679  17.240  0.6238 -1.1736  0.5674
 1733SOL    HW216833   1.641   3.812  17.264  0.7262  0.0045 -0.3546
 1734SOL     OW16834   4.494   3.705   8.484 -0.6305  0.3139 -0.3549
 1734SOL    HW116835   4.537   3.707   8.569 -0.6868 -1.1399 -0.2943
 1734SOL    HW216836   4.404   3.699   8.517 -0.5566 -0.7964 -0.3653
 1735SOL     OW16837   1.950   3.577   2.801 -0.5645 -0.5925  0.1107
 1735SOL    HW116838   1.860   3.563   2.770 -0.2980 -0.9088 -0.5201
 1735SOL    HW216839   2.006   3.525   2.744  0.3860 -0.3275  0.8102
 1736SOL     OW16840   2.083   2.695   4.099 -0.0424  0.7912 -0.5735
 1736SOL    HW116841   2.056   2.646   4.177  1.5955  1.3867  0.3605
 1736SOL    HW216842   2.174   2.685   4.126 -0.5759 -0.8799  0.6022
 1737SOL     OW16843   1.433   2.102   3.694  0.1406  0.2419  0.2307
 1737SOL    HW116844   1.450   2.034   3.759  0.6962 -0.2520 -0.4425
 1737SOL    HW216845   1.339   2.085   3.686  0.3463 -1.9342  2.1492
 1738SOL     OW16846   2.678   3.165   8.171 -0.0096 -0.2668  0.0214
 1738SOL    HW116847   2.587   3.145   8.150  0.0665 -0.3814 -0.2074
 1738SOL    HW216848   2.708   3.088   8.220  0.3178 -0.5145 -0.5603
 1739SOL     OW16849   2.214   3.745   6.235  0.0624  0.0098  0.0994
 1739SOL    HW116850   2.209   3.840   6.246  1.9644  0.1222  0.0030
 1739SOL    HW216851   2.121   3.726   6.223  0.7177 -3.1897 -0.0674
 1740SOL     OW16852   1.403   1.862   4.986 -0.8106 -0.2171  0.8524
 1740SOL    HW116853   1.399   1.816   5.070 -2.4774 -2.1337 -0.2934
 1740SOL    HW216854   1.397   1.790   4.923 -1.2490  2.0468 -1.7121
 1741SOL     OW16855   0.040   0.820  14.383 -0.3563 -0.1046 -0.3284
 1741SOL    HW116856   0.006   0.788  14.300 -0.7875  0.7059 -0.4644
 1741SOL    HW216857   0.110   0.756  14.395 -1.0446 -0.8271 -0.1380
 1742SOL     OW16858   2.376   3.934   6.462 -0.2251 -0.1400  0.6238
 1742SOL    HW116859   2.292   3.959   6.423 -0.5022 -1.6851  0.2446
 1742SOL    HW216860   2.355   3.930   6.555 -0.4304  1.8868  0.6551
 1743SOL     OW16861   4.467   0.484   0.570  0.2369  0.4489  0.1515
 1743SOL    HW116862   4.544   0.457   0.620 -0.1078 -2.7668 -1.0389
 1743SOL    HW216863   4.454   0.555   0.632 -1.2931 -1.1101  1.5930
 1744SOL     OW16864   2.594   1.326   3.137 -0.2771  0.1909 -0.4211
 1744SOL    HW116865   2.518   1.275   3.165 -0.5532  2.0084  2.1427
 1744SOL    HW216866   2.652   1.257   3.103  0.7270  0.7601  0.1151
 1745SOL     OW16867   0.414   2.344   7.781 -0.3130  0.1592  0.2000
 1745SOL    HW116868   0.449   2.329   7.868  1.4433  2.7324 -0.0658
 1745SOL    HW216869   0.488   2.393   7.744 -0.3831 -0.0099 -0.1651
 1746SOL     OW16870   4.734   3.784   5.285 -0.4798  0.1625 -0.0987
 1746SOL    HW116871   4.655   3.799   5.337  1.3038  0.5420  2.4924
 1746SOL    HW216872   0.057   3.851   5.320 -2.3703 -0.1491  3.6881
 1747SOL     OW16873   2.940   2.185   7.393  0.3025  0.1336 -0.1223
 1747SOL    HW116874   2.898   2.190   7.479  0.0125  0.8632 -0.3107
 1747SOL    HW216875   3.033   2.165   7.402  1.1327  3.5739 -1.1290
 1748SOL     OW16876   1.459   1.522   3.644  0.0472  0.3829 -0.3642
 1748SOL    HW116877   1.521   1.487   3.580  0.2577  0.7832 -0.3758
 1748SOL    HW216878   1.511   1.529   3.725  0.3284  0.5817 -0.5631
 1749SOL     OW16879   3.982   4.721  13.005  0.3474 -0.2269  0.2955
 1749SOL    HW116880   4.008   0.017  12.918  0.7488 -0.5013  0.3154
 1749SOL    HW216881   4.060   0.005  13.057  1.4878 -2.5931 -0.5185
 1750SOL     OW16882   4.010   3.262  10.245 -0.0573 -0.1880  0.1770
 1750SOL    HW116883   3.994   3.180  10.292 -0.3877  0.1601  0.6754
 1750SOL    HW216884   4.028   3.231  10.156  0.5091  2.1681 -0.5090
 1751SOL     OW16885   4.046   0.366   7.130  0.0786  0.6232  0.0623
 1751SOL    HW116886   3.983   0.394   7.195 -0.2546 -0.1949  0.0953
 1751SOL    HW216887   4.053   0.272   7.150 -1.5188  0.2850 -0.9482
 1752SOL     OW16888   3.251   1.282   0.245  0.6747 -0.2474  0.8602
 1752SOL    HW116889   3.252   1.234   0.163  5.5664 -0.1374  0.8735
 1752SOL    HW216890   3.204   1.230   0.310 -2.0047  0.8963 -0.1485
 1753SOL     OW16891   2.086   4.568  12.685 -0.0307  0.2437  0.1887
 1753SOL    HW116892   2.073   4.573  12.779 -3.0056 -2.2869 -0.0971
 1753SOL    HW216893   2.092   4.662  12.665 -0.6209  0.7526  2.4696
 1754SOL     OW16894   3.134   2.057   0.716 -0.2397 -0.3504 -0.5058
 1754SOL    HW116895   3.067   2.120   0.742 -0.9608 -0.7731 -1.3616
 1754SOL    HW216896   3.141   1.997   0.790 -0.6559  0.4699  0.1992
 1755SOL     OW16897   1.950   2.346  11.987 -0.2094  0.2351 -0.4945
 1755SOL    HW116898   2.023   2.370  11.931  0.9117 -3.0252 -0.3971
 1755SOL    HW216899   1.900   2.428  11.979 -1.3885 -0.5763 -1.3746
 1756SOL     OW16900   3.693   2.210   3.175  0.0473  0.3292  0.1013
 1756SOL    HW116901   3.616   2.185   3.124 -0.4688  0.8447  0.6297
 1756SOL    HW216902   3.741   2.127   3.169 -1.3077 -0.3462 -1.3150
 1757SOL     OW16903   4.690   4.257   0.599  0.0685 -0.3710 -0.0207
 1757SOL    HW116904   4.595   4.247   0.604  0.1330 -0.9046  0.1485
 1757SOL    HW216905   4.687   4.345   0.562 -0.5857 -0.4309 -0.1099
 1758SOL     OW16906   1.009   2.681   9.550 -0.4818  0.2216  0.5762
 1758SOL    HW116907   1.059   2.724   9.620 -0.7489 -0.4911  1.2030
 1758SOL    HW216908   0.980   2.608   9.604 -0.0364  1.8708  3.0703
 1759SOL     OW16909   4.369   1.731   4.359  0.2379  0.4904 -0.1593
 1759SOL    HW116910   4.332   1.806   4.313  0.3695  0.0752 -0.9549
 1759SOL    HW216911   4.298   1.722   4.423  0.5315 -0.4516  0.0449
 1760SOL     OW16912   3.183   3.039   5.374 -0.1472  0.7267 -0.0365
 1760SOL    HW116913   3.238   3.061   5.299 -1.0873  0.3808 -0.8231
 1760SOL    HW216914   3.177   2.943   5.374  0.9286  0.6557  1.3105
 1761SOL     OW16915   0.363   4.677   0.025 -0.0938 -0.2430  0.2196
 1761SOL    HW116916   0.385   4.588   0.053 -1.1986 -0.5906 -0.0470
 1761SOL    HW216917   0.299   4.656  17.697  1.2230  2.4439 -1.9052
 1762SOL     OW16918   2.234   2.963   0.043  0.2291 -0.2038  0.3448
 1762SOL    HW116919   2.185   2.926  17.708 -0.6988 -0.8060  1.2639
 1762SOL    HW216920   2.173   2.967   0.116  1.0221 -1.2634  1.0669
 1763SOL     OW16921   1.873   0.214   8.944 -0.6540  0.5809  0.1282
 1763SOL    HW116922   1.953   0.170   8.915 -2.2590 -2.2517 -0.0055
 1763SOL    HW216923   1.853   0.260   8.862  2.5638 -0.3887 -1.2081
 1764SOL     OW16924   0.238   1.158  11.220 -0.0789 -0.4328 -0.2703
 1764SOL    HW116925   0.193   1.109  11.151  0.1580  1.9644 -2.1711
 1764SOL    HW216926   0.160   1.184  11.268  0.9950  0.0908  1.1892
 1765SOL     OW16927   2.211   1.988  16.566  0.3464 -0.3875 -0.3451
 1765SOL    HW116928   2.126   1.948  16.552  0.1240 -0.9849  2.6775
 1765SOL    HW216929   2.230   1.952  16.653  1.4380  1.3709  0.1509
 1766SOL     OW16930   3.911   3.940   0.866 -0.3151 -0.2547  0.1638
 1766SOL    HW116931   3.968   4.017   0.860 -1.4907  0.6627  0.7266
 1766SOL    HW216932   3.830   3.979   0.832  1.0907 -0.2623 -3.1434
 1767SOL     OW16933   2.247   1.089   8.503  0.0871  0.1703  0.0335
 1767SOL    HW116934   2.229   1.164   8.560 -1.7185 -0.0142 -0.3065
 1767SOL    HW216935   2.340   1.069   8.511  0.4061  2.1713  1.4396
 1768SOL     OW16936   4.591   4.406   5.728  0.3037 -0.1297 -0.1198
 1768SOL    HW116937   4.651   4.480   5.725  0.6504 -0.4341 -0.8584
 1768SOL    HW216938   4.511   4.440   5.689  0.1839 -2.5540 -2.0072
 1769SOL     OW16939   1.091   0.355  16.774  0.2473 -0.3290  0.3821
 1769SOL    HW116940   1.042   0.397  16.846 -0.1392 -0.2620  0.0809
 1769SOL    HW216941   1.142   0.288  16.819  0.4825 -0.4112 -0.0156
 1770SOL     OW16942   2.951   1.124   2.115  0.3145  0.3898  0.8723
 1770SOL    HW116943   2.860   1.136   2.142 -0.4556  0.5046 -1.7942
 1770SOL    HW216944   2.928   1.039   2.078 -0.8246  0.2448  1.8786
 1771SOL     OW16945   1.358   2.020   5.855 -0.1359 -0.0429  0.2814
 1771SOL    HW116946   1.377   1.952   5.789 -0.3133 -0.2239  0.4173
 1771SOL    HW216947   1.304   2.080   5.804 -0.7254 -1.9282 -1.3207
 1772SOL     OW16948   0.704   4.300   8.694 -0.1123 -0.2031  0.0628
 1772SOL    HW116949   0.666   4.333   8.613 -0.5322  1.5120  0.9615
 1772SOL    HW216950   0.749   4.381   8.718  1.1889 -0.5539 -1.1528
 1773SOL     OW16951   0.422   0.836   6.356 -0.1160  0.0604 -0.0274
 1773SOL    HW116952   0.398   0.747   6.331 -0.1308 -0.7926  2.9609
 1773SOL    HW216953   0.451   0.821   6.447  1.4934  1.3183 -0.3321
 1774SOL     OW16954   3.542   0.610  16.521 -1.0370 -0.5606  0.1707
 1774SOL    HW116955   3.449   0.596  16.540 -1.1569 -2.3134 -1.7763
 1774SOL    HW216956   3.552   0.549  16.448  2.3788 -2.1597  2.0051
 1775SOL     OW16957   1.266   4.132   4.887  0.3301  0.5493  0.4477
 1775SOL    HW116958   1.235   4.056   4.936  1.2985 -1.7314 -2.4638
 1775SOL    HW216959   1.183   4.154   4.845 -0.2000  0.0123  1.2129
 1776SOL     OW16960   1.082   3.026   6.666  0.7586 -0.1413 -0.3909
 1776SOL    HW116961   1.084   3.031   6.570 -2.7554  1.0830 -0.3810
 1776SOL    HW216962   1.176   3.016   6.682  0.2922 -0.0394  2.4305
 1777SOL     OW16963   1.800   4.430   2.919  1.0878  0.4647 -0.0003
 1777SOL    HW116964   1.721   4.434   2.972  0.7661  2.3942 -0.6006
 1777SOL    HW216965   1.828   4.339   2.913 -3.0228 -0.7428 -0.2142
 1778SOL     OW16966   2.840   1.132   1.343  0.4266  0.3784 -0.0624
 1778SOL    HW116967   2.844   1.044   1.306 -0.4249  1.6262 -3.1234
 1778SOL    HW216968   2.877   1.123   1.431 -1.3845 -3.8447  0.2483
 1779SOL     OW16969   0.612   1.875   5.198 -0.4277  0.8405 -0.1963
 1779SOL    HW116970   0.572   1.824   5.269  0.8558  1.7797  1.1928
 1779SOL    HW216971   0.580   1.965   5.209  0.1290  0.9167  0.8067
 1780SOL     OW16972   0.335   2.525   5.938 -1.3113  0.3748  0.2397
 1780SOL    HW116973   0.359   2.464   5.869  0.3164  0.4666  0.7185
 1780SOL    HW216974   0.402   2.592   5.925  0.1679 -1.1416  0.1196
 1781SOL     OW16975   0.612   0.845   8.812 -0.3846  0.4261 -0.1893
 1781SOL    HW116976   0.697   0.883   8.788  0.5729 -1.4916  0.1489
 1781SOL    HW216977   0.561   0.908   8.762  1.4455  0.9736 -1.3443
 1782SOL     OW16978   3.053   4.706   7.026  0.5324  0.1742  0.0541
 1782SOL    HW116979   3.075   0.056   7.064 -0.8994 -0.7598  2.9777
 1782SOL    HW216980   3.134   4.656   7.025  0.7632  0.5164  1.6653
 1783SOL     OW16981   0.327   0.795  11.138 -0.3685 -0.5093 -0.1691
 1783SOL    HW116982   0.269   0.871  11.137 -1.5920 -1.4402  1.1755
 1783SOL    HW216983   0.280   0.724  11.095  0.1571 -1.0196  0.0926
 1784SOL     OW16984   3.619   4.640  13.672  0.1975 -0.0647  0.0146
 1784SOL    HW116985   3.560   4.684  13.733  1.6526  0.9717  0.6815
 1784SOL    HW216986   3.625   4.703  13.600 -1.2686 -0.5018 -0.4708
 1785SOL     OW16987   3.083   3.500  14.161 -0.4576 -0.5505  0.6005
 1785SOL    HW116988   3.142   3.425  14.167 -0.6903 -0.5662  2.8768
 1785SOL    HW216989   3.100   3.554  14.239  1.2424 -0.3154  0.0580
 1786SOL     OW16990   0.399   4.049   3.352  0.2485  0.6985 -0.0427
 1786SOL    HW116991   0.464   4.093   3.296  1.5070  1.3869  1.9030
 1786SOL    HW216992   0.347   4.120   3.390 -0.5716  0.4301 -0.6849
 1787SOL     OW16993   2.483   2.903   2.895  0.5904 -0.8990 -0.5619
 1787SOL    HW116994   2.467   2.844   2.969  1.2623  0.1783  0.4430
 1787SOL    HW216995   2.410   2.887   2.836  0.0683 -0.5725 -0.0042
 1788SOL     OW16996   1.968   4.205   6.303  0.4355 -0.3209 -0.0996
 1788SOL    HW116997   1.889   4.175   6.348 -0.4606  0.0728 -1.4138
 1788SOL    HW216998   1.980   4.293   6.337  1.0318  0.1603 -1.5598
 1789SOL     OW16999   3.091   3.423   5.347  0.3779 -0.2746 -0.8778
 1789SOL    HW117000   3.043   3.356   5.396  0.7713  1.8822  2.4410
 1789SOL    HW217001   3.034   3.430   5.271 -2.4880  0.3361  1.3388
 1790SOL     OW17002   2.458   4.198  12.712 -0.0242 -0.3717 -0.4298
 1790SOL    HW117003   2.431   4.224  12.800  1.9390  0.8317 -0.1802
 1790SOL    HW217004   2.427   4.108  12.707  0.6949 -0.6864  0.5521
 1791SOL     OW17005   4.475   4.162   5.234  0.3384 -0.1648  0.3626
 1791SOL    HW117006   4.464   4.098   5.163 -0.7770  1.5700 -1.0082
 1791SOL    HW217007   4.537   4.115   5.290  0.1143 -1.9424 -0.8826
 1792SOL     OW17008   0.183   3.556  11.344  0.2376 -0.5623 -0.1666
 1792SOL    HW117009   0.088   3.544  11.341  0.3485 -1.2107 -1.0653
 1792SOL    HW217010   0.224   3.476  11.376 -0.9399 -1.3609 -0.6801
 1793SOL     OW17011   4.500   1.972  12.320  0.1468 -0.6351  0.7936
 1793SOL    HW117012   4.516   1.981  12.414  3.1533  0.0308  0.2060
 1793SOL    HW217013   4.470   2.061  12.305  1.1194 -0.7450 -1.7407
 1794SOL     OW17014   1.297   2.974   2.953 -0.3117 -0.1759  0.3955
 1794SOL    HW117015   1.380   3.022   2.961 -0.3618  0.3622 -2.4165
 1794SOL    HW217016   1.333   2.900   2.905 -0.5804 -0.5723  0.8136
 1795SOL     OW17017   1.643   1.482  12.535  0.0702  0.7259 -0.1637
 1795SOL    HW117018   1.606   1.415  12.592 -0.6754  1.2888  0.0215
 1795SOL    HW217019   1.698   1.427  12.480  0.5838 -0.6349  1.7149
 1796SOL     OW17020   0.231   0.982   3.849 -0.1500 -0.2014 -0.5121
 1796SOL    HW117021   0.212   1.058   3.904  0.9207 -1.2316  1.2793
 1796SOL    HW217022   0.326   0.975   3.845 -0.2234 -0.0773 -2.4417
 1797SOL     OW17023   0.496   1.773  12.996  0.2601 -0.5685 -0.5645
 1797SOL    HW117024   0.513   1.868  12.995 -1.3019 -0.2879 -0.8183
 1797SOL    HW217025   0.463   1.755  12.908 -0.4080 -3.6224  0.3221
 1798SOL     OW17026   4.195   3.027   2.326 -0.0460 -0.2189  0.2829
 1798SOL    HW117027   4.232   2.947   2.363  0.3340 -0.0431  0.2748
 1798SOL    HW217028   4.184   3.072   2.410 -0.6310 -0.7859  0.5075
 1799SOL     OW17029   4.173   3.546  13.496  0.2673 -0.1160 -0.0510
 1799SOL    HW117030   4.153   3.483  13.427  2.7766  0.1217 -1.0006
 1799SOL    HW217031   4.093   3.548  13.549  0.6448 -0.5793  0.5438
 1800SOL     OW17032   2.450   4.084   3.706  0.1417 -0.5050 -0.2881
 1800SOL    HW117033   2.413   4.094   3.794  2.3716  1.0592  0.4514
 1800SOL    HW217034   2.401   4.010   3.667  0.2952 -0.4162 -0.6490
 1801SOL     OW17035   0.720   0.656  12.870 -0.4325 -0.2109  0.2997
 1801SOL    HW117036   0.713   0.617  12.783  0.0310 -1.3071  0.7457
 1801SOL    HW217037   0.811   0.682  12.885  0.0260 -1.8156  0.2418
 1802SOL     OW17038   3.495   1.303  11.923  0.2475 -0.6825  0.3137
 1802SOL    HW117039   3.407   1.289  11.890  0.2812 -0.7745  0.2627
 1802SOL    HW217040   3.531   1.313  11.834 -1.2884  0.7622 -0.1364
 1803SOL     OW17041   4.411   4.008   3.598  0.5455  0.0607  0.0981
 1803SOL    HW117042   4.409   3.916   3.626  0.7436  0.6692  2.0517
 1803SOL    HW217043   4.478   4.041   3.658  0.1451  0.0245  0.5571
 1804SOL     OW17044   3.173   0.714   3.174  0.3138  0.1795 -0.1296
 1804SOL    HW117045   3.100   0.776   3.164 -0.7313 -0.6334  2.4664
 1804SOL    HW217046   3.138   0.682   3.258 -0.8666 -0.0682 -0.7070
 1805SOL     OW17047   3.707   2.161   7.715  0.2408  0.1861  0.7537
 1805SOL    HW117048   3.690   2.067   7.709 -0.4710  0.2610  1.7099
 1805SOL    HW217049   3.746   2.178   7.629  1.4704  0.6308  1.4029
 1806SOL     OW17050   4.325   2.490   7.890 -0.9733  0.4824  0.6808
 1806SOL    HW117051   4.332   2.576   7.849  2.4608 -0.8629 -1.4787
 1806SOL    HW217052   4.376   2.488   7.972  0.7396  0.9433 -0.3849
 1807SOL     OW17053   3.131   1.512  16.289 -0.2007  0.3786 -0.9268
 1807SOL    HW117054   3.171   1.499  16.203  0.6994  0.7856 -0.5692
 1807SOL    HW217055   3.206   1.498  16.347 -0.2623  0.7152 -0.7678
 1808SOL     OW17056   2.547   2.542   4.765 -0.0578 -0.0767  0.1037
 1808SOL    HW117057   2.591   2.622   4.795  0.6226 -0.1863 -0.6224
 1808SOL    HW217058   2.619   2.485   4.788 -1.3323 -0.4524  3.2532
 1809SOL     OW17059   1.959   1.744  13.915 -0.2280  0.0988  0.2666
 1809SOL    HW117060   2.038   1.784  13.951  0.7464 -0.0179 -1.7673
 1809SOL    HW217061   1.913   1.823  13.887  0.6905  0.1143 -1.2117
 1810SOL     OW17062   0.963   0.930  11.048 -0.3550  0.4227 -0.1553
 1810SOL    HW117063   1.004   0.847  11.070  0.3082  1.0551  0.9723
 1810SOL    HW217064   0.944   0.969  11.133 -0.6803  1.6431 -0.7813
 1811SOL     OW17065   2.051   1.127   3.220  0.0403 -0.8152 -0.3604
 1811SOL    HW117066   2.095   1.052   3.179 -0.2085 -0.0431 -2.0296
 1811SOL    HW217067   1.966   1.124   3.177  0.8100  0.1528 -1.9378
 1812SOL     OW17068   4.364   1.210   4.601 -0.0529 -0.4839 -0.7915
 1812SOL    HW117069   4.275   1.182   4.623  0.5345  0.3261  2.7180
 1812SOL    HW217070   4.342   1.286   4.547  2.6433  0.4129 -0.6538
 1813SOL     OW17071   0.087   0.821   0.321 -0.1899  0.2308  0.7184
 1813SOL    HW117072   0.102   0.732   0.353  0.9366  0.6241  1.2909
 1813SOL    HW217073   0.166   0.868   0.347  0.5011 -0.9474  0.7772
 1814SOL     OW17074   3.663   2.611   8.182 -0.0086 -0.0961  0.0386
 1814SOL    HW117075   3.654   2.523   8.218 -1.2879 -0.1068 -0.3196
 1814SOL    HW217076   3.684   2.600   8.089 -0.4755 -0.2797 -0.0416
 1815SOL     OW17077   3.273   4.562   7.684 -0.4844 -0.1804 -0.2142
 1815SOL    HW117078   3.219   4.640   7.673  1.1678  0.8645 -0.7640
 1815SOL    HW217079   3.198   4.507   7.709 -1.2467 -0.4826 -3.0979
 1816SOL     OW17080   0.820   1.075   8.774 -0.3607 -0.2534 -0.4175
 1816SOL    HW117081   0.810   1.166   8.744  1.8143  0.4222  0.9370
 1816SOL    HW217082   0.893   1.040   8.723  2.4574  3.7059  0.8629
 1817SOL     OW17083   1.269   0.797   5.518 -0.1762 -0.8137 -0.1902
 1817SOL    HW117084   1.249   0.776   5.427 -2.1503 -0.2898  0.1422
 1817SOL    HW217085   1.191   0.769   5.564 -1.7181 -0.9969 -2.9085
 1818SOL     OW17086   4.313   1.138  15.503 -0.3572  0.0929 -0.4210
 1818SOL    HW117087   4.275   1.107  15.421  0.3368 -3.3150  0.5426
 1818SOL    HW217088   4.275   1.225  15.498  0.8239  0.6024 -0.6819
 1819SOL     OW17089   3.532   0.025   3.121 -0.5900  0.2651  0.2886
 1819SOL    HW117090   3.625   0.031   3.102 -0.6159  0.3429  0.1872
 1819SOL    HW217091   3.515   0.103   3.069  1.2494  2.7438  3.4146
 1820SOL     OW17092   4.025   1.629   0.534 -0.4485 -0.3689 -0.0807
 1820SOL    HW117093   4.045   1.553   0.479 -1.6913 -0.5941 -0.2251
 1820SOL    HW217094   4.064   1.599   0.615 -0.3895  1.7056  0.6652
 1821SOL     OW17095   1.124   1.175   6.998  0.0767 -0.2225  0.2171
 1821SOL    HW117096   1.078   1.259   6.998  2.0737  0.8634 -0.2702
 1821SOL    HW217097   1.149   1.174   7.090 -0.0390  1.1420  0.2608
 1822SOL     OW17098   4.192   4.071   1.753 -0.2113 -0.0994 -0.3519
 1822SOL    HW117099   4.133   4.078   1.678  0.6650 -2.3575 -1.2781
 1822SOL    HW217100   4.185   4.157   1.793  1.0495 -0.4611  0.6613
 1823SOL     OW17101   2.704   3.485  11.514 -0.3578  0.2533 -0.1570
 1823SOL    HW117102   2.616   3.447  11.512 -0.2703 -0.0995  1.8926
 1823SOL    HW217103   2.745   3.441  11.589  0.3898  1.4938  0.1735
 1824SOL     OW17104   0.287   4.175   8.843  0.0460 -0.0941 -0.1643
 1824SOL    HW117105   0.313   4.090   8.807 -0.6821 -0.3838 -0.0032
 1824SOL    HW217106   0.282   4.153   8.936  0.3363  0.9056  0.0856
 1825SOL     OW17107   0.662   4.450   2.365  0.8585  0.8715 -0.4318
 1825SOL    HW117108   0.648   4.518   2.299  2.4222 -1.2690 -3.0054
 1825SOL    HW217109   0.660   4.372   2.309  1.3750  0.0694  0.6667
 1826SOL     OW17110   3.810   4.601   9.078  0.3233 -0.0875 -0.7039
 1826SOL    HW117111   3.751   4.610   9.153 -0.1453 -0.4983 -1.0243
 1826SOL    HW217112   3.898   4.628   9.105 -0.2114 -0.5298  1.4303
 1827SOL     OW17113   0.121   1.876   5.548 -0.5482 -0.0439 -0.7890
 1827SOL    HW117114   0.088   1.941   5.609 -1.1211 -0.2507 -0.8828
 1827SOL    HW217115   0.117   1.795   5.600  0.7966  0.8428  0.6869
 1828SOL     OW17116   4.534   0.878  11.976 -0.6437  0.9312  0.2834
 1828SOL    HW117117   4.464   0.930  12.016  0.1061 -0.0613  2.8826
 1828SOL    HW217118   4.538   0.918  11.889 -2.2613  1.1036  0.2986
 1829SOL     OW17119   3.865   4.364   0.613  0.6085  0.3323 -0.0376
 1829SOL    HW117120   3.813   4.332   0.540  1.7133  0.0426 -0.7117
 1829SOL    HW217121   3.793   4.405   0.661  1.6516 -0.1848  1.9960
 1830SOL     OW17122   2.459   1.288   4.233 -0.4519 -0.4573 -0.2618
 1830SOL    HW117123   2.406   1.225   4.183 -1.2184  0.7814 -1.0273
 1830SOL    HW217124   2.533   1.232   4.255  0.5250  1.4375  1.2431
 1831SOL     OW17125   1.186   2.309  17.070  0.3817  1.2180 -0.2898
 1831SOL    HW117126   1.153   2.376  17.131 -0.9714  0.6176 -0.3707
 1831SOL    HW217127   1.279   2.299  17.088 -0.2003 -1.1915  1.2927
 1832SOL     OW17128   3.330   3.949   2.537 -0.8144 -0.0919  0.0921
 1832SOL    HW117129   3.341   3.863   2.497  5.8954  1.3226 -1.1195
 1832SOL    HW217130   3.420   3.983   2.533 -0.9597  0.3192  0.2991
 1833SOL     OW17131   1.052   1.234   5.831 -0.0009 -0.9400  0.0505
 1833SOL    HW117132   1.073   1.282   5.751 -0.3377 -0.1910  0.4167
 1833SOL    HW217133   1.117   1.164   5.828  0.5617 -0.6192  4.2079
 1834SOL     OW17134   2.586   1.212   5.009  0.5244 -0.1266 -0.4123
 1834SOL    HW117135   2.534   1.276   5.057 -0.3418  0.1440 -1.7146
 1834SOL    HW217136   2.649   1.262   4.957  0.0489  0.0052 -0.8616
 1835SOL     OW17137   2.359   1.756   6.996 -0.0462 -0.1259  0.0964
 1835SOL    HW117138   2.328   1.787   6.911  0.4855  0.7081  0.2065
 1835SOL    HW217139   2.385   1.838   7.038 -3.9009  0.8896  0.5085
 1836SOL     OW17140   1.937   0.936  17.573  0.4709 -0.0165 -0.1244
 1836SOL    HW117141   1.882   0.868  17.613  0.6793  0.5599  1.1687
 1836SOL    HW217142   1.876   0.990  17.522  1.3156 -0.4401 -1.5656
 1837SOL     OW17143   0.322   4.233  17.310  0.1171 -0.1831 -0.0085
 1837SOL    HW117144   0.417   4.224  17.323  0.2397  1.5241  0.3470
 1837SOL    HW217145   0.294   4.215  17.399 -1.0165 -1.8673 -0.7147
 1838SOL     OW17146   1.756   1.977   3.162  0.2547 -0.7992 -0.3781
 1838SOL    HW117147   1.761   1.994   3.068 -0.6808 -1.0567 -0.4774
 1838SOL    HW217148   1.672   1.932   3.152 -0.1201  0.1055 -1.3532
 1839SOL     OW17149   4.426   2.031   2.213 -0.1516 -0.6686  0.0257
 1839SOL    HW117150   4.452   2.115   2.250  2.3667 -0.5220 -2.0639
 1839SOL    HW217151   4.361   2.010   2.279 -0.1690 -2.3648 -0.5159
 1840SOL     OW17152   1.264   2.603   7.362 -0.4475 -0.5438  0.0798
 1840SOL    HW117153   1.356   2.627   7.374 -0.9424  0.7205  1.3510
 1840SOL    HW217154   1.232   2.678   7.313 -2.3045 -1.7462 -0.5399
 1841SOL     OW17155   1.292   1.397   1.861 -0.2048 -0.3637 -0.0039
 1841SOL    HW117156   1.298   1.470   1.800  0.0708 -2.2723 -2.2459
 1841SOL    HW217157   1.376   1.352   1.847 -0.0324  0.7459 -2.3851
 1842SOL     OW17158   0.885   2.230   2.577  0.4549  0.0146 -0.3472
 1842SOL    HW117159   0.938   2.307   2.599  0.5705  0.0121 -0.6141
 1842SOL    HW217160   0.825   2.263   2.510 -2.9074 -1.0299  2.1625
 1843SOL     OW17161   4.324   1.918   0.718  0.2004 -0.3933  0.0939
 1843SOL    HW117162   4.389   1.970   0.765 -3.5151  3.4208  1.0642
 1843SOL    HW217163   4.354   1.923   0.627  0.8102 -1.4932  0.2445
 1844SOL     OW17164   2.554   2.443   9.619  0.1513 -0.1776 -0.6754
 1844SOL    HW117165   2.569   2.458   9.712 -1.5975  0.8153 -0.5409
 1844SOL    HW217166   2.487   2.511   9.605  1.5067  1.0885 -1.0334
 1845SOL     OW17167   0.241   0.139   1.557 -0.0624  0.2741  0.5006
 1845SOL    HW117168   0.282   0.193   1.624  0.6923  0.0743  0.2004
 1845SOL    HW217169   0.178   0.202   1.522  0.5037  0.1114 -0.8420
 1846SOL     OW17170   0.957   3.348   2.946  0.3689  0.2953 -0.2422
 1846SOL    HW117171   0.993   3.418   3.002  1.4427  1.6596 -2.6460
 1846SOL    HW217172   1.022   3.281   2.966  0.0950  0.6104  1.7629
 1847SOL     OW17173   2.453   0.127  15.620  0.3472  0.4771  0.0476
 1847SOL    HW117174   2.369   0.168  15.642 -0.1877 -0.4145 -0.3218
 1847SOL    HW217175   2.434   0.034  15.627  0.3839  0.4163 -0.6719
 1848SOL     OW17176   0.983   0.245   0.733  0.1136  0.0463  0.1331
 1848SOL    HW117177   1.044   0.190   0.685  0.5241  1.3727 -0.8825
 1848SOL    HW217178   1.022   0.229   0.819  0.6290  1.1280  0.1062
 1849SOL     OW17179   4.717   1.143  11.333  0.6893 -0.4202  0.6616
 1849SOL    HW117180   4.715   1.076  11.264  0.1166  1.3364 -1.0380
 1849SOL    HW217181   4.735   1.079  11.401 -2.8649 -0.2157  1.7986
 1850SOL     OW17182   2.768   0.716   2.188  0.1661 -0.0359 -0.4965
 1850SOL    HW117183   2.783   0.785   2.123  1.8502  0.4310  0.3884
 1850SOL    HW217184   2.686   0.683   2.151  0.8389 -0.9636 -1.1597
 1851SOL     OW17185   3.810   1.437   4.483  0.1485 -0.1517 -0.3609
 1851SOL    HW117186   3.725   1.426   4.525  0.0830  0.7579 -0.2450
 1851SOL    HW217187   3.807   1.356   4.431  0.4876 -0.1771 -0.3420
 1852SOL     OW17188   1.641   0.828  15.353 -0.9725  0.7906  0.3509
 1852SOL    HW117189   1.690   0.751  15.325  1.1783  1.5831  1.9348
 1852SOL    HW217190   1.572   0.784  15.403 -0.6434  1.5543  1.4791
 1853SOL     OW17191   3.036   3.142   3.788  0.1565 -0.2638  0.3527
 1853SOL    HW117192   3.005   3.052   3.799  2.7501 -1.0688  1.0463
 1853SOL    HW217193   3.124   3.130   3.754 -0.1376  0.6948 -0.7448
 1854SOL     OW17194   1.937   4.150   6.873  0.1774  1.2315 -0.3397
 1854SOL    HW117195   2.010   4.094   6.846  0.0562  1.4163 -1.0519
 1854SOL    HW217196   1.882   4.088   6.920  0.1804  0.7250 -0.9942
 1855SOL     OW17197   4.251   0.472   8.529  0.0429  0.3288  0.2154
 1855SOL    HW117198   4.249   0.490   8.623 -2.4332  3.2948 -0.3898
 1855SOL    HW217199   4.184   0.407   8.508  0.4025  0.5202 -1.5379
 1856SOL     OW17200   2.607   3.018  11.510 -0.1706  0.1520  0.5958
 1856SOL    HW117201   2.645   3.090  11.460 -0.2736 -0.5343 -0.4746
 1856SOL    HW217202   2.528   3.070  11.526 -0.7197 -0.3815 -0.3583
 1857SOL     OW17203   3.028   3.079   6.664  0.7040  0.1454  0.0944
 1857SOL    HW117204   2.982   3.015   6.719 -0.7350  1.7155  0.7046
 1857SOL    HW217205   3.114   3.037   6.667 -0.3246 -2.0465 -0.7825
 1858SOL     OW17206   3.708   4.339   5.302  0.3166  0.5562  0.9590
 1858SOL    HW117207   3.725   4.245   5.302  0.7234  0.6319  1.5974
 1858SOL    HW217208   3.780   4.373   5.354 -1.2231  1.3106  2.6041
 1859SOL     OW17209   1.514   2.186  16.717  0.5174 -0.4679  0.1309
 1859SOL    HW117210   1.543   2.249  16.650  0.1442 -0.2264  0.1986
 1859SOL    HW217211   1.564   2.111  16.683  3.2062  0.5583  1.8585
 1860SOL     OW17212   3.986   4.412   5.694  0.6532 -0.2147  0.4678
 1860SOL    HW117213   4.044   4.352   5.741  1.7670 -0.3573 -1.0895
 1860SOL    HW217214   3.947   4.458   5.769 -0.8132 -1.7574  0.6545
 1861SOL     OW17215   3.528   3.041  12.917  0.5711  0.0195 -0.0853
 1861SOL    HW117216   3.470   3.111  12.947  0.5953 -0.5159  1.1985
 1861SOL    HW217217   3.561   3.081  12.836  0.7435 -0.0704 -0.0599
 1862SOL     OW17218   0.598   0.604   3.822  0.4714  0.2212  0.4610
 1862SOL    HW117219   0.523   0.601   3.882  0.3961  1.1314  0.4101
 1862SOL    HW217220   0.667   0.582   3.884 -0.4324 -0.4448  1.2310
 1863SOL     OW17221   2.527   0.396   5.955 -0.3265 -0.2313 -0.3758
 1863SOL    HW117222   2.474   0.367   6.029  1.4532  0.5700  1.2172
 1863SOL    HW217223   2.615   0.406   5.991  0.3936 -0.3011 -2.1040
 1864SOL     OW17224   2.313   3.879  14.688 -0.2321 -0.5028  0.6001
 1864SOL    HW117225   2.298   3.882  14.782 -1.1678 -0.0594  0.4433
 1864SOL    HW217226   2.304   3.784  14.674 -2.5127 -0.0352 -1.2546
 1865SOL     OW17227   4.482   0.727   5.483 -0.2585  0.0858  0.0585
 1865SOL    HW117228   4.536   0.664   5.435  0.7794  0.3786  0.8566
 1865SOL    HW217229   4.540   0.765   5.548  1.1079  1.9375 -2.2521
 1866SOL     OW17230   4.432   0.985   8.936 -0.5617  0.0244 -0.1630
 1866SOL    HW117231   4.462   0.928   9.007  2.3208  1.5118 -0.2334
 1866SOL    HW217232   4.470   1.069   8.959 -0.8489 -0.7483  3.2187
 1867SOL     OW17233   0.625   4.514   1.348 -0.0233 -0.2419  0.1111
 1867SOL    HW117234   0.696   4.551   1.401  0.7397 -0.0150 -1.0536
 1867SOL    HW217235   0.561   4.585   1.351  0.0637 -0.1308 -0.6422
 1868SOL     OW17236   3.166   1.691   0.737 -0.2513  0.7620  0.4462
 1868SOL    HW117237   3.137   1.600   0.729 -0.7986  1.1417 -1.9684
 1868SOL    HW217238   3.124   1.744   0.670 -0.2283 -0.3004 -0.4241
 1869SOL     OW17239   3.587   1.767   4.003 -0.1270  0.0416  0.3968
 1869SOL    HW117240   3.538   1.846   4.028 -0.1600 -0.4042  1.7190
 1869SOL    HW217241   3.638   1.799   3.929 -0.3749 -0.6578 -0.0748
 1870SOL     OW17242   1.928   1.803  14.508  0.7822 -0.0078  0.0344
 1870SOL    HW117243   1.921   1.898  14.517 -0.7538 -0.2008  0.7252
 1870SOL    HW217244   1.842   1.781  14.474 -0.1284  0.4410  2.0895
 1871SOL     OW17245   1.592   4.452   9.826 -0.0367 -0.3222  0.4187
 1871SOL    HW117246   1.665   4.416   9.777 -0.1894  0.0118 -0.0562
 1871SOL    HW217247   1.603   4.545   9.805  0.2771  0.0981  2.4909
 1872SOL     OW17248   2.002   3.102   7.330  0.1302  0.0821 -0.2099
 1872SOL    HW117249   1.938   3.172   7.345 -0.5611 -0.4911 -0.4949
 1872SOL    HW217250   2.079   3.150   7.300  0.7053 -1.7528 -1.6596
 1873SOL     OW17251   3.585   3.195   4.082  0.1316  0.1308  0.5547
 1873SOL    HW117252   3.506   3.172   4.033  0.6783 -2.2766  0.7702
 1873SOL    HW217253   3.606   3.107   4.113 -1.7548  0.0160  1.4403
 1874SOL     OW17254   2.382   0.965   9.188  0.0261 -0.7863  0.3722
 1874SOL    HW117255   2.436   0.892   9.219  1.4418  0.2303  0.3153
 1874SOL    HW217256   2.300   0.926   9.159  0.8034 -1.4232 -0.9761
 1875SOL     OW17257   4.590   1.524   4.501 -0.1266 -0.6549  0.0695
 1875SOL    HW117258   4.633   1.458   4.554  0.1966  0.1627  0.8279
 1875SOL    HW217259   4.663   1.584   4.483  1.0055 -2.3844 -1.1128
 1876SOL     OW17260   3.094   1.517   2.156 -0.1985  0.2829 -0.1731
 1876SOL    HW117261   3.159   1.483   2.095  0.8498  0.3265  0.9294
 1876SOL    HW217262   3.130   1.606   2.154  2.2742 -0.6792  2.2532
 1877SOL     OW17263   0.966   0.686   1.980 -0.4820  0.0576  0.2690
 1877SOL    HW117264   0.994   0.694   1.889 -0.7067 -0.2267  0.1766
 1877SOL    HW217265   1.051   0.715   2.015 -0.2796 -0.8660  0.5482
 1878SOL     OW17266   4.350   4.489   7.217  0.6636  0.4414  0.2921
 1878SOL    HW117267   4.377   4.560   7.275 -1.5868  0.6662  1.0494
 1878SOL    HW217268   4.320   4.429   7.285 -2.1872  0.6463 -0.7874
 1879SOL     OW17269   4.185   1.171   1.886 -0.5205  0.8214 -0.0898
 1879SOL    HW117270   4.259   1.207   1.935 -0.5202 -2.7293  2.4715
 1879SOL    HW217271   4.194   1.207   1.798  4.0762 -1.3648 -0.4626
 1880SOL     OW17272   2.933   2.483   9.402  0.7405  0.0747  0.5197
 1880SOL    HW117273   2.993   2.550   9.436  0.7569  0.4610 -0.2724
 1880SOL    HW217274   2.899   2.449   9.485  0.1875 -0.3344  0.1255
 1881SOL     OW17275   4.591   0.496  12.808 -0.1975  0.3148  0.5429
 1881SOL    HW117276   4.588   0.407  12.773 -1.8030  0.0640  1.3005
 1881SOL    HW217277   4.535   0.492  12.886  0.0118  1.0804  0.7370
 1882SOL     OW17278   2.013   0.840  15.282 -0.4455  0.1488 -0.4314
 1882SOL    HW117279   1.968   0.767  15.324  0.6430  0.4701  1.2834
 1882SOL    HW217280   2.092   0.796  15.249 -1.5927 -2.3673  0.2021
 1883SOL     OW17281   3.219   2.977  13.834  0.0321  0.6508  0.3178
 1883SOL    HW117282   3.241   2.968  13.927 -0.1359 -2.1983  0.0762
 1883SOL    HW217283   3.229   3.071  13.823  0.1902  0.4996 -0.7798
 1884SOL     OW17284   0.550   3.624  13.846  0.3636 -0.0826  0.5622
 1884SOL    HW117285   0.576   3.582  13.928 -0.1892 -3.4843 -1.0004
 1884SOL    HW217286   0.476   3.566  13.827  1.3244 -1.5658  1.2669
 1885SOL     OW17287   2.887   1.529  12.922  0.5777  0.2786  0.2271
 1885SOL    HW117288   2.845   1.475  12.989 -0.6350  0.0102 -0.7575
 1885SOL    HW217289   2.865   1.485  12.840 -0.6183 -1.0504  1.2520
 1886SOL     OW17290   2.690   0.007   6.493 -0.3708  0.0750 -0.1382
 1886SOL    HW117291   2.666   4.649   6.504  1.7466 -0.6844 -1.9416
 1886SOL    HW217292   2.672   0.040   6.580  3.0702 -1.0232  1.0097
 1887SOL     OW17293   0.559   0.119  17.727  0.0102 -0.4970 -0.3820
 1887SOL    HW117294   0.560   0.127  17.631  0.2564  1.8083 -0.1913
 1887SOL    HW217295   0.490   0.057   0.011 -0.7699  0.2450 -0.7344
 1888SOL     OW17296   1.189   4.337   6.793  0.0027 -0.3905  0.4358
 1888SOL    HW117297   1.245   4.260   6.790 -0.1686 -0.5161  0.4485
 1888SOL    HW217298   1.159   4.336   6.884  1.8726 -0.4357  1.0589
 1889SOL     OW17299   0.260   0.411   1.994  0.2127  0.0560 -0.1534
 1889SOL    HW117300   0.219   0.443   2.074  0.7073 -0.0972  0.1665
 1889SOL    HW217301   0.354   0.428   2.006 -0.0326  0.1547  1.7402
 1890SOL     OW17302   3.662   2.236   2.323  0.4434 -0.5754  0.0222
 1890SOL    HW117303   3.579   2.227   2.277  0.2368  2.7585 -0.2381
 1890SOL    HW217304   3.642   2.297   2.394 -0.4730 -0.5168 -0.2814
 1891SOL     OW17305   2.665   1.076   4.327 -0.0107 -0.1551 -0.5298
 1891SOL    HW117306   2.704   1.033   4.403 -1.7771  0.1098  0.5304
 1891SOL    HW217307   2.586   1.023   4.325  0.1075 -0.3150 -1.0000
 1892SOL     OW17308   4.627   4.555   3.222 -0.0404 -0.3028  0.8666
 1892SOL    HW117309   4.636   4.571   3.128  2.6648  0.8966  1.3233
 1892SOL    HW217310   4.672   4.470   3.226  0.2173 -0.2704 -1.3210
 1893SOL     OW17311   3.629   3.677   0.640 -0.1036 -0.3531 -0.0279
 1893SOL    HW117312   3.605   3.748   0.699 -1.1520 -2.4854  2.1477
 1893SOL    HW217313   3.724   3.691   0.642 -0.0818 -0.3219 -1.5189
 1894SOL     OW17314   4.096   1.986  16.552  0.3567 -0.2148 -0.5897
 1894SOL    HW117315   4.128   2.035  16.476 -1.1511 -1.5468 -2.0880
 1894SOL    HW217316   4.036   2.053  16.584  1.8127  0.8183 -0.0178
 1895SOL     OW17317   2.327   4.302   8.028 -0.5433 -0.2304 -0.2164
 1895SOL    HW117318   2.258   4.243   7.999 -0.4737 -0.4683  0.1055
 1895SOL    HW217319   2.317   4.284   8.121 -0.6538  2.3920  0.2732
 1896SOL     OW17320   4.380   2.136   4.512  0.0101 -0.0943  0.1713
 1896SOL    HW117321   4.348   2.058   4.466 -0.8185  0.7079 -0.6090
 1896SOL    HW217322   4.366   2.210   4.453 -0.4988  0.9854  1.6358
 1897SOL     OW17323   4.553   0.456   3.162  1.0568  0.2824  0.2448
 1897SOL    HW117324   4.644   0.453   3.192  0.9365 -0.7049  0.5047
 1897SOL    HW217325   4.520   0.509   3.235 -1.0624 -0.9185  0.1372
 1898SOL     OW17326   1.877   3.001  11.040  0.4766 -0.2838  1.3056
 1898SOL    HW117327   1.786   2.982  11.018  0.0606  2.2582  0.7913
 1898SOL    HW217328   1.860   3.087  11.078 -3.2721  0.2632 -1.6275
 1899SOL     OW17329   1.176   3.409   4.210 -0.0383 -0.2299  0.0883
 1899SOL    HW117330   1.128   3.332   4.239 -0.1218 -0.2905 -0.2177
 1899SOL    HW217331   1.243   3.373   4.153  0.5686 -0.3110  0.8566
 1900SOL     OW17332   1.549   4.351   3.019 -0.7511  1.2508  0.0234
 1900SOL    HW117333   1.555   4.256   3.028 -0.5198  1.0058 -2.7608
 1900SOL    HW217334   1.493   4.373   3.093  1.6811 -1.0002  2.5053
 1901SOL     OW17335   4.181   4.039  12.959  0.1168  0.1317 -0.4004
 1901SOL    HW117336   4.149   3.950  12.975 -0.8586  0.0760 -2.7474
 1901SOL    HW217337   4.185   4.081  13.045 -1.1356 -2.4973  0.9509
 1902SOL     OW17338   3.854   3.580   7.960  0.4028 -0.0642  0.0432
 1902SOL    HW117339   3.847   3.607   7.869 -0.6134 -1.6534 -0.3473
 1902SOL    HW217340   3.944   3.548   7.955 -0.5961 -2.8710 -0.2059
 1903SOL     OW17341   4.456   1.044   5.475 -0.1653 -0.0718  0.6161
 1903SOL    HW117342   4.389   1.019   5.411 -0.6272  1.7279  0.4125
 1903SOL    HW217343   4.408   1.018   5.554  0.7124 -0.5068  1.0146
 1904SOL     OW17344   3.631   4.690   9.275 -0.3758 -0.0968  0.1120
 1904SOL    HW117345   3.569   0.027   9.271  0.8428  1.1240  2.8836
 1904SOL    HW217346   3.573   4.624   9.314 -1.9276  0.9203 -0.5235
 1905SOL     OW17347   0.662   1.078   1.176 -0.0170 -0.4952 -0.4809
 1905SOL    HW117348   0.576   1.038   1.162  1.1280 -2.5558 -1.6026
 1905SOL    HW217349   0.654   1.148   1.111  1.8216 -0.2053 -0.3975
 1906SOL     OW17350   4.534   1.976   2.551  0.5028 -0.4180  0.5246
 1906SOL    HW117351   4.591   2.043   2.513 -1.8166  0.8316 -0.7476
 1906SOL    HW217352   4.560   1.893   2.511  0.4249 -1.0388  1.7538
 1907SOL     OW17353   3.334   0.821   2.087 -0.0246  0.2909  0.4317
 1907SOL    HW117354   3.429   0.827   2.095  0.2386 -0.1158 -2.5215
 1907SOL    HW217355   3.316   0.775   2.005 -2.2197  2.6536 -0.4133
 1908SOL     OW17356   0.939   3.336  17.104 -0.5813 -0.1932  0.0097
 1908SOL    HW117357   1.019   3.320  17.153 -0.1380 -1.1059 -1.0079
 1908SOL    HW217358   0.961   3.302  17.017  0.0514 -2.4420  1.0595
 1909SOL     OW17359   4.151   1.367   8.504  0.4017  0.1837 -0.0139
 1909SOL    HW117360   4.074   1.392   8.555  2.0305  1.7988  1.6585
 1909SOL    HW217361   4.117   1.331   8.422  2.5867  0.8963 -1.2598
 1910SOL     OW17362   2.385   2.872   3.987  0.4222  0.5886 -0.1168
 1910SOL    HW117363   2.344   2.789   4.008  2.2083 -0.4828 -0.8963
 1910SOL    HW217364   2.301   2.918   3.977  0.3498  0.4253 -0.2542
 1911SOL     OW17365   1.896   3.799   0.191  0.1549 -0.0747 -0.3021
 1911SOL    HW117366   1.824   3.754   0.147  1.7388 -0.9140 -2.0678
 1911SOL    HW217367   1.932   3.730   0.246  1.0289 -0.1607 -0.9775
 1912SOL     OW17368   2.261   4.564   5.424 -0.1966  0.0168 -0.5805
 1912SOL    HW117369   2.247   4.469   5.428 -0.4933  0.1282  1.0927
 1912SOL    HW217370   2.175   4.588   5.390 -0.5036  0.4509  0.5104
 1913SOL     OW17371   2.111   3.115   2.934 -0.6397  0.0908  0.1284
 1913SOL    HW117372   2.123   3.023   2.909 -2.6814 -0.3226  0.6443
 1913SOL    HW217373   2.189   3.154   2.895  0.7178 -1.8693  0.8433
 1914SOL     OW17374   2.346   1.166  12.928 -0.0750 -0.7856 -0.3315
 1914SOL    HW117375   2.399   1.099  12.885 -0.2660 -0.7964 -0.5535
 1914SOL    HW217376   2.352   1.137  13.019  2.1389  0.4120 -0.1010
 1915SOL     OW17377   1.741   2.439   2.344 -0.3387  0.4311 -0.3970
 1915SOL    HW117378   1.679   2.374   2.309 -0.1449  0.0532 -0.0426
 1915SOL    HW217379   1.687   2.512   2.373  0.0867  0.4642  0.2934
 1916SOL     OW17380   4.456   3.351   8.397  0.5461  0.4332 -0.0687
 1916SOL    HW117381   4.453   3.321   8.488  0.4944 -0.8827 -0.5071
 1916SOL    HW217382   4.361   3.348   8.384  0.5366  0.1833  0.0600
 1917SOL     OW17383   3.037   3.114  11.707 -0.2422  0.5219 -0.5736
 1917SOL    HW117384   3.121   3.108  11.662  0.9163  0.6695  1.5623
 1917SOL    HW217385   3.072   3.156  11.785 -0.8320  1.4073 -0.7881
 1918SOL     OW17386   3.817   1.485  16.195  0.0693  0.0998 -0.0087
 1918SOL    HW117387   3.906   1.518  16.179 -0.1456  0.9920  0.5993
 1918SOL    HW217388   3.840   1.405  16.242 -2.7662  0.1620  1.4521
 1919SOL     OW17389   1.735   2.005   2.886  0.1154  0.0823  0.1201
 1919SOL    HW117390   1.746   2.098   2.869 -0.6138  0.1620  0.0534
 1919SOL    HW217391   1.774   1.980   2.802 -0.0564  0.2711 -0.0155
 1920SOL     OW17392   0.395   2.641  13.864 -0.7432  0.2814  0.0167
 1920SOL    HW117393   0.367   2.690  13.787 -0.4161  0.4742  0.0193
 1920SOL    HW217394   0.317   2.591  13.888 -2.2858  1.8275 -1.8416
 1921SOL     OW17395   4.415   1.502   7.313  0.1937 -0.2914 -0.0815
 1921SOL    HW117396   4.367   1.426   7.281  0.7804 -0.4648 -0.5520
 1921SOL    HW217397   4.460   1.471   7.391 -1.8473 -2.4075  0.2611
 1922SOL     OW17398   4.456   1.369  12.199 -0.0129 -0.2703  0.3997
 1922SOL    HW117399   4.496   1.409  12.276  0.0307  1.1053 -0.3475
 1922SOL    HW217400   4.532   1.336  12.151 -1.5049  0.7757 -2.7220
 1923SOL     OW17401   3.229   4.367   0.670  0.5430  0.1420  0.1459
 1923SOL    HW117402   3.146   4.413   0.666  0.1351 -0.9249 -3.9952
 1923SOL    HW217403   3.227   4.333   0.580 -0.6143 -0.0918  0.2590
 1924SOL     OW17404   1.341   1.310  17.484  0.5428 -0.3590  0.2255
 1924SOL    HW117405   1.278   1.268  17.542 -0.0861  1.9413  1.2088
 1924SOL    HW217406   1.357   1.231  17.432 -1.8298  0.2395 -1.4388
 1925SOL     OW17407   2.821   2.162   3.800 -0.0648 -0.0667  0.2287
 1925SOL    HW117408   2.787   2.131   3.716 -1.5166 -0.6592  1.0451
 1925SOL    HW217409   2.911   2.133   3.784  0.5039  1.1770  1.1885
 1926SOL     OW17410   4.726   2.649   5.629 -0.9364  0.1916  0.1679
 1926SOL    HW117411   0.037   2.728   5.601 -2.4338  1.2777  0.7626
 1926SOL    HW217412   4.731   2.597   5.549 -1.4845 -0.4963  0.5834
 1927SOL     OW17413   1.055   4.027   8.068  0.4374 -0.4078  0.3116
 1927SOL    HW117414   1.022   4.017   7.979 -1.1769  1.2339  0.7296
 1927SOL    HW217415   1.108   4.106   8.061 -0.8897  0.6334  1.8994
 1928SOL     OW17416   1.757   0.524   3.533  0.6143  0.0902 -0.2580
 1928SOL    HW117417   1.828   0.536   3.470  0.6002 -1.5252 -0.5650
 1928SOL    HW217418   1.720   0.446   3.493  1.4913  1.3474 -3.5902
 1929SOL     OW17419   2.887   4.355   4.277 -0.4955 -0.1548 -0.0392
 1929SOL    HW117420   2.846   4.353   4.363  1.3040  2.0846  0.8797
 1929SOL    HW217421   2.834   4.419   4.228  0.5735  0.0161 -0.9721
 1930SOL     OW17422   3.699   0.565  17.183 -0.1204 -0.3644 -0.3505
 1930SOL    HW117423   3.729   0.483  17.222 -1.2481 -0.1656  0.9161
 1930SOL    HW217424   3.650   0.619  17.245  0.1877 -1.5022  0.8587
 1931SOL     OW17425   2.451   2.381   4.988  0.3400 -0.6038  0.4335
 1931SOL    HW117426   2.375   2.345   5.034 -1.4051  1.6960 -0.6775
 1931SOL    HW217427   2.406   2.416   4.912  1.1504 -1.9145 -0.6497
 1932SOL     OW17428   2.809   3.665   6.920 -0.2456 -0.0027 -0.0573
 1932SOL    HW117429   2.825   3.752   6.957  2.5784  0.2408 -1.8443
 1932SOL    HW217430   2.895   3.636   6.889 -0.1079  0.2926  0.0550
 1933SOL     OW17431   0.740   2.091   8.202 -0.4371  0.3141  0.0806
 1933SOL    HW117432   0.816   2.053   8.157 -1.2130 -1.6409  0.3985
 1933SOL    HW217433   0.675   2.089   8.132 -0.6248 -1.1809  0.2881
 1934SOL     OW17434   2.323   4.107   5.737 -0.4339  0.0854  0.4403
 1934SOL    HW117435   2.390   4.057   5.783  1.4251  1.1483 -1.1153
 1934SOL    HW217436   2.290   4.173   5.799  0.1816 -1.0827  2.0143
 1935SOL     OW17437   1.544   4.019   7.846 -0.5210  0.1603  0.0203
 1935SOL    HW117438   1.610   4.064   7.792  1.2331 -1.5492  0.7205
 1935SOL    HW217439   1.463   4.053   7.808 -1.0597  0.2403  1.2462
 1936SOL     OW17440   0.495   2.756   5.836 -0.3730 -0.3571 -0.0693
 1936SOL    HW117441   0.562   2.691   5.813 -1.7275 -1.9038  0.4096
 1936SOL    HW217442   0.534   2.796   5.913  1.6826 -1.6068 -0.4502
 1937SOL     OW17443   2.913   1.529   8.695  0.0149 -0.2661  0.4293
 1937SOL    HW117444   2.955   1.460   8.747  0.9675 -2.7066 -3.5766
 1937SOL    HW217445   2.978   1.598   8.700 -0.8877  0.7347 -1.9122
 1938SOL     OW17446   4.635   4.445  10.339  0.2818  0.6722 -0.1126
 1938SOL    HW117447   4.546   4.424  10.365  0.5574 -2.0241 -1.4181
 1938SOL    HW217448   4.665   4.355  10.325  0.3134  0.6948 -0.1911
 1939SOL     OW17449   3.879   4.518   5.932 -0.0368  0.0060  0.2128
 1939SOL    HW117450   3.850   4.606   5.955 -0.7162  0.1514 -1.2205
 1939SOL    HW217451   3.845   4.464   6.004  1.1978 -1.5275 -0.3657
 1940SOL     OW17452   1.207   3.205  15.006 -0.0560 -0.1112  0.2660
 1940SOL    HW117453   1.241   3.283  14.964  0.0088  1.3074  2.9535
 1940SOL    HW217454   1.148   3.244  15.071  1.1171  1.0949  0.5884
 1941SOL     OW17455   2.243   0.746   7.830 -0.4362  0.1226 -0.5555
 1941SOL    HW117456   2.249   0.830   7.876 -0.0067 -0.0257 -0.3440
 1941SOL    HW217457   2.332   0.717   7.852 -0.5695 -1.4783 -2.1232
 1942SOL     OW17458   3.705   1.067   0.637 -0.0738 -0.1442  0.3088
 1942SOL    HW117459   3.727   1.082   0.729 -2.1597  0.6011  0.6731
 1942SOL    HW217460   3.718   1.152   0.596  1.5090 -0.7610 -0.4850
 1943SOL     OW17461   1.891   4.091   4.966 -0.2542 -0.3478  0.9999
 1943SOL    HW117462   1.854   4.010   5.002  0.1754 -2.3090 -2.9564
 1943SOL    HW217463   1.941   4.104   5.047 -2.5371 -0.9299  2.4943
 1944SOL     OW17464   2.217   0.342   2.803  0.1789 -0.4283 -0.3206
 1944SOL    HW117465   2.276   0.267   2.789  0.8278  0.4982 -2.4308
 1944SOL    HW217466   2.282   0.405   2.773 -1.7886  1.9029  0.3208
 1945SOL     OW17467   2.127   1.961   7.765 -0.2034  0.4458  0.1090
 1945SOL    HW117468   2.213   1.937   7.730 -0.9328 -1.8451 -0.1113
 1945SOL    HW217469   2.155   2.035   7.819  0.5156 -0.1439  0.5435
 1946SOL     OW17470   2.734   3.423   2.543 -0.4766  0.3742 -0.3053
 1946SOL    HW117471   2.796   3.462   2.605 -1.2747  1.6098 -0.2788
 1946SOL    HW217472   2.722   3.499   2.486 -2.7269 -0.8942 -1.4757
 1947SOL     OW17473   1.599   4.392   3.597 -0.0436  0.2179 -0.0485
 1947SOL    HW117474   1.589   4.468   3.655  0.4361 -1.0146  1.6426
 1947SOL    HW217475   1.642   4.334   3.659 -1.7833 -0.5870  0.4101
 1948SOL     OW17476   2.215   2.812   9.774  0.1304  0.8762 -0.4275
 1948SOL    HW117477   2.292   2.786   9.825 -0.1405  0.9881  0.0366
 1948SOL    HW217478   2.168   2.873   9.831 -1.4137  0.6348 -1.4711
 1949SOL     OW17479   2.093   2.399   5.143  0.0914  0.1654  0.1639
 1949SOL    HW117480   2.132   2.325   5.098 -0.6402  0.6551 -1.3048
 1949SOL    HW217481   1.999   2.381   5.132  0.1954 -1.3634  1.8321
 1950SOL     OW17482   2.436   0.073   4.414  0.3632 -0.2067 -0.3547
 1950SOL    HW117483   2.406   0.010   4.480 -0.3195 -0.5583 -1.0030
 1950SOL    HW217484   2.504   0.028   4.364  1.4309  0.0881  0.8199
 1951SOL     OW17485   3.501   0.548   3.792 -0.7679  0.2827  0.0180
 1951SOL    HW117486   3.461   0.468   3.827  2.6496 -1.4608 -0.0631
 1951SOL    HW217487   3.575   0.506   3.748 -0.0793  1.0079  0.4750
 1952SOL     OW17488   1.011   0.107   6.995 -0.1512  0.2564 -0.1863
 1952SOL    HW117489   1.003   0.181   7.056 -0.8328 -0.7436  0.9538
 1952SOL    HW217490   1.105   0.089   7.005 -0.3905 -0.7835  0.2184
 1953SOL     OW17491   0.399   3.313   4.070  0.3847 -0.3027 -0.0529
 1953SOL    HW117492   0.476   3.261   4.094 -0.3608 -1.6408 -0.5728
 1953SOL    HW217493   0.330   3.278   4.126 -1.1458  0.8142 -1.2298
 1954SOL     OW17494   2.046   3.609   9.713  0.3366 -0.0111 -0.0303
 1954SOL    HW117495   1.967   3.659   9.736 -0.8562 -1.2288 -1.5213
 1954SOL    HW217496   2.015   3.568   9.633 -2.0796 -0.7612  1.2858
 1955SOL     OW17497   2.687   4.060   5.641 -0.0189  0.1177 -0.2847
 1955SOL    HW117498   2.653   4.119   5.708  1.4631 -1.5613  1.9401
 1955SOL    HW217499   2.670   4.117   5.566 -1.2326 -1.0719 -0.9025
 1956SOL     OW17500   4.594   3.464   1.409  0.1688 -0.2882 -0.4247
 1956SOL    HW117501   4.619   3.499   1.495 -0.2501 -1.0131 -0.0072
 1956SOL    HW217502   4.672   3.410   1.396 -0.1317 -0.6297 -0.7743
 1957SOL     OW17503   1.665   3.364   3.002 -0.2593  0.1031 -0.7074
 1957SOL    HW117504   1.612   3.435   2.966 -2.6358 -1.3171  0.0009
 1957SOL    HW217505   1.748   3.404   3.027 -1.3047  0.8288  1.5612
 1958SOL     OW17506   0.172   4.061   3.146 -0.6651  0.4611  0.0023
 1958SOL    HW117507   0.183   4.155   3.155 -1.7608  0.3696  2.2544
 1958SOL    HW217508   0.218   4.024   3.221 -1.3769  0.0525  0.2365
 1959SOL     OW17509   3.798   3.255   9.477 -0.7546 -0.5379 -0.1434
 1959SOL    HW117510   3.716   3.271   9.430 -1.2827 -0.7150  0.7017
 1959SOL    HW217511   3.857   3.305   9.421  0.8148 -0.3707  1.6672
 1960SOL     OW17512   1.285   3.799   2.217 -0.6785 -0.2712 -0.3012
 1960SOL    HW117513   1.264   3.851   2.295  1.4247 -0.2554  0.2473
 1960SOL    HW217514   1.225   3.728   2.238 -0.1695  0.1196  2.4184
 1961SOL     OW17515   4.598   0.040   9.164  0.7527 -0.4159 -0.0592
 1961SOL    HW117516   4.595   4.695   9.215  0.1081 -1.6273 -2.0059
 1961SOL    HW217517   4.683   0.042   9.120 -0.1601 -0.0008 -1.8272
 1962SOL     OW17518   1.515   1.703   0.180  0.8918  0.1442 -0.2936
 1962SOL    HW117519   1.594   1.657   0.208  0.3090 -1.7062 -1.6401
 1962SOL    HW217520   1.446   1.639   0.200 -0.6729  1.2406 -2.1583
 1963SOL     OW17521   1.018   2.665   8.742  0.3895  0.0654 -0.6571
 1963SOL    HW117522   0.984   2.600   8.804  1.1331 -1.2392 -1.6294
 1963SOL    HW217523   0.996   2.619   8.661 -3.0514  1.7166 -0.6796
 1964SOL     OW17524   1.081   3.622   2.305 -0.4082 -0.1732 -0.0885
 1964SOL    HW117525   1.000   3.672   2.315 -1.3296 -1.6026 -0.4660
 1964SOL    HW217526   1.061   3.559   2.236  1.0729 -0.7617  0.0244
 1965SOL     OW17527   1.595   0.892  14.334  0.1482  0.2730  0.0114
 1965SOL    HW117528   1.617   0.958  14.399 -0.9409  0.1052  0.5551
 1965SOL    HW217529   1.596   0.957  14.263 -0.1434 -0.7437 -0.9133
 1966SOL     OW17530   2.257   1.889  10.202  0.1805 -0.2149  0.1027
 1966SOL    HW117531   2.319   1.882  10.274  0.2884 -0.1300  0.0185
 1966SOL    HW217532   2.267   1.806  10.156  0.7647  0.1718 -0.4756
 1967SOL     OW17533   0.534   4.335   7.028  0.2022 -0.3328 -0.4045
 1967SOL    HW117534   0.469   4.302   7.090 -1.1615 -0.8887 -2.1384
 1967SOL    HW217535   0.482   4.386   6.967  0.5545  1.5734  0.8751
 1968SOL     OW17536   1.043   3.698  16.893  0.2838  0.5857  0.1825
 1968SOL    HW117537   1.058   3.793  16.898  1.6269  0.3901 -0.1432
 1968SOL    HW217538   1.000   3.686  16.978 -1.4562  0.9336 -0.6467
 1969SOL     OW17539   4.723   4.583  12.044 -0.1318  0.1013 -0.0960
 1969SOL    HW117540   0.079   4.607  12.030 -0.3452  1.1572  0.3196
 1969SOL    HW217541   4.717   4.491  12.017  0.2494  0.4497 -1.3424
 1970SOL     OW17542   3.228   3.515  15.508 -0.1690 -0.0352 -0.5664
 1970SOL    HW117543   3.292   3.480  15.447  0.1012  0.5182 -0.5967
 1970SOL    HW217544   3.277   3.573  15.565 -1.5651  1.9240 -1.3784
 1971SOL     OW17545   2.301   1.845  16.336  0.0047  0.3052  0.5567
 1971SOL    HW117546   2.259   1.896  16.405 -0.5236  1.0634 -0.3184
 1971SOL    HW217547   2.270   1.760  16.367  0.3381  0.7866  2.2246
 1972SOL     OW17548   1.860   4.556   8.351 -0.0196  0.6825  0.0265
 1972SOL    HW117549   1.930   4.533   8.290 -1.4322 -1.9252 -0.5930
 1972SOL    HW217550   1.787   4.569   8.290 -0.0601  0.3153 -0.0056
 1973SOL     OW17551   2.993   4.197   9.421  0.5708  0.6451  0.4790
 1973SOL    HW117552   3.031   4.120   9.377  2.4641  0.7175  1.9811
 1973SOL    HW217553   2.981   4.261   9.351 -0.2711  0.0729  0.1029
 1974SOL     OW17554   4.699   4.056   3.683 -0.0962  0.7101  0.1187
 1974SOL    HW117555   4.693   3.972   3.729 -0.9145 -0.4125 -2.0212
 1974SOL    HW217556   4.709   4.033   3.590 -0.3632 -0.6710  0.4221
 1975SOL     OW17557   3.386   1.800   0.863 -0.3870  0.3162 -0.4789
 1975SOL    HW117558   3.451   1.820   0.796  0.9028  2.0588  1.3151
 1975SOL    HW217559   3.320   1.759   0.806  0.2210 -0.1677 -0.8293
 1976SOL     OW17560   2.691   2.668   6.683 -0.2519 -0.2246 -0.1868
 1976SOL    HW117561   2.783   2.693   6.676 -0.8245  0.9925 -3.2504
 1976SOL    HW217562   2.664   2.695   6.595  0.4523  0.6016 -0.1547
 1977SOL     OW17563   1.692   0.431   4.119  0.3133  1.1612 -0.3074
 1977SOL    HW117564   1.602   0.449   4.148  0.8466  4.0108 -0.3500
 1977SOL    HW217565   1.734   0.370   4.179 -0.2046  1.6618  0.5621
 1978SOL     OW17566   1.006   3.985  16.898  0.4668  0.5132 -0.2867
 1978SOL    HW117567   0.991   4.024  16.812 -1.2064  1.1812  0.3149
 1978SOL    HW217568   0.963   4.043  16.961  0.6214  0.4973 -0.1661
 1979SOL     OW17569   2.411   3.543   6.243  0.0899 -0.3271 -0.2622
 1979SOL    HW117570   2.479   3.595   6.287  0.1760 -1.6636  1.1876
 1979SOL    HW217571   2.347   3.612   6.225  0.1597 -0.5605 -1.4034
 1980SOL     OW17572   4.240   1.171   6.947  0.1257  0.9745 -0.3994
 1980SOL    HW117573   4.149   1.153   6.922  0.3974 -2.6869  1.2062
 1980SOL    HW217574   4.237   1.256   6.991 -0.9902  0.4637  0.5218
 1981SOL     OW17575   3.420   4.182   8.760  0.3412 -0.2750  0.5274
 1981SOL    HW117576   3.508   4.177   8.722  0.7417 -0.8066  1.5277
 1981SOL    HW217577   3.426   4.272   8.792  0.4554  0.3618 -1.2744
 1982SOL     OW17578   1.949   3.342   7.643  0.3512  0.2269  0.3464
 1982SOL    HW117579   1.947   3.430   7.604  0.3145  0.9712  2.0206
 1982SOL    HW217580   2.035   3.338   7.685  0.4577 -1.8520 -0.0803
 1983SOL     OW17581   1.060   2.429   2.675  0.6367  0.1296 -0.3789
 1983SOL    HW117582   1.024   2.514   2.650  2.7244  0.8666 -0.8636
 1983SOL    HW217583   1.023   2.419   2.763 -1.2118  1.1152 -1.0515
 1984SOL     OW17584   3.733   1.839   5.994 -0.4120 -0.2535 -0.3832
 1984SOL    HW117585   3.767   1.772   5.935  2.0316 -1.4410  2.3810
 1984SOL    HW217586   3.792   1.914   5.987  1.1437 -1.3385  1.1473
 1985SOL     OW17587   0.082   1.880   5.258  0.7216  0.1394 -0.3184
 1985SOL    HW117588   0.107   1.900   5.349 -1.0799 -1.9500  0.6554
 1985SOL    HW217589   0.001   1.929   5.249  1.6234  1.5221 -0.7967
 1986SOL     OW17590   4.078   3.748   2.828 -0.0560  0.1976 -0.0188
 1986SOL    HW117591   4.056   3.738   2.921  0.0748 -0.8798 -0.1060
 1986SOL    HW217592   4.036   3.830   2.802  2.3925  0.8274 -1.9881
 1987SOL     OW17593   4.029   2.745  17.287  0.0581 -0.3896 -0.1946
 1987SOL    HW117594   4.037   2.728  17.381 -2.9357  0.5670  0.2300
 1987SOL    HW217595   3.977   2.669  17.260  1.0037 -1.2183  0.2866
 1988SOL     OW17596   0.608   3.854   7.181 -0.2461 -0.0559 -0.1859
 1988SOL    HW117597   0.694   3.888   7.159 -0.0051 -0.6584 -0.1771
 1988SOL    HW217598   0.603   3.854   7.277  1.8811 -3.1421 -0.0802
 1989SOL     OW17599   2.706   3.421  12.097 -0.2931 -0.5135  0.2045
 1989SOL    HW117600   2.703   3.393  12.188 -0.8885  1.1629  0.6960
 1989SOL    HW217601   2.784   3.376  12.064  0.6967  0.1722  1.6528
 1990SOL     OW17602   4.195   2.464   9.547 -0.4202  0.0198  0.1809
 1990SOL    HW117603   4.156   2.552   9.547  2.3202  1.2519 -2.8546
 1990SOL    HW217604   4.123   2.411   9.581  0.3420  0.2579  2.1708
 1991SOL     OW17605   2.909   3.644   6.083  0.4541 -0.9118 -0.0970
 1991SOL    HW117606   2.860   3.666   6.163  2.2078 -2.4300  1.3924
 1991SOL    HW217607   3.001   3.664   6.099  0.4796 -1.2530  0.1742
 1992SOL     OW17608   1.722   4.197  17.086  0.3942  0.1962  0.2001
 1992SOL    HW117609   1.723   4.207  16.991  1.0711  0.6538  0.2536
 1992SOL    HW217610   1.682   4.280  17.111 -0.6114 -0.5915  1.1782
 1993SOL     OW17611   4.280   1.726  13.185 -0.3906 -0.0339 -0.3004
 1993SOL    HW117612   4.207   1.720  13.123  0.4659  1.1536 -1.4294
 1993SOL    HW217613   4.349   1.685  13.133  0.7730 -0.3701  1.5115
 1994SOL     OW17614   1.200   2.040   7.072 -0.4940  0.2539 -0.3402
 1994SOL    HW117615   1.216   2.007   6.983  0.9628 -0.3698  0.1557
 1994SOL    HW217616   1.276   2.096   7.087 -2.0689  2.3589 -0.3342
 1995SOL     OW17617   3.184   4.029   7.310  0.3903 -0.2094 -0.5231
 1995SOL    HW117618   3.251   4.036   7.242 -0.8120  0.6773 -1.6137
 1995SOL    HW217619   3.113   4.074   7.264 -0.5317 -0.5011  0.6143
 1996SOL     OW17620   4.283   2.947   1.892  0.6440 -0.8184 -0.2274
 1996SOL    HW117621   4.298   3.022   1.834 -1.2755 -0.1319  0.1656
 1996SOL    HW217622   4.326   2.973   1.973  0.6217  0.6276 -0.6693
 1997SOL     OW17623   4.680   0.341   3.809 -0.2931 -0.1060  0.3851
 1997SOL    HW117624   4.733   0.262   3.818  0.8248  0.8937  2.5661
 1997SOL    HW217625   4.588   0.320   3.819 -0.6947  0.6665 -1.7130
 1998SOL     OW17626   0.608   2.765   7.507  0.3427  0.3145 -0.4840
 1998SOL    HW117627   0.649   2.804   7.583  0.9838 -0.2153 -0.5612
 1998SOL    HW217628   0.590   2.843   7.455 -2.9644 -0.0729  0.0332
 1999SOL     OW17629   3.284   0.339   9.127 -0.4547  0.1433  0.3776
 1999SOL    HW117630   3.248   0.416   9.082 -1.6662  0.3892  1.7734
 1999SOL    HW217631   3.228   0.270   9.090 -1.0480 -0.6184  2.6736
 2000SOL     OW17632   0.648   1.487  11.335  0.4747 -0.2405 -0.3464
 2000SOL    HW117633   0.559   1.458  11.314 -0.1190  0.8135  0.7109
 2000SOL    HW217634   0.695   1.472  11.253 -0.1854  0.6220 -0.8767
 2001SOL     OW17635   2.943   4.214   6.162 -0.1912  0.3932  0.2030
 2001SOL    HW117636   2.920   4.152   6.093 -0.6806 -0.2865  0.9784
 2001SOL    HW217637   2.996   4.161   6.222 -1.5534 -2.0262 -0.7654
 2002SOL     OW17638   0.035   1.930  17.066 -0.0033  0.1593  0.4793
 2002SOL    HW117639   0.037   1.910  16.972  0.3821 -0.6793  0.6651
 2002SOL    HW217640   4.692   1.982  17.085  0.9712  1.6711  0.3520
 2003SOL     OW17641   0.601   3.667   3.597  0.4185 -0.0733 -0.7135
 2003SOL    HW117642   0.572   3.673   3.507  3.0692  3.1263 -1.3568
 2003SOL    HW217643   0.564   3.583   3.626  1.9360 -0.3556  0.4593
 2004SOL     OW17644   3.095   2.354   9.784 -0.0602 -0.0847 -0.9249
 2004SOL    HW117645   3.158   2.380   9.851  2.2690 -0.3950 -2.9945
 2004SOL    HW217646   3.016   2.340   9.836  2.6838  0.8926  3.4936
 2005SOL     OW17647   4.700   0.733   8.883 -0.6363  0.3781 -0.0648
 2005SOL    HW117648   4.700   0.822   8.847  1.4149  0.2724 -0.2824
 2005SOL    HW217649   4.614   0.704   8.850 -0.2266 -0.7108 -0.1706
 2006SOL     OW17650   0.928   0.444  17.000 -0.5428  0.4038 -0.0360
 2006SOL    HW117651   0.845   0.401  17.016 -0.5343 -0.1122 -1.3913
 2006SOL    HW217652   0.934   0.521  17.056  0.8900 -0.6093  1.1901
 2007SOL     OW17653   0.694   4.454   7.979  0.8602  0.1380 -0.5131
 2007SOL    HW117654   0.599   4.443   7.975  0.7152  0.4608  2.1290
 2007SOL    HW217655   0.719   4.371   8.020  1.1561  0.1414 -0.6802
 2008SOL     OW17656   0.127   3.334  16.122 -0.6163 -0.2566 -0.3896
 2008SOL    HW117657   0.115   3.399  16.191 -0.0798  1.2290 -1.6806
 2008SOL    HW217658   0.193   3.274  16.156 -1.5841 -0.9431  0.2530
 2009SOL     OW17659   3.882   0.636   3.174 -0.2453 -0.1603 -0.6860
 2009SOL    HW117660   3.908   0.727   3.157 -1.8319  0.6641  1.2507
 2009SOL    HW217661   3.966   0.598   3.149 -0.6682 -2.3827  1.2412
 2010SOL     OW17662   1.399   1.085   3.810 -0.0662  0.0284 -0.0060
 2010SOL    HW117663   1.447   1.155   3.854  0.7178 -0.2327 -0.4427
 2010SOL    HW217664   1.460   1.042   3.750  2.2640  1.0539  1.6379
 2011SOL     OW17665   2.002   0.465  10.598  0.6131 -0.3582 -0.2657
 2011SOL    HW117666   2.086   0.510  10.610 -0.6353  1.9495 -0.1797
 2011SOL    HW217667   2.014   0.404  10.671 -2.3525  0.2923  0.7440
 2012SOL     OW17668   3.133   4.681  13.017 -0.2779 -0.1995 -0.1957
 2012SOL    HW117669   3.224   4.653  13.024 -0.1160  1.1203  2.9780
 2012SOL    HW217670   3.124   4.714  12.927  0.0040  4.5001  1.4745
 2013SOL     OW17671   2.183   1.976  17.099 -0.1216  0.4803  0.1714
 2013SOL    HW117672   2.211   2.061  17.132  2.5377 -0.8290  1.3596
 2013SOL    HW217673   2.164   1.940  17.186 -2.5850 -1.9275 -1.3400
 2014SOL     OW17674   0.246   2.729   2.126  0.0647 -0.0155  0.4503
 2014SOL    HW117675   0.170   2.675   2.106  2.4120 -3.6830  1.5550
 2014SOL    HW217676   0.214   2.774   2.204  1.4469  0.6312  0.6587
 2015SOL     OW17677   0.126   0.132   3.806  0.2205 -0.5628  0.0108
 2015SOL    HW117678   0.186   0.205   3.801  0.0920 -0.3848  1.0021
 2015SOL    HW217679   0.136   0.121   3.901 -2.4568  3.4201  0.7185
 2016SOL     OW17680   3.858   3.794   7.271  0.2663  0.4736  0.2131
 2016SOL    HW117681   3.813   3.878   7.278 -1.5774 -0.5426  0.6396
 2016SOL    HW217682   3.796   3.733   7.312 -0.8729  0.3395 -1.7135
 2017SOL     OW17683   4.025   0.319   8.256  0.0090  0.1081  0.1501
 2017SOL    HW117684   4.080   0.350   8.184 -0.3434 -0.4645 -0.3672
 2017SOL    HW217685   4.083   0.248   8.284 -0.9056 -0.3257  0.9570
 2018SOL     OW17686   0.223   1.848  16.606  0.2022  0.2036 -0.6429
 2018SOL    HW117687   0.271   1.929  16.623  0.0800  0.4071 -1.2805
 2018SOL    HW217688   0.295   1.784  16.604  0.2225  0.1453  2.1750
 2019SOL     OW17689   2.556   0.203   2.139  0.0685  0.4185 -0.2208
 2019SOL    HW117690   2.471   0.231   2.106 -0.1772  0.3245  0.3428
 2019SOL    HW217691   2.534   0.156   2.219 -2.3710  0.2141 -1.0107
 2020SOL     OW17692   0.498   0.726  12.220  0.0613  0.4779  0.3306
 2020SOL    HW117693   0.467   0.694  12.305 -0.8728  1.1207  0.2246
 2020SOL    HW217694   0.515   0.642  12.176 -2.2019 -1.4933  3.1779
 2021SOL     OW17695   0.754   2.758   6.858 -0.1962 -0.6684 -0.5831
 2021SOL    HW117696   0.673   2.709   6.841 -0.4819 -0.1520 -0.7097
 2021SOL    HW217697   0.725   2.815   6.929  0.0983 -0.7876 -0.3700
 2022SOL     OW17698   0.415   4.723   8.397 -1.0535 -0.5667 -0.1096
 2022SOL    HW117699   0.453   0.030   8.475 -2.0126 -0.1645  0.1437
 2022SOL    HW217700   0.494   4.718   8.344 -1.7998  3.3562 -1.6140
 2023SOL     OW17701   0.950   2.405   5.153  0.7930  0.3187  0.1215
 2023SOL    HW117702   1.005   2.365   5.085 -0.6808  0.0294 -0.9120
 2023SOL    HW217703   0.899   2.454   5.088 -0.1827 -0.0051  0.6473
 2024SOL     OW17704   4.285   1.182   9.292 -0.2503  0.3346 -0.0865
 2024SOL    HW117705   4.195   1.162   9.265  0.1272 -1.1893 -0.1634
 2024SOL    HW217706   4.323   1.096   9.276  0.8007  0.9969 -1.1270
 2025SOL     OW17707   3.088   1.192   4.318  0.1254  0.7309 -0.4062
 2025SOL    HW117708   3.017   1.224   4.262  0.1658 -0.4669 -1.1330
 2025SOL    HW217709   3.155   1.260   4.317 -0.3411  1.2335  1.9940
 2026SOL     OW17710   2.396   3.261   1.710 -0.3493 -0.5029  0.7643
 2026SOL    HW117711   2.323   3.282   1.652  0.9302 -0.7185 -0.9387
 2026SOL    HW217712   2.443   3.210   1.643  0.5339  0.7967  0.3988
 2027SOL     OW17713   4.151   2.999  14.017  0.0409  0.2559 -0.3016
 2027SOL    HW117714   4.136   2.949  14.097  0.8543  1.4879  0.6335
 2027SOL    HW217715   4.217   3.064  14.044 -0.4715  0.4440  0.4797
 2028SOL     OW17716   3.654   1.454   6.655  0.1256  0.4875 -0.1194
 2028SOL    HW117717   3.702   1.511   6.715  2.3357 -0.5124 -0.9436
 2028SOL    HW217718   3.569   1.499   6.656 -0.0835  0.1463 -1.8344
 2029SOL     OW17719   0.229   3.921   9.600 -0.6149  0.1694 -0.0328
 2029SOL    HW117720   0.302   3.874   9.559  0.1680  2.0977 -0.8283
 2029SOL    HW217721   0.209   3.867   9.677 -0.1215  0.2582  0.1570
 2030SOL     OW17722   3.339   0.816   1.228 -0.9673  0.0304  0.7694
 2030SOL    HW117723   3.357   0.723   1.216  3.2180  1.1494 -1.3025
 2030SOL    HW217724   3.406   0.865   1.181  0.2341 -0.3971  2.0166
 2031SOL     OW17725   3.234   3.704  14.048 -0.1525  0.3013 -0.3768
 2031SOL    HW117726   3.221   3.671  13.959 -0.2064  0.3521 -0.3877
 2031SOL    HW217727   3.193   3.629  14.092 -2.2532  1.2915 -0.6654
 2032SOL     OW17728   2.882   1.171   7.877  0.2888 -0.3249  0.6877
 2032SOL    HW117729   2.802   1.130   7.843 -0.0798 -0.8049  2.1550
 2032SOL    HW217730   2.836   1.238   7.928  0.2651  0.1431  0.0555
 2033SOL     OW17731   0.839   1.139  14.512 -0.1499 -0.2232 -0.2127
 2033SOL    HW117732   0.923   1.172  14.481 -0.4097 -1.6760 -2.4533
 2033SOL    HW217733   0.855   1.057  14.558 -0.9000 -0.6370 -0.6923
 2034SOL     OW17734   0.318   1.907   6.013 -0.6405  0.5760  0.2395
 2034SOL    HW117735   0.296   1.825   5.968 -2.4875  1.2208 -0.0565
 2034SOL    HW217736   0.391   1.875   6.066 -0.6700  0.4205  0.1857
 2035SOL     OW17737   1.304   2.535  10.466  0.0210  0.2156  0.3906
 2035SOL    HW117738   1.339   2.550  10.553 -1.0202  0.5187  0.7559
 2035SOL    HW217739   1.337   2.446  10.450 -0.4710 -0.1468  1.3843
 2036SOL     OW17740   1.199   4.538   6.620 -0.0641  0.5137  0.6002
 2036SOL    HW117741   1.108   4.558   6.638 -0.1774 -1.9815  2.8786
 2036SOL    HW217742   1.217   4.475   6.691 -0.1536 -0.2188 -0.0312
 2037SOL     OW17743   3.485   3.139   4.744  0.5633 -0.2914  0.2467
 2037SOL    HW117744   3.527   3.174   4.665  0.3889 -0.5884  0.0264
 2037SOL    HW217745   3.398   3.177   4.731  0.7384  0.2816  0.7267
 2038SOL     OW17746   4.582   4.263   3.833  0.2352  0.4048 -1.0196
 2038SOL    HW117747   4.606   4.195   3.770  0.9197 -0.6758  0.4091
 2038SOL    HW217748   4.495   4.289   3.803 -0.9405 -1.4922  0.7126
 2039SOL     OW17749   1.141   2.122   1.230  0.0538  0.3875 -0.2573
 2039SOL    HW117750   1.067   2.105   1.289 -1.3058  0.9640 -1.8064
 2039SOL    HW217751   1.132   2.069   1.151  1.1691 -0.0951 -0.0517
 2040SOL     OW17752   3.444   1.848   3.049 -0.4229 -0.1176 -0.1311
 2040SOL    HW117753   3.445   1.942   3.028 -1.1981  0.2445  1.4860
 2040SOL    HW217754   3.517   1.820   2.992 -0.4393  0.8517 -0.6315
 2041SOL     OW17755   2.357   4.234  12.076  0.0150  0.4256  0.2823
 2041SOL    HW117756   2.392   4.164  12.020  1.6834  0.9228  0.7131
 2041SOL    HW217757   2.362   4.311  12.019 -1.5046 -0.1262 -0.5843
 2042SOL     OW17758   1.250   1.651   3.508 -0.0497 -0.6323 -0.0977
 2042SOL    HW117759   1.332   1.601   3.510 -1.7163 -3.3228 -0.6286
 2042SOL    HW217760   1.205   1.626   3.427 -2.6836  0.1702  1.1225
 2043SOL     OW17761   1.880   0.597   4.737  0.8621  0.3380  0.8825
 2043SOL    HW117762   1.894   0.517   4.789  0.8994  1.3241  2.4027
 2043SOL    HW217763   1.845   0.660   4.801 -0.2603  0.7379 -0.1298
 2044SOL     OW17764   1.501   1.054  11.415  0.4087  0.2155 -0.0627
 2044SOL    HW117765   1.425   1.036  11.360  0.8256  1.0065 -0.8928
 2044SOL    HW217766   1.465   1.028  11.500 -1.0597 -1.5483 -1.2138
 2045SOL     OW17767   2.160   4.309  13.877 -0.1066 -0.7079  0.0931
 2045SOL    HW117768   2.085   4.259  13.911 -1.8288  0.7463 -1.5254
 2045SOL    HW217769   2.103   4.369  13.828 -0.9428 -1.5626  0.0217
 2046SOL     OW17770   2.585   1.382   6.699  0.0598 -0.5535 -0.1625
 2046SOL    HW117771   2.496   1.415   6.703  0.2617 -0.0534  0.1640
 2046SOL    HW217772   2.598   1.389   6.604  2.8130 -0.2966  0.2247
 2047SOL     OW17773   2.264   3.330   8.803  0.0912 -0.4158 -0.2708
 2047SOL    HW117774   2.188   3.315   8.859  1.1124 -2.0522  0.7019
 2047SOL    HW217775   2.276   3.243   8.766  0.3162 -1.3210  1.8834
 2048SOL     OW17776   0.169   4.474   0.510 -0.8600 -0.5275  0.3774
 2048SOL    HW117777   0.168   4.548   0.450  1.5141 -0.0765  0.8865
 2048SOL    HW217778   0.227   4.504   0.580  0.7948 -2.0922 -0.3045
 2049SOL     OW17779   1.865   3.208   4.854  0.8291 -0.1734  0.4644
 2049SOL    HW117780   1.818   3.281   4.892 -0.5466 -0.6803 -0.2824
 2049SOL    HW217781   1.947   3.220   4.902  0.3777 -0.6858  1.3666
 2050SOL     OW17782   0.474   2.083   2.964 -0.0176 -0.0186 -0.4099
 2050SOL    HW117783   0.512   2.030   2.894  3.0529  0.2074  1.0734
 2050SOL    HW217784   0.428   2.020   3.019  4.1154 -3.2534 -0.6503
 2051SOL     OW17785   3.232   3.530   6.487 -0.0631  0.1802 -0.2237
 2051SOL    HW117786   3.309   3.478   6.466  2.8811  3.8691  1.4743
 2051SOL    HW217787   3.155   3.472   6.487  0.8402 -1.0146  0.4415
 2052SOL     OW17788   2.808   2.269   9.555  0.3371 -1.1123  0.3719
 2052SOL    HW117789   2.718   2.273   9.588  1.0359  1.3295  1.9463
 2052SOL    HW217790   2.798   2.200   9.489  1.4431 -1.9668  1.0996
 2053SOL     OW17791   4.638   3.436   7.399 -0.2543  0.1344 -0.8118
 2053SOL    HW117792   4.618   3.498   7.329  1.0280  1.5646  0.0953
 2053SOL    HW217793   4.577   3.455   7.470  1.8454 -1.5281  1.4385
 2054SOL     OW17794   1.708   2.363   0.407  0.5387 -0.1168 -0.0583
 2054SOL    HW117795   1.690   2.348   0.314  0.2309  2.6717 -0.4533
 2054SOL    HW217796   1.798   2.329   0.413  0.3692 -0.3389  1.3006
 2055SOL     OW17797   0.844   4.715   9.275  0.5153  0.4049 -0.4098
 2055SOL    HW117798   0.852   4.728   9.181  1.2630  1.6694 -0.1713
 2055SOL    HW217799   0.787   4.640   9.288  2.1280 -0.7203  0.1632
 2056SOL     OW17800   1.158   1.311   6.328 -0.0545  0.2484 -0.1733
 2056SOL    HW117801   1.244   1.277   6.303 -0.9906 -1.8758 -0.5220
 2056SOL    HW217802   1.111   1.317   6.245  0.0106 -0.8081 -0.2793
 2057SOL     OW17803   1.332   4.212  12.206  0.0118  0.1450 -0.5683
 2057SOL    HW117804   1.303   4.201  12.296 -2.4102  0.6616 -1.2798
 2057SOL    HW217805   1.424   4.187  12.196 -0.2491 -1.2835  0.5721
 2058SOL     OW17806   1.447   0.135   9.965 -0.0387  0.5091  0.9926
 2058SOL    HW117807   1.416   0.142   9.875  2.0160  0.1506  0.2620
 2058SOL    HW217808   1.364   0.141  10.013 -0.2908 -3.1699  0.9888
 2059SOL     OW17809   2.234   3.774   5.642 -0.3976 -0.0618  0.3455
 2059SOL    HW117810   2.143   3.803   5.654 -0.6424 -0.5388 -0.3892
 2059SOL    HW217811   2.265   3.853   5.599 -2.3143  0.3932 -0.2029
 2060SOL     OW17812   2.285   1.895  15.419  0.2265  0.0038  0.2737
 2060SOL    HW117813   2.307   1.972  15.470  0.3866  0.7049 -0.8498
 2060SOL    HW217814   2.192   1.913  15.408  0.4201 -0.2086 -1.7728
 2061SOL     OW17815   2.042   3.166   3.504 -0.0405 -0.3162 -0.2947
 2061SOL    HW117816   1.971   3.196   3.449 -0.5932 -0.7698  0.1694
 2061SOL    HW217817   2.007   3.184   3.591 -0.4494  0.6786 -0.6679
 2062SOL     OW17818   2.756   1.369   1.955  0.3080 -0.1480  0.0311
 2062SOL    HW117819   2.790   1.337   2.038 -0.9880 -0.3288  0.4880
 2062SOL    HW217820   2.685   1.307   1.943 -0.8443  1.3965 -1.2474
 2063SOL     OW17821   0.097   3.378  17.457  0.2561 -0.5506 -0.1536
 2063SOL    HW117822   0.059   3.401  17.372 -0.2769  1.0087  0.5085
 2063SOL    HW217823   0.022   3.415  17.503  1.4948  1.5383  0.1754
 2064SOL     OW17824   2.562   1.750  12.547 -0.3418 -0.5867  0.1406
 2064SOL    HW117825   2.503   1.781  12.615 -0.8083 -0.5256 -0.2974
 2064SOL    HW217826   2.508   1.691  12.494  0.4433 -1.4212  0.2491
 2065SOL     OW17827   2.386   0.117   8.831  0.6330 -0.1300 -0.5603
 2065SOL    HW117828   2.407   0.062   8.755 -4.1630 -0.1302 -1.9010
 2065SOL    HW217829   2.470   0.162   8.840  0.1338  0.1991  2.4578
 2066SOL     OW17830   1.870   2.509   3.319 -0.5681 -0.2147  0.1390
 2066SOL    HW117831   1.863   2.605   3.319 -1.9367 -0.3137  2.0526
 2066SOL    HW217832   1.808   2.488   3.389 -1.8693  0.5635 -0.7715
 2067SOL     OW17833   0.706   0.582  15.227  0.3732 -0.0460 -0.1039
 2067SOL    HW117834   0.680   0.493  15.201 -0.6127  0.4698 -0.8902
 2067SOL    HW217835   0.631   0.612  15.277  0.6173 -2.0983  1.4949
 2068SOL     OW17836   3.764   2.244   7.981  0.1969  1.0785  0.2334
 2068SOL    HW117837   3.858   2.223   7.983  0.1431  1.1069  3.2221
 2068SOL    HW217838   3.750   2.196   7.900  1.8300  1.9658 -0.5890
 2069SOL     OW17839   0.504   3.456   2.812 -0.0702  0.2137  0.5264
 2069SOL    HW117840   0.590   3.415   2.822 -0.2783 -0.6918 -1.3953
 2069SOL    HW217841   0.526   3.549   2.817  1.3915 -0.1565  0.7717
 2070SOL     OW17842   0.162   2.600   4.922 -0.6876  0.3218 -0.3090
 2070SOL    HW117843   0.120   2.531   4.870  1.6142 -1.2709 -0.0921
 2070SOL    HW217844   0.199   2.656   4.854 -1.3057 -1.3429 -2.0092
 2071SOL     OW17845   4.104   2.795   7.251  0.6832 -0.4411  0.7276
 2071SOL    HW117846   4.065   2.878   7.276 -1.0908 -1.3026  0.8098
 2071SOL    HW217847   4.199   2.801   7.259  0.6097 -0.1445  1.3504
 2072SOL     OW17848   1.380   4.030   8.516 -0.0396  0.0861  0.0865
 2072SOL    HW117849   1.399   4.057   8.426 -0.4076  1.6060  0.4747
 2072SOL    HW217850   1.436   3.955   8.537 -0.7679 -0.9423 -1.6869
 2073SOL     OW17851   3.852   3.564   3.872 -0.3846 -0.2559  0.7262
 2073SOL    HW117852   3.938   3.550   3.911 -0.9261  0.2849  2.1437
 2073SOL    HW217853   3.802   3.492   3.911  0.7723 -1.8899 -0.8382
 2074SOL     OW17854   2.679   0.623   1.020 -0.1791  0.2071 -0.2711
 2074SOL    HW117855   2.615   0.673   0.969  1.7817  1.6501 -1.2783
 2074SOL    HW217856   2.744   0.615   0.951 -0.5745  0.6742 -0.6954
 2075SOL     OW17857   1.428   1.554   7.332 -0.0706  0.0212 -0.1546
 2075SOL    HW117858   1.470   1.620   7.277  0.5091  0.0570  0.3264
 2075SOL    HW217859   1.476   1.548   7.415 -0.7922  1.0020  0.3277
 2076SOL     OW17860   4.000   2.218  12.165 -0.4400 -0.1338 -0.3387
 2076SOL    HW117861   3.906   2.212  12.184 -0.8663  1.6025 -1.9068
 2076SOL    HW217862   4.008   2.304  12.125 -0.8912  0.2497  0.4041
 2077SOL     OW17863   2.284   2.355   7.438 -0.0718  0.8367  0.7288
 2077SOL    HW117864   2.243   2.428   7.485  0.8674  1.5784  0.4004
 2077SOL    HW217865   2.375   2.384   7.431 -0.3403  1.6240  0.4373
 2078SOL     OW17866   0.103   0.139  17.151 -0.6080 -0.3612 -0.3380
 2078SOL    HW117867   0.158   0.213  17.176  0.4955 -1.6340  0.9488
 2078SOL    HW217868   0.172   0.078  17.125  0.5542  0.6593  0.3359
 2079SOL     OW17869   3.703   4.219  12.286  0.3334  0.0240 -0.2048
 2079SOL    HW117870   3.709   4.124  12.282 -1.2168 -0.1638  1.8145
 2079SOL    HW217871   3.767   4.234  12.356  0.4539 -0.8108 -0.1396
 2080SOL     OW17872   4.136   1.550  11.910 -0.2476  0.3930 -0.0052
 2080SOL    HW117873   4.128   1.474  11.967  1.0777 -0.4315 -0.9121
 2080SOL    HW217874   4.114   1.619  11.972 -1.9963  0.8302 -1.1280
 2081SOL     OW17875   1.318   3.154   3.836  0.2874 -0.2531  0.0722
 2081SOL    HW117876   1.255   3.199   3.893  0.3454  0.8482 -0.7335
 2081SOL    HW217877   1.353   3.232   3.792 -1.9691  0.2397 -0.8157
 2082SOL     OW17878   0.163   0.123   7.555  0.6663  0.5958 -0.1228
 2082SOL    HW117879   0.172   0.177   7.476  0.5469 -1.0651 -1.2652
 2082SOL    HW217880   0.252   0.091   7.569 -0.4011 -1.7820  1.1169
 2083SOL     OW17881   1.923   3.814   4.272  0.2307  0.1506 -0.5330
 2083SOL    HW117882   1.924   3.800   4.367  0.1353  0.7043 -0.4515
 2083SOL    HW217883   1.920   3.728   4.231  0.1217  0.1658 -0.5558
 2084SOL     OW17884   4.729   0.350   3.549 -0.1272  0.1522  0.0401
 2084SOL    HW117885   4.702   0.347   3.641 -1.2077  0.3510 -0.2664
 2084SOL    HW217886   0.041   0.433   3.543  3.7698 -1.8824  2.5903
 2085SOL     OW17887   3.026   3.985   8.226 -0.2100 -0.6441 -0.8094
 2085SOL    HW117888   3.028   4.012   8.135  0.2561  1.3622 -0.2146
 2085SOL    HW217889   3.109   4.022   8.258 -0.4460 -0.3586 -0.5252
 2086SOL     OW17890   1.974   2.515   6.735 -0.3785 -0.8551  0.0725
 2086SOL    HW117891   1.885   2.499   6.704  0.3952 -2.0875 -1.5388
 2086SOL    HW217892   1.962   2.578   6.806  0.3936  1.5833 -1.9881
 2087SOL     OW17893   3.739   0.091   8.903 -0.0967 -0.0589  0.2777
 2087SOL    HW117894   3.754   0.009   8.949  1.0869  0.5190  0.9475
 2087SOL    HW217895   3.826   0.130   8.891  0.0862 -1.3651 -2.7093
 2088SOL     OW17896   3.667   0.362  16.368  0.1664 -0.0400  0.2059
 2088SOL    HW117897   3.729   0.428  16.336  1.1746 -0.3911  1.4448
 2088SOL    HW217898   3.595   0.393  16.314  0.6973  2.1694  0.7655
 2089SOL     OW17899   1.107   3.335   1.652  0.2919  0.1933 -0.2365
 2089SOL    HW117900   1.019   3.368   1.637 -0.8132 -2.7907 -0.2785
 2089SOL    HW217901   1.092   3.241   1.661 -2.1835  0.4053 -2.2972
 2090SOL     OW17902   1.386   4.444   2.562  0.0092 -0.2480  0.5829
 2090SOL    HW117903   1.405   4.434   2.656 -0.3250  1.0241  0.7962
 2090SOL    HW217904   1.461   4.495   2.532 -2.0694  0.9820 -2.5044
 2091SOL     OW17905   2.113   3.179   0.424  0.2578  0.4079 -0.1816
 2091SOL    HW117906   2.093   3.115   0.356 -0.7541  1.0699 -0.5113
 2091SOL    HW217907   2.032   3.230   0.420  0.1534  0.1580 -1.3305
 2092SOL     OW17908   1.031   0.181   3.023 -0.6528 -0.4461 -0.4452
 2092SOL    HW117909   0.941   0.158   2.998 -1.5465  1.7466  0.7691
 2092SOL    HW217910   1.060   0.239   2.952  1.1479 -0.0766  0.6157
 2093SOL     OW17911   3.220   1.206   8.777 -0.2530  0.1801  0.6324
 2093SOL    HW117912   3.190   1.150   8.705  0.2458  0.9685 -0.1690
 2093SOL    HW217913   3.231   1.288   8.730  0.4312 -1.4035 -2.0047
 2094SOL     OW17914   3.551   2.047   3.909  0.1556 -0.0016 -0.0111
 2094SOL    HW117915   3.512   2.115   3.964 -0.0733  0.7526 -1.1082
 2094SOL    HW217916   3.473   2.010   3.869  0.9337 -0.6533 -0.9383
 2095SOL     OW17917   1.828   2.103   5.640  0.1328 -0.0923  0.2076
 2095SOL    HW117918   1.870   2.016   5.642  0.7368  0.1534 -2.4927
 2095SOL    HW217919   1.752   2.082   5.694  0.1319  0.1228  0.2868
 2096SOL     OW17920   2.821   0.154  10.591  0.1886  0.4761 -0.6081
 2096SOL    HW117921   2.886   0.091  10.560  1.2583  1.5706 -0.5649
 2096SOL    HW217922   2.871   0.209  10.652  0.6827  1.6133 -2.0225
 2097SOL     OW17923   2.624   2.822   3.626 -0.2483  0.0344 -0.6719
 2097SOL    HW117924   2.627   2.838   3.531 -1.9169 -0.5109 -0.8133
 2097SOL    HW217925   2.610   2.727   3.627 -0.5296  0.0648 -1.4639
 2098SOL     OW17926   2.528   0.804   7.435  0.1815  0.6054  0.5188
 2098SOL    HW117927   2.478   0.745   7.491  0.7707  0.0747  0.4864
 2098SOL    HW217928   2.534   0.878   7.495  0.0286 -0.5238  1.9365
 2099SOL     OW17929   4.128   2.436   4.737  0.1497  0.9140 -0.2677
 2099SOL    HW117930   4.179   2.495   4.681  1.7406 -0.4534 -0.2646
 2099SOL    HW217931   4.184   2.358   4.740 -2.0567 -0.6704 -0.2305
 2100SOL     OW17932   4.531   2.980  10.358  0.0965  1.1323 -0.3427
 2100SOL    HW117933   4.460   3.044  10.358 -2.0065 -1.2109  1.2869
 2100SOL    HW217934   4.482   2.897  10.359  0.7354  0.7560 -0.5537
 2101SOL     OW17935   4.276   0.636   5.044  0.7197  0.2369 -0.7876
 2101SOL    HW117936   4.220   0.559   5.046 -0.0151  0.8073  0.4408
 2101SOL    HW217937   4.280   0.652   4.950 -2.2865  1.1605 -0.7391
 2102SOL     OW17938   0.478   3.244   6.637 -0.3264  0.7255  0.0295
 2102SOL    HW117939   0.433   3.189   6.573 -0.5717 -1.1814  1.8481
 2102SOL    HW217940   0.449   3.332   6.613 -2.8599 -0.2868 -0.5414
 2103SOL     OW17941   0.741   4.273   5.421  0.1625 -0.4822  0.0128
 2103SOL    HW117942   0.702   4.186   5.417  1.0205 -0.8498 -0.4363
 2103SOL    HW217943   0.733   4.287   5.515  2.3573  0.2932  0.0884
 2104SOL     OW17944   3.933   1.794   7.466  0.2804  1.2217 -0.6069
 2104SOL    HW117945   3.980   1.827   7.390  2.4525  0.7728  0.5474
 2104SOL    HW217946   3.997   1.732   7.498 -0.9648  0.4145  0.3232
 2105SOL     OW17947   0.654   4.005   5.406  0.8801 -0.3450 -0.5737
 2105SOL    HW117948   0.653   3.958   5.489  1.7252 -2.5232 -1.8093
 2105SOL    HW217949   0.711   3.947   5.356 -1.2746 -2.6615 -0.3454
 2106SOL     OW17950   3.990   2.666   4.406 -0.0811 -0.4586 -0.7269
 2106SOL    HW117951   3.915   2.606   4.402 -0.2487 -0.3899  1.4140
 2106SOL    HW217952   4.033   2.655   4.321  1.3614  0.4519 -0.1035
 2107SOL     OW17953   4.704   2.347   4.859 -0.1972  0.5286 -1.1089
 2107SOL    HW117954   4.674   2.265   4.821 -2.0482  0.5153  0.3434
 2107SOL    HW217955   0.025   2.313   4.930 -2.2731 -0.4793  0.0460
 2108SOL     OW17956   1.493   2.937   3.824  0.4628  0.6097  0.1514
 2108SOL    HW117957   1.442   2.893   3.891 -2.0514  2.7496 -0.3304
 2108SOL    HW217958   1.431   3.009   3.810 -0.4118 -0.3196 -0.8364
 2109SOL     OW17959   0.129   1.074   2.477 -0.0036 -0.0584  0.1361
 2109SOL    HW117960   0.176   1.127   2.542 -0.0071  0.1822 -0.0536
 2109SOL    HW217961   0.044   1.116   2.487  0.6661  1.2798  0.2414
 2110SOL     OW17962   4.074   3.433   7.970  0.6796 -0.2094 -0.1959
 2110SOL    HW117963   4.077   3.394   8.058  1.4075  3.9885  1.6265
 2110SOL    HW217964   4.068   3.350   7.922  0.3382 -0.0038 -0.5076
 2111SOL     OW17965   2.525   0.038   9.546 -0.2583  0.0069  0.0924
 2111SOL    HW117966   2.533   0.132   9.562  1.4814 -0.2523  0.6935
 2111SOL    HW217967   2.548   0.002   9.632  0.7127  1.2538  0.3607
 2112SOL     OW17968   4.352   3.023   8.984 -0.4391 -0.1130 -0.8991
 2112SOL    HW117969   4.257   3.026   8.971 -0.6780  0.4305  0.9695
 2112SOL    HW217970   4.363   3.116   9.005 -0.2653 -0.4743  0.6234
 2113SOL     OW17971   2.829   3.674  11.385 -0.0844 -0.0710  0.8054
 2113SOL    HW117972   2.781   3.599  11.421  2.0749 -0.2296  3.3889
 2113SOL    HW217973   2.758   3.736  11.394 -0.4168 -0.3197 -0.1125
 2114SOL     OW17974   0.053   0.139   4.462 -0.1888  0.4142 -0.4917
 2114SOL    HW117975   0.002   0.075   4.413  0.3147  2.2472 -3.4010
 2114SOL    HW217976   0.107   0.183   4.397  0.4509  2.4079  1.4083
 2115SOL     OW17977   0.901   2.799   9.308 -0.1113 -0.0823 -0.0116
 2115SOL    HW117978   0.958   2.875   9.316 -2.2012  1.6016 -1.3055
 2115SOL    HW217979   0.930   2.757   9.390  1.8605  0.3741 -0.4773
 2116SOL     OW17980   0.629   2.225   6.564 -0.5898 -0.0077 -0.3616
 2116SOL    HW117981   0.690   2.274   6.619 -0.6851 -2.6017  2.0738
 2116SOL    HW217982   0.641   2.251   6.473  0.4598 -0.5641 -0.3837
 2117SOL     OW17983   4.273   3.498   5.300 -0.7036 -0.1440  0.3825
 2117SOL    HW117984   4.246   3.541   5.219  3.2105  1.7182  0.0664
 2117SOL    HW217985   4.230   3.413   5.288  0.7220 -0.9384  0.8599
 2118SOL     OW17986   1.355   4.181   9.086 -0.6867 -0.0223 -0.4581
 2118SOL    HW117987   1.385   4.254   9.032 -2.7504 -0.1946 -1.8415
 2118SOL    HW217988   1.352   4.203   9.179 -0.7492  2.2694 -1.0172
 2119SOL     OW17989   0.620   4.141   2.722  0.4231 -0.1717  0.5982
 2119SOL    HW117990   0.564   4.219   2.719  1.0507  0.2218 -0.5524
 2119SOL    HW217991   0.593   4.098   2.641 -0.0367  0.6164  0.3333
 2120SOL     OW17992   1.440   1.254  15.227  0.1294 -0.1557 -0.0594
 2120SOL    HW117993   1.373   1.195  15.260  0.6836 -1.4337 -1.2295
 2120SOL    HW217994   1.516   1.205  15.259 -0.1748  1.7876  3.6743
 2121SOL     OW17995   2.332   2.365   5.430 -0.0842  0.3801 -0.3482
 2121SOL    HW117996   2.263   2.394   5.371  0.9037  1.0553 -1.1915
 2121SOL    HW217997   2.282   2.300   5.479 -0.1664  1.4144  0.9691
 2122SOL     OW17998   1.547   4.423   8.489 -0.0385 -0.2906  0.0328
 2122SOL    HW117999   1.482   4.392   8.552 -1.1455 -1.4751 -1.6912
 2122SOL    HW218000   1.534   4.517   8.487 -2.5027 -0.6221  0.4552
 2123SOL     OW18001   2.759   0.367   3.360 -0.4323  0.7213  0.2538
 2123SOL    HW118002   2.805   0.345   3.440 -2.0623 -0.6580  0.8080
 2123SOL    HW218003   2.808   0.334   3.285 -1.0380  0.2000  0.0864
 2124SOL     OW18004   0.747   3.091  17.402  0.0832  0.1253  0.1166
 2124SOL    HW118005   0.675   3.135  17.357  1.5061  2.7787  0.3730
 2124SOL    HW218006   0.807   3.166  17.408 -0.0810  0.3143 -0.6069
 2125SOL     OW18007   3.344   3.318   0.658  0.6307 -0.5348 -0.5580
 2125SOL    HW118008   3.388   3.389   0.612 -0.2390 -0.5443 -1.4238
 2125SOL    HW218009   3.354   3.252   0.588 -1.0888 -2.7403  1.2693
 2126SOL     OW18010   3.516   4.393   8.924  0.0646  0.3329  0.6379
 2126SOL    HW118011   3.538   4.470   8.872 -1.8508 -1.9045 -3.4780
 2126SOL    HW218012   3.593   4.336   8.930  0.8354  1.4750  1.8233
 2127SOL     OW18013   3.133   1.202   9.303 -0.0964 -0.2614  0.1383
 2127SOL    HW118014   3.100   1.206   9.393  0.8687  1.5551  0.4143
 2127SOL    HW218015   3.225   1.223   9.321  0.0518 -2.4787  2.0007
 2128SOL     OW18016   1.834   2.334   7.576 -0.3448 -0.2573 -0.1353
 2128SOL    HW118017   1.827   2.407   7.638  2.9263  1.7319 -2.0121
 2128SOL    HW218018   1.910   2.355   7.521 -0.0091  1.8199  1.1264
 2129SOL     OW18019   0.528   1.571   6.825 -0.0180  0.0953  0.2289
 2129SOL    HW118020   0.623   1.564   6.832 -0.1129 -2.1368 -0.6488
 2129SOL    HW218021   0.511   1.562   6.919 -0.5399 -1.3932  0.0045
 2130SOL     OW18022   4.665   1.026   8.440  0.0475 -0.1486  0.5275
 2130SOL    HW118023   4.691   0.934   8.438  2.5502  0.6334 -3.1794
 2130SOL    HW218024   4.573   1.022   8.413  0.1959  0.8997 -0.1443
 2131SOL     OW18025   2.998   1.893   2.068  0.2436  0.1137 -0.2174
 2131SOL    HW118026   3.035   1.815   2.026 -0.1135 -0.3054  0.2537
 2131SOL    HW218027   2.934   1.867   2.135 -0.2778  1.6120 -0.1280
 2132SOL     OW18028   0.352   0.767   1.594 -0.3918 -0.0904 -0.5368
 2132SOL    HW118029   0.291   0.754   1.521  0.5088 -0.7388 -1.1641
 2132SOL    HW218030   0.425   0.808   1.549 -0.7651  0.4244 -0.6736
 2133SOL     OW18031   0.703   2.398   3.466 -0.0742 -0.4931 -0.0357
 2133SOL    HW118032   0.701   2.491   3.444 -0.5340 -0.8010 -1.2972
 2133SOL    HW218033   0.766   2.396   3.538 -0.3632 -0.3826  0.2254
 2134SOL     OW18034   4.331   4.549   1.699 -0.0593 -0.6335  0.8057
 2134SOL    HW118035   4.237   4.545   1.714 -0.4075  3.6209 -0.3152
 2134SOL    HW218036   4.349   4.630   1.748 -0.6348  0.5067 -0.8698
 2135SOL     OW18037   3.598   3.812   5.941 -0.4597 -0.3351 -0.4204
 2135SOL    HW118038   3.516   3.770   5.913 -1.4819  1.1031  0.4167
 2135SOL    HW218039   3.666   3.752   5.910  0.1859  0.4518 -0.5301
 2136SOL     OW18040   3.834   4.219   7.465 -0.1087  0.6328 -0.3309
 2136SOL    HW118041   3.910   4.190   7.415 -0.1914 -0.6372  0.2658
 2136SOL    HW218042   3.846   4.310   7.441 -0.6346  0.3844 -1.5336
 2137SOL     OW18043   2.054   3.193  12.961 -0.2035 -0.4304  0.0350
 2137SOL    HW118044   2.016   3.273  12.925  0.1441 -0.6891 -0.9028
 2137SOL    HW218045   1.996   3.172  13.035 -3.3865  0.5421 -2.1721
 2138SOL     OW18046   1.633   4.603  16.871 -0.2997 -0.1490  0.2515
 2138SOL    HW118047   1.681   4.663  16.814  2.4280 -2.0949  0.5036
 2138SOL    HW218048   1.644   4.634  16.961 -1.7014 -2.0592  1.0728
 2139SOL     OW18049   2.473   0.313   3.387 -0.0405 -0.1598  0.2999
 2139SOL    HW118050   2.567   0.329   3.397 -0.1914  0.8112  0.1485
 2139SOL    HW218051   2.465   0.224   3.420 -0.1421 -0.2570  0.0056
 2140SOL     OW18052   3.748   4.298  10.359 -0.1131 -0.1178  0.5529
 2140SOL    HW118053   3.837   4.324  10.337 -1.3095  0.7464 -3.4083
 2140SOL    HW218054   3.727   4.372  10.416 -3.3766 -0.7800  0.2283
 2141SOL     OW18055   4.535   2.646   7.121  0.1829  0.1481 -0.1746
 2141SOL    HW118056   4.603   2.582   7.143  0.7793  0.3072 -1.5819
 2141SOL    HW218057   4.566   2.684   7.039 -3.2167  0.9222 -1.0604
 2142SOL     OW18058   2.141   2.712   8.183 -0.3788 -0.1758 -0.1601
 2142SOL    HW118059   2.060   2.717   8.234  0.6081 -0.4919  1.4481
 2142SOL    HW218060   2.154   2.787   8.125 -1.5195  0.8854  0.9653
 2143SOL     OW18061   3.050   3.270  15.883  0.1280 -0.0438 -0.8607
 2143SOL    HW118062   3.067   3.360  15.913 -0.9795  0.3970 -1.5701
 2143SOL    HW218063   3.127   3.244  15.832  1.1415  0.0044  0.6585
 2144SOL     OW18064   0.578   0.881  17.535  0.5361  0.1309  0.3188
 2144SOL    HW118065   0.498   0.836  17.564 -0.8075  0.7588 -2.4053
 2144SOL    HW218066   0.588   0.938  17.611 -0.3975 -0.4533  0.8784
 2145SOL     OW18067   3.384   2.336   6.903 -0.2472 -1.1641 -0.0681
 2145SOL    HW118068   3.335   2.333   6.985 -1.7329 -3.9338 -1.0490
 2145SOL    HW218069   3.456   2.276   6.923 -0.1183 -1.5254 -1.5516
 2146SOL     OW18070   2.413   2.363   4.622 -0.1418  0.4654  0.2511
 2146SOL    HW118071   2.404   2.287   4.679  0.4334  0.7017  0.6604
 2146SOL    HW218072   2.457   2.418   4.687  1.3269 -1.5249  0.9381
 2147SOL     OW18073   1.874   3.650   4.821  0.0501 -0.0044  0.4611
 2147SOL    HW118074   1.783   3.624   4.806  0.5096 -0.3785 -1.6588
 2147SOL    HW218075   1.909   3.640   4.733 -0.2449  2.1645  0.1011
 2148SOL     OW18076   1.258   1.998   3.268 -0.3600 -0.3155 -0.6266
 2148SOL    HW118077   1.233   1.905   3.268  1.2060 -0.7299 -0.9193
 2148SOL    HW218078   1.212   2.015   3.186 -1.0826 -2.5080 -0.6846
 2149SOL     OW18079   1.990   3.883   8.726  0.6336  0.2663 -0.1417
 2149SOL    HW118080   1.904   3.896   8.686  0.1368  1.6902  1.3924
 2149SOL    HW218081   1.975   3.930   8.808  0.0127 -0.1811 -0.0043
 2150SOL     OW18082   2.093   0.236   7.095 -0.0511 -0.7468 -0.3388
 2150SOL    HW118083   2.104   0.154   7.046  1.4517 -0.6806 -0.0812
 2150SOL    HW218084   2.065   0.206   7.181  0.2119 -1.8530 -0.6309
 2151SOL     OW18085   0.156   1.753   9.043  0.2022  0.1312 -0.4049
 2151SOL    HW118086   0.226   1.808   9.079  0.8476 -0.3997 -0.8434
 2151SOL    HW218087   0.096   1.758   9.117  0.3010 -0.2787 -0.2966
 2152SOL     OW18088   3.376   1.014   0.671 -0.1523  0.0288  0.1644
 2152SOL    HW118089   3.443   0.946   0.666 -0.6802 -0.5909  1.3542
 2152SOL    HW218090   3.412   1.087   0.620 -2.1938  0.1710 -1.0777
 2153SOL     OW18091   2.023   3.422   2.079 -0.1283 -0.1275  0.6874
 2153SOL    HW118092   2.041   3.516   2.080 -1.3211  0.1047  0.1690
 2153SOL    HW218093   1.932   3.430   2.049 -0.7498 -0.4338  2.4713
 2154SOL     OW18094   3.906   3.638  15.437 -0.1799  0.3609  0.7560
 2154SOL    HW118095   3.915   3.731  15.415 -0.8661  0.8299  2.4648
 2154SOL    HW218096   3.948   3.604  15.358  0.0201 -1.7218  1.7487
 2155SOL     OW18097   4.096   3.796  17.481 -0.4149 -0.3464  0.0265
 2155SOL    HW118098   4.006   3.795  17.450  0.9896 -0.0645 -4.0794
 2155SOL    HW218099   4.101   3.707  17.514 -1.8247  0.2010  1.7125
 2156SOL     OW18100   2.303   2.323   0.115 -0.5507  0.3845 -0.6662
 2156SOL    HW118101   2.324   2.362   0.200 -1.4226  0.6488 -0.5819
 2156SOL    HW218102   2.392   2.304   0.084  0.5393 -2.0619  3.9274
 2157SOL     OW18103   2.899   2.626   7.689  0.1914 -0.5820  0.0430
 2157SOL    HW118104   2.866   2.548   7.644 -2.2154 -0.2846  1.2602
 2157SOL    HW218105   2.895   2.605   7.782 -0.5234 -1.0864 -0.1010
 2158SOL     OW18106   4.702   1.411   8.796 -0.4900 -0.0534  0.0733
 2158SOL    HW118107   4.684   1.321   8.770  3.7027 -0.9004  0.1131
 2158SOL    HW218108   0.010   1.452   8.721 -0.6980 -0.2364 -0.1443
 2159SOL     OW18109   3.667   1.903   3.441  0.7521 -0.5125  0.3042
 2159SOL    HW118110   3.726   1.841   3.399 -0.1602 -0.4128 -1.1220
 2159SOL    HW218111   3.728   1.977   3.435 -0.6843  0.6832  0.2213
 2160SOL     OW18112   3.860   0.697   2.720 -0.0527  0.6530  0.1537
 2160SOL    HW118113   3.777   0.675   2.762 -0.1645 -0.3412 -0.5894
 2160SOL    HW218114   3.924   0.631   2.748 -0.9323  0.0772  0.8047
 2161SOL     OW18115   4.011   0.914   2.827 -0.0871 -0.3777 -0.4460
 2161SOL    HW118116   4.068   0.838   2.816  1.3547  0.7997 -1.0779
 2161SOL    HW218117   3.945   0.905   2.758  0.6842  1.7091 -1.4568
 2162SOL     OW18118   3.912   2.143   2.380  0.8625  0.5259 -0.3515
 2162SOL    HW118119   3.821   2.168   2.367  0.5299 -0.2867  0.4047
 2162SOL    HW218120   3.907   2.101   2.466  3.3341  1.5483  0.2857
 2163SOL     OW18121   0.224   3.581   0.906 -0.1851  0.1019  0.0395
 2163SOL    HW118122   0.232   3.508   0.844  0.4113 -0.6841  1.0335
 2163SOL    HW218123   0.152   3.635   0.874 -0.0237  0.4710  0.3026
 2164SOL     OW18124   2.634   2.639  10.924 -0.2183  0.2635 -0.1560
 2164SOL    HW118125   2.633   2.547  10.950  1.5202 -0.3465 -2.1758
 2164SOL    HW218126   2.582   2.668  10.998  1.4360 -0.4948  1.2877
 2165SOL     OW18127   0.203   1.594   4.075  0.0339 -0.3971 -0.2696
 2165SOL    HW118128   0.147   1.529   4.034  0.2872 -1.1180  0.5402
 2165SOL    HW218129   0.181   1.668   4.019  1.5922  0.8101  0.6953
 2166SOL     OW18130   0.174   0.643  17.396 -0.4821 -0.2623 -0.3873
 2166SOL    HW118131   0.130   0.566  17.359 -0.8664 -1.0058  1.6182
 2166SOL    HW218132   0.138   0.705  17.333 -1.2554  1.5784  1.8761
 2167SOL     OW18133   4.071   1.858   0.751  0.3746 -0.1432  0.4082
 2167SOL    HW118134   4.162   1.864   0.723  0.4779  2.6527  1.4047
 2167SOL    HW218135   4.037   1.898   0.671 -0.3244 -0.4952  0.5313
 2168SOL     OW18136   0.527   0.118   2.042 -0.2158  0.2671  0.1815
 2168SOL    HW118137   0.599   0.077   1.995 -0.2359 -1.6363  1.8175
 2168SOL    HW218138   0.480   0.048   2.088 -2.1508  0.1500 -1.9687
 2169SOL     OW18139   0.527   1.828   3.242  0.4025 -0.3527  1.2572
 2169SOL    HW118140   0.492   1.758   3.298  0.8574 -0.9775  0.7666
 2169SOL    HW218141   0.577   1.781   3.175  0.0553  2.4594 -0.9961
 2170SOL     OW18142   0.855   3.718  12.906  0.1794 -0.5773 -0.3660
 2170SOL    HW118143   0.918   3.665  12.857  1.0394 -0.8515  1.0306
 2170SOL    HW218144   0.779   3.698  12.851 -0.1544  1.1298 -0.5257
 2171SOL     OW18145   0.724   2.429   5.341  0.3514 -0.1641 -0.4535
 2171SOL    HW118146   0.779   2.448   5.266 -0.6557  1.0856 -0.8662
 2171SOL    HW218147   0.661   2.366   5.307 -0.8981  1.3392 -0.9053
 2172SOL     OW18148   2.634   4.368   5.299 -0.5544  0.0466 -0.5489
 2172SOL    HW118149   2.555   4.328   5.262 -0.1294  0.0197 -1.4155
 2172SOL    HW218150   2.641   4.443   5.241 -2.6702 -1.5325 -2.8329
 2173SOL     OW18151   2.521   4.090   5.163 -0.1222  0.2571  0.0005
 2173SOL    HW118152   2.455   4.140   5.210  0.2956 -0.2158  1.0982
 2173SOL    HW218153   2.508   4.116   5.072  1.2798 -0.6918 -0.4789
 2174SOL     OW18154   4.397   0.943   5.786 -0.1102  0.1366  0.4911
 2174SOL    HW118155   4.376   0.992   5.866  1.2390  1.3561  0.0848
 2174SOL    HW218156   4.317   0.893   5.768 -0.8802  1.6016 -0.1231
 2175SOL     OW18157   1.098   3.945   5.039 -0.0682 -0.2999 -0.4013
 2175SOL    HW118158   1.165   3.881   5.014  1.3688 -0.1362  2.9750
 2175SOL    HW218159   1.074   3.912   5.126  0.9538  1.6439  0.6211
 2176SOL     OW18160   2.798   1.944   4.015 -0.5689 -0.0574  0.5741
 2176SOL    HW118161   2.760   2.018   4.063  2.5564  1.0271  1.4359
 2176SOL    HW218162   2.854   1.994   3.956 -0.7183  1.1742  1.4624
 2177SOL     OW18163   3.382   2.714  17.438  0.1319  0.5241 -0.0610
 2177SOL    HW118164   3.472   2.737  17.459  0.0302  0.2431  0.6671
 2177SOL    HW218165   3.359   2.653  17.508 -2.1259  0.3989 -0.8885
 2178SOL     OW18166   2.777   0.482   4.527  0.2119  0.7534 -0.0771
 2178SOL    HW118167   2.839   0.444   4.588 -0.3673  0.4710  0.3289
 2178SOL    HW218168   2.824   0.470   4.444  1.4793 -3.6952  1.2966
 2179SOL     OW18169   4.673   2.058   8.116 -0.1217  0.2564 -0.4508
 2179SOL    HW118170   4.660   1.987   8.052  1.3948 -0.0177 -0.4413
 2179SOL    HW218171   4.679   2.134   8.058 -0.5183  2.4354  2.3812
 2180SOL     OW18172   2.165   0.111   3.798 -0.3127  0.6164  0.1978
 2180SOL    HW118173   2.131   0.119   3.709 -0.9787  1.7458  0.5386
 2180SOL    HW218174   2.221   0.189   3.794 -0.9476  1.1228  0.8769
 2181SOL     OW18175   2.046   3.844   7.709 -0.3153 -0.4323  0.5105
 2181SOL    HW118176   1.985   3.827   7.780 -0.2137 -0.0833  0.6803
 2181SOL    HW218177   2.104   3.768   7.715  0.3504  0.1374  1.2411
 2182SOL     OW18178   1.313   0.086   8.118 -0.3401  0.0684  0.3937
 2182SOL    HW118179   1.357   0.139   8.052  3.0529 -1.1297  1.7288
 2182SOL    HW218180   1.224   0.088   8.080  0.0458  1.3772 -0.4564
 2183SOL     OW18181   2.994   3.203   9.154 -0.0707  0.1494  0.1751
 2183SOL    HW118182   2.939   3.242   9.222  0.6930  2.1931 -0.3849
 2183SOL    HW218183   3.018   3.273   9.094 -4.1113  1.6973  0.3902
 2184SOL     OW18184   2.832   2.959   4.613  0.0286  0.0053 -0.0542
 2184SOL    HW118185   2.870   3.022   4.674  0.8618  0.7823 -1.3645
 2184SOL    HW218186   2.850   2.998   4.527 -0.2343 -0.5716 -0.3737
 2185SOL     OW18187   4.228   4.228  10.034 -0.0554 -0.3034  0.0778
 2185SOL    HW118188   4.185   4.266   9.958  3.4552  0.9952 -1.2761
 2185SOL    HW218189   4.259   4.308  10.076  0.5152  0.1966 -1.2694
 2186SOL     OW18190   0.349   2.013   7.784  0.2939  0.1688  0.3673
 2186SOL    HW118191   0.427   1.993   7.732  1.9184 -0.7895  3.1341
 2186SOL    HW218192   0.293   1.940   7.760 -2.1897  1.9866  0.6824
 2187SOL     OW18193   3.023   0.737   1.294 -0.4306  0.0742 -0.4402
 2187SOL    HW118194   3.076   0.780   1.227  1.0297 -0.2586  0.5030
 2187SOL    HW218195   2.940   0.721   1.250 -1.6718 -0.8759  2.2751
 2188SOL     OW18196   3.442   3.600   6.164  0.2279 -0.3067  0.2115
 2188SOL    HW118197   3.435   3.616   6.070 -1.7526  2.2752  0.8078
 2188SOL    HW218198   3.467   3.688   6.190 -2.5938  0.0578  1.6920
 2189SOL     OW18199   2.350   0.766   2.079 -0.3179  0.3094 -0.1053
 2189SOL    HW118200   2.390   0.681   2.094  0.1977  0.4764 -0.5166
 2189SOL    HW218201   2.326   0.787   2.169  1.9176 -0.8867  0.7643
 2190SOL     OW18202   3.348   2.105   5.295  0.3413  1.0436  0.0222
 2190SOL    HW118203   3.280   2.080   5.357  2.7150  0.4069  2.3911
 2190SOL    HW218204   3.300   2.119   5.213  1.4550  0.0503 -0.8098
 2191SOL     OW18205   3.798   0.154   1.962  0.0062 -0.1483 -0.0893
 2191SOL    HW118206   3.759   0.221   1.904  1.4147  1.6277  1.0360
 2191SOL    HW218207   3.771   0.181   2.050  0.9562 -0.9330  0.4312
 2192SOL     OW18208   3.992   3.145   9.828  0.3102  0.2638 -0.4873
 2192SOL    HW118209   3.940   3.106   9.899 -2.3169  1.4745 -1.7286
 2192SOL    HW218210   3.957   3.110   9.746 -1.2299 -0.8088  0.6029
 2193SOL     OW18211   0.312   0.282   1.759 -0.4109 -1.1066 -0.0969
 2193SOL    HW118212   0.274   0.312   1.842 -1.4116 -1.4574 -0.4363
 2193SOL    HW218213   0.393   0.334   1.755 -1.6201  0.9656  2.3154
 2194SOL     OW18214   4.169   2.513   2.008  0.0301 -0.4660 -0.0643
 2194SOL    HW118215   4.106   2.455   2.052 -1.0369 -1.4528 -2.9213
 2194SOL    HW218216   4.178   2.592   2.061  0.9718 -0.4821 -0.1881
 2195SOL     OW18217   0.248   4.356  12.153  0.2693  0.0362 -0.2034
 2195SOL    HW118218   0.179   4.336  12.090 -0.6279 -0.2242  0.8592
 2195SOL    HW218219   0.265   4.449  12.137  1.9772 -0.1054  0.7533
 2196SOL     OW18220   2.063   1.630   3.311 -0.4919 -0.3497  0.0761
 2196SOL    HW118221   2.116   1.585   3.378 -1.3385 -0.7617  0.4671
 2196SOL    HW218222   1.979   1.648   3.352  0.0074 -0.1293  1.0251
 2197SOL     OW18223   3.119   1.930   6.302 -0.3602  0.2073  0.2439
 2197SOL    HW118224   3.197   1.956   6.351 -0.5714  0.3157  0.5180
 2197SOL    HW218225   3.053   1.981   6.348  0.3193  3.5297 -2.4714
 2198SOL     OW18226   0.591   4.723   5.473  0.0277 -0.4664  0.4503
 2198SOL    HW118227   0.621   4.672   5.548 -3.2121 -1.4001  1.1059
 2198SOL    HW218228   0.498   4.727   5.497 -0.1980 -1.3400 -0.2670
 2199SOL     OW18229   2.281   1.843   1.995  0.2258 -0.2368  0.5798
 2199SOL    HW118230   2.336   1.780   1.949  0.5746 -0.8444  1.8404
 2199SOL    HW218231   2.203   1.793   2.021  2.1671 -2.4376  2.1834
 2200SOL     OW18232   1.624   1.903  11.828 -0.5797 -0.0715 -1.1740
 2200SOL    HW118233   1.623   1.989  11.786  2.0182  0.2342 -0.5811
 2200SOL    HW218234   1.689   1.931  11.892 -1.7981 -1.9063  0.8691
 2201SOL     OW18235   0.009   2.999   5.858  0.1195  0.0234 -0.7362
 2201SOL    HW118236   0.022   2.972   5.767 -3.0743 -1.8168 -0.6303
 2201SOL    HW218237   0.025   2.915   5.902  1.0884  0.3119 -0.5253
 2202SOL     OW18238   1.686   4.095   2.271 -0.0533  0.5773 -0.2429
 2202SOL    HW118239   1.593   4.103   2.249 -0.2802  0.1835  0.5439
 2202SOL    HW218240   1.723   4.172   2.229 -1.2148  0.5230 -1.3577
 2203SOL     OW18241   1.643   2.103  12.896  0.5516 -0.1638 -0.2720
 2203SOL    HW118242   1.687   2.187  12.909  1.3722 -0.6801  0.2454
 2203SOL    HW218243   1.656   2.099  12.801 -2.0788  4.6797 -0.8684
 2204SOL     OW18244   4.680   3.447  11.382 -0.2323  0.1763 -0.7118
 2204SOL    HW118245   4.602   3.502  11.382 -0.9759 -0.9217  3.6872
 2204SOL    HW218246   4.668   3.397  11.462 -1.5481  1.8950  0.1669
 2205SOL     OW18247   2.498   3.389  10.146 -0.1313 -0.4454 -0.0360
 2205SOL    HW118248   2.504   3.479  10.180  1.0280 -1.2135  1.8314
 2205SOL    HW218249   2.406   3.391  10.123  0.0676  1.1238 -0.6767
 2206SOL     OW18250   1.601   3.398   1.665 -0.0897  0.7268  0.2561
 2206SOL    HW118251   1.677   3.346   1.638  0.9863  2.3611  0.2054
 2206SOL    HW218252   1.529   3.352   1.621 -1.2862  1.5930  1.2966
 2207SOL     OW18253   2.706   3.944  16.331 -0.6196  0.0288 -0.1593
 2207SOL    HW118254   2.750   3.991  16.402 -2.1753 -1.5565  1.8451
 2207SOL    HW218255   2.677   4.010  16.268  0.0350 -0.5191 -1.0397
 2208SOL     OW18256   0.882   4.478   6.728  0.6832  0.6526 -0.3999
 2208SOL    HW118257   0.946   4.429   6.780  1.1013  0.3113 -1.2416
 2208SOL    HW218258   0.856   4.412   6.665  0.8367  0.7846 -0.6035
 2209SOL     OW18259   0.523   3.967   8.114  0.0609  0.4732 -0.0934
 2209SOL    HW118260   0.443   3.988   8.161 -0.0689 -2.3224  0.9439
 2209SOL    HW218261   0.497   3.950   8.023  0.8050  1.2280 -0.4440
 2210SOL     OW18262   4.443   1.901   3.219  0.0948 -0.5581  0.2296
 2210SOL    HW118263   4.436   1.929   3.128 -0.3415 -2.2215 -0.2371
 2210SOL    HW218264   4.352   1.876   3.234 -0.1592  0.2296 -0.0000
 2211SOL     OW18265   4.350   4.213   0.474  0.2704  0.1290  0.0756
 2211SOL    HW118266   4.384   4.217   0.564  1.3092 -1.3540 -0.2378
 2211SOL    HW218267   4.407   4.278   0.432  1.5353 -0.3627  1.0222
 2212SOL     OW18268   1.800   1.300   5.030  0.4024  0.0209 -0.0590
 2212SOL    HW118269   1.759   1.294   4.944  0.3215  0.7280 -0.0713
 2212SOL    HW218270   1.816   1.394   5.038 -0.9672  0.1647  1.0296
 2213SOL     OW18271   3.152   4.247  16.950 -0.0615  0.1676  0.1759
 2213SOL    HW118272   3.110   4.314  17.004 -1.9157 -2.4497  1.9608
 2213SOL    HW218273   3.190   4.190  17.017 -1.0050  1.4597  1.8072
 2214SOL     OW18274   3.177   2.042  12.801  0.4821  0.0964 -0.0874
 2214SOL    HW118275   3.214   2.073  12.885  0.2474 -1.3375  0.5453
 2214SOL    HW218276   3.149   2.125  12.764 -1.8989 -0.5604  0.2868
 2215SOL     OW18277   3.687   2.416  15.599  0.0525 -0.0792 -0.2374
 2215SOL    HW118278   3.598   2.387  15.580  0.2307 -0.5566 -0.3415
 2215SOL    HW218279   3.736   2.351  15.548 -0.5728 -1.0426  0.3941
 2216SOL     OW18280   1.115   4.687   3.139  0.7368 -0.6483 -0.7365
 2216SOL    HW118281   1.156   4.646   3.063 -0.7611 -1.4681 -1.0954
 2216SOL    HW218282   1.099   0.037   3.099 -2.6143 -0.6124  0.6253
 2217SOL     OW18283   1.038   0.733   7.088 -0.0270  0.5523  0.0227
 2217SOL    HW118284   1.046   0.737   6.993 -0.3917  0.4691 -0.0105
 2217SOL    HW218285   1.117   0.684   7.112  0.6778  1.2336 -0.9298
 2218SOL     OW18286   1.956   1.150  11.767  0.0648 -0.7148 -0.0335
 2218SOL    HW118287   2.024   1.114  11.710  0.7586 -0.1095  0.4183
 2218SOL    HW218288   1.883   1.135  11.707 -2.2910  0.1109  2.6268
 2219SOL     OW18289   0.706   2.361   7.218  0.1144 -0.3415 -0.3053
 2219SOL    HW118290   0.658   2.323   7.145 -0.0230  0.4182 -0.6181
 2219SOL    HW218291   0.639   2.350   7.285  0.8297  1.6428  0.7731
 2220SOL     OW18292   3.791   1.829   1.479 -0.0936  0.0471 -0.0338
 2220SOL    HW118293   3.850   1.776   1.533 -2.6157 -0.2359  2.4208
 2220SOL    HW218294   3.858   1.850   1.413 -0.4528 -3.0186 -1.3807
 2221SOL     OW18295   4.202   1.573  11.650  0.0481 -0.2558 -0.1752
 2221SOL    HW118296   4.182   1.593  11.742 -1.6010 -2.6350 -0.0242
 2221SOL    HW218297   4.120   1.536  11.619 -0.6478 -1.1181  2.6373
 2222SOL     OW18298   2.461   3.243   6.793 -0.0570 -0.1419  0.0116
 2222SOL    HW118299   2.515   3.165   6.783  2.4347  1.4207  1.2533
 2222SOL    HW218300   2.465   3.246   6.889 -0.1483  0.8354 -0.0116
 2223SOL     OW18301   0.442   4.602  16.190 -0.1194 -0.3728 -0.1050
 2223SOL    HW118302   0.448   4.618  16.096  1.3623  0.0655  0.0626
 2223SOL    HW218303   0.349   4.588  16.209 -0.3901  2.8456  0.9873
 2224SOL     OW18304   1.107   2.532   6.169  0.4972 -0.3212  0.0422
 2224SOL    HW118305   1.168   2.487   6.111  0.8018 -2.0766  1.6994
 2224SOL    HW218306   1.162   2.558   6.242 -2.8949  3.9589  1.1019
 2225SOL     OW18307   4.319   2.981   9.385  0.1684  0.4424 -0.0613
 2225SOL    HW118308   4.344   2.925   9.312  0.6947  0.9657 -0.2927
 2225SOL    HW218309   4.233   2.946   9.408  1.2987 -0.0218  3.3740
 2226SOL     OW18310   3.664   1.828   4.264 -0.1111 -0.5784 -0.3876
 2226SOL    HW118311   3.670   1.799   4.173  0.8819  0.4117 -0.6470
 2226SOL    HW218312   3.593   1.892   4.258  1.1186  0.9862  1.5045
 2227SOL     OW18313   2.139   3.406   3.689 -0.7997 -0.2059  0.5359
 2227SOL    HW118314   2.200   3.360   3.746  0.1991 -0.5673 -0.8230
 2227SOL    HW218315   2.144   3.367   3.602 -0.2215  1.7021 -0.2850
 2228SOL     OW18316   3.464   1.363   0.951 -0.0483  0.2010 -0.0183
 2228SOL    HW118317   3.439   1.315   1.030  0.5456  2.5221  1.5899
 2228SOL    HW218318   3.506   1.444   0.979  0.5827  0.0996 -0.6701
 2229SOL     OW18319   0.275   3.329   0.807  0.1347  0.7096 -0.1754
 2229SOL    HW118320   0.334   3.311   0.734  0.5432  0.0817  0.3053
 2229SOL    HW218321   0.204   3.268   0.788 -0.9960  0.4673  4.9429
 2230SOL     OW18322   2.338   3.958   8.093 -0.1286  0.3329 -0.5710
 2230SOL    HW118323   2.363   4.020   8.162 -0.2797 -1.3201  0.9527
 2230SOL    HW218324   2.414   3.900   8.104 -1.4046 -0.8927  1.8125
 2231SOL     OW18325   3.130   1.034   5.404  0.1597 -0.6872 -0.5239
 2231SOL    HW118326   3.045   0.989   5.405  0.5746 -1.4835 -0.4076
 2231SOL    HW218327   3.107   1.101   5.468  0.3255  0.2795 -1.4851
 2232SOL     OW18328   4.468   4.202  13.167  0.3297  0.2555  0.0588
 2232SOL    HW118329   4.430   4.127  13.213  0.2792  0.3998  0.2513
 2232SOL    HW218330   4.532   4.239  13.228  0.0950 -0.6203  0.8314
 2233SOL     OW18331   2.685   1.601   8.813 -0.6950  0.2790  0.5350
 2233SOL    HW118332   2.772   1.613   8.777 -0.6936  2.6428  1.3101
 2233SOL    HW218333   2.654   1.518   8.777 -1.4873  1.7593 -2.2076
 2234SOL     OW18334   3.373   3.712   6.887  0.0105 -0.4237  0.3524
 2234SOL    HW118335   3.398   3.732   6.797  1.2152 -3.5102  0.0005
 2234SOL    HW218336   3.453   3.729   6.937  0.3989  1.1683 -0.8320
 2235SOL     OW18337   4.029   2.340   6.721  0.6107  0.3138  0.5550
 2235SOL    HW118338   4.046   2.325   6.814  2.1208  2.2153  0.5799
 2235SOL    HW218339   4.002   2.432   6.720 -1.0516 -0.1603  2.2119
 2236SOL     OW18340   0.181   1.824   3.509  0.5212 -0.4217  0.3055
 2236SOL    HW118341   0.133   1.906   3.519  1.9205  0.3488  0.7719
 2236SOL    HW218342   0.131   1.781   3.439 -2.3808 -0.3673  2.3853
 2237SOL     OW18343   2.190   3.298  15.480  0.0948  0.6426  0.3968
 2237SOL    HW118344   2.181   3.212  15.520 -1.0902  0.8703  0.6173
 2237SOL    HW218345   2.265   3.333  15.529 -0.3574  1.2593  0.6617
 2238SOL     OW18346   0.092   3.000  13.686  0.0778 -0.0952 -0.1442
 2238SOL    HW118347   0.007   3.009  13.642  0.4294  0.4872 -0.7012
 2238SOL    HW218348   0.128   3.088  13.675 -0.4406 -0.0011 -1.1278
 2239SOL     OW18349   4.712   2.590  15.275 -0.0525  0.0520 -0.0873
 2239SOL    HW118350   0.012   2.676  15.300 -1.0917  0.2371  0.7538
 2239SOL    HW218351   4.665   2.610  15.194  0.2466  0.0716 -0.2545
 2240SOL     OW18352   0.929   4.305   7.419 -0.4572  0.6898 -0.2647
 2240SOL    HW118353   0.965   4.219   7.439  0.7406  0.7678 -2.0671
 2240SOL    HW218354   0.892   4.281   7.334 -0.6774  0.9312 -0.2372
 2241SOL     OW18355   3.493   0.277   4.274  0.1177 -0.1081  0.2817
 2241SOL    HW118356   3.563   0.342   4.270 -1.6478  1.7446 -0.4099
 2241SOL    HW218357   3.480   0.259   4.368  0.4090  0.5557  0.4421
 2242SOL     OW18358   4.398   4.636   8.909 -0.5642 -0.4311  0.5390
 2242SOL    HW118359   4.485   4.601   8.889 -1.4890 -2.3347 -0.1168
 2242SOL    HW218360   4.354   4.613   8.827  1.2887 -0.6424 -0.3860
 2243SOL     OW18361   3.342   0.417  12.528 -0.0775 -0.5055 -0.0755
 2243SOL    HW118362   3.286   0.449  12.457 -2.9715  1.0061  2.8535
 2243SOL    HW218363   3.419   0.466  12.502 -0.2580 -1.0379 -1.5839
 2244SOL     OW18364   1.531   2.298  16.458 -0.4732 -0.6693  0.2951
 2244SOL    HW118365   1.457   2.259  16.413  0.1893  1.8791 -2.9662
 2244SOL    HW218366   1.590   2.316  16.385 -0.9689 -0.2547 -0.0037
 2245SOL     OW18367   1.043   2.992  16.331  0.6329 -0.0187 -0.2388
 2245SOL    HW118368   1.106   2.963  16.397 -1.5978 -1.1032  1.3981
 2245SOL    HW218369   1.087   3.069  16.294  0.0572  1.2010  1.6079
 2246SOL     OW18370   1.436   0.545  16.022  0.1404  0.1609 -0.0185
 2246SOL    HW118371   1.404   0.471  16.073 -0.3203 -0.6542 -1.4701
 2246SOL    HW218372   1.399   0.510  15.941 -0.1228 -0.1693  0.2474
 2247SOL     OW18373   2.505   0.550   2.129 -0.8091 -0.1275  0.0063
 2247SOL    HW118374   2.458   0.469   2.107 -0.3966 -0.5325  0.6102
 2247SOL    HW218375   2.498   0.567   2.223 -0.5610 -0.5652  0.1075
 2248SOL     OW18376   1.920   3.670   7.118 -0.2302 -0.0945  0.0386
 2248SOL    HW118377   1.957   3.676   7.206 -2.3568 -0.8289  0.9821
 2248SOL    HW218378   1.903   3.576   7.103 -1.5903  0.0055  0.9909
 2249SOL     OW18379   0.105   1.780  15.741  0.2096  0.3947 -0.0489
 2249SOL    HW118380   0.134   1.755  15.829  3.2662  0.5574 -0.9835
 2249SOL    HW218381   0.036   1.842  15.763 -0.2574 -0.7129  1.5548
 2250SOL     OW18382   4.133   2.623   5.700 -0.0910  0.3773 -0.5777
 2250SOL    HW118383   4.185   2.692   5.741  0.5517 -0.6385  0.3283
 2250SOL    HW218384   4.196   2.551   5.699  0.9268  1.2266  3.3287
 2251SOL     OW18385   3.967   2.243   7.651  0.1291  0.0871 -0.1462
 2251SOL    HW118386   4.038   2.214   7.592  0.7020  0.1199  0.5276
 2251SOL    HW218387   3.961   2.176   7.719  1.7894 -0.4141 -0.4769
 2252SOL     OW18388   2.001   4.209  11.171 -0.1772  0.4129 -0.6452
 2252SOL    HW118389   2.084   4.163  11.161 -1.0713 -1.5913  1.1040
 2252SOL    HW218390   1.934   4.140  11.162  1.8131 -1.2935 -2.4706
 2253SOL     OW18391   2.056   1.910   6.025 -0.3731  0.7868 -0.2266
 2253SOL    HW118392   2.100   1.852   6.087  0.1053  0.3542 -0.9742
 2253SOL    HW218393   1.964   1.882   6.025  0.4277 -1.8166  1.9492
 2254SOL     OW18394   3.797   0.022   3.384  0.5311  0.5979 -0.4413
 2254SOL    HW118395   3.753   0.095   3.428  3.5608  1.0894  1.7660
 2254SOL    HW218396   3.881   0.026   3.429  2.1947 -2.6705 -3.2730
 2255SOL     OW18397   3.937   2.913  17.086 -0.0502 -0.3265 -0.1754
 2255SOL    HW118398   3.993   2.985  17.115 -1.3695  1.0408 -1.0231
 2255SOL    HW218399   3.959   2.848  17.154 -0.6554 -1.4303 -1.0233
 2256SOL     OW18400   4.275   4.152   6.151  0.2175 -0.1675 -0.3075
 2256SOL    HW118401   4.273   4.085   6.083 -0.2478  1.2151 -1.6602
 2256SOL    HW218402   4.368   4.161   6.171  0.4221  1.5891 -2.1197
 2257SOL     OW18403   3.914   0.355   3.306  0.3721  0.0731  0.5682
 2257SOL    HW118404   3.916   0.430   3.247  3.8541  0.3534  1.0323
 2257SOL    HW218405   3.849   0.376   3.373 -1.6839 -0.4329 -1.2310
 2258SOL     OW18406   1.175   2.374   6.929  0.2847  0.1277 -0.2256
 2258SOL    HW118407   1.147   2.346   6.841  0.6166 -1.0924  0.0603
 2258SOL    HW218408   1.215   2.292   6.955 -0.3027 -0.2692 -0.5770
 2259SOL     OW18409   3.124   3.849   6.961 -0.7688 -0.2570 -0.9001
 2259SOL    HW118410   3.117   3.861   6.867  0.3037  0.1138 -0.9298
 2259SOL    HW218411   3.200   3.791   6.962 -0.4291  0.2067  0.1645
 2260SOL     OW18412   2.009   4.504   4.965 -0.1983 -0.1429  1.0058
 2260SOL    HW118413   1.935   4.465   5.011 -1.5611  0.2511 -0.9025
 2260SOL    HW218414   2.057   4.425   4.939 -3.1623 -0.4784 -3.4335
 2261SOL     OW18415   2.862   1.012   0.502 -0.0950 -0.5424 -0.2924
 2261SOL    HW118416   2.854   0.997   0.596 -1.7571 -3.2773 -0.8633
 2261SOL    HW218417   2.772   1.009   0.470 -0.8800  0.6656  1.7965
 2262SOL     OW18418   3.970   0.706   6.870 -1.0182 -0.2352 -0.4143
 2262SOL    HW118419   4.055   0.695   6.912  0.3834 -0.2413 -3.2825
 2262SOL    HW218420   3.986   0.784   6.817  0.5768 -0.5290 -0.3499
 2263SOL     OW18421   1.350   4.591  12.950 -0.0659 -0.0400  0.3854
 2263SOL    HW118422   1.410   4.551  12.887  0.0678  0.1668  0.3805
 2263SOL    HW218423   1.406   4.599  13.027  0.8846 -1.2114 -0.1871
 2264SOL     OW18424   4.084   1.706  15.446  0.0165  0.2810 -0.0758
 2264SOL    HW118425   4.076   1.706  15.351 -0.2817  1.2655 -0.0480
 2264SOL    HW218426   4.038   1.627  15.472  0.2384  0.2856  0.3281
 2265SOL     OW18427   3.272   1.086  12.684  0.0528  0.2004 -0.2264
 2265SOL    HW118428   3.277   0.991  12.686 -0.5051  0.1595 -0.7484
 2265SOL    HW218429   3.286   1.106  12.592 -2.0222 -0.3565 -0.6685
 2266SOL     OW18430   1.888   2.076  14.560  0.2539  0.1956  0.3048
 2266SOL    HW118431   1.856   2.075  14.650 -1.5753 -0.8300 -0.3477
 2266SOL    HW218432   1.929   2.162  14.557 -0.8425  0.6891 -0.7354
 2267SOL     OW18433   4.734   4.307   4.053  0.3846  0.1900  0.1701
 2267SOL    HW118434   4.685   4.314   4.135 -0.6462  1.5105 -0.5605
 2267SOL    HW218435   4.670   4.313   3.981 -0.1849  1.3473  0.7850
 2268SOL     OW18436   3.148   3.042   8.339  0.1811 -0.0077 -0.6596
 2268SOL    HW118437   3.155   2.949   8.360 -2.2158 -0.5534 -2.2184
 2268SOL    HW218438   3.146   3.033   8.244 -2.1681 -1.1628 -0.5114
 2269SOL     OW18439   3.491   4.532   4.457 -0.1694  0.1765 -0.6363
 2269SOL    HW118440   3.524   4.597   4.395  0.0381  0.9326  0.2512
 2269SOL    HW218441   3.412   4.512   4.408 -0.2070  1.3122 -1.0477
 2270SOL     OW18442   1.505   0.102   5.934 -0.0387  0.4904 -0.0388
 2270SOL    HW118443   1.573   0.034   5.939  0.8902  1.4580  0.6301
 2270SOL    HW218444   1.453   0.079   6.010 -2.0771 -0.0535 -1.6071
 2271SOL     OW18445   2.891   1.606  16.348  0.3955 -0.1386 -0.0676
 2271SOL    HW118446   2.909   1.698  16.328 -2.4414  0.4246 -0.1005
 2271SOL    HW218447   2.973   1.569  16.318 -0.9178 -0.0098 -3.7673
 2272SOL     OW18448   4.692   1.335   9.435 -0.0532 -0.2820  0.9743
 2272SOL    HW118449   4.668   1.358   9.524  1.3377  1.8570  0.7965
 2272SOL    HW218450   4.697   1.239   9.444  3.5872 -0.3382 -1.4419
 2273SOL     OW18451   1.723   3.374   2.005  0.1179 -0.1166 -0.1261
 2273SOL    HW118452   1.751   3.300   1.951 -0.7965 -0.0535 -0.6791
 2273SOL    HW218453   1.638   3.390   1.965 -0.0059 -0.3538  0.0441
 2274SOL     OW18454   2.932   1.788   9.026 -0.1792 -0.3892  0.5258
 2274SOL    HW118455   2.880   1.811   8.949  3.1403 -0.3867 -1.6873
 2274SOL    HW218456   2.909   1.864   9.080  0.4993  0.7390 -0.7736
 2275SOL     OW18457   0.248   3.639   4.967 -0.4717 -0.4782  0.1997
 2275SOL    HW118458   0.316   3.572   4.957  1.8785  2.4863 -3.5394
 2275SOL    HW218459   0.212   3.615   5.053 -0.8967 -0.5322  0.0083
 2276SOL     OW18460   0.486   4.590   2.177 -0.2977  0.3864 -0.1701
 2276SOL    HW118461   0.402   4.558   2.209  1.0415 -0.6241  2.3351
 2276SOL    HW218462   0.502   4.524   2.110 -0.3466  1.0397 -0.8339
 2277SOL     OW18463   4.109   0.152   5.543 -0.2981 -0.2642  0.2357
 2277SOL    HW118464   4.124   0.245   5.529 -1.7785 -0.0399  0.0934
 2277SOL    HW218465   4.195   0.118   5.568  0.6493  0.6891 -1.7669
 2278SOL     OW18466   0.783   1.383   5.731  0.5801  0.5096  0.5180
 2278SOL    HW118467   0.759   1.320   5.799 -2.6799  2.0046  0.7322
 2278SOL    HW218468   0.771   1.325   5.655 -2.5529  0.2454  1.2057
 2279SOL     OW18469   4.408   0.302   3.811 -0.0748 -0.2843 -0.1082
 2279SOL    HW118470   4.400   0.393   3.782  0.2023  0.5822  2.5551
 2279SOL    HW218471   4.329   0.266   3.770 -1.0691  1.0318  0.6470
 2280SOL     OW18472   2.138   2.951   9.318 -0.5669  0.6797 -0.7091
 2280SOL    HW118473   2.145   2.967   9.412 -3.0910 -1.2048 -0.2028
 2280SOL    HW218474   2.044   2.939   9.304 -0.7079  1.3076 -0.2784
 2281SOL     OW18475   3.983   1.957   5.312 -0.0421 -0.2002 -0.4689
 2281SOL    HW118476   4.045   1.973   5.241 -1.1775  0.9442 -1.2018
 2281SOL    HW218477   3.905   1.985   5.263 -0.3519 -0.0769  0.0944
 2282SOL     OW18478   2.768   4.217   6.796 -0.2425  0.0782  0.3329
 2282SOL    HW118479   2.844   4.188   6.745 -0.6511 -0.8416  0.2459
 2282SOL    HW218480   2.762   4.309   6.774 -3.7441 -0.3347 -0.3677
 2283SOL     OW18481   1.228   1.167   2.197 -0.1781 -0.4068 -0.9282
 2283SOL    HW118482   1.214   1.261   2.190  0.9114 -0.0740  1.5805
 2283SOL    HW218483   1.269   1.156   2.282  1.3010  0.3127 -1.5563
 2284SOL     OW18484   1.165   0.619  14.094 -0.2007 -0.0705  0.2619
 2284SOL    HW118485   1.095   0.669  14.136  1.5061  2.1476  0.5149
 2284SOL    HW218486   1.219   0.611  14.173 -1.0310 -0.4549  0.7841
 2285SOL     OW18487   3.050   0.107   2.423 -0.6329 -0.0488  0.0645
 2285SOL    HW118488   2.996   0.185   2.433  1.2285  1.5277 -1.9636
 2285SOL    HW218489   3.004   0.062   2.352  1.1031 -0.2275 -0.9571
 2286SOL     OW18490   1.280   1.085   5.833 -0.2419 -0.4186  0.8679
 2286SOL    HW118491   1.321   1.000   5.821  0.8811  0.3006 -0.4377
 2286SOL    HW218492   1.355   1.137   5.864 -0.4674  1.0450 -1.0206
 2287SOL     OW18493   0.598   1.601   6.166 -0.4764 -0.0159 -0.2647
 2287SOL    HW118494   0.582   1.673   6.226  1.8168 -0.7290  1.2100
 2287SOL    HW218495   0.570   1.627   6.079 -1.9569  0.6128  0.4071
 2288SOL     OW18496   3.964   2.963   3.700  0.1359  0.2801  0.4372
 2288SOL    HW118497   3.885   2.911   3.711 -1.8281  2.7221 -1.8914
 2288SOL    HW218498   3.911   3.032   3.660  1.9157  1.2351 -0.2908
 2289SOL     OW18499   3.975   1.182   9.422  0.0090  0.2797 -0.2315
 2289SOL    HW118500   3.993   1.094   9.455 -2.3165 -0.9889 -2.2470
 2289SOL    HW218501   3.943   1.173   9.331  1.2557  0.5975 -0.6954
 2290SOL     OW18502   3.761   1.809   6.561 -0.3641 -0.0550  0.0459
 2290SOL    HW118503   3.794   1.865   6.491 -0.5521 -0.3150 -0.2514
 2290SOL    HW218504   3.759   1.730   6.506  1.0135  1.1007 -1.6673
 2291SOL     OW18505   1.405   1.899   7.738 -0.2741 -0.3293 -0.5681
 2291SOL    HW118506   1.352   1.823   7.765  1.1306 -0.0510  2.9911
 2291SOL    HW218507   1.453   1.913   7.819 -2.3425  1.4385  0.3311
 2292SOL     OW18508   3.538   2.237   5.166  0.4948 -0.1034 -0.2048
 2292SOL    HW118509   3.549   2.321   5.211 -0.6049 -0.9383  1.5934
 2292SOL    HW218510   3.477   2.189   5.222 -0.0520  3.7513  2.4818
 2293SOL     OW18511   1.898   0.268   3.819  0.0803 -0.3954 -0.2418
 2293SOL    HW118512   1.909   0.332   3.890  3.3789 -1.7313  0.4230
 2293SOL    HW218513   1.897   0.191   3.875 -0.8504  0.4795  0.9665
 2294SOL     OW18514   1.116   1.426  11.759 -0.1208 -0.0288  0.8247
 2294SOL    HW118515   1.022   1.430  11.776 -0.0608 -0.5019  1.2570
 2294SOL    HW218516   1.155   1.514  11.756  0.7286 -0.4369  0.1361
 2295SOL     OW18517   3.642   3.261  11.795  0.0397  0.6232 -0.4910
 2295SOL    HW118518   3.678   3.250  11.707  0.8740  1.2878 -0.2262
 2295SOL    HW218519   3.668   3.350  11.820  0.1669  0.7025 -0.9075
 2296SOL     OW18520   2.303   4.365  11.369 -0.4548 -0.0638 -0.3084
 2296SOL    HW118521   2.398   4.363  11.383 -1.1599  0.2161  4.2262
 2296SOL    HW218522   2.257   4.336  11.447  0.3144 -1.1659 -0.2764
 2297SOL     OW18523   4.712   2.915   4.490  0.2248 -0.4348 -0.6884
 2297SOL    HW118524   4.654   2.985   4.461  1.2160  0.3981 -0.6634
 2297SOL    HW218525   0.024   2.964   4.557 -1.3381 -2.6312  2.0655
 2298SOL     OW18526   2.165   0.377   9.033  0.0515 -0.2101  0.2317
 2298SOL    HW118527   2.249   0.347   8.997 -0.9405 -1.1832 -1.3139
 2298SOL    HW218528   2.133   0.296   9.073 -2.3311  1.7672  2.2363
 2299SOL     OW18529   3.779   3.591   5.809  0.2908 -0.0251 -0.0563
 2299SOL    HW118530   3.739   3.584   5.722  0.4038 -0.7041 -0.0573
 2299SOL    HW218531   3.867   3.558   5.791 -0.9739 -2.6681 -1.4222
 2300SOL     OW18532   2.478   4.664   3.121  0.2254 -0.4191 -0.6595
 2300SOL    HW118533   2.538   4.702   3.057 -0.5906  0.0897 -1.1117
 2300SOL    HW218534   2.433   4.601   3.064 -1.9289  1.2566 -0.7821
 2301SOL     OW18535   2.321   3.611   3.743 -0.4370 -0.0632  0.4276
 2301SOL    HW118536   2.365   3.555   3.806  0.5658  0.6321  0.3477
 2301SOL    HW218537   2.229   3.583   3.738 -0.9057  1.7533 -1.1395
 2302SOL     OW18538   0.505   1.587  14.682  0.5752  0.7510  0.4380
 2302SOL    HW118539   0.444   1.632  14.740  0.4932 -0.2419  1.1355
 2302SOL    HW218540   0.472   1.497  14.694  0.7063  0.3540 -2.1068
 2303SOL     OW18541   3.153   2.621   2.034  0.2458 -0.1083  0.5021
 2303SOL    HW118542   3.158   2.615   1.938  0.8643  0.2550  0.5105
 2303SOL    HW218543   3.234   2.663   2.064 -0.8922  2.6347 -0.2800
 2304SOL     OW18544   4.181   4.072   8.917  0.8808  0.0481  0.0611
 2304SOL    HW118545   4.149   4.116   8.995  2.1981  0.0664  0.5944
 2304SOL    HW218546   4.274   4.095   8.922  0.9493 -0.0988 -0.4991
 2305SOL     OW18547   0.483   3.697  16.048  0.2226  0.0844 -0.0064
 2305SOL    HW118548   0.405   3.703  16.102 -1.0307 -0.3940 -1.7685
 2305SOL    HW218549   0.447   3.701  15.959 -2.3717 -0.4300  1.0489
 2306SOL     OW18550   2.819   3.171   4.355  0.3425 -0.5756  0.0514
 2306SOL    HW118551   2.775   3.144   4.275  0.4145  0.0259 -0.1924
 2306SOL    HW218552   2.836   3.262   4.331 -0.4517 -0.5159 -0.2935
 2307SOL     OW18553   2.430   0.341   4.485 -0.2898 -0.3746  0.1738
 2307SOL    HW118554   2.490   0.374   4.418 -1.8682  1.6220 -0.2344
 2307SOL    HW218555   2.415   0.256   4.442  0.0075 -0.2590 -0.1612
 2308SOL     OW18556   1.227   0.971  17.720 -0.1099 -0.2152 -0.9113
 2308SOL    HW118557   1.225   0.910  17.646 -2.5690 -0.6950 -0.4492
 2308SOL    HW218558   1.301   0.933   0.028  0.3145 -0.1926 -1.5643
 2309SOL     OW18559   3.986   4.258   1.647  0.1680 -0.1976 -0.3599
 2309SOL    HW118560   4.019   4.215   1.726  0.7787  0.7779 -0.0776
 2309SOL    HW218561   4.005   4.349   1.671 -0.7084 -0.5727  1.7999
 2310SOL     OW18562   4.496   1.630   5.110 -0.4288  0.3606  0.3629
 2310SOL    HW118563   4.423   1.584   5.068 -0.2114 -0.6183  1.0579
 2310SOL    HW218564   4.558   1.634   5.037 -0.0537  0.3602  0.6809
 2311SOL     OW18565   3.638   0.613   8.909  0.1648 -0.4006 -0.5744
 2311SOL    HW118566   3.690   0.559   8.849 -1.4439 -2.6402  0.0054
 2311SOL    HW218567   3.561   0.559   8.928  0.4895 -0.8394 -0.4805
 2312SOL     OW18568   1.912   4.243   9.847  0.6398  0.1173  0.5087
 2312SOL    HW118569   1.860   4.210   9.774 -0.0956 -1.4701  1.7519
 2312SOL    HW218570   1.955   4.320   9.810 -0.8931  0.2732 -0.9392
 2313SOL     OW18571   0.853   4.253   4.441 -0.3688  0.0383 -0.1012
 2313SOL    HW118572   0.892   4.200   4.371 -2.2804 -0.6516 -0.6618
 2313SOL    HW218573   0.824   4.325   4.385  0.8018  0.3869 -0.2490
 2314SOL     OW18574   2.901   3.322   9.622 -0.2325  0.6163 -0.1207
 2314SOL    HW118575   2.903   3.306   9.528  2.3428  1.1862 -0.1776
 2314SOL    HW218576   2.929   3.235   9.652  2.2931  1.6771  0.6410
 2315SOL     OW18577   1.558   0.925   7.077  0.1639  0.5742  0.2722
 2315SOL    HW118578   1.586   0.873   7.001 -1.2891 -0.7148  0.6324
 2315SOL    HW218579   1.622   0.891   7.139 -1.2442 -1.5363  0.5707
 2316SOL     OW18580   1.911   3.469  15.138 -0.0275  0.4437  0.2601
 2316SOL    HW118581   2.002   3.483  15.163 -0.2326  1.9362  0.1469
 2316SOL    HW218582   1.885   3.424  15.219  3.0433  1.3783  1.7623
 2317SOL     OW18583   0.951   4.530  10.809  0.4229  0.4581  0.5631
 2317SOL    HW118584   0.937   4.525  10.714 -1.0083  1.2783  0.7461
 2317SOL    HW218585   1.040   4.566  10.813  0.0784  1.2585  0.8679
 2318SOL     OW18586   3.048   4.118   3.466  0.1188 -0.0555 -0.2599
 2318SOL    HW118587   2.979   4.123   3.532  1.6445 -3.4864  1.6153
 2318SOL    HW218588   3.011   4.099   3.379  1.8748  1.3207 -1.3122
 2319SOL     OW18589   0.987   4.177  11.336 -0.2198 -0.2669  0.5472
 2319SOL    HW118590   0.932   4.100  11.347 -2.2587  1.3615  1.9564
 2319SOL    HW218591   0.935   4.238  11.390 -1.9381 -0.6331 -0.6921
 2320SOL     OW18592   0.240   0.824   3.364 -0.0969  0.1535  0.1185
 2320SOL    HW118593   0.201   0.750   3.412 -0.2992 -0.7464 -1.4128
 2320SOL    HW218594   0.244   0.778   3.280 -0.1231  0.2923  0.0413
 2321SOL     OW18595   0.373   4.226   7.759 -0.2822  0.7127  0.0491
 2321SOL    HW118596   0.303   4.266   7.707  1.1012  0.0773 -2.2768
 2321SOL    HW218597   0.430   4.207   7.685 -2.0838 -2.1394 -0.5935
 2322SOL     OW18598   3.535   1.487  17.500  0.0090 -0.3017  0.4605
 2322SOL    HW118599   3.453   1.514  17.458  1.4783  0.7895 -1.6678
 2322SOL    HW218600   3.536   1.529  17.586 -1.1258  1.6847 -0.4962
 2323SOL     OW18601   3.525   4.608   3.704 -0.4612  0.1729 -0.0316
 2323SOL    HW118602   3.605   4.568   3.671 -0.0269  0.9058  0.1473
 2323SOL    HW218603   3.465   4.585   3.633 -0.0386 -0.2482 -0.2498
 2324SOL     OW18604   3.158   2.648   8.746 -0.6706  0.4407  0.5177
 2324SOL    HW118605   3.091   2.707   8.711  1.1583  3.4663  2.0692
 2324SOL    HW218606   3.215   2.624   8.672 -0.0514 -2.3254  1.9090
 2325SOL     OW18607   2.864   2.111   2.570  0.6506 -0.0540 -0.4713
 2325SOL    HW118608   2.887   2.181   2.509  1.4318 -2.0205 -2.4049
 2325SOL    HW218609   2.939   2.053   2.564  0.0493 -0.9288  0.4070
 2326SOL     OW18610   2.379   2.011   6.876  0.4652 -0.1067  0.0909
 2326SOL    HW118611   2.357   2.104   6.872 -0.6482 -0.5308 -3.7587
 2326SOL    HW218612   2.468   2.021   6.910  1.0883  0.5117 -1.7026
 2327SOL     OW18613   2.503   2.045   2.423 -0.9918 -0.1416  0.0689
 2327SOL    HW118614   2.417   2.072   2.457 -0.8258 -1.5051  1.5778
 2327SOL    HW218615   2.528   1.982   2.491  1.4995  1.5259  0.6871
 2328SOL     OW18616   2.054   3.717   7.358 -0.3862  0.2497  0.1283
 2328SOL    HW118617   2.144   3.705   7.326 -0.0898  2.4150  0.1374
 2328SOL    HW218618   2.050   3.639   7.412  1.5555 -0.1038 -0.2447
 2329SOL     OW18619   3.815   2.058   3.975 -0.2338  0.6108 -0.0085
 2329SOL    HW118620   3.811   2.127   4.041  1.0761  0.8516 -0.1872
 2329SOL    HW218621   3.722   2.052   3.955  0.5226 -0.9856 -3.1371
 2330SOL     OW18622   3.034   0.035   8.070  0.2796 -0.5805  0.0512
 2330SOL    HW118623   2.950   0.021   8.026 -0.4752 -0.6880  1.5339
 2330SOL    HW218624   3.078   4.692   8.036 -1.4918 -1.4729 -0.2346
 2331SOL     OW18625   0.292   3.315  15.773 -0.0299  0.0027 -0.0701
 2331SOL    HW118626   0.357   3.256  15.734 -1.1666 -1.8094  0.7886
 2331SOL    HW218627   0.359   3.382  15.789 -0.0479  0.2606 -1.0667
 2332SOL     OW18628   4.047   4.415   2.614  0.2641 -0.1597 -0.0112
 2332SOL    HW118629   4.073   4.365   2.536 -0.3185 -2.0014  0.9714
 2332SOL    HW218630   3.964   4.372   2.635 -1.7753  2.3953 -2.8147
 2333SOL     OW18631   2.677   4.000   2.062  0.1991 -0.0803  0.1371
 2333SOL    HW118632   2.714   4.048   2.136  0.5575 -1.2552  0.7070
 2333SOL    HW218633   2.729   4.020   1.984 -0.3482 -1.1530 -0.4940
 2334SOL     OW18634   4.182   1.272   4.027  0.2986  0.3891 -0.3370
 2334SOL    HW118635   4.125   1.325   3.971 -0.5426  1.1654  1.2567
 2334SOL    HW218636   4.222   1.334   4.088 -1.3025 -1.4257  2.5725
 2335SOL     OW18637   1.058   3.396  10.119 -0.2990  0.2379  0.1106
 2335SOL    HW118638   1.072   3.485  10.088  1.0347  0.0237  0.0658
 2335SOL    HW218639   1.083   3.404  10.211  0.3256 -0.6432  0.0251
 2336SOL     OW18640   0.429   2.022  10.907 -0.0929 -0.1666  0.5817
 2336SOL    HW118641   0.444   1.928  10.898 -1.1412 -0.1624 -1.3198
 2336SOL    HW218642   0.364   2.026  10.977  0.2213  2.8589  0.6750
 2337SOL     OW18643   4.307   3.526   9.623 -0.1039  0.6645  0.2045
 2337SOL    HW118644   4.359   3.460   9.667 -0.2827  0.4440  0.0879
 2337SOL    HW218645   4.222   3.481   9.617 -0.4059  1.3345 -0.5997
 2338SOL     OW18646   3.022   4.418   2.050 -0.5126 -0.1610  0.4094
 2338SOL    HW118647   3.094   4.423   1.986  0.0171 -0.8175  0.9562
 2338SOL    HW218648   3.069   4.377   2.122 -0.3627  0.2209  0.5298
 2339SOL     OW18649   1.386   1.998   8.760 -0.2441 -0.4104 -0.7608
 2339SOL    HW118650   1.354   2.088   8.757  1.9765  0.3816 -0.5806
 2339SOL    HW218651   1.448   2.007   8.832 -0.2383 -1.1789 -0.6718
 2340SOL     OW18652   1.614   0.372  14.035 -0.0005 -0.2871 -0.2731
 2340SOL    HW118653   1.697   0.372  13.987  0.3419  1.9635  0.3200
 2340SOL    HW218654   1.553   0.412  13.974 -1.0516  0.4672  1.2803
 2341SOL     OW18655   0.778   4.549  11.043  0.1727 -0.8369  0.0630
 2341SOL    HW118656   0.839   4.522  10.975  2.3203  0.1966  1.5959
 2341SOL    HW218657   0.761   4.466  11.088 -0.4795 -2.0587 -2.4442
 2342SOL     OW18658   2.492   0.202   6.891 -0.0291  0.2589 -0.1595
 2342SOL    HW118659   2.516   0.239   6.976 -2.1263  0.2451  0.4500
 2342SOL    HW218660   2.418   0.147   6.917 -0.9290  1.8985  0.7381
 2343SOL     OW18661   0.901   4.103   2.783  0.4092  0.3218  0.0330
 2343SOL    HW118662   0.806   4.115   2.778  0.2820  0.1299  1.8325
 2343SOL    HW218663   0.932   4.156   2.709  2.5817  1.0799  1.4698
 2344SOL     OW18664   3.414   4.453   8.048 -0.1953 -0.6047  0.6652
 2344SOL    HW118665   3.463   4.487   8.122 -0.2803  1.3599 -0.1893
 2344SOL    HW218666   3.469   4.481   7.975 -2.6108  0.2978 -0.7991
 2345SOL     OW18667   1.246   2.146  16.672  0.2863  0.3893 -0.5393
 2345SOL    HW118668   1.248   2.141  16.577  0.4599 -2.6231 -0.3679
 2345SOL    HW218669   1.334   2.171  16.698  0.5771 -0.6513 -0.5582
 2346SOL     OW18670   2.510   0.859   5.108 -0.1492 -0.4009  0.0592
 2346SOL    HW118671   2.447   0.801   5.151 -1.1263 -1.2640 -2.5381
 2346SOL    HW218672   2.521   0.804   5.030 -0.5199  0.2043 -0.4192
 2347SOL     OW18673   4.151   1.098  12.479 -0.1333 -0.4709  0.4573
 2347SOL    HW118674   4.135   1.096  12.573 -0.4394 -2.8237  0.3414
 2347SOL    HW218675   4.228   1.153  12.464 -0.6372  0.0029 -0.4053
 2348SOL     OW18676   4.352   2.612   8.208 -0.5499  0.4413  0.8258
 2348SOL    HW118677   4.435   2.604   8.160 -1.2553  0.6646 -0.4396
 2348SOL    HW218678   4.340   2.519   8.224  0.8490  0.0847 -0.2191
 2349SOL     OW18679   2.657   1.121   6.534 -0.4263 -0.1599  0.8836
 2349SOL    HW118680   2.570   1.087   6.557 -0.7689  0.2298  0.1277
 2349SOL    HW218681   2.633   1.199   6.485 -0.4590 -1.1526 -0.6778
 2350SOL     OW18682   2.338   2.058   5.678  0.2482  0.2709 -0.5206
 2350SOL    HW118683   2.344   2.076   5.772 -0.2673  0.7218 -0.5801
 2350SOL    HW218684   2.270   2.117   5.646  0.3571  1.4476  1.4206
 2351SOL     OW18685   0.094   1.278   6.934  0.0052  0.7155  0.4560
 2351SOL    HW118686   0.148   1.209   6.974  1.2828  1.2878 -0.3051
 2351SOL    HW218687   0.164   1.332   6.898  1.0096 -0.1075  1.1479
 2352SOL     OW18688   0.123   1.715  15.374  0.0578 -0.2622 -0.1647
 2352SOL    HW118689   0.101   1.759  15.292 -1.0143 -0.0339  0.2476
 2352SOL    HW218690   0.171   1.786  15.417 -0.6969  1.1319 -1.6484
 2353SOL     OW18691   4.028   2.995   7.438 -0.2283 -0.2998  0.3128
 2353SOL    HW118692   4.002   3.070   7.493 -0.8726 -0.5646  0.3767
 2353SOL    HW218693   4.074   2.935   7.496 -0.1878 -0.4041  0.1713
 2354SOL     OW18694   1.050   1.230   8.063  0.1842 -0.0732  0.2796
 2354SOL    HW118695   0.977   1.196   8.114 -0.5855  0.8711 -0.1903
 2354SOL    HW218696   1.065   1.314   8.106  2.5360 -1.4162  2.0828
 2355SOL     OW18697   0.905   4.205   8.905 -0.2303 -0.0382 -0.5565
 2355SOL    HW118698   0.909   4.280   8.845  1.2994  0.4809  0.1676
 2355SOL    HW218699   0.889   4.248   8.989 -0.8240 -1.1786 -0.0932
 2356SOL     OW18700   1.315   2.544   8.709 -0.1164  0.2922  0.3294
 2356SOL    HW118701   1.368   2.618   8.738 -2.2895  1.1641  2.1484
 2356SOL    HW218702   1.227   2.567   8.739  0.5449  0.3514  2.2504
 2357SOL     OW18703   3.817   0.820  10.918  0.3421 -0.6436  0.1490
 2357SOL    HW118704   3.787   0.852  11.003 -0.4723  1.0088 -0.7455
 2357SOL    HW218705   3.783   0.885  10.856 -1.0313 -0.3230  1.2419
 2358SOL     OW18706   3.368   0.026   0.534 -0.1022  0.3443 -0.8468
 2358SOL    HW118707   3.374   0.120   0.552  1.4748  0.2463 -0.8520
 2358SOL    HW218708   3.411   0.039   0.450  2.6862 -0.4009  0.4504
 2359SOL     OW18709   4.629   3.099  10.137  0.3329 -0.0112  0.1228
 2359SOL    HW118710   4.656   3.189  10.157 -0.9778  0.4602 -0.2242
 2359SOL    HW218711   4.607   3.061  10.222  0.8966  1.7084  1.0379
 2360SOL     OW18712   3.355   4.230   5.104 -0.3838 -0.1274 -0.2336
 2360SOL    HW118713   3.294   4.203   5.172 -2.0508  2.1266 -0.8299
 2360SOL    HW218714   3.398   4.307   5.142  3.3263 -1.4261 -1.8528
 2361SOL     OW18715   2.504   2.569   5.600 -0.5428  0.1563  0.2852
 2361SOL    HW118716   2.475   2.509   5.533 -2.8406  1.6943 -0.0973
 2361SOL    HW218717   2.446   2.644   5.587 -0.5955 -0.1122 -0.9648
 2362SOL     OW18718   1.247   4.627   9.914 -0.6242 -0.1088  0.3077
 2362SOL    HW118719   1.279   4.707   9.957 -0.6221  0.9736 -1.7480
 2362SOL    HW218720   1.291   4.557   9.963  0.7132 -0.4754 -1.4309
 2363SOL     OW18721   0.592   4.537   0.442 -0.1246 -0.4329 -0.7873
 2363SOL    HW118722   0.686   4.542   0.426 -0.0833  0.2608 -0.3385
 2363SOL    HW218723   0.560   4.613   0.392  1.2186  0.2664 -0.5678
 2364SOL     OW18724   4.050   0.051  15.919  0.1801 -0.1268 -0.4343
 2364SOL    HW118725   4.131   0.047  15.968 -0.2339 -2.7763  0.0225
 2364SOL    HW218726   4.088   0.053  15.831  2.1215  0.3393  0.4315
 2365SOL     OW18727   0.468   2.036   5.465 -0.4379  0.1023 -0.5253
 2365SOL    HW118728   0.523   2.054   5.541  1.7804 -3.8515 -1.2106
 2365SOL    HW218729   0.499   1.948   5.446 -0.2630 -0.0497  0.4549
 2366SOL     OW18730   3.651   4.111   4.822 -0.1843 -0.0039 -0.2785
 2366SOL    HW118731   3.721   4.045   4.827  0.6761  1.0312  1.2843
 2366SOL    HW218732   3.569   4.064   4.836  1.0782 -1.2875  2.8127
 2367SOL     OW18733   2.551   1.371   2.810 -0.0755  0.3743  0.4007
 2367SOL    HW118734   2.484   1.375   2.741  0.1195 -0.4430  0.1645
 2367SOL    HW218735   2.579   1.281   2.793  1.5687  0.9699 -0.0047
 2368SOL     OW18736   1.425   2.091   6.616 -0.3875 -0.0361 -0.1623
 2368SOL    HW118737   1.376   2.110   6.536  0.8268 -0.3758 -0.9899
 2368SOL    HW218738   1.486   2.022   6.590 -0.7138 -0.3483 -0.1034
 2369SOL     OW18739   2.917   1.011   9.409 -0.3084 -0.5776  0.0191
 2369SOL    HW118740   2.862   0.942   9.374 -0.1639 -1.6593  1.9475
 2369SOL    HW218741   2.967   1.034   9.331 -0.3164  1.8848  0.7374
 2370SOL     OW18742   1.766   0.202   2.526  0.0974 -0.1782  0.0655
 2370SOL    HW118743   1.748   0.271   2.461  0.6411  1.6766  1.8701
 2370SOL    HW218744   1.854   0.182   2.495 -0.8111 -0.9612 -2.0158
 2371SOL     OW18745   3.213   2.774   7.848  0.4788 -0.3238 -0.0307
 2371SOL    HW118746   3.290   2.757   7.903 -0.5249  0.5022  1.6187
 2371SOL    HW218747   3.241   2.728   7.769  0.7734 -0.0851 -0.0682
 2372SOL     OW18748   1.776   3.140  10.203 -0.4278  0.1094 -0.2600
 2372SOL    HW118749   1.836   3.074  10.237 -0.9328 -0.6681 -0.8906
 2372SOL    HW218750   1.788   3.215  10.262  1.3951  1.4204 -2.2670
 2373SOL     OW18751   0.747   1.212  14.958  0.3866  0.2154  0.2902
 2373SOL    HW118752   0.730   1.244  14.870  0.4898 -1.2956 -0.2855
 2373SOL    HW218753   0.819   1.151  14.945  0.3777  0.5079 -1.0938
 2374SOL     OW18754   0.899   1.664   3.793  0.1811 -0.5524 -0.5744
 2374SOL    HW118755   0.884   1.717   3.871  1.1483  0.0764 -0.8091
 2374SOL    HW218756   0.837   1.710   3.736  1.5072  1.6566 -0.2440
 2375SOL     OW18757   2.736   0.515  11.833  0.0298  0.0505 -0.0020
 2375SOL    HW118758   2.642   0.532  11.828 -0.0011 -0.5410 -1.7159
 2375SOL    HW218759   2.755   0.524  11.926  0.0671  3.5045 -0.3227
 2376SOL     OW18760   3.863   3.465   1.849  0.1301 -0.4715  0.7254
 2376SOL    HW118761   3.931   3.402   1.825 -0.4754 -0.0824 -2.1190
 2376SOL    HW218762   3.851   3.438   1.940 -1.6207 -0.3787  0.5229
 2377SOL     OW18763   0.132   1.152   3.446  0.2103 -0.7497  0.0843
 2377SOL    HW118764   0.089   1.221   3.497  0.3297 -2.4273  2.4379
 2377SOL    HW218765   0.098   1.166   3.358  1.0349 -1.6851 -0.3778
 2378SOL     OW18766   0.691   1.068  17.360 -0.1793  0.2424  0.3432
 2378SOL    HW118767   0.657   0.989  17.402  0.9770 -0.9225 -0.9099
 2378SOL    HW218768   0.643   1.083  17.279 -0.8049 -2.5584  0.2042
 2379SOL     OW18769   1.972   3.961   7.423 -0.7900  0.5494 -0.0143
 2379SOL    HW118770   2.002   3.878   7.385 -2.4944  0.1924 -0.5326
 2379SOL    HW218771   2.005   3.960   7.513  0.2623  0.5638 -0.3998
 2380SOL     OW18772   1.610   0.620   2.041 -0.1750 -0.2498  0.3483
 2380SOL    HW118773   1.558   0.557   2.091  0.3096 -0.2417  0.8717
 2380SOL    HW218774   1.554   0.696   2.028  0.3570  0.1540  0.4300
 2381SOL     OW18775   1.051   0.963  16.875 -0.4049 -0.3958  0.3330
 2381SOL    HW118776   0.979   0.973  16.936 -1.1487  2.4458 -0.9977
 2381SOL    HW218777   1.020   1.019  16.804 -1.4611  1.0981  1.9614
 2382SOL     OW18778   2.591   2.035   6.118 -0.1901 -0.0691  0.3671
 2382SOL    HW118779   2.659   2.048   6.051 -0.3462  0.6719  0.3587
 2382SOL    HW218780   2.513   2.078   6.083  1.0128  1.9336  0.1559
 2383SOL     OW18781   4.036   0.803   4.843 -0.3529  0.0490 -0.1795
 2383SOL    HW118782   4.062   0.894   4.862 -0.7204  0.0676  0.2446
 2383SOL    HW218783   4.124   0.772   4.822 -0.4123  0.2733 -0.7602
 2384SOL     OW18784   2.179   3.736   6.603  0.0597  0.5266 -0.2464
 2384SOL    HW118785   2.107   3.673   6.599 -0.4765  1.2647 -2.2153
 2384SOL    HW218786   2.232   3.704   6.530 -0.7571  0.7092 -0.9238
 2385SOL     OW18787   4.388   1.030   6.759  0.7825 -0.8321  0.2796
 2385SOL    HW118788   4.357   1.090   6.827 -0.2819 -1.3021  0.2169
 2385SOL    HW218789   4.352   1.064   6.677 -1.9485  0.1569  1.8556
 2386SOL     OW18790   1.954   4.186  17.170  0.0529  0.4760 -0.0174
 2386SOL    HW118791   1.973   4.280  17.167 -0.8222  0.6786  0.5697
 2386SOL    HW218792   1.865   4.188  17.135  1.3117  1.2306 -3.0872
 2387SOL     OW18793   3.776   0.515  16.144 -0.8163  0.0077 -0.7039
 2387SOL    HW118794   3.750   0.482  16.057 -0.1828  0.4049 -1.0442
 2387SOL    HW218795   3.752   0.608  16.141  1.3244  0.5205 -1.6169
 2388SOL     OW18796   0.899   3.445   5.649  0.2105  0.1388 -0.3639
 2388SOL    HW118797   0.887   3.488   5.564  1.5509 -1.1048 -1.1839
 2388SOL    HW218798   0.812   3.415   5.677  0.2382  0.1243 -0.2928
 2389SOL     OW18799   2.404   3.247   5.284  0.2640 -0.9755  0.2201
 2389SOL    HW118800   2.446   3.218   5.365 -1.0989 -1.0565  0.8973
 2389SOL    HW218801   2.319   3.248   5.327 -0.9711 -0.2404 -2.2425
 2390SOL     OW18802   4.572   3.311  15.628  0.1722  0.2834 -0.0421
 2390SOL    HW118803   4.641   3.319  15.694  1.5925 -0.6017 -1.4200
 2390SOL    HW218804   4.615   3.285  15.547  0.4718 -0.7278  0.4422
 2391SOL     OW18805   2.997   4.446   6.048  0.3991  0.3145  0.4874
 2391SOL    HW118806   2.912   4.478   6.020  0.8021  0.0679 -1.0297
 2391SOL    HW218807   2.985   4.361   6.091  1.6594  0.6642  1.5337
 2392SOL     OW18808   1.636   0.217   4.313 -0.0165  0.4064  0.3421
 2392SOL    HW118809   1.571   0.286   4.315 -0.6175 -0.1894  1.4303
 2392SOL    HW218810   1.591   0.148   4.264 -1.9926  1.7176  0.3169
 2393SOL     OW18811   3.372   3.408   4.751  0.1887 -0.1636 -0.2813
 2393SOL    HW118812   3.347   3.500   4.756 -0.0615 -0.2209 -0.4667
 2393SOL    HW218813   3.459   3.407   4.790 -0.2232  2.1817  0.6439
 2394SOL     OW18814   0.710   0.606  10.645  0.2530  0.4054  0.5378
 2394SOL    HW118815   0.657   0.536  10.606  0.1223  0.6795  0.2310
 2394SOL    HW218816   0.800   0.575  10.651  0.1587  0.0944  0.3413
 2395SOL     OW18817   4.143   0.968   7.701 -0.0426  0.0255  0.2814
 2395SOL    HW118818   4.122   1.058   7.676 -1.0120 -0.4615 -0.6528
 2395SOL    HW218819   4.073   0.956   7.765 -0.8232  0.8970 -0.4179
 2396SOL     OW18820   2.828   1.847   9.711 -0.6364 -0.1810  0.1780
 2396SOL    HW118821   2.863   1.758   9.716  0.4229  0.2383  0.2122
 2396SOL    HW218822   2.744   1.821   9.673  0.0195 -0.8971 -0.8064
 2397SOL     OW18823   3.346   3.843   8.163  0.5617  0.0555  0.2631
 2397SOL    HW118824   3.377   3.782   8.096  0.0762 -0.4730  0.5150
 2397SOL    HW218825   3.264   3.804   8.195  0.6026  1.0237  1.5317
 2398SOL     OW18826   2.006   3.061   5.448 -0.6880  0.1023 -0.2404
 2398SOL    HW118827   2.064   3.135   5.462 -1.2914  0.3334  0.9857
 2398SOL    HW218828   1.992   3.040   5.540  0.5380  0.4120  0.0153
 2399SOL     OW18829   3.700   3.512   4.580  0.7420  0.6956 -0.2406
 2399SOL    HW118830   3.648   3.562   4.643  0.0586  0.0529 -0.2967
 2399SOL    HW218831   3.688   3.566   4.502 -2.3458 -0.8234 -0.8210
 2400SOL     OW18832   3.635   3.966   0.825 -0.0241  0.0403 -0.0377
 2400SOL    HW118833   3.559   3.956   0.767 -0.9559 -0.4451  1.2576
 2400SOL    HW218834   3.588   3.958   0.908 -1.6219 -0.9219 -1.0366
 2401SOL     OW18835   2.287   3.103   5.896  0.3030 -0.1678 -0.6197
 2401SOL    HW118836   2.326   3.186   5.870  2.4394 -1.2221 -0.8314
 2401SOL    HW218837   2.351   3.055   5.844  0.7900 -1.1732  0.8839
 2402SOL     OW18838   2.979   0.613   6.187  0.3442  0.2858  0.0182
 2402SOL    HW118839   2.899   0.579   6.227  0.4722  0.5500  0.5096
 2402SOL    HW218840   3.002   0.679   6.253 -0.9688  1.8957 -1.1483
 2403SOL     OW18841   1.555   1.934   7.030 -0.5704  0.0327  0.3698
 2403SOL    HW118842   1.647   1.926   7.057 -0.3861 -3.0070 -1.1535
 2403SOL    HW218843   1.546   2.021   7.069  2.4062 -0.5110  2.3332
 2404SOL     OW18844   1.101   1.050   1.772 -0.0591 -0.3676  0.4918
 2404SOL    HW118845   1.160   0.975   1.762 -1.2780 -1.3940  0.9132
 2404SOL    HW218846   1.052   1.038   1.690 -0.7592 -1.2827  1.0419
 2405SOL     OW18847   2.691   1.038   5.533  0.6650  0.3978  0.2661
 2405SOL    HW118848   2.670   1.033   5.440  1.1119 -0.1986  0.1959
 2405SOL    HW218849   2.631   0.979   5.578  0.2120 -0.4214 -1.4403
 2406SOL     OW18850   4.221   2.596   3.338 -0.1511 -0.3213 -0.6883
 2406SOL    HW118851   4.294   2.584   3.278  0.4413  4.1008 -0.8605
 2406SOL    HW218852   4.158   2.546   3.285  0.6434 -0.9285 -1.0563
 2407SOL     OW18853   3.957   1.626   4.369 -0.3959  0.4371 -0.2204
 2407SOL    HW118854   3.916   1.541   4.388 -1.9740  1.4688  1.0746
 2407SOL    HW218855   3.962   1.674   4.452 -0.6633  1.4168 -0.7759
 2408SOL     OW18856   4.051   3.416   3.539  0.5560  0.0847  0.2399
 2408SOL    HW118857   4.120   3.417   3.472 -0.9791 -2.7613 -1.4286
 2408SOL    HW218858   3.983   3.477   3.511  0.4287 -0.6671 -1.1269
 2409SOL     OW18859   2.988   1.590   7.687  0.2373  0.1051  0.0156
 2409SOL    HW118860   2.959   1.499   7.695  0.6981  0.1628  2.5102
 2409SOL    HW218861   3.062   1.598   7.748 -0.1675  2.3700  0.2102
 2410SOL     OW18862   1.762   4.090   0.918 -0.0136  0.0831  0.2869
 2410SOL    HW118863   1.804   4.173   0.895 -0.5556  0.7023  1.5535
 2410SOL    HW218864   1.827   4.020   0.926 -0.2100 -0.0625  0.5987
 2411SOL     OW18865   1.612   4.566   5.526 -0.6423 -0.0484 -0.1250
 2411SOL    HW118866   1.609   4.648   5.575 -0.5384 -0.0383 -0.1356
 2411SOL    HW218867   1.690   4.522   5.561 -1.3835 -0.0254  1.5374
 2412SOL     OW18868   3.938   1.262  16.632 -0.2397 -0.2367 -0.5418
 2412SOL    HW118869   3.990   1.341  16.616  0.2458 -0.6541 -1.0486
 2412SOL    HW218870   3.884   1.279  16.709  1.3391  0.4119  0.4306
 2413SOL     OW18871   4.251   2.709   9.826  0.3568  0.0663  0.3849
 2413SOL    HW118872   4.329   2.694   9.772  0.6190 -3.8697  1.8808
 2413SOL    HW218873   4.181   2.688   9.765  2.3932 -1.7556 -1.3197
 2414SOL     OW18874   3.183   1.544   7.503  0.4918  0.3059 -0.0927
 2414SOL    HW118875   3.116   1.575   7.563  0.4635  0.7760 -0.3680
 2414SOL    HW218876   3.139   1.471   7.459  0.9291 -0.0815  0.1071
 2415SOL     OW18877   4.304   1.701   6.673  0.1556  0.3182  0.1471
 2415SOL    HW118878   4.322   1.791   6.644 -2.1422  0.1376 -1.8867
 2415SOL    HW218879   4.287   1.659   6.589  1.8719 -0.0061 -0.0211
 2416SOL     OW18880   3.352   3.577  11.097  0.0804 -0.3785  0.6466
 2416SOL    HW118881   3.395   3.523  11.163  1.7778  1.5529  1.1191
 2416SOL    HW218882   3.364   3.659  11.143  0.4717  0.4905 -0.9939
 2417SOL     OW18883   0.143   0.015   7.282 -0.6076  0.3736  0.4271
 2417SOL    HW118884   0.090   0.089   7.314  0.0008  0.8887  0.2433
 2417SOL    HW218885   0.072   4.695   7.249  0.0565  0.3320 -0.9296
 2418SOL     OW18886   4.367   1.342   9.089  0.0070 -0.0830  0.0350
 2418SOL    HW118887   4.460   1.330   9.110  0.5186  3.8179 -0.0359
 2418SOL    HW218888   4.333   1.292   9.163  0.1778  0.6266  0.5866
 2419SOL     OW18889   2.941   2.070  10.146  0.0047 -0.1585 -0.4416
 2419SOL    HW118890   2.964   1.996  10.090 -0.5543  0.2782 -1.2589
 2419SOL    HW218891   2.984   2.045  10.228 -0.8914 -2.1738 -0.5881
 2420SOL     OW18892   1.748   4.131   0.189 -0.0952  0.3367 -0.7748
 2420SOL    HW118893   1.669   4.182   0.203 -0.3954 -0.4304  0.2984
 2420SOL    HW218894   1.791   4.135   0.274 -0.1543  0.5592 -0.7557
 2421SOL     OW18895   3.545   3.188   9.376  0.4382 -0.2657 -0.2869
 2421SOL    HW118896   3.530   3.206   9.469 -1.7601  1.7986 -1.0570
 2421SOL    HW218897   3.564   3.094   9.374 -1.8780 -0.6688 -2.2669
 2422SOL     OW18898   0.070   0.798   4.599 -0.2730 -0.0206 -0.5295
 2422SOL    HW118899   0.124   0.815   4.677 -0.3527 -1.4144 -0.1557
 2422SOL    HW218900   0.089   0.706   4.580 -1.1111 -0.9990  3.2193
 2423SOL     OW18901   2.020   2.433   5.434  0.5939  0.0323  0.0361
 2423SOL    HW118902   2.086   2.497   5.460  0.3595  0.4199 -0.3179
 2423SOL    HW218903   1.977   2.414   5.518  0.2267 -1.5984 -0.5201
 2424SOL     OW18904   0.942   0.578  16.648  0.1193  0.5810  0.2975
 2424SOL    HW118905   0.945   0.489  16.682 -0.1822  0.0489 -1.0549
 2424SOL    HW218906   1.029   0.609  16.675  0.3929 -0.6079  0.7640
 2425SOL     OW18907   3.559   2.140   6.961 -0.7313 -0.3755 -0.2681
 2425SOL    HW118908   3.596   2.080   6.897  2.3859  1.2537 -0.0069
 2425SOL    HW218909   3.622   2.127   7.032  0.4895 -0.5848 -1.3902
 2426SOL     OW18910   2.624   0.920   3.459  0.6759  0.0006 -0.0895
 2426SOL    HW118911   2.708   0.933   3.503  0.6657  1.4737 -0.4969
 2426SOL    HW218912   2.614   0.825   3.456 -0.4893  0.1515 -0.8290
 2427SOL     OW18913   4.006   1.834   5.580  0.5568  0.5847 -0.4565
 2427SOL    HW118914   3.950   1.903   5.615 -0.3022 -0.3691  0.0644
 2427SOL    HW218915   4.016   1.870   5.492  1.6554 -2.2121 -1.4772
 2428SOL     OW18916   3.194   1.022   3.214 -0.5271 -0.2637  0.1558
 2428SOL    HW118917   3.100   1.026   3.234 -0.8026  0.1275 -1.2094
 2428SOL    HW218918   3.205   0.934   3.179  0.9684 -0.3688  0.9111
 2429SOL     OW18919   2.110   1.761   5.680 -0.0595  0.3232 -0.1522
 2429SOL    HW118920   2.096   1.704   5.604 -1.6356 -0.2845  0.5885
 2429SOL    HW218921   2.192   1.725   5.712 -1.0439 -1.1030  0.7621
 2430SOL     OW18922   2.744   2.839   9.694  0.2339 -0.4528  0.2432
 2430SOL    HW118923   2.839   2.845   9.693  0.3451 -2.2469  0.8295
 2430SOL    HW218924   2.730   2.835   9.600  0.8408  1.0000  0.0901
 2431SOL     OW18925   2.086   0.483   9.696  0.2147  0.5247  0.1240
 2431SOL    HW118926   2.086   0.414   9.629  1.9605  2.4061 -1.8028
 2431SOL    HW218927   2.039   0.550   9.647  1.7402  1.2638 -0.3386
 2432SOL     OW18928   2.355   2.992   0.433  0.3198 -0.5131  0.9285
 2432SOL    HW118929   2.347   2.917   0.373  1.7850 -0.1257  0.2572
 2432SOL    HW218930   2.350   3.067   0.373 -0.1865 -1.2627  0.0269
 2433SOL     OW18931   1.561   1.506   8.231 -0.5027 -0.1826  0.2422
 2433SOL    HW118932   1.628   1.457   8.278 -0.4206 -2.7048 -2.5704
 2433SOL    HW218933   1.558   1.582   8.290  2.2139  0.5691 -0.5710
 2434SOL     OW18934   2.228   3.721   8.736  0.3416 -0.3912  0.0368
 2434SOL    HW118935   2.141   3.735   8.698  0.4869 -1.1960 -0.5966
 2434SOL    HW218936   2.218   3.760   8.823 -1.0460  0.2151 -0.4119
 2435SOL     OW18937   1.236   1.502   4.593  0.7272 -0.5045 -0.4954
 2435SOL    HW118938   1.252   1.419   4.548  1.7349  0.6834 -2.3500
 2435SOL    HW218939   1.269   1.560   4.524 -0.9390  0.5081 -0.4532
 2436SOL     OW18940   1.797   1.176   4.513 -0.4267 -0.3632 -0.0216
 2436SOL    HW118941   1.746   1.099   4.488 -0.5072  0.3935 -2.2246
 2436SOL    HW218942   1.803   1.170   4.608 -1.0713 -1.5111 -0.0586
 2437SOL     OW18943   2.613   3.854  11.876  0.2681  0.1224  0.3819
 2437SOL    HW118944   2.626   3.768  11.915  0.9137 -0.0240 -0.1610
 2437SOL    HW218945   2.688   3.905  11.907  0.8846 -1.7388  1.9570
 2438SOL     OW18946   1.179   1.456   2.810  0.0176 -0.1454 -0.3600
 2438SOL    HW118947   1.103   1.398   2.809 -0.9982  1.1725  0.2613
 2438SOL    HW218948   1.239   1.407   2.753  1.5108 -0.4614  1.4907
 2439SOL     OW18949   4.551   2.063   4.972  0.4675 -0.3299  0.3589
 2439SOL    HW118950   4.575   2.042   5.062  0.2589 -1.5162  0.1383
 2439SOL    HW218951   4.468   2.109   4.984 -0.1001 -1.4403  0.6661
 2440SOL     OW18952   2.237   0.234  16.651 -0.9012 -0.7690  0.1088
 2440SOL    HW118953   2.271   0.254  16.564  1.1411 -0.9155  0.8762
 2440SOL    HW218954   2.185   0.315  16.656  0.1288 -0.1993  1.9377
 2441SOL     OW18955   4.526   0.804  10.213 -0.0784  0.0886  0.2599
 2441SOL    HW118956   4.571   0.769  10.137  0.4535  0.6287  0.3284
 2441SOL    HW218957   4.523   0.893  10.178 -2.3436 -0.6720 -1.5558
 2442SOL     OW18958   2.389   1.524   7.137 -0.0041  0.5770  0.1635
 2442SOL    HW118959   2.349   1.568   7.212 -2.0367  0.2520 -0.7390
 2442SOL    HW218960   2.387   1.593   7.071 -1.8435  3.2031  2.9546
 2443SOL     OW18961   1.835   3.244   0.547  0.4806 -0.6226 -0.1132
 2443SOL    HW118962   1.765   3.293   0.590  1.3923 -0.3806  1.1044
 2443SOL    HW218963   1.797   3.158   0.525  3.7440 -2.0122 -0.2895
 2444SOL     OW18964   2.163   2.592   7.584 -0.9995  0.0970  0.2760
 2444SOL    HW118965   2.122   2.631   7.662 -1.9818  1.8080 -1.0834
 2444SOL    HW218966   2.255   2.616   7.586 -0.6048 -1.6067  2.2624
 2445SOL     OW18967   1.643   0.322   4.729  0.2981  0.1999 -0.6652
 2445SOL    HW118968   1.672   0.384   4.662 -0.3034  1.4969  0.2924
 2445SOL    HW218969   1.646   0.240   4.678 -1.0081  0.1512 -0.6664
 2446SOL     OW18970   3.137   3.624   8.245  0.1853 -0.0730  0.3884
 2446SOL    HW118971   3.154   3.667   8.329  0.7615 -1.7729  1.1362
 2446SOL    HW218972   3.187   3.546   8.269  0.3015  0.1412  0.8590
 2447SOL     OW18973   1.239   0.138  16.901  0.4602  0.2475  0.0782
 2447SOL    HW118974   1.297   0.178  16.966  0.0990 -0.6717  0.9679
 2447SOL    HW218975   1.305   0.121  16.834  1.5036  1.4321  0.8017
 2448SOL     OW18976   3.748   4.421   7.297  0.5570 -0.2102  0.1942
 2448SOL    HW118977   3.709   4.453   7.379 -0.6665  1.4736 -1.0437
 2448SOL    HW218978   3.806   4.496   7.282 -0.9886  1.0451  0.5183
 2449SOL     OW18979   3.193   0.162   7.144 -0.1328  0.5908  0.2799
 2449SOL    HW118980   3.241   0.161   7.062  0.5019  0.5176  0.6496
 2449SOL    HW218981   3.233   0.241   7.181  0.5293 -0.2549  1.3706
 2450SOL     OW18982   3.124   2.756  17.297  0.5753 -0.0676 -0.0688
 2450SOL    HW118983   3.045   2.757  17.350  0.7786  0.3747  0.2272
 2450SOL    HW218984   3.192   2.762  17.365 -0.2294  1.2098  0.6216
 2451SOL     OW18985   3.502   4.684  11.822  0.4747  0.0917 -0.1051
 2451SOL    HW118986   3.446   4.607  11.821  0.6275 -0.0023 -2.3493
 2451SOL    HW218987   3.508   4.715  11.731  1.2191  2.6933  0.8234
 2452SOL     OW18988   4.165   2.001   8.237  0.2392 -0.5665 -0.2962
 2452SOL    HW118989   4.251   2.013   8.276 -0.3995  1.0900  0.6144
 2452SOL    HW218990   4.134   1.916   8.267 -0.6052  0.2344  1.1226
 2453SOL     OW18991   4.393   2.292   7.446  0.4181  0.5111 -0.1659
 2453SOL    HW118992   4.335   2.257   7.514 -0.9745 -0.1514 -1.7004
 2453SOL    HW218993   4.481   2.282   7.482  0.3879  0.5854 -0.0695
 2454SOL     OW18994   0.409   2.995   7.588 -0.2971  1.1838  0.0555
 2454SOL    HW118995   0.459   3.044   7.523  1.2019 -1.3374 -0.7197
 2454SOL    HW218996   0.487   2.961   7.632 -1.4284  0.5469  1.5687
 2455SOL     OW18997   2.196   2.048   3.067 -0.4587 -0.0457  0.0490
 2455SOL    HW118998   2.190   2.134   3.109 -0.8808  0.0229 -0.1490
 2455SOL    HW218999   2.157   1.992   3.135 -2.3571  0.7309 -0.3958
 2456SOL     OW19000   2.223   0.577  17.383  0.0677 -1.0524  0.1239
 2456SOL    HW119001   2.303   0.591  17.433  0.2096 -1.6685  0.0772
 2456SOL    HW219002   2.173   0.658  17.392  2.2885  0.1232  1.6951
 2457SOL     OW19003   4.341   2.757   5.832 -0.4943 -0.0543 -0.6050
 2457SOL    HW119004   4.410   2.780   5.770  0.3192  1.2019  0.7643
 2457SOL    HW219005   4.326   2.836   5.885  1.2293  0.3409 -0.7195
 2458SOL     OW19006   0.484   3.707   5.801  0.2228  0.1254 -0.3302
 2458SOL    HW119007   0.495   3.646   5.874 -3.4342 -2.8627 -2.3153
 2458SOL    HW219008   0.389   3.698   5.793 -0.0245  3.5313 -1.3296
 2459SOL     OW19009   0.220   4.273   3.912 -0.1099 -0.0366  0.3809
 2459SOL    HW119010   0.192   4.339   3.848 -0.0626  0.7487  1.1564
 2459SOL    HW219011   0.145   4.280   3.971  0.5549  1.4671  1.0619
 2460SOL     OW19012   1.446   1.953  13.227 -0.3804  0.0667 -0.5356
 2460SOL    HW119013   1.507   1.889  13.262  0.6687  0.6751 -1.2465
 2460SOL    HW219014   1.497   2.033  13.238 -0.6968  0.3449 -1.0576
 2461SOL     OW19015   1.275   1.059   8.050  0.4877  0.0825 -0.0069
 2461SOL    HW119016   1.278   1.041   8.144 -0.5185  2.8403  0.5516
 2461SOL    HW219017   1.200   1.119   8.048  0.1873 -0.3031 -0.3757
 2462SOL     OW19018   0.432   1.511   7.953 -0.1593  0.3469  0.1525
 2462SOL    HW119019   0.414   1.421   7.982  3.0241 -0.3134  0.0875
 2462SOL    HW219020   0.367   1.519   7.884  3.1106  1.1983 -2.8429
 2463SOL     OW19021   0.380   1.024   4.559 -0.6097  0.4087 -0.0394
 2463SOL    HW119022   0.386   1.068   4.643 -1.3086  1.4532 -0.5367
 2463SOL    HW219023   0.440   0.949   4.564 -0.4624  0.5909  0.8987
 2464SOL     OW19024   1.389   3.626  17.219 -0.2342  0.3670  0.0989
 2464SOL    HW119025   1.370   3.720  17.216  0.9303  0.6527  1.5006
 2464SOL    HW219026   1.345   3.610  17.303  0.4295 -1.4324  0.0894
 2465SOL     OW19027   3.977   3.670   3.642 -0.4206 -0.3704  0.3722
 2465SOL    HW119028   4.051   3.721   3.673 -1.5936  1.6366 -0.1363
 2465SOL    HW219029   3.928   3.642   3.720  2.2656 -4.1130  0.7478
 2466SOL     OW19030   0.136   3.966   9.024  0.2118 -0.0882 -0.2734
 2466SOL    HW119031   0.180   3.952   9.108 -0.6899 -1.5535 -0.0483
 2466SOL    HW219032   0.115   3.875   9.002  1.9015 -0.6474  0.3921
 2467SOL     OW19033   1.721   3.476  12.066 -0.0614  0.1867  0.5837
 2467SOL    HW119034   1.781   3.415  12.023  0.1977  1.5274 -0.9449
 2467SOL    HW219035   1.669   3.518  11.998 -1.6288 -2.0228  0.4123
 2468SOL     OW19036   0.834   1.215   5.996  0.0860  0.3513 -0.0908
 2468SOL    HW119037   0.905   1.246   5.940 -1.3015 -0.2557 -2.1786
 2468SOL    HW219038   0.810   1.284   6.059 -0.2768  0.5007 -0.3923
 2469SOL     OW19039   2.948   3.883   2.658  0.3154 -0.0480  0.0146
 2469SOL    HW119040   2.929   3.789   2.660  0.3834 -0.0431  0.7997
 2469SOL    HW219041   2.979   3.893   2.748  3.1718 -2.0739 -0.7305
 2470SOL     OW19042   2.184   2.355  14.198  0.0952  0.0048 -0.2673
 2470SOL    HW119043   2.253   2.300  14.236 -1.4544 -1.3599  0.5580
 2470SOL    HW219044   2.107   2.299  14.189  0.3136 -0.2830 -0.3524
 2471SOL     OW19045   2.418   2.373   5.851 -0.1813 -0.2353  0.0554
 2471SOL    HW119046   2.330   2.409   5.854 -0.2028 -0.2033 -0.8173
 2471SOL    HW219047   2.424   2.379   5.755  0.4399  0.7554  0.1489
 2472SOL     OW19048   0.663   2.080   5.627  0.1093  0.2986 -0.0053
 2472SOL    HW119049   0.677   2.160   5.577  1.6600 -0.7920 -1.3358
 2472SOL    HW219050   0.710   2.091   5.710 -0.7734  1.7419  0.2863
 2473SOL     OW19051   2.521   1.828   8.831 -0.3156  0.4827 -0.4904
 2473SOL    HW119052   2.613   1.805   8.840 -0.5333  0.0128  0.4735
 2473SOL    HW219053   2.494   1.749   8.784 -1.9176  1.4171 -1.1414
 2474SOL     OW19054   0.230   3.492  12.399  0.1516 -0.4372  0.1738
 2474SOL    HW119055   0.233   3.479  12.304  2.5802 -1.9014  0.4379
 2474SOL    HW219056   0.312   3.540  12.396  0.1277 -0.5121 -1.7504
 2475SOL     OW19057   1.101   0.698   6.805  0.3395 -0.0223 -1.0159
 2475SOL    HW119058   1.183   0.649   6.797  0.7056  0.5710 -0.8896
 2475SOL    HW219059   1.114   0.788   6.773 -2.0385  0.7485  0.2266
 2476SOL     OW19060   3.978   2.707   0.437 -0.2957 -0.9225  0.6724
 2476SOL    HW119061   3.991   2.742   0.349  0.6203  0.0631  1.1917
 2476SOL    HW219062   3.952   2.616   0.423  0.2319 -1.0116  0.3044
 2477SOL     OW19063   1.243   3.672   1.761 -0.5597  0.1708 -0.5738
 2477SOL    HW119064   1.296   3.636   1.689 -2.5394 -0.9491 -1.4550
 2477SOL    HW219065   1.222   3.589   1.806 -0.9388  1.3267  1.3834
 2478SOL     OW19066   2.552   3.930   1.821 -0.1611 -0.9585 -0.0922
 2478SOL    HW119067   2.573   3.939   1.914 -0.5675  2.3392 -0.3040
 2478SOL    HW219068   2.518   4.015   1.794 -1.0968 -1.2247  0.2499
 2479SOL     OW19069   4.228   4.159   8.147 -0.0820  0.2489 -0.0044
 2479SOL    HW119070   4.304   4.139   8.093 -1.3287 -0.6409 -1.4169
 2479SOL    HW219071   4.207   4.071   8.178  1.6433 -0.4856 -0.9439
 2480SOL     OW19072   3.056   3.733   4.086  0.3550 -0.6268  0.2952
 2480SOL    HW119073   3.134   3.788   4.086  2.0394 -3.0182  1.5453
 2480SOL    HW219074   3.077   3.641   4.070 -0.5462 -0.2859 -2.8358
 2481SOL     OW19075   0.797   0.574   4.529 -0.6513  0.1260  0.4083
 2481SOL    HW119076   0.776   0.491   4.486  1.8797 -0.3508  0.1229
 2481SOL    HW219077   0.740   0.636   4.484  0.5727  0.2430 -0.9637
 2482SOL     OW19078   4.250   1.829  16.750 -0.1935  0.0620  0.1200
 2482SOL    HW119079   4.260   1.899  16.814 -0.5413  0.0413  0.1976
 2482SOL    HW219080   4.201   1.878  16.683  2.1105  0.9182 -0.9200
 2483SOL     OW19081   3.690   0.614   2.206  0.1538  0.0380  0.0661
 2483SOL    HW119082   3.665   0.702   2.179  1.5695  0.2776 -0.4930
 2483SOL    HW219083   3.685   0.623   2.301  0.3540  0.0510  0.0760
 2484SOL     OW19084   1.335   3.607  15.387 -0.4650 -0.0864 -0.9648
 2484SOL    HW119085   1.329   3.691  15.433 -2.4114 -0.7825  0.1029
 2484SOL    HW219086   1.410   3.564  15.427 -2.3875 -0.3712  2.3759
 2485SOL     OW19087   0.172   3.903   4.911 -0.2124 -0.3779 -0.1820
 2485SOL    HW119088   0.239   3.835   4.900 -2.1612 -2.2201 -0.6612
 2485SOL    HW219089   0.219   3.951   4.979  0.1529  0.7957 -1.2552
 2486SOL     OW19090   2.919   0.021   3.024  0.2763  0.0033 -0.8560
 2486SOL    HW119091   2.895   0.025   3.117 -3.0390 -0.7811 -1.6612
 2486SOL    HW219092   3.014   0.017   3.016  0.3547 -0.5956  0.3325
 2487SOL     OW19093   2.463   1.163   5.994  0.0159 -0.0193 -0.7570
 2487SOL    HW119094   2.457   1.153   5.899 -1.9182  3.6077 -1.0523
 2487SOL    HW219095   2.501   1.251   5.995  1.6904 -0.7517 -0.6647
 2488SOL     OW19096   3.041   3.618   0.063  0.8974  0.2862 -0.2922
 2488SOL    HW119097   3.038   3.602   0.158  1.7326  0.0906 -0.3009
 2488SOL    HW219098   3.020   3.711   0.073  2.2392  0.5702 -0.1523
 2489SOL     OW19099   2.627   3.542   1.235  0.0361  0.7540  0.1589
 2489SOL    HW119100   2.629   3.521   1.329  0.5266 -1.4033 -0.3349
 2489SOL    HW219101   2.616   3.637   1.235  0.6530  0.8243 -0.9449
 2490SOL     OW19102   0.152   0.362  11.001  0.6585  0.0862 -0.6036
 2490SOL    HW119103   0.216   0.413  10.951  0.0805  0.7459 -0.6749
 2490SOL    HW219104   0.195   0.278  11.018 -1.0175  0.1715  3.8293
 2491SOL     OW19105   2.088   3.006   9.940 -0.1449  0.3839  0.6309
 2491SOL    HW119106   2.096   3.096   9.973  0.1293 -0.3558  2.5398
 2491SOL    HW219107   1.994   3.005   9.920  0.0075 -1.0964  0.0334
 2492SOL     OW19108   1.699   3.435  16.153  0.7097  0.0257  0.2401
 2492SOL    HW119109   1.734   3.381  16.082  1.2931  2.2562 -1.1919
 2492SOL    HW219110   1.666   3.368  16.213 -0.0443 -1.4447 -1.8324
 2493SOL     OW19111   0.217   0.687   7.407 -0.3269 -0.0484 -0.3004
 2493SOL    HW119112   0.160   0.703   7.482 -0.6375 -0.6199 -0.4204
 2493SOL    HW219113   0.292   0.658   7.459  0.7446  3.1217 -0.0279
 2494SOL     OW19114   1.951   4.689  16.954 -0.1097  0.5633 -0.2080
 2494SOL    HW119115   2.018   0.021  16.966  0.4485 -0.0696  0.2822
 2494SOL    HW219116   1.964   4.680  16.860  0.9746 -0.9537  0.0687
 2495SOL     OW19117   1.846   1.056   1.432  0.2041  0.6683 -0.5953
 2495SOL    HW119118   1.914   1.000   1.470 -0.3514  0.0556 -0.5092
 2495SOL    HW219119   1.880   1.067   1.343 -2.5754  1.5933 -1.5412
 2496SOL     OW19120   3.449   1.571   9.634  0.1911 -0.1706 -0.2120
 2496SOL    HW119121   3.481   1.659   9.654 -1.2012 -0.2034  2.1888
 2496SOL    HW219122   3.356   1.592   9.646  0.4103  0.7226 -0.1258
 2497SOL     OW19123   1.457   0.993   4.812 -0.1770 -0.7409  0.8183
 2497SOL    HW119124   1.466   0.994   4.907  1.3314 -0.1784  0.6708
 2497SOL    HW219125   1.452   1.085   4.784 -0.4051  0.0294  3.4132
 2498SOL     OW19126   3.646   4.676  10.841 -0.3257  0.2659  0.1249
 2498SOL    HW119127   3.631   4.724  10.759 -0.3286 -0.9971 -0.6133
 2498SOL    HW219128   3.590   4.599  10.844  1.9559 -1.3547  0.5368
 2499SOL     OW19129   0.623   0.175  10.667  0.2617 -0.2559 -0.0424
 2499SOL    HW119130   0.679   0.176  10.745  0.6987  2.5732 -0.3693
 2499SOL    HW219131   0.544   0.154  10.716  0.9398 -0.2650  1.0460
 2500SOL     OW19132   4.420   0.990  10.675 -0.7340 -0.1836 -0.2333
 2500SOL    HW119133   4.335   0.971  10.714 -0.7923 -0.7524 -0.6357
 2500SOL    HW219134   4.472   1.016  10.750  0.8624 -2.7924 -0.4430
 2501SOL     OW19135   0.851   2.611   0.721 -0.3325 -0.1428 -0.7062
 2501SOL    HW119136   0.937   2.579   0.693  0.4591  1.4612 -0.0830
 2501SOL    HW219137   0.796   2.537   0.693  0.2393 -1.0757  0.6570
 2502SOL     OW19138   1.728   0.726   8.339 -0.6251  0.2015 -0.0340
 2502SOL    HW119139   1.809   0.763   8.375 -0.5827 -0.6515  0.7327
 2502SOL    HW219140   1.748   0.633   8.349 -0.8503 -0.0302 -1.8184
 2503SOL     OW19141   2.546   4.377   4.702  0.3302  0.1700 -0.0272
 2503SOL    HW119142   2.623   4.420   4.738 -0.6740  1.5858  0.4311
 2503SOL    HW219143   2.472   4.425   4.740 -0.1331  0.1931 -0.9414
 2504SOL     OW19144   2.546   1.181   7.297  0.0488  0.1893  0.1155
 2504SOL    HW119145   2.578   1.224   7.217  1.0813 -0.8892 -0.0539
 2504SOL    HW219146   2.467   1.147   7.255  0.2600  0.5656 -0.5891
 2505SOL     OW19147   1.907   2.579  13.053  0.4497 -0.2674 -0.1371
 2505SOL    HW119148   1.922   2.673  13.063  3.2940 -0.5957 -1.4174
 2505SOL    HW219149   1.992   2.549  13.020  1.4641  2.8717 -0.4045
 2506SOL     OW19150   3.238   2.306   3.782 -0.1068 -0.0246 -0.1091
 2506SOL    HW119151   3.301   2.357   3.833  0.3403 -1.2903  0.6095
 2506SOL    HW219152   3.251   2.333   3.691  1.7976  0.1346  0.2030
 2507SOL     OW19153   1.758   3.154   3.150 -0.4783 -0.8133  0.0190
 2507SOL    HW119154   1.703   3.230   3.130  0.9839  0.1084 -0.4674
 2507SOL    HW219155   1.836   3.197   3.183  0.4708 -2.5190 -0.0209
 2508SOL     OW19156   1.921   3.595   9.057 -0.0637 -0.2388  0.5370
 2508SOL    HW119157   1.879   3.514   9.084 -0.7631  0.6684  2.1351
 2508SOL    HW219158   1.858   3.632   8.995  2.3841  2.3447 -0.4249
 2509SOL     OW19159   4.266   3.253   6.044  0.2425  0.4300  0.1427
 2509SOL    HW119160   4.299   3.176   5.997  0.8962  3.1132 -3.7953
 2509SOL    HW219161   4.269   3.205   6.127 -0.0641  0.8738  0.4109
 2510SOL     OW19162   1.327   2.914   2.055  0.2112  0.2572  0.4216
 2510SOL    HW119163   1.385   2.894   2.129 -0.9953 -1.7706  0.8090
 2510SOL    HW219164   1.297   2.826   2.032 -0.5962  0.5550  0.3414
 2511SOL     OW19165   4.413   1.386   2.505  0.0945 -0.1414 -0.6517
 2511SOL    HW119166   4.325   1.385   2.543  0.6642 -2.4878  0.5750
 2511SOL    HW219167   4.396   1.423   2.419 -1.7195  1.9787  0.6138
 2512SOL     OW19168   2.231   3.153   4.656  0.6253  0.4159  0.1590
 2512SOL    HW119169   2.143   3.158   4.617  0.2739 -0.2655  0.8820
 2512SOL    HW219170   2.214   3.195   4.740 -2.3365 -0.1477 -0.1338
 2513SOL     OW19171   0.339   4.168   2.120  0.0760  0.1203 -0.5975
 2513SOL    HW119172   0.289   4.200   2.194 -1.0964  0.0611 -1.3717
 2513SOL    HW219173   0.319   4.074   2.118 -1.3982  0.4125  0.8262
 2514SOL     OW19174   4.423   2.641   4.902  0.1775 -0.6173 -0.0522
 2514SOL    HW119175   4.342   2.692   4.906 -0.0158 -0.8060 -1.3668
 2514SOL    HW219176   4.470   2.666   4.822  0.1878 -0.0991  0.1184
 2515SOL     OW19177   0.009   0.179   4.969 -0.5072  0.3894  0.0681
 2515SOL    HW119178   0.094   0.215   4.996  1.2380 -3.8615  0.3063
 2515SOL    HW219179   0.031   0.163   4.877 -1.9877  0.4467 -0.2934
 2516SOL     OW19180   3.953   1.155  12.951 -0.1584  0.4413 -0.0729
 2516SOL    HW119181   3.951   1.245  12.983  2.5587  0.6050 -0.3931
 2516SOL    HW219182   3.871   1.124  12.991  0.8293 -0.0726  1.5494
 2517SOL     OW19183   0.373   3.356   2.586  0.1684  0.2124 -0.2063
 2517SOL    HW119184   0.433   3.352   2.661  2.6793 -2.0917 -2.3118
 2517SOL    HW219185   0.437   3.382   2.520  2.8729 -0.6350  2.0528
 2518SOL     OW19186   0.392   3.676   1.752 -0.8777 -0.1946 -0.0847
 2518SOL    HW119187   0.316   3.622   1.729 -0.1853 -1.6864  1.1139
 2518SOL    HW219188   0.358   3.762   1.728  0.5215  0.2658 -0.4276
 2519SOL     OW19189   4.115   0.955   5.907  0.0762  0.1211 -0.1928
 2519SOL    HW119190   4.181   0.939   5.974 -0.7088  2.6898  1.1977
 2519SOL    HW219191   4.066   0.874   5.894 -0.0322  0.5204 -2.3746
 2520SOL     OW19192   1.710   1.663   2.756 -0.5214  0.7946  0.2898
 2520SOL    HW119193   1.689   1.622   2.672 -0.0905 -1.1552  1.1291
 2520SOL    HW219194   1.627   1.707   2.773 -0.0937  1.0556  1.7251
 2521SOL     OW19195   0.166   2.101   2.505  0.5318 -0.7225 -0.0529
 2521SOL    HW119196   0.165   2.094   2.601 -0.3702 -2.3447 -0.1993
 2521SOL    HW219197   0.259   2.105   2.482  0.8857  2.2439  1.8748
 2522SOL     OW19198   1.400   4.433   6.270  0.6987 -0.0848  0.0411
 2522SOL    HW119199   1.407   4.522   6.234 -1.4096  0.6931  1.5683
 2522SOL    HW219200   1.463   4.445   6.341  2.0341  1.3008 -1.3532
 2523SOL     OW19201   0.925   1.867   6.947 -0.4446 -0.2498 -0.1246
 2523SOL    HW119202   0.867   1.938   6.974 -0.2571  0.2321 -1.0038
 2523SOL    HW219203   0.993   1.916   6.900 -0.1388 -1.2855 -0.7777
 2524SOL     OW19204   1.244   4.214   6.243  0.5997  0.2765  0.3922
 2524SOL    HW119205   1.286   4.145   6.294  1.4957 -1.0671 -2.2173
 2524SOL    HW219206   1.290   4.291   6.278 -0.0987  1.0809 -0.4580
 2525SOL     OW19207   4.712   1.348   0.831 -0.5126 -0.2712  0.1276
 2525SOL    HW119208   4.707   1.368   0.925  1.1523  2.1090 -0.2837
 2525SOL    HW219209   0.044   1.280   0.831 -2.0413 -1.7947  0.5064
 2526SOL     OW19210   3.470   3.852   5.326 -0.5390  0.0142 -0.1958
 2526SOL    HW119211   3.456   3.904   5.247 -0.2424  1.3499  0.6191
 2526SOL    HW219212   3.534   3.788   5.295 -0.7433  0.4928 -1.5827
 2527SOL     OW19213   1.986   2.794   5.293 -0.1334 -0.6725  0.1543
 2527SOL    HW119214   2.018   2.842   5.369  1.2477 -0.0372 -0.8433
 2527SOL    HW219215   2.057   2.731   5.279  0.6792  0.0012  1.3357
 2528SOL     OW19216   2.467   2.904  10.493 -0.1139 -0.1332  0.3847
 2528SOL    HW119217   2.474   2.918  10.399  1.0213 -1.6686  0.2350
 2528SOL    HW219218   2.558   2.911  10.524  0.6944 -0.7016 -1.8323
 2529SOL     OW19219   0.548   4.629   3.240  0.2261 -0.7788  0.4983
 2529SOL    HW119220   0.482   4.653   3.175 -0.7070 -1.6676  1.1249
 2529SOL    HW219221   0.487   4.612   3.312 -0.2416  3.8867  1.2313
 2530SOL     OW19222   2.071   1.147   2.836 -0.2449 -0.1711  0.5568
 2530SOL    HW119223   1.998   1.209   2.838  1.5494  1.9358  0.9965
 2530SOL    HW219224   2.102   1.143   2.745 -0.1461 -1.1179  0.6320
 2531SOL     OW19225   2.638   2.862   0.338 -0.3080 -0.4458 -0.4401
 2531SOL    HW119226   2.568   2.807   0.372 -0.1346  0.4957  1.4480
 2531SOL    HW219227   2.597   2.906   0.263 -0.3532  1.5176  0.7190
 2532SOL     OW19228   0.450   3.397   5.618  0.4096  0.1480 -1.1324
 2532SOL    HW119229   0.491   3.473   5.660  2.0754 -1.9919  1.1520
 2532SOL    HW219230   0.517   3.329   5.631  1.6641  1.3911 -1.0932
 2533SOL     OW19231   1.989   2.887  15.295  0.2955 -0.3291  0.1242
 2533SOL    HW119232   2.043   2.963  15.275 -0.0382 -0.1737 -0.1984
 2533SOL    HW219233   1.907   2.926  15.265 -0.7052 -2.0501  0.6263
 2534SOL     OW19234   3.359   0.165   1.639  0.0902 -0.9078 -0.6029
 2534SOL    HW119235   3.269   0.173   1.607 -0.0980 -1.2245 -0.1460
 2534SOL    HW219236   3.388   0.105   1.570 -3.1368  0.7605 -3.4403
 2535SOL     OW19237   4.064   3.318  12.359  0.0388  0.0753 -0.4054
 2535SOL    HW119238   4.025   3.230  12.364  1.1163 -0.3231  1.1507
 2535SOL    HW219239   4.109   3.310  12.276 -0.4559  2.3483 -0.8987
 2536SOL     OW19240   0.793   0.923   7.755  0.0147 -0.1336 -0.0533
 2536SOL    HW119241   0.869   0.948   7.702 -0.0092 -1.4239 -0.7121
 2536SOL    HW219242   0.806   0.831   7.779  0.7853  0.3225  1.2753
 2537SOL     OW19243   3.760   4.208   2.179  0.1654 -0.2371  0.0420
 2537SOL    HW119244   3.684   4.152   2.200 -1.6309  1.8586 -0.8877
 2537SOL    HW219245   3.782   4.175   2.092 -0.9292  0.5288 -0.5161
 2538SOL     OW19246   0.755   3.685  14.991  0.4419  0.0898 -0.3076
 2538SOL    HW119247   0.751   3.727  15.077 -3.2413 -1.0003  0.0660
 2538SOL    HW219248   0.661   3.691  14.973  0.1402 -0.4334  1.1593
 2539SOL     OW19249   4.374   2.028   8.433 -1.0427  0.2737  1.0671
 2539SOL    HW119250   4.462   2.035   8.471  0.3510 -1.9241 -1.7067
 2539SOL    HW219251   4.350   1.953   8.487 -0.6952  0.5106  1.5547
 2540SOL     OW19252   1.042   0.421   4.243 -0.6416 -0.4952  0.8936
 2540SOL    HW119253   1.000   0.344   4.282 -4.0360  0.2680 -1.1620
 2540SOL    HW219254   1.126   0.378   4.233  0.0958  1.1700 -0.0491
 2541SOL     OW19255   3.364   2.917   2.730  0.7570  0.4655  0.2679
 2541SOL    HW119256   3.360   2.824   2.750  2.1576  0.3921  0.2021
 2541SOL    HW219257   3.443   2.920   2.677  0.0152  1.1537 -0.7957
 2542SOL     OW19258   2.014   2.288   4.792  0.1177  0.4271 -0.3551
 2542SOL    HW119259   1.981   2.377   4.778  1.8472  1.0133 -0.7186
 2542SOL    HW219260   2.041   2.268   4.702 -1.1983 -1.6479 -0.2890
 2543SOL     OW19261   1.043   3.952  14.499 -0.1317  0.2943 -0.7352
 2543SOL    HW119262   1.077   4.032  14.539 -1.0003  1.2846 -1.9414
 2543SOL    HW219263   0.950   3.967  14.482 -0.6659 -0.7063  1.2399
 2544SOL     OW19264   2.331   3.764  17.084 -0.0513  0.4750  0.4819
 2544SOL    HW119265   2.384   3.752  17.163 -0.0136  2.8385  0.8079
 2544SOL    HW219266   2.392   3.726  17.021  0.0154  0.5594  0.4955
 2545SOL     OW19267   1.859   2.112  11.654  0.2286  0.4724 -0.4572
 2545SOL    HW119268   1.921   2.184  11.640  1.1170 -0.5680 -1.8809
 2545SOL    HW219269   1.790   2.161  11.699 -0.4225 -0.7332 -0.1471
 2546SOL     OW19270   2.271   1.931   5.425  0.6293  0.1985 -0.4697
 2546SOL    HW119271   2.271   1.843   5.463  1.2728  0.4689  0.1672
 2546SOL    HW219272   2.313   1.980   5.496 -0.7113 -0.1506  0.5661
 2547SOL     OW19273   0.912   0.399  15.331 -0.5014 -0.0270  0.0089
 2547SOL    HW119274   0.838   0.388  15.271 -0.6183 -0.1587  0.1745
 2547SOL    HW219275   0.866   0.389  15.415 -0.2336  0.1679  0.1809
 2548SOL     OW19276   4.267   2.578   7.093 -0.0847 -0.0500 -0.1340
 2548SOL    HW119277   4.217   2.631   7.156  0.2160 -1.1617  1.0499
 2548SOL    HW219278   4.355   2.585   7.130  1.1276  2.1366 -3.4605
 2549SOL     OW19279   2.725   4.471   3.325  0.6039 -0.0375 -0.1736
 2549SOL    HW119280   2.661   4.429   3.382 -0.2017  0.4950 -0.6783
 2549SOL    HW219281   2.709   4.426   3.242 -0.4387 -0.1416  0.0829
 2550SOL     OW19282   3.070   4.557  14.099  0.0981 -0.8141  0.3383
 2550SOL    HW119283   3.135   4.497  14.062  2.0328 -0.5217  3.2835
 2550SOL    HW219284   3.104   4.642  14.071  2.0219 -1.9005 -0.6437
 2551SOL     OW19285   1.007   1.508  12.780  0.1176 -0.2411 -0.2802
 2551SOL    HW119286   0.920   1.547  12.789 -0.1735 -0.4659 -2.2604
 2551SOL    HW219287   1.018   1.531  12.688 -2.4423  0.5779 -0.3904
 2552SOL     OW19288   2.176   1.476   3.520 -0.5760  0.1297  0.9122
 2552SOL    HW119289   2.164   1.382   3.503 -1.3203  0.1953  1.0754
 2552SOL    HW219290   2.137   1.481   3.608  0.4187  3.1820  1.1699
 2553SOL     OW19291   2.537   2.270   4.367  0.1293 -0.0474  0.3942
 2553SOL    HW119292   2.613   2.234   4.413  1.2935  0.6109 -0.9698
 2553SOL    HW219293   2.510   2.329   4.437 -0.6295  1.8981 -1.5049
 2554SOL     OW19294   1.065   4.126   6.601 -0.2415  0.0447 -0.2099
 2554SOL    HW119295   1.133   4.171   6.652 -0.8126  0.7681 -0.0826
 2554SOL    HW219296   1.107   4.043   6.577 -2.2774 -0.8652 -0.5514
 2555SOL     OW19297   2.178   2.139   8.460 -0.0120  0.4594  0.2666
 2555SOL    HW119298   2.108   2.196   8.428 -1.1868 -0.8361  0.5240
 2555SOL    HW219299   2.123   2.069   8.496  2.6634 -0.8209  1.8777
 2556SOL     OW19300   1.982   2.265   0.359  0.1674  0.0568 -0.0832
 2556SOL    HW119301   1.942   2.190   0.314 -0.3443  1.3346 -1.7601
 2556SOL    HW219302   2.005   2.313   0.280 -0.1361 -0.0150 -0.2180
 2557SOL     OW19303   0.538   1.993   8.004 -0.0857 -0.0015  0.0476
 2557SOL    HW119304   0.473   2.060   7.984  0.4248  0.9027  1.3605
 2557SOL    HW219305   0.482   1.918   8.021  0.5751 -0.0922  1.8586
 2558SOL     OW19306   0.019   3.899   8.543  0.0193 -0.9265 -0.1956
 2558SOL    HW119307   4.720   3.973   8.493 -2.3553 -0.3597  2.2047
 2558SOL    HW219308   4.704   3.909   8.625 -1.3469  0.7241 -1.2451
 2559SOL     OW19309   2.248   4.112   1.317 -0.0193  0.3228 -0.1556
 2559SOL    HW119310   2.331   4.091   1.275 -0.3771 -0.9795 -0.2103
 2559SOL    HW219311   2.261   4.058   1.395 -1.6771  1.2666  0.7723
 2560SOL     OW19312   4.156   0.673   0.998  0.3143  0.6691 -0.3201
 2560SOL    HW119313   4.063   0.657   0.982  1.1027 -3.1771 -1.1407
 2560SOL    HW219314   4.151   0.650   1.090 -0.6032  1.0195 -0.2831
 2561SOL     OW19315   3.428   2.474  14.576  0.7051 -0.1688 -0.1705
 2561SOL    HW119316   3.433   2.568  14.593  0.7772 -0.1242 -0.4515
 2561SOL    HW219317   3.464   2.476  14.488  1.0925 -1.2530 -0.0322
 2562SOL     OW19318   0.170   2.851  12.653 -0.0220 -0.1714  0.0511
 2562SOL    HW119319   0.092   2.889  12.694  0.3019  0.3023  0.2217
 2562SOL    HW219320   0.179   2.896  12.569  1.2878 -1.0193 -0.2515
 2563SOL     OW19321   3.454   4.643   8.326 -0.4272  0.5484 -0.1535
 2563SOL    HW119322   3.360   4.660   8.319 -0.3514  1.3026  0.7252
 2563SOL    HW219323   3.478   4.734   8.305  2.2409 -0.3210 -0.8129
 2564SOL     OW19324   1.069   4.518   5.569  0.3291  0.0456 -0.3299
 2564SOL    HW119325   1.129   4.589   5.590 -0.5507  0.3936  0.9905
 2564SOL    HW219326   1.014   4.556   5.500 -0.7992 -1.4060 -0.2255
 2565SOL     OW19327   4.688   1.699   3.705 -0.2102 -0.7607 -0.5037
 2565SOL    HW119328   0.021   1.638   3.737 -0.2419 -0.6423 -0.2112
 2565SOL    HW219329   4.611   1.643   3.712  1.8502 -3.1871  3.2788
 2566SOL     OW19330   2.388   4.242  14.741  0.2561 -0.0014  0.2261
 2566SOL    HW119331   2.376   4.312  14.677  0.5814  0.6138  0.8253
 2566SOL    HW219332   2.331   4.256  14.817  0.8057  1.9082  0.2925
 2567SOL     OW19333   3.099   1.868   0.948  0.0601 -0.0626 -0.1147
 2567SOL    HW119334   3.068   1.817   0.873  0.8877 -0.2535 -0.3295
 2567SOL    HW219335   3.179   1.819   0.968 -0.1680 -1.5156 -2.6731
 2568SOL     OW19336   1.858   1.564   5.567  0.1374 -0.4485  0.4944
 2568SOL    HW119337   1.901   1.565   5.481  2.7620  0.7335  1.8279
 2568SOL    HW219338   1.888   1.482   5.605  1.1254 -1.0843 -1.6452
 2569SOL     OW19339   2.777   4.610   8.830  0.2011  0.7809 -0.1727
 2569SOL    HW119340   2.785   4.681   8.893  4.4427  0.0037  0.1808
 2569SOL    HW219341   2.842   4.548   8.862 -1.1998  0.0021  1.1599
 2570SOL     OW19342   1.086   0.257   4.602  0.5256 -0.8556  0.4132
 2570SOL    HW119343   1.077   0.310   4.681 -0.6523  0.2127 -0.4163
 2570SOL    HW219344   1.082   0.168   4.637 -1.0815 -0.9371  0.0607
 2571SOL     OW19345   0.734   0.525   6.910 -0.3557 -0.6617 -0.2102
 2571SOL    HW119346   0.702   0.435   6.914 -0.8734 -0.3511  2.5315
 2571SOL    HW219347   0.678   0.566   6.976  0.9956  0.3631  0.3210
 2572SOL     OW19348   4.530   0.614   4.391  0.5681 -0.3002 -0.4687
 2572SOL    HW119349   4.531   0.668   4.470 -0.4322 -0.5108 -0.3087
 2572SOL    HW219350   4.463   0.646   4.331 -1.3950 -0.5212  1.6130
 2573SOL     OW19351   2.197   4.321   4.913  0.1471 -0.3196  0.4625
 2573SOL    HW119352   2.174   4.299   4.823  0.6174  3.0795 -0.4962
 2573SOL    HW219353   2.281   4.367   4.910  1.2900 -2.5714 -1.7888
 2574SOL     OW19354   2.657   3.989   4.300  0.4043 -0.6554 -0.0006
 2574SOL    HW119355   2.718   4.029   4.362 -2.2678  0.0123  2.1869
 2574SOL    HW219356   2.687   3.898   4.301  0.0587 -0.7925 -2.2059
 2575SOL     OW19357   0.518   4.445   5.575 -0.5564  0.2641  0.3035
 2575SOL    HW119358   0.551   4.412   5.492  1.5681  1.1222  0.7913
 2575SOL    HW219359   0.552   4.377   5.634 -0.6952  1.1872  1.4601
 2576SOL     OW19360   2.611   3.291  17.174 -0.3517 -0.1559  0.5683
 2576SOL    HW119361   2.596   3.323  17.085 -0.3568 -0.5247  0.4345
 2576SOL    HW219362   2.593   3.369  17.226  0.1416  0.0738  0.3936
 2577SOL     OW19363   1.781   0.688   0.988  0.0679  0.0310 -0.6587
 2577SOL    HW119364   1.712   0.645   0.938  0.4819 -0.7166 -0.5934
 2577SOL    HW219365   1.799   0.762   0.931  0.8433  0.2824 -0.0795
 2578SOL     OW19366   1.857   4.141  11.859 -0.5408  0.3986  0.1879
 2578SOL    HW119367   1.830   4.233  11.867  0.6367  0.5617  2.1848
 2578SOL    HW219368   1.919   4.135  11.932  1.2359  0.6994 -1.3183
 2579SOL     OW19369   3.227   1.449   9.154  0.1412  0.8893 -0.2707
 2579SOL    HW119370   3.203   1.508   9.083 -1.2613  0.5959 -0.0366
 2579SOL    HW219371   3.169   1.376   9.133 -1.5458  2.6411 -1.6562
 2580SOL     OW19372   1.281   1.060  15.335  0.0654  0.4429  0.1516
 2580SOL    HW119373   1.259   0.986  15.393  1.1544 -0.3720 -0.4864
 2580SOL    HW219374   1.254   1.017  15.254 -1.0332 -1.9118  1.7479
 2581SOL     OW19375   2.497   4.603  11.484 -0.2043 -0.3063  0.1662
 2581SOL    HW119376   2.569   4.595  11.422  1.2281  1.1985  1.6375
 2581SOL    HW219377   2.538   4.609  11.570  1.0764 -0.5692 -0.4253
 2582SOL     OW19378   0.492   1.207   6.902  0.7660 -0.0927  0.2073
 2582SOL    HW119379   0.555   1.255   6.848 -1.5011  0.7347 -1.7104
 2582SOL    HW219380   0.407   1.223   6.862  0.8513 -0.1946 -0.0161
 2583SOL     OW19381   0.036   4.663   3.614  0.0995  0.1905 -0.4919
 2583SOL    HW119382   0.073   4.721   3.680 -0.2633 -1.3084  1.0384
 2583SOL    HW219383   0.049   4.714   3.535 -0.4287  2.1479  0.6924
 2584SOL     OW19384   3.043   4.165   4.080  0.1291  0.5043  0.6264
 2584SOL    HW119385   3.005   4.229   4.140  2.2406  2.3814 -0.0218
 2584SOL    HW219386   3.074   4.103   4.146 -1.0915  0.3824  1.0871
 2585SOL     OW19387   1.601   3.612   4.760 -0.0939 -0.2627  0.4583
 2585SOL    HW119388   1.600   3.608   4.664  2.6303 -0.4646  0.4499
 2585SOL    HW219389   1.574   3.702   4.781 -1.3805 -0.1142 -1.7324
 2586SOL     OW19390   1.244   4.435   3.606 -0.5135 -0.8403 -0.2908
 2586SOL    HW119391   1.155   4.456   3.634 -0.8886 -0.4475 -1.7819
 2586SOL    HW219392   1.220   4.363   3.548  0.9990 -3.6263  2.5606
 2587SOL     OW19393   2.151   0.930   5.037  0.0801 -0.0460 -0.0036
 2587SOL    HW119394   2.063   0.957   5.062  0.6688 -0.1870  2.2366
 2587SOL    HW219395   2.186   0.912   5.124  0.0784 -4.3277 -0.8910
 2588SOL     OW19396   3.811   0.877   4.052  0.2400  0.2556  0.4724
 2588SOL    HW119397   3.887   0.831   4.088  1.2208  0.4812 -1.2778
 2588SOL    HW219398   3.776   0.805   4.001  2.0242  0.3841 -0.9385
 2589SOL     OW19399   4.312   3.546  17.495  0.0838 -0.2355  0.1149
 2589SOL    HW119400   4.321   3.514  17.585  0.3340  1.8476  0.8389
 2589SOL    HW219401   4.272   3.478  17.442  2.9667 -0.7844 -1.3557
 2590SOL     OW19402   2.122   2.511  10.507 -0.2302  0.1492 -0.0684
 2590SOL    HW119403   2.054   2.460  10.550 -1.2525  2.2758  0.8722
 2590SOL    HW219404   2.109   2.598  10.545 -0.3110 -0.2088  0.7222
 2591SOL     OW19405   4.247   1.229  16.407  0.1492 -0.3573 -0.5700
 2591SOL    HW119406   4.308   1.253  16.476  1.7625 -3.1600 -1.0182
 2591SOL    HW219407   4.192   1.163  16.449 -0.6214  0.3131 -0.5439
 2592SOL     OW19408   1.173   1.246   4.202  0.2162  0.3811 -0.0175
 2592SOL    HW119409   1.134   1.328   4.233 -3.9387 -0.8247 -2.0467
 2592SOL    HW219410   1.180   1.267   4.109 -1.1456 -0.3244 -0.2722
 2593SOL     OW19411   1.556   1.935   1.549 -0.4293  0.1791  0.2057
 2593SOL    HW119412   1.531   1.868   1.486 -0.3151  0.7198 -0.4185
 2593SOL    HW219413   1.559   2.012   1.492  0.3549  0.5474  0.7469
 2594SOL     OW19414   3.917   3.266   6.255  0.0792 -0.4246 -0.3051
 2594SOL    HW119415   3.877   3.349   6.281  1.9268 -0.0853  1.4005
 2594SOL    HW219416   3.923   3.215   6.335  0.8966 -0.1876 -0.2168
 2595SOL     OW19417   0.286   3.659  10.115  0.1509  0.5553 -0.1311
 2595SOL    HW119418   0.256   3.680  10.203 -0.8422 -0.9209 -0.1105
 2595SOL    HW219419   0.207   3.619  10.076 -2.2790  3.9453  1.3679
 2596SOL     OW19420   3.833   3.943  15.111 -0.5985 -0.0733 -0.5141
 2596SOL    HW119421   3.852   4.029  15.075 -0.5798  1.2750  2.7022
 2596SOL    HW219422   3.877   3.935  15.196  0.6192 -2.8347 -1.4062
 2597SOL     OW19423   2.717   1.756   9.368 -0.2028  0.4741  0.1603
 2597SOL    HW119424   2.713   1.771   9.463 -0.5697  1.0014  0.0583
 2597SOL    HW219425   2.763   1.672   9.356  0.4789  0.8169  0.3349
 2598SOL     OW19426   1.077   3.761   7.125 -0.1324  0.6598 -0.2486
 2598SOL    HW119427   1.056   3.672   7.094 -0.3596  0.7823 -0.4454
 2598SOL    HW219428   1.154   3.739   7.177 -1.8354  1.6111  2.6582
 2599SOL     OW19429   4.308   0.180   2.684 -0.5969 -0.8366 -0.1838
 2599SOL    HW119430   4.357   0.185   2.766  1.3444  2.2706 -1.5415
 2599SOL    HW219431   4.277   0.090   2.680  0.7100 -1.3484  1.3640
 2600SOL     OW19432   2.181   1.940  13.960  0.0434  0.6038 -0.6162
 2600SOL    HW119433   2.189   1.931  14.055  1.7334 -1.9913 -0.9801
 2600SOL    HW219434   2.176   2.035  13.959 -1.0718  0.5397 -0.5082
 2601SOL     OW19435   0.722   4.725   0.802 -0.2589 -0.1069  0.1008
 2601SOL    HW119436   0.782   0.024   0.868  0.2509 -1.3520  0.2678
 2601SOL    HW219437   0.732   4.633   0.823  2.8650  0.2481  0.0838
 2602SOL     OW19438   0.965   0.793  12.003  0.1642 -0.1161 -0.0663
 2602SOL    HW119439   1.046   0.754  12.035 -0.6102  0.4151  2.5705
 2602SOL    HW219440   0.973   0.877  12.049  0.8899 -0.3538  0.2413
 2603SOL     OW19441   0.210   0.882   4.806 -0.1495 -0.3227 -0.0323
 2603SOL    HW119442   0.158   0.901   4.884 -0.7792 -0.8300 -0.3298
 2603SOL    HW219443   0.283   0.943   4.823  0.2511 -1.4165  2.1142
 2604SOL     OW19444   4.358   3.493   0.006  0.6161  0.3894  0.0118
 2604SOL    HW119445   4.377   3.537   0.088 -0.6206  1.7188 -0.4099
 2604SOL    HW219446   4.360   3.401   0.034  0.7120  1.0372  2.0516
 2605SOL     OW19447   4.508   3.587   8.984  0.4727 -0.4887 -0.0150
 2605SOL    HW119448   4.598   3.620   8.986  0.4745 -0.5361  0.6923
 2605SOL    HW219449   4.467   3.632   9.058  1.7264 -1.1839  1.1006
 2606SOL     OW19450   2.780   0.415   6.035  0.4816  0.0219  0.1910
 2606SOL    HW119451   2.842   0.479   6.000  2.3990 -1.4831  0.8428
 2606SOL    HW219452   2.754   0.449   6.120  2.1976 -0.2920  0.8306
 2607SOL     OW19453   2.457   3.506   4.547 -0.0458 -0.3550  0.7877
 2607SOL    HW119454   2.435   3.436   4.486 -2.1783 -0.8758  2.1889
 2607SOL    HW219455   2.550   3.502   4.568 -0.0119 -0.7552  0.5472
 2608SOL     OW19456   1.331   2.333   7.372 -0.0158  0.1577 -0.1722
 2608SOL    HW119457   1.282   2.415   7.375 -2.5593 -1.3872  0.3785
 2608SOL    HW219458   1.285   2.288   7.442 -2.4594  0.2111 -1.7634
 2609SOL     OW19459   0.227   4.612   3.287  0.0897  0.2743  0.6037
 2609SOL    HW119460   0.269   4.652   3.363 -1.6628  0.0267  1.7094
 2609SOL    HW219461   0.138   4.648   3.293 -0.6983 -1.5660  0.1876
 2610SOL     OW19462   3.329   2.581   2.836  0.0090  0.1637 -0.1006
 2610SOL    HW119463   3.296   2.500   2.876  2.3429  0.6650  2.8193
 2610SOL    HW219464   3.257   2.602   2.776  0.3425  0.3937 -0.4168
 2611SOL     OW19465   1.336   0.086   4.610 -0.2690 -0.4148  0.5018
 2611SOL    HW119466   1.325   4.729   4.636  1.4248 -0.4786  0.9752
 2611SOL    HW219467   1.417   0.103   4.657  0.6752 -0.9768 -0.9314
 2612SOL     OW19468   2.241   2.228  17.199 -0.2478  0.6459  0.0133
 2612SOL    HW119469   2.213   2.275  17.121 -1.6938 -0.4174 -0.0951
 2612SOL    HW219470   2.327   2.270  17.211  0.1268 -0.3773  0.9103
 2613SOL     OW19471   4.477   3.970   9.726 -0.5567  0.1577 -0.7928
 2613SOL    HW119472   4.444   3.954   9.815  0.7796  1.5809 -0.0300
 2613SOL    HW219473   4.461   4.065   9.722 -0.0846  0.3913  2.6140
 2614SOL     OW19474   1.593   0.040   1.424 -0.1823 -0.0174 -0.4003
 2614SOL    HW119475   1.590   0.116   1.482 -1.1677 -0.7252  0.4810
 2614SOL    HW219476   1.516   0.050   1.368 -0.0195  0.0489 -0.6130
 2615SOL     OW19477   1.158   3.604   8.144  0.5471  0.6071  0.0615
 2615SOL    HW119478   1.083   3.556   8.111 -0.3893  2.1513 -0.0633
 2615SOL    HW219479   1.192   3.654   8.070 -0.7045  2.2792  0.6197
 2616SOL     OW19480   0.700   2.323  11.697  0.1206  0.4415  0.2810
 2616SOL    HW119481   0.645   2.245  11.693 -0.7629  1.1225 -0.7681
 2616SOL    HW219482   0.753   2.309  11.776  0.3631  2.0454  0.4204
 2617SOL     OW19483   1.500   2.777   1.606 -0.2634 -0.1388 -0.2792
 2617SOL    HW119484   1.435   2.793   1.538  0.4847  0.4214 -0.8651
 2617SOL    HW219485   1.453   2.745   1.683 -0.4252 -1.5233 -0.9640
 2618SOL     OW19486   2.317   4.505   2.823  0.2023  0.0681  0.3918
 2618SOL    HW119487   2.278   4.592   2.839  1.2153  0.7570 -0.8677
 2618SOL    HW219488   2.369   4.529   2.747  0.4007 -1.8927 -0.0768
 2619SOL     OW19489   3.893   1.824  17.527 -0.2641  0.3836  0.9562
 2619SOL    HW119490   3.855   1.788  17.447 -0.0261  0.7313  0.6842
 2619SOL    HW219491   3.832   1.794  17.593  1.5531 -2.2191  1.4601
 2620SOL     OW19492   2.115   0.527   3.616 -0.9504 -0.5671 -0.3743
 2620SOL    HW119493   2.084   0.437   3.631 -1.6864 -0.1488  0.6148
 2620SOL    HW219494   2.210   0.520   3.613 -1.0084 -1.6761  0.1810
 2621SOL     OW19495   1.697   0.491   7.646  0.0924  0.6897  0.3861
 2621SOL    HW119496   1.726   0.582   7.656  3.0543 -0.4266  1.8741
 2621SOL    HW219497   1.766   0.455   7.590  0.1955 -1.6631  2.0470
 2622SOL     OW19498   2.247   0.694   4.606  0.2137  0.3855  0.0999
 2622SOL    HW119499   2.158   0.719   4.580  0.1240 -0.7559 -0.6631
 2622SOL    HW219500   2.278   0.733   4.688 -0.1568  1.7921 -0.4288
 2623SOL     OW19501   2.476   4.313   3.949  0.4084  0.8520 -0.4247
 2623SOL    HW119502   2.414   4.365   3.899 -0.7998 -0.1589  0.0293
 2623SOL    HW219503   2.417   4.258   4.001  1.6603  1.6599  1.8747
 2624SOL     OW19504   0.448   0.686   7.587  0.0344 -1.0499 -0.5037
 2624SOL    HW119505   0.451   0.781   7.581 -1.3345 -0.8754  1.6096
 2624SOL    HW219506   0.540   0.660   7.591 -0.0040 -0.8012  2.5093
 2625SOL     OW19507   2.487   3.144  14.836  0.4919  0.0470  0.0146
 2625SOL    HW119508   2.489   3.237  14.813 -0.7803  0.4676  1.6038
 2625SOL    HW219509   2.550   3.119  14.768  0.1088  2.3624 -1.1856
 2626SOL     OW19510   0.190   3.244   4.824 -0.1973 -0.6685  0.2850
 2626SOL    HW119511   0.126   3.297   4.872  2.0927  0.6409  1.8790
 2626SOL    HW219512   0.259   3.309   4.810  0.0559 -1.0213 -0.1285
 2627SOL     OW19513   1.198   3.229  15.651  0.1299  0.4018  0.5472
 2627SOL    HW119514   1.247   3.217  15.569 -1.2557  0.6993 -0.3337
 2627SOL    HW219515   1.138   3.154  15.647 -0.5934  0.9366  1.6311
 2628SOL     OW19516   0.909   3.629   6.275 -0.0677 -0.1258 -0.4434
 2628SOL    HW119517   0.837   3.588   6.322  0.4090  0.8552  1.1337
 2628SOL    HW219518   0.902   3.711   6.324 -0.5011  0.6943 -1.8793
 2629SOL     OW19519   2.321   1.257   2.990  0.5041 -0.3586 -0.3024
 2629SOL    HW119520   2.260   1.324   3.019  0.9619  0.3305 -0.9468
 2629SOL    HW219521   2.306   1.272   2.896 -2.3052  0.6286  0.3074
 2630SOL     OW19522   2.787   0.101   4.440 -0.1216  0.5252  0.1755
 2630SOL    HW119523   2.750   0.030   4.387  0.3396  0.6401 -0.3065
 2630SOL    HW219524   2.855   0.133   4.381 -0.3847  1.4469  0.3832
 2631SOL     OW19525   1.984   3.690   1.756  0.6152  0.1546  0.3521
 2631SOL    HW119526   1.982   3.668   1.849 -1.1145  3.0056  1.0155
 2631SOL    HW219527   1.889   3.697   1.746  0.7395 -0.2752 -1.0294
 2632SOL     OW19528   0.779   0.305   8.090 -0.0356  0.4731  0.1749
 2632SOL    HW119529   0.852   0.359   8.061 -1.3567  2.3249  0.3174
 2632SOL    HW219530   0.819   0.219   8.100  0.3663  0.4892 -1.2790
 2633SOL     OW19531   0.154   4.241   7.598 -0.3695  0.4014 -0.5701
 2633SOL    HW119532   0.165   4.150   7.573 -0.6433  0.6169 -1.4628
 2633SOL    HW219533   0.061   4.260   7.583  0.1200  2.4038 -1.1194
 2634SOL     OW19534   4.504   2.669   3.223 -0.0955  0.1141  0.1821
 2634SOL    HW119535   4.569   2.729   3.260  1.2561 -1.9993  1.2871
 2634SOL    HW219536   4.515   2.592   3.279 -0.2594 -1.7296 -2.3268
 2635SOL     OW19537   1.460   1.713   1.397  0.1807 -0.9327 -0.2844
 2635SOL    HW119538   1.434   1.653   1.327  0.4362 -2.6638  1.1118
 2635SOL    HW219539   1.378   1.746   1.431 -0.2380 -1.8848 -0.3561
 2636SOL     OW19540   1.640   1.076  16.746  0.4127 -0.4227  0.5903
 2636SOL    HW119541   1.683   1.114  16.669  1.1670  0.8298  1.6135
 2636SOL    HW219542   1.589   1.004  16.710 -1.9150  0.9290  1.2246
 2637SOL     OW19543   2.312   3.454   7.024 -0.4282  0.6454 -0.6266
 2637SOL    HW119544   2.283   3.395   6.955 -1.8629 -1.1487  1.5241
 2637SOL    HW219545   2.384   3.504   6.985  1.7810 -1.1645  1.1529
 2638SOL     OW19546   4.562   0.901  10.493  0.2219  0.1268  0.2913
 2638SOL    HW119547   4.590   0.988  10.465 -1.4595  0.8150  0.7520
 2638SOL    HW219548   4.498   0.934  10.556 -0.4768  1.6230 -1.1854
 2639SOL     OW19549   1.013   3.623   4.522 -0.2271 -0.2258  0.0791
 2639SOL    HW119550   1.108   3.630   4.516 -0.3446  0.0778 -1.4270
 2639SOL    HW219551   1.008   3.654   4.613  2.7666  0.4512  0.0324
 2640SOL     OW19552   0.915   4.732   1.017  0.0235 -0.2288 -0.7014
 2640SOL    HW119553   0.907   4.642   1.050  0.2900  0.3764  0.9773
 2640SOL    HW219554   1.010   0.010   1.026 -0.0321  0.3939 -1.0696
 2641SOL     OW19555   3.362   0.668  13.848  0.3201 -0.3951  0.7971
 2641SOL    HW119556   3.274   0.696  13.870  0.1464 -1.3086  1.2704
 2641SOL    HW219557   3.399   0.756  13.840  1.1495 -1.1247 -3.3130
 2642SOL     OW19558   3.111   1.426   6.079  0.0221 -0.1597 -0.1315
 2642SOL    HW119559   3.120   1.394   6.169 -0.6328 -0.1926 -0.0820
 2642SOL    HW219560   3.197   1.408   6.040 -0.2577 -2.1827  0.1755
 2643SOL     OW19561   1.003   1.872  16.778 -0.0540  0.2279 -0.0170
 2643SOL    HW119562   0.993   1.824  16.696 -0.2881 -1.4858  1.0134
 2643SOL    HW219563   1.097   1.867  16.795 -0.3901 -1.1572  1.4975
 2644SOL     OW19564   4.083   2.861  14.257  0.3260  0.0890 -0.1538
 2644SOL    HW119565   4.133   2.783  14.283 -0.4205 -0.4567 -0.3368
 2644SOL    HW219566   4.067   2.900  14.343 -0.3011  1.6181 -0.9746
 2645SOL     OW19567   3.706   3.251   6.973 -0.2507 -0.4159  0.3819
 2645SOL    HW119568   3.798   3.248   7.003  0.1134 -0.4877 -0.7584
 2645SOL    HW219569   3.652   3.282   7.046 -0.0769 -1.0678  0.7883
 2646SOL     OW19570   0.365   2.914   5.164 -0.2601  0.3295 -0.3034
 2646SOL    HW119571   0.401   2.825   5.165  1.0884  0.8789 -1.0054
 2646SOL    HW219572   0.274   2.906   5.195 -0.7145  0.4743 -1.6236
 2647SOL     OW19573   1.583   3.380   4.921 -0.6117 -0.0860  0.0941
 2647SOL    HW119574   1.604   3.337   4.839  1.2973 -1.4521  1.2951
 2647SOL    HW219575   1.557   3.464   4.883 -1.5421 -0.1086  0.6934
 2648SOL     OW19576   4.251   4.365   5.512  0.4543 -0.1790 -0.0515
 2648SOL    HW119577   4.282   4.437   5.566  0.1170 -1.1271  1.4262
 2648SOL    HW219578   4.242   4.409   5.428 -1.4937 -0.6355 -0.1020
 2649SOL     OW19579   1.186   0.818   7.922 -0.0329 -0.0461  0.0148
 2649SOL    HW119580   1.193   0.805   7.828 -1.0019 -1.0234  0.0759
 2649SOL    HW219581   1.218   0.908   7.928  1.5070 -0.6214  0.5396
 2650SOL     OW19582   3.322   1.186   1.169 -0.2130 -0.1487 -0.2017
 2650SOL    HW119583   3.263   1.259   1.152 -0.1921  0.0556  0.6013
 2650SOL    HW219584   3.320   1.179   1.264  1.0726  0.6439 -0.1043
 2651SOL     OW19585   0.096   0.148   4.724  0.1145 -0.3383 -0.0044
 2651SOL    HW119586   0.072   0.143   4.631 -2.9575  1.6276  0.7090
 2651SOL    HW219587   0.180   0.194   4.723  0.4701 -0.9925 -1.0452
 2652SOL     OW19588   2.901   0.343   2.424 -0.7313  0.0292 -0.3424
 2652SOL    HW119589   2.912   0.437   2.414 -0.8943  0.2052  1.1707
 2652SOL    HW219590   2.878   0.311   2.337 -0.1639 -1.6690  0.1347
 2653SOL     OW19591   1.862   3.968   7.085  0.5170 -0.1902  0.2003
 2653SOL    HW119592   1.773   3.999   7.071 -0.9374 -3.0512  3.0832
 2653SOL    HW219593   1.841   3.881   7.118  1.6601  0.3952  2.4884
 2654SOL     OW19594   0.631   2.727   8.583 -0.6139  0.2955 -0.6774
 2654SOL    HW119595   0.711   2.675   8.584 -0.4077  0.6147 -0.4940
 2654SOL    HW219596   0.579   2.686   8.514 -0.1213 -1.4116 -0.0253
 2655SOL     OW19597   2.646   0.743  12.252 -0.2767 -0.0807  0.6598
 2655SOL    HW119598   2.585   0.806  12.216 -1.2452 -0.4103  1.7222
 2655SOL    HW219599   2.682   0.794  12.325  1.4191  1.7854 -1.4807
 2656SOL     OW19600   4.226   0.565   4.500 -0.4628 -0.6738  1.3681
 2656SOL    HW119601   4.251   0.643   4.450  0.4644 -0.5156  2.0969
 2656SOL    HW219602   4.278   0.508   4.445  0.0987 -1.1736  2.4176
 2657SOL     OW19603   4.446   0.898  15.557  0.1629  0.3287  0.1352
 2657SOL    HW119604   4.403   0.875  15.639  1.3081 -1.5681  0.2190
 2657SOL    HW219605   4.377   0.959  15.532  1.8246  1.1528 -2.4664
 2658SOL     OW19606   2.960   2.830   8.669 -0.4686 -0.0013  0.0049
 2658SOL    HW119607   2.986   2.921   8.653  0.8259 -0.9536 -3.1828
 2658SOL    HW219608   2.903   2.851   8.744 -1.0361 -1.8042  0.0795
 2659SOL     OW19609   3.080   1.777   2.493  0.1701 -0.2790  0.3794
 2659SOL    HW119610   3.000   1.746   2.450  1.2767  0.4756 -2.2640
 2659SOL    HW219611   3.048   1.801   2.580  0.0523  0.0306  0.2493
 2660SOL     OW19612   2.252   2.905  13.159 -0.1172  0.3135 -0.3234
 2660SOL    HW119613   2.305   2.830  13.185 -1.0031 -1.0371 -2.3392
 2660SOL    HW219614   2.247   2.949  13.244 -2.0440 -0.5877  0.0208
 2661SOL     OW19615   3.296   2.251   1.018  0.5345 -0.0555  0.3678
 2661SOL    HW119616   3.222   2.206   0.978 -1.1376  1.3352  1.9096
 2661SOL    HW219617   3.297   2.339   0.981 -2.7389  0.2746  1.0758
 2662SOL     OW19618   3.663   1.209  17.423 -0.3980  0.1764  0.1544
 2662SOL    HW119619   3.616   1.268  17.365 -1.4348 -0.1885  0.6266
 2662SOL    HW219620   3.705   1.276  17.477  0.1766 -0.0063 -0.0609
 2663SOL     OW19621   1.548   2.670   3.197  0.1961 -0.0193 -0.3726
 2663SOL    HW119622   1.465   2.700   3.162  0.4548 -1.7727 -2.4979
 2663SOL    HW219623   1.602   2.749   3.205  0.8268 -0.3710 -1.0988
 2664SOL     OW19624   2.090   3.081   6.089 -0.1431  0.0983  0.4851
 2664SOL    HW119625   2.159   3.089   6.023 -0.1008  0.4620  0.5741
 2664SOL    HW219626   2.119   3.142   6.157  0.6933  0.1508  0.0857
 2665SOL     OW19627   3.607   0.111   5.784  0.1244  0.0896  0.4587
 2665SOL    HW119628   3.524   0.076   5.814 -0.6415  1.1216 -0.4386
 2665SOL    HW219629   3.575   0.201   5.775  1.2816  0.6305  1.8791
 2666SOL     OW19630   1.776   3.768  14.431 -0.3708 -0.2509 -0.0996
 2666SOL    HW119631   1.852   3.718  14.461 -1.2397 -0.7151  1.3479
 2666SOL    HW219632   1.758   3.726  14.347 -1.2771  0.6576 -0.3601
 2667SOL     OW19633   2.412   0.918   6.153 -0.7025 -0.0260 -0.2515
 2667SOL    HW119634   2.448   1.004   6.132 -0.7198  0.2786  0.9385
 2667SOL    HW219635   2.369   0.898   6.070 -4.3423 -1.4631  1.9588
 2668SOL     OW19636   3.080   1.984   6.035 -0.5465 -0.0316  0.6278
 2668SOL    HW119637   3.103   2.076   6.036 -1.2129  0.1165  1.9887
 2668SOL    HW219638   3.109   1.952   6.120 -1.9830 -2.4923  0.2007
 2669SOL     OW19639   4.210   3.356  13.094 -0.1063  0.4568  0.5038
 2669SOL    HW119640   4.157   3.419  13.045 -1.3577 -3.0995 -2.7269
 2669SOL    HW219641   4.167   3.352  13.180 -2.7189 -0.5933 -0.8432
 2670SOL     OW19642   3.065   0.269   7.493  0.0454 -0.0468 -0.0779
 2670SOL    HW119643   3.053   0.350   7.544  0.2983 -1.0435  1.5671
 2670SOL    HW219644   2.987   0.219   7.513 -0.4736  0.2305 -1.4126
 2671SOL     OW19645   2.175   3.472   2.637  0.3708  0.6156 -0.3489
 2671SOL    HW119646   2.261   3.485   2.598 -0.0921  0.7574 -1.3266
 2671SOL    HW219647   2.163   3.380   2.614 -1.4884  0.9635 -0.8293
 2672SOL     OW19648   4.013   4.445   3.287 -0.3860 -0.3937  0.5114
 2672SOL    HW119649   4.020   4.506   3.361  0.3728  0.9341 -0.6761
 2672SOL    HW219650   4.019   4.515   3.223  1.0282  0.3353  1.4365
 2673SOL     OW19651   1.859   3.515  17.078 -0.5158 -0.0227  0.2050
 2673SOL    HW119652   1.816   3.552  17.155 -2.5017  1.3134 -1.5411
 2673SOL    HW219653   1.933   3.480  17.127  0.6398  1.0195 -0.8143
 2674SOL     OW19654   1.827   2.992   8.545  0.1670 -0.3472  0.0373
 2674SOL    HW119655   1.795   3.080   8.561  1.2801  0.1536 -0.4726
 2674SOL    HW219656   1.757   2.934   8.574 -1.1227  0.9407 -0.5449
 2675SOL     OW19657   1.346   3.442   5.505 -0.3634  0.2020 -0.5076
 2675SOL    HW119658   1.317   3.379   5.439 -0.0771 -0.5098  0.0532
 2675SOL    HW219659   1.357   3.386   5.581 -1.0854 -1.4282 -1.6037
 2676SOL     OW19660   4.294   0.701   4.761 -0.1405  0.1711  0.3116
 2676SOL    HW119661   4.276   0.642   4.688  1.3175  0.0141  0.0827
 2676SOL    HW219662   4.347   0.766   4.714  0.2325  0.2790  0.8837
 2677SOL     OW19663   4.379   0.372   6.359  0.5813 -1.2172 -0.0075
 2677SOL    HW119664   4.384   0.423   6.277 -1.7517 -0.8471  0.0938
 2677SOL    HW219665   4.292   0.333   6.362  0.7270 -1.6656 -1.4089
 2678SOL     OW19666   3.835   4.195   4.641  0.0999 -0.6787 -0.0776
 2678SOL    HW119667   3.795   4.256   4.579 -1.2942 -0.1557  1.3278
 2678SOL    HW219668   3.765   4.185   4.706 -0.1925 -0.5563 -0.3769
 2679SOL     OW19669   3.020   1.599  17.646 -0.3450 -0.2103  0.2274
 2679SOL    HW119670   2.985   1.512  17.629  2.3146 -1.1113 -0.6169
 2679SOL    HW219671   2.952   1.655  17.608  1.6975  1.1191 -1.4758
 2680SOL     OW19672   1.773   1.668  12.698  0.1105 -0.5057  0.3219
 2680SOL    HW119673   1.846   1.606  12.702  1.7617  1.3225 -1.0121
 2680SOL    HW219674   1.730   1.627  12.623  3.0624  0.4633 -1.9387
 2681SOL     OW19675   0.487   1.827   6.228  0.2313  0.5709 -0.3260
 2681SOL    HW119676   0.543   1.903   6.212 -2.6145  2.1282 -2.6918
 2681SOL    HW219677   0.433   1.865   6.297  1.9479  1.3766  0.5762
 2682SOL     OW19678   4.036   1.759   2.321  0.0730 -0.0052  0.0570
 2682SOL    HW119679   4.008   1.728   2.235  0.1168  0.7733 -0.2284
 2682SOL    HW219680   3.958   1.808   2.350 -0.2426  0.7580 -2.0988
 2683SOL     OW19681   3.424   3.046   1.120 -0.0397  0.0384  0.3735
 2683SOL    HW119682   3.458   3.135   1.128 -0.0646 -0.0815  1.7832
 2683SOL    HW219683   3.429   3.013   1.210 -0.6502 -1.9054 -0.3069
 2684SOL     OW19684   2.387   2.656  17.692  0.2961  0.1783  0.0197
 2684SOL    HW119685   2.334   2.625  17.619 -0.2141 -2.3581  1.4645
 2684SOL    HW219686   2.432   2.730  17.650 -1.1270  2.8418  3.2221
 2685SOL     OW19687   4.494   3.354  15.287  0.0953  0.3189 -0.0265
 2685SOL    HW119688   4.557   3.301  15.335  1.0731  1.2578 -0.2898
 2685SOL    HW219689   4.444   3.398  15.356 -0.0784  0.1715 -0.0569
 2686SOL     OW19690   3.938   2.542   9.993  0.0472 -0.3405 -0.0502
 2686SOL    HW119691   3.854   2.567  10.033  0.4580 -1.4500  1.5400
 2686SOL    HW219692   4.004   2.599  10.033  0.6817  0.3436 -2.0934
 2687SOL     OW19693   0.586   3.822   5.026  0.5270 -0.3373 -0.5449
 2687SOL    HW119694   0.660   3.764   5.040  1.4380  1.5226  2.3420
 2687SOL    HW219695   0.554   3.803   4.938  0.4671 -2.1508 -0.1295
 2688SOL     OW19696   0.280   1.911   6.381 -0.4511 -0.1754 -0.7644
 2688SOL    HW119697   0.189   1.913   6.351 -0.2202 -0.5549 -1.5068
 2688SOL    HW219698   0.300   2.004   6.376 -2.8870  0.4547  1.3738
 2689SOL     OW19699   0.020   0.540   2.900  0.5479 -0.0966 -0.1039
 2689SOL    HW119700   4.716   0.560   2.986  1.7330 -0.7388  0.5863
 2689SOL    HW219701   0.007   0.627   2.864  1.9754 -0.0025 -0.3711
 2690SOL     OW19702   4.217   0.791   1.549  0.2398 -0.4065  0.6708
 2690SOL    HW119703   4.254   0.703   1.554  1.5750  0.0725 -0.8192
 2690SOL    HW219704   4.281   0.841   1.601  1.3097  0.0374 -1.0787
 2691SOL     OW19705   2.934   2.425  15.939 -0.0894 -0.1044  0.3382
 2691SOL    HW119706   2.914   2.354  15.878  2.2245 -0.1515 -0.3927
 2691SOL    HW219707   2.858   2.402  15.993 -0.8409 -0.5728 -0.9268
 2692SOL     OW19708   4.283   3.256   0.821 -0.0943 -0.4616 -0.3931
 2692SOL    HW119709   4.243   3.231   0.738 -0.8696 -1.8721  0.4152
 2692SOL    HW219710   4.204   3.276   0.871  0.2763  0.0734 -0.0079
 2693SOL     OW19711   0.456   1.523   4.167  0.1597 -0.1893  0.7055
 2693SOL    HW119712   0.373   1.558   4.134  0.9116  2.0979  1.2385
 2693SOL    HW219713   0.513   1.558   4.098 -0.6912  1.6599  0.9471
 2694SOL     OW19714   2.997   2.460   3.939  0.3470 -0.2751 -0.6390
 2694SOL    HW119715   3.062   2.508   3.888  1.7411 -0.0801  1.3401
 2694SOL    HW219716   2.934   2.462   3.867 -0.5615  0.0733  0.1641
 2695SOL     OW19717   0.915   3.446   4.827 -0.3266  0.0259  0.2610
 2695SOL    HW119718   0.953   3.533   4.821  1.8156 -0.7114  2.9997
 2695SOL    HW219719   0.987   3.383   4.823 -0.1605  0.3207 -1.2788
 2696SOL     OW19720   1.554   3.145   8.599  0.6571  0.6971 -0.1763
 2696SOL    HW119721   1.530   3.147   8.691  0.5272  2.4757 -0.2554
 2696SOL    HW219722   1.557   3.238   8.574 -0.8529  0.4534 -1.2882
 2697SOL     OW19723   4.286   0.702   5.701  0.1469  0.3943 -0.6745
 2697SOL    HW119724   4.346   0.702   5.628 -0.9566 -1.4662 -1.5707
 2697SOL    HW219725   4.338   0.661   5.771 -0.2521  0.0138 -0.6019
 2698SOL     OW19726   2.591   1.761   2.045  0.9807  0.1079 -0.8536
 2698SOL    HW119727   2.580   1.855   2.053 -0.1916  0.1041 -2.3328
 2698SOL    HW219728   2.634   1.744   2.128  0.1963  0.0627 -0.4545
 2699SOL     OW19729   2.078   1.606  16.203 -0.3426 -0.5217  0.2244
 2699SOL    HW119730   2.025   1.592  16.124 -1.3190  1.3226  0.5527
 2699SOL    HW219731   2.040   1.533  16.252 -0.7528 -0.2954  0.2466
 2700SOL     OW19732   2.931   0.513   5.095 -0.1318 -1.0376  0.0810
 2700SOL    HW119733   2.911   0.577   5.163 -1.1182 -3.4560  2.1127
 2700SOL    HW219734   2.840   0.485   5.089 -0.6401  0.4069  1.0314
 2701SOL     OW19735   1.165   0.677  17.157 -0.5063  0.2052 -0.3677
 2701SOL    HW119736   1.177   0.612  17.227 -2.0488  0.0491 -0.2494
 2701SOL    HW219737   1.225   0.737  17.201 -0.7784  1.2841 -1.4660
 2702SOL     OW19738   1.152   4.556   8.484  0.3094 -0.4732 -0.2615
 2702SOL    HW119739   1.205   4.555   8.404 -0.2913  0.2123 -0.6661
 2702SOL    HW219740   1.189   4.637   8.520  0.8317 -1.2056  0.8580
 2703SOL     OW19741   0.590   0.873   0.485  0.1831 -0.0239  0.4072
 2703SOL    HW119742   0.666   0.929   0.470  0.5861 -1.0186 -1.1784
 2703SOL    HW219743   0.633   0.788   0.478  1.4098  0.3543  3.4431
 2704SOL     OW19744   0.237   3.904   6.280 -0.5970 -0.1402  0.2993
 2704SOL    HW119745   0.233   3.999   6.293  1.4862  0.0798 -0.6115
 2704SOL    HW219746   0.242   3.866   6.368 -1.7274 -0.5080  0.2003
 2705SOL     OW19747   3.906   3.732   6.811 -0.0036  0.5506  0.4329
 2705SOL    HW119748   3.965   3.802   6.841  1.1951 -0.4005  0.2787
 2705SOL    HW219749   3.963   3.693   6.745 -2.3842  0.4491 -1.5545
 2706SOL     OW19750   0.136   3.044   9.707 -0.0424 -0.1948  0.2993
 2706SOL    HW119751   0.203   3.020   9.771  0.0890 -1.0992 -0.1709
 2706SOL    HW219752   0.057   3.009   9.748 -0.0966  1.5788  1.7111
 2707SOL     OW19753   2.689   3.168   8.647  0.8563  0.2296  0.0727
 2707SOL    HW119754   2.714   3.083   8.683 -1.0517 -0.5690 -0.5174
 2707SOL    HW219755   2.603   3.148   8.610  0.8396  1.1379 -0.3878
 2708SOL     OW19756   1.022   2.124   7.600  0.2869  0.1413 -0.2580
 2708SOL    HW119757   1.006   2.188   7.530  0.7132 -0.0780 -0.5551
 2708SOL    HW219758   0.967   2.050   7.574  0.4550 -0.3620  0.8404
 2709SOL     OW19759   1.942   2.337   3.848  0.3269 -0.3221  0.2002
 2709SOL    HW119760   2.020   2.367   3.894 -0.0024 -0.8442  1.0879
 2709SOL    HW219761   1.966   2.369   3.761  1.9027  0.6336  0.9984
 2710SOL     OW19762   3.214   1.433   5.635 -0.5292  0.2159  0.0584
 2710SOL    HW119763   3.224   1.492   5.710  1.5324 -1.4177  1.0414
 2710SOL    HW219764   3.303   1.438   5.601 -0.5814 -0.2261 -0.1412
 2711SOL     OW19765   2.282   2.208  11.468  0.0359  0.6444  0.0931
 2711SOL    HW119766   2.348   2.139  11.477  2.7278  3.0783 -0.8376
 2711SOL    HW219767   2.314   2.264  11.539 -0.0413  0.5816  0.1764
 2712SOL     OW19768   1.703   1.360   4.785 -0.2355 -0.1725 -0.0339
 2712SOL    HW119769   1.708   1.445   4.740 -3.5896  1.9027  3.5027
 2712SOL    HW219770   1.608   1.353   4.796 -0.0276 -2.9286 -0.0167
 2713SOL     OW19771   1.336   4.282   1.987 -0.1899 -0.5114 -0.2313
 2713SOL    HW119772   1.299   4.198   1.958 -2.4007 -0.4862  2.4809
 2713SOL    HW219773   1.394   4.292   1.912  2.1282 -1.6150  1.4020
 2714SOL     OW19774   4.154   4.572   5.176 -0.4256 -0.4207  0.5225
 2714SOL    HW119775   4.223   4.514   5.208 -0.6852 -0.0731  1.7508
 2714SOL    HW219776   4.089   4.502   5.180 -0.7047 -0.1971 -0.1112
 2715SOL     OW19777   4.357   3.068  11.169  0.3483  0.3709 -0.2994
 2715SOL    HW119778   4.269   3.096  11.145  0.4510  1.3022  0.4089
 2715SOL    HW219779   4.365   3.104  11.257  0.9133  1.0693 -0.6387
 2716SOL     OW19780   3.268   3.019   3.691 -0.1163  0.2790 -0.5153
 2716SOL    HW119781   3.268   2.943   3.633 -1.3191 -0.7343  0.8092
 2716SOL    HW219782   3.349   3.055   3.654  0.8803 -0.1278  1.2847
 2717SOL     OW19783   4.596   0.439   9.338  0.2464  0.9840  0.1650
 2717SOL    HW119784   4.574   0.379   9.266 -0.6868  2.5590 -0.8759
 2717SOL    HW219785   4.512   0.483   9.354  0.4645  2.1311 -1.7422
 2718SOL     OW19786   1.833   1.105  16.993  0.2321 -0.2977 -0.2017
 2718SOL    HW119787   1.781   1.167  16.943  0.4765  0.4482  0.4697
 2718SOL    HW219788   1.857   1.036  16.931  0.4276 -0.9640  0.6099
 2719SOL     OW19789   2.417   1.118  17.487 -0.1881  0.3384  0.3296
 2719SOL    HW119790   2.392   1.050  17.423 -0.0032  0.1901  0.4158
 2719SOL    HW219791   2.374   1.081  17.564  2.5458  0.3349  1.8674
 2720SOL     OW19792   1.747   2.263   8.994  0.3210  0.4662 -0.4913
 2720SOL    HW119793   1.808   2.287   8.925  0.7714 -0.6096 -0.4590
 2720SOL    HW219794   1.802   2.250   9.071  0.1322 -3.1201 -0.9757
 2721SOL     OW19795   0.170   1.994   9.280  0.2727 -0.0589  0.3487
 2721SOL    HW119796   0.125   2.021   9.200 -1.6483 -0.3484  1.3311
 2721SOL    HW219797   0.122   1.913   9.301  0.4663 -0.3365 -0.2793
 2722SOL     OW19798   1.619   2.428  10.514 -0.2467  0.3670 -0.1651
 2722SOL    HW119799   1.598   2.412  10.422  0.6972  2.1931 -0.7051
 2722SOL    HW219800   1.576   2.510  10.537 -0.9829  0.4661 -1.9341
 2723SOL     OW19801   0.444   0.037   4.230  0.2962 -0.6610  0.1468
 2723SOL    HW119802   0.417   4.680   4.230  0.2298 -0.6424  1.4909
 2723SOL    HW219803   0.440   0.049   4.325 -1.0235  0.0688  0.0105
 2724SOL     OW19804   2.004   3.680  15.517  0.0735  0.0411 -0.0272
 2724SOL    HW119805   1.975   3.743  15.582 -1.2650  1.4626 -1.9967
 2724SOL    HW219806   1.955   3.601  15.541  1.3309 -0.7664 -0.1185
 2725SOL     OW19807   1.535   2.184  16.007 -0.1181  0.4420 -0.2575
 2725SOL    HW119808   1.467   2.244  15.977 -0.2626  0.0707 -0.6841
 2725SOL    HW219809   1.561   2.214  16.094 -2.7449 -2.5810  1.5684
 2726SOL     OW19810   1.595   1.128   2.218  0.1413 -0.0940 -0.0421
 2726SOL    HW119811   1.547   1.164   2.293 -0.7359  0.1632 -0.7270
 2726SOL    HW219812   1.574   1.187   2.146 -0.0554  0.2752  0.3181
 2727SOL     OW19813   1.333   2.007  13.005  0.0698 -0.1659 -0.0938
 2727SOL    HW119814   1.395   2.014  12.932 -0.1930 -0.8019 -0.3744
 2727SOL    HW219815   1.395   1.973  13.069 -2.4104 -0.0273  2.3450
 2728SOL     OW19816   0.622   2.126  13.863 -0.4352 -0.5318 -0.2764
 2728SOL    HW119817   0.668   2.179  13.929  2.1192 -2.0427 -0.8433
 2728SOL    HW219818   0.535   2.128  13.901 -0.1444 -1.0982  0.4185
 2729SOL     OW19819   4.588   1.931  15.735  0.1512 -0.1257 -0.5615
 2729SOL    HW119820   4.501   1.901  15.764  0.2197  0.5882  0.3869
 2729SOL    HW219821   4.601   2.003  15.797 -1.5331  0.1130 -0.4793
 2730SOL     OW19822   1.749   4.318   9.643 -0.2729  0.0840 -0.5979
 2730SOL    HW119823   1.670   4.326   9.590  0.2644  0.0077 -1.4039
 2730SOL    HW219824   1.817   4.337   9.579  0.2532  1.2760  0.3194
 2731SOL     OW19825   4.191   0.129   3.528 -0.2096 -0.5696  0.2836
 2731SOL    HW119826   4.267   0.187   3.516  0.2584 -1.3937 -0.7435
 2731SOL    HW219827   4.185   0.130   3.624  2.4155 -0.8598  0.4519
 2732SOL     OW19828   3.479   4.081   2.234  0.3597  0.2925  0.0965
 2732SOL    HW119829   3.487   3.987   2.217  1.7176  0.3593  0.3745
 2732SOL    HW219830   3.432   4.089   2.151  0.7574  2.2721  0.0554
 2733SOL     OW19831   3.222   3.015   6.438  0.5238 -0.2860  0.0246
 2733SOL    HW119832   3.173   3.038   6.359 -0.0614 -0.5620  0.3103
 2733SOL    HW219833   3.246   3.101   6.473 -0.7226  0.2328 -0.4012
 2734SOL     OW19834   1.516   4.355   7.575  0.0149  0.3119 -0.0730
 2734SOL    HW119835   1.474   4.371   7.491 -1.1013  1.3116  0.6769
 2734SOL    HW219836   1.543   4.444   7.599 -1.5850  0.8675 -0.3819
 2735SOL     OW19837   1.848   1.040   7.769  0.3177 -0.0794 -0.2093
 2735SOL    HW119838   1.805   0.972   7.820 -2.2902 -0.8369 -3.4018
 2735SOL    HW219839   1.778   1.100   7.746  0.2353  0.7314  2.1371
 2736SOL     OW19840   3.860   3.453   5.353  0.1229 -0.4930  0.0713
 2736SOL    HW119841   3.918   3.525   5.379  2.0345 -1.3219 -1.7973
 2736SOL    HW219842   3.913   3.375   5.370 -2.2917 -1.5843  2.5716
 2737SOL     OW19843   2.851   4.320  15.719  0.0156 -0.1196 -0.6828
 2737SOL    HW119844   2.927   4.263  15.733 -1.5605 -2.6035 -2.1306
 2737SOL    HW219845   2.892   4.401  15.690  0.4759  0.3490  1.2666
 2738SOL     OW19846   4.092   3.238   8.162 -0.0247  0.3592 -0.2814
 2738SOL    HW119847   4.007   3.199   8.144  0.0588 -0.5286  1.1967
 2738SOL    HW219848   4.140   3.168   8.208 -0.6271  0.1562  0.0365
 2739SOL     OW19849   2.113   1.971   6.543 -0.2721  0.1916  0.2260
 2739SOL    HW119850   2.131   1.982   6.449  0.4655  2.3113  0.6199
 2739SOL    HW219851   2.150   2.056   6.567 -0.5700  0.7658 -1.3327
 2740SOL     OW19852   1.125   3.814   0.844  0.0100  0.1988  0.2045
 2740SOL    HW119853   1.207   3.802   0.892 -1.1310  0.4331  2.2524
 2740SOL    HW219854   1.144   3.777   0.758  1.3938  0.4228  0.4110
 2741SOL     OW19855   3.690   0.769  16.090 -0.1137  0.3594 -0.0483
 2741SOL    HW119856   3.671   0.853  16.049  1.6110  1.2886  1.0297
 2741SOL    HW219857   3.617   0.719  16.054 -0.7938  1.2890  0.0346
 2742SOL     OW19858   2.610   3.569  14.531  0.1489  0.1310 -0.5530
 2742SOL    HW119859   2.668   3.568  14.455 -2.2977 -0.5879 -2.3841
 2742SOL    HW219860   2.554   3.639  14.498 -0.6510 -0.1761  0.1712
 2743SOL     OW19861   4.283   2.091  14.697  0.7819  0.1743 -0.1413
 2743SOL    HW119862   4.210   2.030  14.703  0.4788  0.6821  1.3622
 2743SOL    HW219863   4.260   2.163  14.755 -0.3847 -0.5039  0.2384
 2744SOL     OW19864   3.660   2.456   2.778  0.2001 -0.1498 -0.2876
 2744SOL    HW119865   3.653   2.545   2.812 -1.3193 -1.0858  1.7844
 2744SOL    HW219866   3.672   2.471   2.684  1.7107 -0.2572 -0.1161
 2745SOL     OW19867   3.862   3.036   7.228  0.1927 -0.4075 -0.3256
 2745SOL    HW119868   3.952   3.038   7.258 -0.7540  0.8514  2.4435
 2745SOL    HW219869   3.818   3.101   7.283  0.3890 -0.4508 -0.1161
 2746SOL     OW19870   4.257   3.189  16.463 -0.2639 -0.2616  0.5101
 2746SOL    HW119871   4.328   3.247  16.491 -0.8408  0.5370  0.3205
 2746SOL    HW219872   4.243   3.129  16.536  1.4674 -1.1929  0.0703
 2747SOL     OW19873   2.767   1.895   5.000  0.1377  0.6416  0.1591
 2747SOL    HW119874   2.858   1.920   5.018 -0.1508  0.7575  1.4537
 2747SOL    HW219875   2.787   1.812   4.956 -0.7419 -0.8462  2.5847
 2748SOL     OW19876   1.043   0.029  17.729  0.0885  0.0609  0.3158
 2748SOL    HW119877   0.955   0.031   0.028  0.3800 -1.2875  1.0736
 2748SOL    HW219878   1.029   0.021  17.635 -0.3108 -2.5537  0.5814
 2749SOL     OW19879   1.201   3.336  15.309  0.5947 -0.3339  0.1141
 2749SOL    HW119880   1.202   3.393  15.232 -0.8852  0.5946  0.7745
 2749SOL    HW219881   1.115   3.364  15.341 -0.0081 -1.1380 -0.7736
 2750SOL     OW19882   4.241   1.510   6.448 -1.1256  0.7123 -0.1261
 2750SOL    HW119883   4.208   1.436   6.396  1.3907 -0.3309 -0.2294
 2750SOL    HW219884   4.331   1.513   6.415 -1.1874 -0.2955 -0.4032
 2751SOL     OW19885   0.286   2.952   2.437  0.0074  0.2272 -0.5271
 2751SOL    HW119886   0.256   3.018   2.499  1.7885  0.4364  0.1083
 2751SOL    HW219887   0.367   2.992   2.404  0.1620 -0.8477 -1.4492
 2752SOL     OW19888   4.161   1.828   4.600  0.3144 -0.3994  0.1667
 2752SOL    HW119889   4.220   1.754   4.614  2.1109  0.8920 -0.6079
 2752SOL    HW219890   4.075   1.789   4.617 -0.0912  0.5600  0.3120
 2753SOL     OW19891   2.155   2.671   9.039  0.4164  0.1397 -0.1138
 2753SOL    HW119892   2.109   2.727   9.102  0.0057  0.1420 -0.4123
 2753SOL    HW219893   2.242   2.712   9.040  0.6944 -0.4660  0.3777
 2754SOL     OW19894   4.577   3.822   3.779 -0.1659 -0.0985  0.2842
 2754SOL    HW119895   4.522   3.811   3.857 -1.0157 -0.6773 -0.4016
 2754SOL    HW219896   4.658   3.784   3.813  0.9008  0.3399 -1.7939
 2755SOL     OW19897   3.643   3.306  16.689  0.0321  0.5597  0.5465
 2755SOL    HW119898   3.683   3.234  16.737 -1.1335 -0.3686  0.1146
 2755SOL    HW219899   3.664   3.382  16.744  0.5234  0.9617 -0.1881
 2756SOL     OW19900   4.654   1.817   4.428  0.2011  0.0215  0.2108
 2756SOL    HW119901   4.577   1.773   4.392 -0.3159  0.3370  0.9338
 2756SOL    HW219902   4.717   1.797   4.359  1.8593  1.9510  1.1968
 2757SOL     OW19903   0.634   0.273   8.381 -0.0339 -0.2371  0.2315
 2757SOL    HW119904   0.610   0.216   8.308 -1.2029  0.5619 -0.0154
 2757SOL    HW219905   0.629   0.364   8.353  0.3571 -0.7692 -1.5318
 2758SOL     OW19906   2.926   1.330   3.882 -0.2720 -0.2013  0.1480
 2758SOL    HW119907   3.000   1.275   3.857 -1.4744 -2.6267  1.9500
 2758SOL    HW219908   2.966   1.374   3.957 -0.1940 -2.0543  1.1947
 2759SOL     OW19909   0.483   0.356   2.375  0.1410  0.2421  0.4333
 2759SOL    HW119910   0.399   0.362   2.421  1.1837 -1.2600  2.5143
 2759SOL    HW219911   0.538   0.406   2.436 -0.8302  2.4089 -0.4525
 2760SOL     OW19912   1.506   2.570   4.974 -0.4103 -0.4708 -0.3533
 2760SOL    HW119913   1.468   2.492   5.015  0.2761 -0.0681  1.0354
 2760SOL    HW219914   1.447   2.591   4.902  1.0211  1.1474 -1.0744
 2761SOL     OW19915   0.224   2.724   8.266  1.0785 -0.1858  0.0309
 2761SOL    HW119916   0.295   2.788   8.268  1.0589 -0.1603 -0.0732
 2761SOL    HW219917   0.201   2.731   8.173  1.1077 -0.6257 -0.0081
 2762SOL     OW19918   4.691   4.663   9.769  0.3309  1.0077 -0.0196
 2762SOL    HW119919   4.645   4.719   9.832  2.9420  0.2851  2.5372
 2762SOL    HW219920   0.044   4.683   9.801 -0.1776 -2.3263  3.4970
 2763SOL     OW19921   2.050   1.737   7.877  0.1206 -0.3741  0.1595
 2763SOL    HW119922   2.074   1.823   7.841  1.0222 -0.0290  1.5530
 2763SOL    HW219923   1.955   1.743   7.877  0.2418  1.7560 -0.9750
 2764SOL     OW19924   4.422   0.325  16.708  0.2471  0.4343  0.1839
 2764SOL    HW119925   4.411   0.418  16.689 -0.4044  0.4902  0.8552
 2764SOL    HW219926   4.332   0.299  16.690  0.6522 -1.1014  0.3026
 2765SOL     OW19927   4.352   3.676   0.712 -0.5297  0.0898  0.3192
 2765SOL    HW119928   4.345   3.649   0.803  1.6611  0.7084  0.6617
 2765SOL    HW219929   4.355   3.771   0.727 -0.4580  0.3721 -1.4487
 2766SOL     OW19930   0.036   0.207   6.975 -0.0772  0.4564  0.2307
 2766SOL    HW119931   0.113   0.259   6.999 -0.0819  0.9366 -0.8100
 2766SOL    HW219932   4.699   0.264   7.001  0.0128  0.4831  0.4231
 2767SOL     OW19933   2.814   2.338   9.216  0.3258  0.1744  0.3214
 2767SOL    HW119934   2.862   2.368   9.293  2.0037  0.7161 -0.9431
 2767SOL    HW219935   2.757   2.414   9.205 -1.9555 -1.5466  0.2267
 2768SOL     OW19936   2.252   2.552   8.650  0.2599 -0.1207  0.5600
 2768SOL    HW119937   2.345   2.572   8.634 -0.0581 -0.4310 -1.6671
 2768SOL    HW219938   2.271   2.477   8.707 -1.0563 -1.3228 -0.5864
 2769SOL     OW19939   1.780   3.142   3.940  0.1330 -0.6452  0.3255
 2769SOL    HW119940   1.764   3.063   3.889 -0.7773  0.3069 -0.8552
 2769SOL    HW219941   1.768   3.221   3.887  1.0487  0.4039  1.6809
 2770SOL     OW19942   2.899   0.739  11.953  0.3153 -0.2960 -0.0999
 2770SOL    HW119943   2.843   0.686  12.010  1.2970  0.8007  1.8837
 2770SOL    HW219944   2.946   0.672  11.902  1.4565 -0.6114  1.3381
 2771SOL     OW19945   0.486   4.571   7.284 -0.1134 -0.4340 -0.2509
 2771SOL    HW119946   0.521   4.487   7.312 -1.2053 -1.2716 -1.4004
 2771SOL    HW219947   0.398   4.564   7.322  0.7419  0.1533  1.8013
 2772SOL     OW19948   1.070   3.647   5.788  0.1574 -0.5527 -0.0643
 2772SOL    HW119949   1.040   3.570   5.739  3.0621 -0.6251 -1.7178
 2772SOL    HW219950   1.000   3.654   5.853 -0.8954 -0.1128 -1.2422
 2773SOL     OW19951   2.568   4.536   5.795 -0.3817  0.1821  0.1815
 2773SOL    HW119952   2.477   4.566   5.795 -1.0762 -1.9740 -1.4235
 2773SOL    HW219953   2.598   4.562   5.708  1.5335 -0.2414  0.7265
 2774SOL     OW19954   1.399   3.235   1.603  0.0089  0.2272 -0.0410
 2774SOL    HW119955   1.432   3.167   1.661  0.2458  0.7653  0.4537
 2774SOL    HW219956   1.305   3.232   1.620  0.0914  0.7459  0.5137
 2775SOL     OW19957   2.858   2.521   0.205 -1.0889 -0.0172 -0.1965
 2775SOL    HW119958   2.771   2.555   0.186 -1.9626 -1.9886  0.2990
 2775SOL    HW219959   2.865   2.512   0.300  0.4068  0.4488 -0.2629
 2776SOL     OW19960   2.820   1.266   0.422 -0.1372 -0.0117  0.0931
 2776SOL    HW119961   2.831   1.190   0.478  0.4592  1.6073  2.1648
 2776SOL    HW219962   2.904   1.271   0.376  1.6854  2.3975  3.7232
 2777SOL     OW19963   2.020   4.718   9.321 -0.3421  0.0830  0.2925
 2777SOL    HW119964   2.086   4.720   9.390  0.9914 -2.1749 -0.8784
 2777SOL    HW219965   2.059   4.649   9.267  0.0442  1.1604 -0.7923
 2778SOL     OW19966   2.855   1.666   3.022  0.1257  0.0620 -0.0742
 2778SOL    HW119967   2.931   1.724   3.025 -1.2114  2.0012 -3.1852
 2778SOL    HW219968   2.900   1.589   3.057  3.4515  3.0791  2.3394
 2779SOL     OW19969   1.416   0.964   1.235 -0.4941  0.4465 -0.4544
 2779SOL    HW119970   1.426   0.871   1.257  1.3708  0.7066 -0.1689
 2779SOL    HW219971   1.321   0.970   1.222 -0.5197  1.1308  0.0683
 2780SOL     OW19972   0.672   1.354  13.300  0.7399  0.7217  0.2966
 2780SOL    HW119973   0.669   1.288  13.369  0.6710  0.7927  0.3611
 2780SOL    HW219974   0.613   1.421  13.333  1.1366  1.2532 -0.0510
 2781SOL     OW19975   3.981   3.867   4.215 -0.1825 -0.6118 -0.7028
 2781SOL    HW119976   3.890   3.846   4.194 -0.1579 -0.0118 -1.4136
 2781SOL    HW219977   4.011   3.800   4.276 -1.8188 -0.9606 -0.2880
 2782SOL     OW19978   1.381   1.805   3.775  0.4564  0.0838 -0.3305
 2782SOL    HW119979   1.368   1.711   3.762  2.3668 -0.2502  0.2318
 2782SOL    HW219980   1.292   1.833   3.796  0.2155 -1.5391  0.7353
 2783SOL     OW19981   3.420   0.158   2.824  0.2444  0.2105  0.0835
 2783SOL    HW119982   3.465   0.206   2.894 -1.3426  2.6200 -0.5599
 2783SOL    HW219983   3.472   0.188   2.749  0.7894  0.0236  0.3866
 2784SOL     OW19984   1.776   2.256   2.887  0.2922 -0.1210  0.1292
 2784SOL    HW119985   1.737   2.319   2.947  0.5812 -0.6910  0.9115
 2784SOL    HW219986   1.844   2.310   2.848 -1.7815  1.8704 -0.7617
 2785SOL     OW19987   2.983   3.017   5.782  0.4412  0.3503  0.0501
 2785SOL    HW119988   2.902   2.969   5.796 -0.4160  1.3708 -1.4493
 2785SOL    HW219989   2.956   3.093   5.731 -0.2808 -0.3173 -0.5618
 2786SOL     OW19990   3.916   3.556   6.306  0.3180 -0.4860  0.0029
 2786SOL    HW119991   4.002   3.580   6.271 -0.8437  0.6650 -2.0525
 2786SOL    HW219992   3.914   3.632   6.365 -0.2618 -2.5436  2.6560
 2787SOL     OW19993   1.469   3.592   6.653 -0.3233  0.0915  0.2384
 2787SOL    HW119994   1.397   3.571   6.594  0.0376  1.7983 -0.8048
 2787SOL    HW219995   1.478   3.501   6.681  2.3426  0.9939  2.3180
 2788SOL     OW19996   2.278   1.522   3.954  0.0732  0.2636  0.5673
 2788SOL    HW119997   2.268   1.588   4.023 -0.0583  1.0761 -0.2285
 2788SOL    HW219998   2.229   1.455   4.001 -3.1439  0.2347 -2.8504
 2789SOL     OW19999   3.012   3.364   4.005 -0.2093  0.1076  0.0707
 2789SOL    HW120000   3.027   3.406   3.920 -0.0155  0.9345  0.5204
 2789SOL    HW220001   3.031   3.271   3.987 -0.7000 -0.1688  1.0157
 2790SOL     OW20002   4.275   1.820   8.835 -0.1190  0.2254  0.5962
 2790SOL    HW120003   4.255   1.808   8.742  1.6441  0.0225  0.2396
 2790SOL    HW220004   4.203   1.876   8.864 -1.5389 -1.5891  0.5113
 2791SOL     OW20005   0.439   1.162   1.860  0.0520  0.0372 -0.0441
 2791SOL    HW120006   0.353   1.202   1.851  0.6223  1.1288 -0.7618
 2791SOL    HW220007   0.415   1.078   1.899  0.0564  0.2112  0.3397
 2792SOL     OW20008   1.757   2.675   2.067 -0.5418  0.1320 -0.0209
 2792SOL    HW120009   1.804   2.727   2.132 -1.5544  0.1993  0.6549
 2792SOL    HW220010   1.795   2.587   2.074  0.2523  0.4028 -0.9359
 2793SOL     OW20011   1.291   3.872   8.093 -0.2110  0.0186  0.1601
 2793SOL    HW120012   1.299   3.827   8.009  0.2197 -0.6882  0.5796
 2793SOL    HW220013   1.204   3.907   8.076 -1.1716 -2.6319 -0.3596
 2794SOL     OW20014   2.022   3.352   6.647 -0.0848 -0.2634 -0.1796
 2794SOL    HW120015   2.110   3.335   6.681 -0.2294 -1.8767 -0.6446
 2794SOL    HW220016   2.014   3.271   6.597 -2.9075  1.9326 -3.2210
 2795SOL     OW20017   1.814   2.938  12.885 -0.0356 -0.3591 -0.2334
 2795SOL    HW120018   1.780   2.930  12.974  0.1842 -1.3459 -0.2345
 2795SOL    HW220019   1.905   2.927  12.911 -0.3481 -0.4726  0.7915
 2796SOL     OW20020   1.434   0.559   7.680  0.1353 -0.0459  0.2046
 2796SOL    HW120021   1.417   0.537   7.771 -1.1265  1.9700  0.4533
 2796SOL    HW220022   1.528   0.544   7.669 -0.0474 -0.5758 -0.6310
 2797SOL     OW20023   4.241   0.826   6.332  0.3826 -0.0705 -0.3363
 2797SOL    HW120024   4.223   0.764   6.402 -1.0109  0.1982 -0.4689
 2797SOL    HW220025   4.333   0.844   6.355  0.0228 -0.5164  1.4491
 2798SOL     OW20026   0.710   1.832   3.649  0.1298 -0.3369  0.1464
 2798SOL    HW120027   0.634   1.884   3.674  0.3848 -0.4535  1.1400
 2798SOL    HW220028   0.772   1.894   3.609 -2.6713  0.2557 -3.3289
 2799SOL     OW20029   0.241   4.580   0.773  0.1612 -0.2142  0.1314
 2799SOL    HW120030   0.319   4.609   0.725  1.8226  0.4964  3.3092
 2799SOL    HW220031   0.271   4.497   0.810 -3.5861 -2.8148 -2.7149
 2800SOL     OW20032   0.385   0.302   9.113  0.7396 -0.2475  0.7451
 2800SOL    HW120033   0.393   0.341   9.026  1.2335 -1.6668  0.1623
 2800SOL    HW220034   0.384   0.386   9.161  1.0346  1.2727 -1.9127
 2801SOL     OW20035   2.423   2.360   8.408 -0.2457 -0.4628  0.1180
 2801SOL    HW120036   2.484   2.411   8.462 -1.7607  0.2436  1.1498
 2801SOL    HW220037   2.348   2.345   8.465  0.9411 -0.3698  1.7078
 2802SOL     OW20038   3.342   3.100   4.303  0.3720 -0.1120 -0.5003
 2802SOL    HW120039   3.389   3.100   4.220  0.4802  2.6935 -0.4421
 2802SOL    HW220040   3.385   3.161   4.363 -1.1885  0.4385  0.0779
 2803SOL     OW20041   3.338   3.643   0.983 -0.3032  0.3206  0.4516
 2803SOL    HW120042   3.324   3.623   0.890  1.2450  1.0443  0.0748
 2803SOL    HW220043   3.433   3.630   0.979 -0.5190 -1.1895  0.2538
 2804SOL     OW20044   2.033   3.356   6.334 -0.1364  0.2121 -0.3606
 2804SOL    HW120045   2.124   3.378   6.351  0.0927 -1.3357  0.4434
 2804SOL    HW220046   1.994   3.443   6.325  0.0760  0.2613 -0.8217
 2805SOL     OW20047   2.590   3.417   6.082 -0.3922 -0.5012 -0.4920
 2805SOL    HW120048   2.610   3.343   6.140 -0.7353 -0.9733 -0.9767
 2805SOL    HW220049   2.523   3.459   6.136 -1.4311  0.4245 -2.5077
 2806SOL     OW20050   1.555   2.193  13.173  0.3532  0.4407  0.2929
 2806SOL    HW120051   1.597   2.158  13.094 -2.2252  1.0129 -1.3388
 2806SOL    HW220052   1.492   2.253  13.131  1.1526  0.5721 -0.7303
 2807SOL     OW20053   3.550   0.120  16.196 -0.2565  0.5047 -0.2425
 2807SOL    HW120054   3.497   0.046  16.224 -0.7002  0.3156 -1.5603
 2807SOL    HW220055   3.557   0.173  16.275  1.7917 -0.1832  0.0320
 2808SOL     OW20056   3.397   0.994   8.269 -0.0746 -0.9134 -0.1659
 2808SOL    HW120057   3.424   0.998   8.177  0.5611  1.0313  0.1104
 2808SOL    HW220058   3.302   0.993   8.264 -0.1899 -0.6610  2.1064
 2809SOL     OW20059   0.771   3.087   2.725 -0.3534 -0.6380 -0.0620
 2809SOL    HW120060   0.859   3.062   2.753 -0.5017  1.5389  2.3191
 2809SOL    HW220061   0.784   3.085   2.630 -0.4794 -3.7038 -0.0186
 2810SOL     OW20062   1.639   3.633   5.139  0.4445  0.1745  0.1420
 2810SOL    HW120063   1.551   3.609   5.111  1.2078  0.5876 -2.6889
 2810SOL    HW220064   1.615   3.700   5.204 -0.5703  1.3331 -1.4234
 2811SOL     OW20065   3.097   1.730   8.714  0.3276 -0.2235  0.3239
 2811SOL    HW120066   3.062   1.809   8.672  2.6484 -0.7243 -2.4989
 2811SOL    HW220067   3.191   1.742   8.700  0.6368 -1.9212  1.0063
 2812SOL     OW20068   0.972   0.687   3.340 -0.4859  0.2191 -0.1973
 2812SOL    HW120069   0.937   0.634   3.268 -2.4145  0.1226  0.8004
 2812SOL    HW220070   1.061   0.698   3.308 -0.1908  0.4870  0.7253
 2813SOL     OW20071   3.156   1.600   3.348 -0.0823  0.1980 -0.1327
 2813SOL    HW120072   3.213   1.658   3.298 -0.6874 -0.4281 -1.5729
 2813SOL    HW220073   3.123   1.553   3.271 -3.0164  0.2732  1.0946
 2814SOL     OW20074   2.628   3.068   0.526 -0.2093 -0.0915  0.3165
 2814SOL    HW120075   2.538   3.067   0.493 -1.2691  1.2741  3.2175
 2814SOL    HW220076   2.675   2.993   0.490  0.5169  1.0175 -1.0598
 2815SOL     OW20077   2.338   0.172   3.052 -0.4391 -0.1690 -0.1170
 2815SOL    HW120078   2.423   0.136   3.028 -0.5813 -2.0873  2.1807
 2815SOL    HW220079   2.288   0.090   3.048  0.1515 -0.5516  0.3431
 2816SOL     OW20080   0.487   3.743   3.341  0.5572 -0.2559 -0.1147
 2816SOL    HW120081   0.541   3.775   3.269  0.9278  0.5250  0.5131
 2816SOL    HW220082   0.405   3.790   3.327  1.7529  1.5950 -0.9403
 2817SOL     OW20083   0.487   2.600   7.317  0.3073 -0.3180  0.5416
 2817SOL    HW120084   0.514   2.666   7.380 -0.5634  0.3116  0.2577
 2817SOL    HW220085   0.569   2.582   7.270  0.5280  2.0349  0.0091
 2818SOL     OW20086   2.666   2.016   8.608 -0.3661  0.2375 -0.0533
 2818SOL    HW120087   2.571   2.028   8.607 -0.2447  1.2048  0.4443
 2818SOL    HW220088   2.670   1.944   8.544  0.8519  1.1041 -0.9599
 2819SOL     OW20089   3.692   2.611   3.723 -0.3138  0.2758 -0.2714
 2819SOL    HW120090   3.758   2.636   3.658  0.4351 -2.5618 -0.6165
 2819SOL    HW220091   3.639   2.690   3.716 -0.5155  0.2788  1.2432
 2820SOL     OW20092   2.190   4.035   6.264 -0.1785  0.2420  0.3582
 2820SOL    HW120093   2.229   4.080   6.189 -0.3788  1.0958  0.7734
 2820SOL    HW220094   2.119   4.096   6.281 -1.7797 -1.9744  1.6093
 2821SOL     OW20095   0.523   2.702   9.418  0.1845  0.4657 -0.2411
 2821SOL    HW120096   0.495   2.634   9.357  1.0787  0.8306 -1.0433
 2821SOL    HW220097   0.441   2.713   9.467  1.9407  0.6250  2.6751
 2822SOL     OW20098   2.476   0.779   4.485 -0.3935  0.3291  0.2364
 2822SOL    HW120099   2.388   0.769   4.523  0.1992  1.9860  2.0462
 2822SOL    HW220100   2.509   0.691   4.505  1.4004  0.9471  0.0084
 2823SOL     OW20101   1.269   2.107   8.350 -0.5372 -0.1022 -0.2000
 2823SOL    HW120102   1.353   2.151   8.338 -0.6007  0.1345  0.2305
 2823SOL    HW220103   1.227   2.162   8.417  1.0591  0.9202 -0.0509
 2824SOL     OW20104   2.093   1.791   9.197  0.7813  0.6820 -0.2471
 2824SOL    HW120105   2.076   1.714   9.142  1.1995  0.2005  0.3011
 2824SOL    HW220106   2.151   1.844   9.141  1.0371  1.4040  0.7080
 2825SOL     OW20107   3.237   4.180   4.307 -0.4507  0.2100  0.1934
 2825SOL    HW120108   3.199   4.265   4.329 -1.3111 -0.3666  0.9140
 2825SOL    HW220109   3.187   4.134   4.374  0.7917 -1.2193  0.1571
 2826SOL     OW20110   2.565   2.619   7.386 -0.1919  0.9945 -0.1673
 2826SOL    HW120111   2.627   2.566   7.337  0.5300  2.3451 -0.7209
 2826SOL    HW220112   2.482   2.616   7.338 -1.8725 -2.3673  2.9300
 2827SOL     OW20113   1.376   4.428  11.963  0.1038  0.1017 -0.0633
 2827SOL    HW120114   1.372   4.352  11.905  0.9580 -0.3014  0.4098
 2827SOL    HW220115   1.319   4.483  11.909 -0.5554 -0.4006  0.1306
 2828SOL     OW20116   2.419   2.642  13.158 -0.1983 -0.1121  0.6526
 2828SOL    HW120117   2.508   2.612  13.177 -0.5948 -2.1908 -0.7297
 2828SOL    HW220118   2.384   2.566  13.205 -1.9410 -0.2458 -0.8981
 2829SOL     OW20119   1.479   3.498   8.988 -0.2278 -0.3248  0.3693
 2829SOL    HW120120   1.470   3.527   8.898 -4.4250 -1.0878  0.5394
 2829SOL    HW220121   1.438   3.568   9.038 -0.6342  0.1672 -0.6549
 2830SOL     OW20122   4.197   4.360  15.151 -0.0853  0.1626 -0.1034
 2830SOL    HW120123   4.224   4.272  15.178  2.2194  0.5915 -0.9516
 2830SOL    HW220124   4.139   4.346  15.076  1.7936 -1.8709 -1.1659
 2831SOL     OW20125   2.142   2.655  16.916 -0.1533  0.0057 -0.0913
 2831SOL    HW120126   2.152   2.743  16.952 -3.2937  1.2993 -2.3614
 2831SOL    HW220127   2.160   2.682  16.826 -0.8255 -1.5418 -0.7040
 2832SOL     OW20128   3.858   2.443  13.058 -0.0666  0.9195  0.3185
 2832SOL    HW120129   3.822   2.355  13.048  0.3037  0.8397 -0.2898
 2832SOL    HW220130   3.862   2.481  12.970 -1.5992  0.5374  0.0855
 2833SOL     OW20131   0.739   1.338  14.705 -0.2184 -0.1418 -0.6758
 2833SOL    HW120132   0.777   1.276  14.642  0.5628 -0.0921 -0.2445
 2833SOL    HW220133   0.657   1.364  14.663 -1.3707 -2.3980  0.1834
 2834SOL     OW20134   3.759   3.445  14.705 -0.0675 -0.4547 -0.6338
 2834SOL    HW120135   3.734   3.532  14.676  1.6536  0.7197  1.4220
 2834SOL    HW220136   3.685   3.388  14.686 -0.7759 -0.2770  1.5490
 2835SOL     OW20137   0.234   1.907  15.514  0.2971  0.4352  0.3198
 2835SOL    HW120138   0.279   1.973  15.567  1.1431  1.0562 -1.1882
 2835SOL    HW220139   0.194   1.857  15.586 -3.9587  1.9112 -0.9983
 2836SOL     OW20140   2.917   1.531  13.299  0.3375  0.0166  0.2939
 2836SOL    HW120141   2.979   1.568  13.236  0.8524 -0.1522  0.6948
 2836SOL    HW220142   2.962   1.537  13.384 -0.8342  0.8417  0.8467
 2837SOL     OW20143   2.622   3.568  11.876  0.3212 -0.3548  0.2903
 2837SOL    HW120144   2.656   3.500  11.934  1.9326 -1.2324 -1.6976
 2837SOL    HW220145   2.555   3.514  11.834  2.1539 -3.0915  0.9749
 2838SOL     OW20146   3.805   4.478   4.898  0.1515  0.1672  1.0103
 2838SOL    HW120147   3.769   4.532   4.968  0.5697  0.8586  0.6836
 2838SOL    HW220148   3.823   4.397   4.945  1.9003  1.6799  2.9274
 2839SOL     OW20149   4.010   3.935  12.739 -0.9655  0.2135  0.6107
 2839SOL    HW120150   3.958   3.958  12.816  0.6590  1.9270  1.2038
 2839SOL    HW220151   4.091   3.982  12.761 -1.2911  1.4466 -0.8797
 2840SOL     OW20152   2.693   0.850   7.250  0.1167 -0.2867  0.4645
 2840SOL    HW120153   2.644   0.819   7.326 -1.7964 -0.1953 -0.7188
 2840SOL    HW220154   2.644   0.931   7.235 -0.1458 -0.6768 -0.7846
 2841SOL     OW20155   1.628   4.061  13.832  0.4596  0.2347 -0.2877
 2841SOL    HW120156   1.691   4.128  13.805  1.9676 -1.6047 -1.2645
 2841SOL    HW220157   1.651   4.049  13.924  0.7429 -0.7009 -0.4869
 2842SOL     OW20158   2.286   3.869   3.576  0.4830 -0.3188 -0.4709
 2842SOL    HW120159   2.337   3.788   3.587 -1.0340 -1.3442 -0.9044
 2842SOL    HW220160   2.338   3.905   3.505 -1.4614  1.2277 -1.1151
 2843SOL     OW20161   2.612   1.345   2.381  0.3198  0.2279  0.2773
 2843SOL    HW120162   2.594   1.259   2.419 -1.3615  0.5544  0.2258
 2843SOL    HW220163   2.534   1.394   2.406 -2.9110 -2.9054 -3.4735
 2844SOL     OW20164   0.505   4.194   6.789  0.3951 -0.0847 -0.1072
 2844SOL    HW120165   0.426   4.247   6.796 -0.7173 -1.7409 -0.1280
 2844SOL    HW220166   0.526   4.197   6.883  2.1958  0.1477 -0.5199
 2845SOL     OW20167   3.671   0.839  16.462 -0.5677  0.0750 -0.3784
 2845SOL    HW120168   3.722   0.855  16.542  0.8781  0.5449 -1.3909
 2845SOL    HW220169   3.623   0.759  16.483  0.5500 -0.9563 -1.7190
 2846SOL     OW20170   2.515   0.678   9.256  0.4087  0.4532 -0.3073
 2846SOL    HW120171   2.431   0.650   9.292  0.6148  2.0338  1.3903
 2846SOL    HW220172   2.533   0.606   9.195 -2.2031 -2.0146  1.8254
 2847SOL     OW20173   4.096   0.451   9.078  0.2754 -0.3173 -0.0580
 2847SOL    HW120174   4.024   0.486   9.025  0.6080 -1.2979 -1.1568
 2847SOL    HW220175   4.053   0.377   9.120 -0.1267  0.0778  0.2297
 2848SOL     OW20176   2.635   0.084   1.906  0.4381  0.1270 -0.4848
 2848SOL    HW120177   2.619   0.118   1.994  0.5708  0.2300 -0.5000
 2848SOL    HW220178   2.666   4.729   1.917  0.9163  0.6577  2.5486
 2849SOL     OW20179   2.972   4.606  16.092 -0.5588  0.8272  0.1176
 2849SOL    HW120180   2.959   4.515  16.118  2.5502  0.6524  1.1428
 2849SOL    HW220181   3.060   4.623  16.126  0.0114 -0.6166 -0.6351
 2850SOL     OW20182   2.148   0.381   2.442  0.3388 -0.1293  0.0200
 2850SOL    HW120183   2.137   0.475   2.459  0.4673 -0.1903  0.4529
 2850SOL    HW220184   2.234   0.360   2.479 -0.0443 -0.4639  0.7275
 2851SOL     OW20185   2.560   1.025   6.906 -0.2977  0.5045  0.1712
 2851SOL    HW120186   2.574   1.045   6.814  0.0065 -2.7828 -0.5138
 2851SOL    HW220187   2.648   1.029   6.944 -1.0655 -1.7078  2.1805
 2852SOL     OW20188   0.453   2.540   6.347 -0.7451 -0.2059 -0.0328
 2852SOL    HW120189   0.432   2.464   6.294 -1.2496 -0.6162  0.7674
 2852SOL    HW220190   0.371   2.578   6.380  0.7063  2.0747  0.9839
 2853SOL     OW20191   0.184   1.185   7.782 -0.4243 -1.1848 -0.5522
 2853SOL    HW120192   0.201   1.229   7.865 -0.0374 -0.7142 -0.8796
 2853SOL    HW220193   0.115   1.243   7.748  0.6688  0.4626 -0.0006
 2854SOL     OW20194   2.173   1.916  11.213  0.3381 -0.0397 -0.1742
 2854SOL    HW120195   2.125   1.989  11.251  0.3067  0.9141 -2.0762
 2854SOL    HW220196   2.220   1.896  11.294  1.9288  0.5700 -0.9472
 2855SOL     OW20197   1.403   0.035   6.587 -0.4101 -0.0429 -0.3880
 2855SOL    HW120198   1.381   4.678   6.578 -0.5970  0.2639 -3.0377
 2855SOL    HW220199   1.497   0.030   6.598 -0.5158 -2.4540 -0.6522
 2856SOL     OW20200   0.030   2.017  12.167 -0.0811  0.2076  0.2168
 2856SOL    HW120201   4.684   2.001  12.215  0.0919  1.1053  0.8102
 2856SOL    HW220202   0.044   1.935  12.120 -0.6106 -0.1113  0.6207
 2857SOL     OW20203   2.455   0.934  12.843 -0.0446  0.3416  0.0642
 2857SOL    HW120204   2.372   0.902  12.809  0.0388 -0.3310  0.5102
 2857SOL    HW220205   2.516   0.863  12.821 -1.8729 -0.9394 -0.8801
 2858SOL     OW20206   1.962   0.259   4.159 -0.5712  0.0193 -0.0340
 2858SOL    HW120207   2.036   0.198   4.156 -0.8177 -0.3236  0.8343
 2858SOL    HW220208   1.983   0.328   4.222  1.2839  0.3339 -1.0056
 2859SOL     OW20209   4.577   1.740  12.171 -0.0447 -0.0118 -0.2561
 2859SOL    HW120210   4.534   1.820  12.202  2.4136  1.6078 -1.0135
 2859SOL    HW220211   4.504   1.699  12.125  1.3024 -1.4557 -1.0688
 2860SOL     OW20212   3.184   4.454   4.421  0.3267 -0.0572  0.5458
 2860SOL    HW120213   3.089   4.464   4.433  0.5303  0.8028  1.4440
 2860SOL    HW220214   3.210   4.436   4.511 -0.8113 -2.2489  0.4398
 2861SOL     OW20215   3.637   1.087  12.646  0.4303 -0.0976  0.0235
 2861SOL    HW120216   3.580   1.162  12.656  2.5981  1.5745 -0.1523
 2861SOL    HW220217   3.574   1.020  12.673  1.6846 -0.8932  0.9836
 2862SOL     OW20218   2.812   1.535   9.248 -0.0047  0.4900 -0.2429
 2862SOL    HW120219   2.908   1.536   9.249 -0.0037 -0.5003  0.4435
 2862SOL    HW220220   2.804   1.605   9.184  1.6468  0.2763 -0.6821
 2863SOL     OW20221   0.339   4.199   4.248  0.4855 -0.4129 -0.1576
 2863SOL    HW120222   0.351   4.237   4.335 -0.7499  1.3526 -0.7592
 2863SOL    HW220223   0.256   4.153   4.263 -0.7880  1.5414 -1.2534
 2864SOL     OW20224   3.804   3.884   2.575  0.0116 -0.2737  0.0856
 2864SOL    HW120225   3.865   3.929   2.634 -0.3428 -2.6492  2.2513
 2864SOL    HW220226   3.851   3.890   2.492  1.0835  2.4537  0.8957
 2865SOL     OW20227   2.385   2.766   7.651 -0.0148 -0.0815  0.2626
 2865SOL    HW120228   2.475   2.768   7.617 -0.1579  1.2210 -0.0558
 2865SOL    HW220229   2.348   2.850   7.623 -0.3717 -0.0886  0.7001
 2866SOL     OW20230   0.866   2.058   3.850  0.4828 -0.7551  0.3194
 2866SOL    HW120231   0.838   1.969   3.873 -0.3232 -0.4956  0.3499
 2866SOL    HW220232   0.875   2.051   3.755  1.0691 -0.7909  0.3808
 2867SOL     OW20233   3.163   4.621   5.446 -0.1476 -0.2278 -0.0117
 2867SOL    HW120234   3.242   4.668   5.417 -0.2095  0.0950  0.3438
 2867SOL    HW220235   3.193   4.579   5.527 -2.3328 -0.3635  0.7175
 2868SOL     OW20236   2.158   0.820   7.560  0.0143  0.0931 -0.3716
 2868SOL    HW120237   2.171   0.915   7.569  1.3341 -0.0302 -1.0010
 2868SOL    HW220238   2.177   0.797   7.651  1.6309  2.9889  0.0426
 2869SOL     OW20239   3.662   1.353   4.147  0.1942  0.5875  0.0881
 2869SOL    HW120240   3.718   1.402   4.087 -0.5117 -1.3950 -2.1781
 2869SOL    HW220241   3.596   1.419   4.169 -0.1368  0.3100 -0.0744
 2870SOL     OW20242   2.721   3.735   2.101  0.4490 -0.1134  0.5015
 2870SOL    HW120243   2.646   3.694   2.144  1.5060 -1.9762  0.5670
 2870SOL    HW220244   2.696   3.827   2.114 -1.7454 -0.5360 -0.6273
 2871SOL     OW20245   4.470   0.672   2.792  0.7775 -0.1239  0.4219
 2871SOL    HW120246   4.432   0.598   2.840  0.7530 -1.0361 -1.0010
 2871SOL    HW220247   4.514   0.625   2.721  0.8312 -0.3112  0.5791
 2872SOL     OW20248   1.813   2.292  12.990  0.0203 -0.0860 -0.1121
 2872SOL    HW120249   1.787   2.358  13.054  1.0774  1.1593 -0.9838
 2872SOL    HW220250   1.907   2.306  12.983 -0.4858  2.7815 -1.0703
 2873SOL     OW20251   1.825   0.638  15.316 -0.1081 -0.0419  0.3240
 2873SOL    HW120252   1.871   0.566  15.357 -1.1259  0.8975  3.1508
 2873SOL    HW220253   1.838   0.635  15.221 -2.1034 -1.1718  0.0945
 2874SOL     OW20254   2.048   2.300  14.522  0.6535  0.2807  0.4849
 2874SOL    HW120255   2.023   2.375  14.468 -0.0981 -0.0005  0.4491
 2874SOL    HW220256   2.141   2.297  14.500  0.8013  1.9185  0.9291
 2875SOL     OW20257   1.143   0.320   3.232 -0.0398  0.6046 -0.9579
 2875SOL    HW120258   1.074   0.275   3.183 -0.1874  0.9425 -1.0593
 2875SOL    HW220259   1.217   0.271   3.195  0.9385  1.1709  0.2591
 2876SOL     OW20260   1.757   3.053   8.269 -0.5757 -0.2330  0.3120
 2876SOL    HW120261   1.788   3.023   8.355  1.6458  0.8867 -0.0921
 2876SOL    HW220262   1.838   3.054   8.217 -0.7951 -2.3481 -0.0712
 2877SOL     OW20263   1.960   1.605   4.693  0.5091 -0.5191 -0.1684
 2877SOL    HW120264   1.949   1.630   4.785  3.1514 -1.5818  0.4375
 2877SOL    HW220265   1.927   1.683   4.649  1.6672  0.8892  1.4984
 2878SOL     OW20266   3.381   3.021   3.961  0.7444  0.1406  0.2041
 2878SOL    HW120267   3.350   2.994   3.875 -0.6598 -0.5576  0.9216
 2878SOL    HW220268   3.310   2.987   4.015 -0.7076  3.0439  0.1281
 2879SOL     OW20269   0.713   1.062  14.115  0.1657  0.0322 -0.0140
 2879SOL    HW120270   0.679   0.994  14.173 -0.3683  0.5137  0.2314
 2879SOL    HW220271   0.635   1.115  14.099  0.4773  0.8060  1.0122
 2880SOL     OW20272   1.115   4.260   5.366 -0.0597  0.5491  0.1221
 2880SOL    HW120273   1.050   4.224   5.306  0.1292 -0.8733  0.7570
 2880SOL    HW220274   1.064   4.330   5.406 -0.2556  0.2518  0.3895
 2881SOL     OW20275   0.034   2.341   2.420 -0.0674  0.0964 -0.1412
 2881SOL    HW120276   0.092   2.268   2.443 -0.9831 -1.0700 -1.5444
 2881SOL    HW220277   4.683   2.304   2.440  0.4890 -1.7002 -1.0297
 2882SOL     OW20278   0.364   2.596   4.546  0.2033  0.3004  0.3898
 2882SOL    HW120279   0.332   2.519   4.499 -2.3689  1.2990  0.4954
 2882SOL    HW220280   0.365   2.572   4.638 -0.4401  0.7698  0.5201
 2883SOL     OW20281   4.611   1.097   7.018  0.2680  0.4900  0.2556
 2883SOL    HW120282   4.588   1.182   6.980 -2.2593 -1.3483 -2.3044
 2883SOL    HW220283   4.600   1.027   6.953  0.8013 -0.3598  1.0834
 2884SOL     OW20284   1.229   1.599   5.775 -0.0080  0.4426 -0.2328
 2884SOL    HW120285   1.261   1.510   5.763 -1.2955  0.2804 -2.3303
 2884SOL    HW220286   1.150   1.590   5.722 -2.0234  2.7620  2.3665
 2885SOL     OW20287   2.014   4.245   9.475  0.2682  0.7849 -0.0822
 2885SOL    HW120288   2.021   4.161   9.519  0.9326  0.2019 -1.3025
 2885SOL    HW220289   1.970   4.212   9.397 -1.0065  1.0779  0.5061
 2886SOL     OW20290   4.555   1.220   5.985  0.7386  0.2724  0.1869
 2886SOL    HW120291   4.613   1.259   6.050  1.5779 -0.5141 -0.0981
 2886SOL    HW220292   4.623   1.197   5.922 -0.0229  1.7143 -1.1759
 2887SOL     OW20293   0.045   3.531   6.791  0.1710  0.0466 -0.3399
 2887SOL    HW120294   0.050   3.435   6.791 -1.8326 -0.0657  1.7283
 2887SOL    HW220295   4.689   3.546   6.817  0.5733  1.4324  0.2493
 2888SOL     OW20296   0.690   0.785  11.349 -0.2676 -0.4162  0.2172
 2888SOL    HW120297   0.698   0.700  11.307  0.4393 -0.1905 -0.1074
 2888SOL    HW220298   0.640   0.755  11.425  1.2307 -0.4197  1.2196
 2889SOL     OW20299   3.758   4.206   9.046 -0.2195 -0.1212 -0.6776
 2889SOL    HW120300   3.820   4.249   8.987  0.1252  0.0948 -0.1603
 2889SOL    HW220301   3.810   4.128   9.067  1.9139  1.7222  0.8954
 2890SOL     OW20302   0.285   3.137  16.200  0.0027 -0.4571 -0.0297
 2890SOL    HW120303   0.366   3.099  16.234  0.0240 -2.6185 -2.4912
 2890SOL    HW220304   0.241   3.055  16.178  0.5476 -0.3262 -1.5956
 2891SOL     OW20305   2.838   4.518  13.685  0.0553  0.3234 -0.3030
 2891SOL    HW120306   2.900   4.576  13.640  1.1841 -1.1240 -0.6440
 2891SOL    HW220307   2.767   4.531  13.622  1.4515 -2.1655 -2.4135
 2892SOL     OW20308   0.561   0.399  10.531  0.2658 -0.4603 -0.3458
 2892SOL    HW120309   0.572   0.310  10.563  1.0165 -1.2030 -2.6889
 2892SOL    HW220310   0.601   0.390  10.445  2.0908  1.5245  0.2986
 2893SOL     OW20311   1.999   3.904   5.696 -0.4724 -0.1320  0.0699
 2893SOL    HW120312   1.952   3.826   5.723 -1.0423 -0.6469 -2.4360
 2893SOL    HW220313   2.017   3.945   5.781  2.8837 -0.4248 -0.4924
 2894SOL     OW20314   3.837   3.537   8.963 -0.6292 -0.7077 -0.3214
 2894SOL    HW120315   3.932   3.536   8.974 -0.6793  0.4260  0.1770
 2894SOL    HW220316   3.836   3.445   8.938  2.6213 -0.3512 -1.6876
 2895SOL     OW20317   3.512   1.962   6.065  0.2655 -0.9995  0.4793
 2895SOL    HW120318   3.475   1.912   6.138  0.6066 -4.5521 -1.7653
 2895SOL    HW220319   3.591   1.911   6.045  1.5164  1.9518 -2.1366
 2896SOL     OW20320   2.358   3.875   9.842  0.2296 -0.1198  0.1732
 2896SOL    HW120321   2.408   3.795   9.833 -0.1418 -0.2315 -0.8693
 2896SOL    HW220322   2.367   3.907   9.752  0.8111 -0.8254 -0.0132
 2897SOL     OW20323   3.946   1.193   9.140 -0.0174 -0.0220 -0.2660
 2897SOL    HW120324   3.991   1.161   9.062  1.8927  1.9473  0.0409
 2897SOL    HW220325   3.928   1.284   9.118 -2.0477 -1.1239 -3.0953
 2898SOL     OW20326   2.635   2.240   5.117  0.8820 -0.4953 -0.3115
 2898SOL    HW120327   2.575   2.298   5.070  0.0705 -0.8185  0.3293
 2898SOL    HW220328   2.611   2.151   5.093  0.1758 -0.3806 -0.0287
 2899SOL     OW20329   1.691   4.016  14.092 -0.1662  0.2314  0.0391
 2899SOL    HW120330   1.624   4.080  14.117 -1.3287 -0.6566 -0.8115
 2899SOL    HW220331   1.654   3.932  14.117  1.7797  0.4618  3.8087
 2900SOL     OW20332   3.646   1.589   0.997 -0.5134 -0.2753 -0.0185
 2900SOL    HW120333   3.700   1.642   0.939 -1.2488 -0.3400 -0.7651
 2900SOL    HW220334   3.659   1.633   1.081  1.1695  0.1568 -0.5112
 2901SOL     OW20335   3.359   1.410   2.741  0.4265 -0.0777 -0.2961
 2901SOL    HW120336   3.279   1.435   2.787  0.6883  1.5542 -0.7284
 2901SOL    HW220337   3.410   1.379   2.816 -0.4689  0.2115  0.4302
 2902SOL     OW20338   2.036   0.761   2.629 -0.5666  0.0200 -1.0635
 2902SOL    HW120339   1.989   0.843   2.620  0.3030  0.6995  0.5992
 2902SOL    HW220340   2.122   0.800   2.615  0.3995 -1.1675  1.5054
 2903SOL     OW20341   1.353   3.069  17.679 -0.7060 -0.0449  0.1652
 2903SOL    HW120342   1.326   2.977  17.679 -0.4273 -0.1243 -0.2352
 2903SOL    HW220343   1.403   3.080   0.022  0.9146  2.2921 -1.1342
 2904SOL     OW20344   2.428   2.060   6.449  0.0830 -0.0615 -0.1309
 2904SOL    HW120345   2.372   2.118   6.501  0.8361  2.2542 -1.9057
 2904SOL    HW220346   2.378   2.074   6.369 -0.1631 -0.1690  0.0046
 2905SOL     OW20347   2.315   2.590   4.461 -0.9369 -0.1513 -0.1660
 2905SOL    HW120348   2.380   2.529   4.496 -0.1001 -0.3655 -2.0886
 2905SOL    HW220349   2.231   2.561   4.496 -0.7825  1.6155  1.6724
 2906SOL     OW20350   3.679   3.813   3.076  0.8514 -0.1344  0.3215
 2906SOL    HW120351   3.700   3.886   3.134  0.1644  0.3631 -0.0416
 2906SOL    HW220352   3.652   3.857   2.995 -1.0575  0.7688  1.4434
 2907SOL     OW20353   3.412   3.136   2.929 -0.4172  0.3491 -0.3800
 2907SOL    HW120354   3.387   3.078   2.858 -1.1107  0.0779  0.0848
 2907SOL    HW220355   3.328   3.181   2.935 -0.1564  0.8987 -0.8868
 2908SOL     OW20356   3.962   0.201   4.640 -0.3595  0.3851 -0.7739
 2908SOL    HW120357   3.940   0.284   4.598 -1.3831  0.5217  0.0450
 2908SOL    HW220358   3.904   0.148   4.584  1.6252  0.9468 -3.3685
 2909SOL     OW20359   2.115   1.388   8.176  0.7373  0.2772 -0.2435
 2909SOL    HW120360   2.124   1.478   8.145  1.7091  0.3722  0.3333
 2909SOL    HW220361   2.180   1.375   8.245 -2.2281 -1.7425  2.2039
 2910SOL     OW20362   2.209   1.125   8.186  0.3181  0.3255 -0.0533
 2910SOL    HW120363   2.163   1.208   8.178  2.3425  1.4611 -0.0409
 2910SOL    HW220364   2.191   1.102   8.277  3.8000 -0.9637  0.3056
 2911SOL     OW20365   4.294   3.655   2.549  0.4791 -0.2816  1.1461
 2911SOL    HW120366   4.348   3.579   2.530  0.2387 -0.2349  0.2807
 2911SOL    HW220367   4.292   3.654   2.645 -1.6639 -4.0350  1.0395
 2912SOL     OW20368   3.984   1.365   8.766 -0.2590 -0.1139 -0.3629
 2912SOL    HW120369   3.906   1.309   8.760 -1.0183  0.8397  0.7545
 2912SOL    HW220370   3.962   1.416   8.844 -0.3958  0.4252 -0.7611
 2913SOL     OW20371   2.064   1.917  17.337 -0.2537 -0.5121 -0.5740
 2913SOL    HW120372   2.103   1.860  17.403  2.4189  3.0364  0.8548
 2913SOL    HW220373   2.024   1.985  17.391 -2.2661 -2.9891  1.0522
 2914SOL     OW20374   2.620   2.086   7.042 -0.2012  0.7999 -0.1040
 2914SOL    HW120375   2.629   2.181   7.043  1.6797  0.6316 -1.3273
 2914SOL    HW220376   2.704   2.056   7.078 -0.4947 -0.9214 -0.8531
 2915SOL     OW20377   3.755   1.869   9.482 -0.1244  0.0791  0.3325
 2915SOL    HW120378   3.719   1.900   9.565 -0.5476 -0.5956  0.4094
 2915SOL    HW220379   3.681   1.838   9.429  1.4501 -2.4458 -0.3987
 2916SOL     OW20380   1.267   1.321   9.085  0.0444 -0.0468  0.1285
 2916SOL    HW120381   1.184   1.276   9.102  0.8017 -0.8630  1.5835
 2916SOL    HW220382   1.279   1.365   9.169  0.1068 -3.0703  1.6864
 2917SOL     OW20383   0.996   4.616   1.757 -0.2820 -0.0594 -0.6331
 2917SOL    HW120384   1.070   4.675   1.741  0.7427 -0.9506  0.9134
 2917SOL    HW220385   1.034   4.528   1.756 -1.3697 -0.5341  0.1068
 2918SOL     OW20386   3.383   3.343  13.630  0.1453  0.3666  0.0845
 2918SOL    HW120387   3.426   3.425  13.656 -0.4575  1.3201 -1.9334
 2918SOL    HW220388   3.424   3.317  13.547  0.1207 -0.5261  0.3518
 2919SOL     OW20389   2.152   2.840   5.832  0.5630  0.1752  0.2962
 2919SOL    HW120390   2.239   2.879   5.844  0.4521 -0.3265  2.6378
 2919SOL    HW220391   2.145   2.806   5.921 -0.5564 -1.6486 -0.4841
 2920SOL     OW20392   1.903   0.353   4.863  0.5195  0.4856  0.1796
 2920SOL    HW120393   1.974   0.299   4.829 -0.3286  1.0542 -2.5028
 2920SOL    HW220394   1.831   0.295   4.837 -0.4083  1.8924 -0.4158
 2921SOL     OW20395   2.648   3.981   7.285 -0.0521 -0.5103 -0.2142
 2921SOL    HW120396   2.729   4.015   7.248 -0.2006 -1.7640 -1.6756
 2921SOL    HW220397   2.600   4.059   7.314 -0.3446 -0.8220  0.1398
 2922SOL     OW20398   4.635   3.935  11.138  0.5617 -0.2958 -0.0836
 2922SOL    HW120399   4.655   4.027  11.123 -1.2367  0.2988  1.2475
 2922SOL    HW220400   4.615   3.908  11.048 -0.4479 -0.2339  0.1199
 2923SOL     OW20401   0.993   1.757  17.087  0.4350 -0.5299 -0.5591
 2923SOL    HW120402   1.021   1.723  17.002 -1.5316  0.4059 -1.5626
 2923SOL    HW220403   1.001   1.852  17.080  2.9895 -0.8661 -1.9826
 2924SOL     OW20404   0.542   1.715   7.302 -0.3016  0.3744 -0.5499
 2924SOL    HW120405   0.637   1.726   7.297 -0.5326  3.2088  1.0319
 2924SOL    HW220406   0.510   1.805   7.310 -1.9616 -0.5538  3.2630
 2925SOL     OW20407   0.245   2.344  12.753 -0.0998  0.3580  0.1867
 2925SOL    HW120408   0.219   2.314  12.666  1.7049  0.7727 -0.4911
 2925SOL    HW220409   0.224   2.438  12.751 -1.2618  0.0957  0.0907
 2926SOL     OW20410   1.405   0.465   4.855 -0.1347 -0.0902  0.4238
 2926SOL    HW120411   1.490   0.426   4.835  0.7201  0.7325  2.5202
 2926SOL    HW220412   1.402   0.542   4.798 -0.0932  0.1995  0.8137
 2927SOL     OW20413   2.978   2.692   1.555  0.1920 -0.2204 -0.0809
 2927SOL    HW120414   3.009   2.705   1.466  0.1481 -0.9049 -0.1975
 2927SOL    HW220415   3.031   2.617   1.581 -0.7433 -1.4508 -1.7430
 2928SOL     OW20416   3.955   1.802   9.211 -0.7003 -0.4212 -0.2545
 2928SOL    HW120417   3.894   1.799   9.285 -0.0423 -1.3637  0.2518
 2928SOL    HW220418   3.995   1.717   9.224 -0.0555 -0.2683 -1.2056
 2929SOL     OW20419   4.129   0.428   6.848 -0.3607 -0.1888 -0.3248
 2929SOL    HW120420   4.189   0.359   6.875 -1.1396 -0.5884  0.3750
 2929SOL    HW220421   4.115   0.474   6.931 -1.3860 -2.3407  0.6782
 2930SOL     OW20422   1.837   1.102   4.772 -0.3223 -0.2150  0.8893
 2930SOL    HW120423   1.929   1.121   4.756 -1.0001  0.8562 -1.7781
 2930SOL    HW220424   1.796   1.185   4.798  0.5145  0.1504  1.0537
 2931SOL     OW20425   0.114   0.591   8.125  0.0151  0.7399  0.1888
 2931SOL    HW120426   0.189   0.545   8.163 -1.6507  0.9791  3.7518
 2931SOL    HW220427   0.127   0.557   8.036  0.2145 -1.0186  0.8826
 2932SOL     OW20428   4.572   1.138  12.567 -0.2208 -0.1958 -0.3662
 2932SOL    HW120429   4.630   1.130  12.643  1.2606 -2.2479 -1.7229
 2932SOL    HW220430   4.508   1.068  12.576 -1.5840  1.3356  1.9665
 2933SOL     OW20431   0.018   0.668  12.049 -0.0335 -0.0884 -0.2412
 2933SOL    HW120432   4.690   0.729  12.011  0.5244 -0.6263 -2.0421
 2933SOL    HW220433   4.697   0.590  12.040  0.5644 -0.2171 -2.8960
 2934SOL     OW20434   1.414   1.057   5.379  0.0745  1.0637  0.1538
 2934SOL    HW120435   1.329   1.087   5.345  0.7663  1.4297 -1.2389
 2934SOL    HW220436   1.376   0.989   5.435  0.0763  0.2822 -0.8158
 2935SOL     OW20437   0.824   3.014   5.642 -0.2571  0.3208  0.1801
 2935SOL    HW120438   0.857   2.999   5.730  0.2810 -0.7388 -0.2074
 2935SOL    HW220439   0.892   2.963   5.597  0.1585  1.9024 -1.0017
 2936SOL     OW20440   1.349   3.474   7.426 -0.4901  0.2855 -0.4961
 2936SOL    HW120441   1.381   3.494   7.515  1.9412 -2.3671 -0.7425
 2936SOL    HW220442   1.333   3.380   7.429  0.4782  0.0921 -1.6908
 2937SOL     OW20443   1.990   0.051   2.763 -0.0228  0.0865  0.1288
 2937SOL    HW120444   2.012   0.061   2.670 -1.8722  1.1553 -0.1958
 2937SOL    HW220445   1.961   0.141   2.776 -0.6605 -0.3828  1.9107
 2938SOL     OW20446   1.777   0.343   9.658  0.0365  0.1079 -0.6083
 2938SOL    HW120447   1.764   0.370   9.749 -0.7261  0.0031 -0.6839
 2938SOL    HW220448   1.785   0.428   9.615  2.3467  0.5362  0.6754
 2939SOL     OW20449   2.771   2.403   4.783  0.4265  0.2517 -0.1509
 2939SOL    HW120450   2.846   2.438   4.831 -1.4557  1.3800  1.9604
 2939SOL    HW220451   2.812   2.329   4.737  0.0447  0.8630 -1.4695
 2940SOL     OW20452   3.760   0.785  13.458  0.3522  0.5364 -0.3811
 2940SOL    HW120453   3.720   0.837  13.528 -0.2127 -1.5469  0.8347
 2940SOL    HW220454   3.773   0.838  13.380  0.4156 -0.0660 -0.7777
 2941SOL     OW20455   0.038   4.521   2.699 -0.2270  0.2069 -0.1108
 2941SOL    HW120456   4.689   4.500   2.659  0.4454  1.0249 -1.9364
 2941SOL    HW220457   0.082   4.437   2.707 -2.7209 -1.0870 -0.0220
 2942SOL     OW20458   2.228   2.202   6.590  0.1195 -0.0341 -0.4472
 2942SOL    HW120459   2.236   2.289   6.552 -1.3564  0.5724  0.6402
 2942SOL    HW220460   2.240   2.229   6.681 -2.3580 -1.5021  0.3259
 2943SOL     OW20461   4.207   1.286   3.385 -0.5906 -0.1102 -0.1789
 2943SOL    HW120462   4.216   1.363   3.328 -0.0735  0.1438  0.2467
 2943SOL    HW220463   4.277   1.226   3.361 -0.3335 -0.8191  2.3921
 2944SOL     OW20464   2.832   2.478   3.734 -0.2138  0.2749  0.2277
 2944SOL    HW120465   2.832   2.430   3.652  1.4366 -1.0530  1.0098
 2944SOL    HW220466   2.747   2.522   3.740 -0.9125 -1.0559  0.0103
 2945SOL     OW20467   4.039   3.956   1.988 -0.0893  0.2449 -0.4109
 2945SOL    HW120468   3.964   4.013   1.975 -2.4117 -2.8046 -0.3442
 2945SOL    HW220469   4.076   3.953   1.899  0.3819 -3.1085 -0.1107
 2946SOL     OW20470   0.019   1.906   4.878 -0.5029 -0.0772  0.2190
 2946SOL    HW120471   0.101   1.948   4.905  0.1212 -0.4248 -1.1533
 2946SOL    HW220472   4.691   1.977   4.890 -1.7597 -0.9033 -1.4662
 2947SOL     OW20473   3.575   0.686   4.127  0.2672 -0.4277  0.0615
 2947SOL    HW120474   3.605   0.687   4.036  0.7294 -4.1912  0.1682
 2947SOL    HW220475   3.598   0.595   4.146 -0.0703 -0.4553  0.3480
 2948SOL     OW20476   2.332   2.589   4.184 -0.3300 -0.5787 -0.2329
 2948SOL    HW120477   2.313   2.597   4.277 -0.1207  0.1095 -0.2508
 2948SOL    HW220478   2.427   2.581   4.191 -0.4523 -0.1616  1.8529
 2949SOL     OW20479   1.904   0.495   3.986  0.3579 -0.2975 -0.3761
 2949SOL    HW120480   1.870   0.555   3.919  0.6372 -1.1259 -1.2557
 2949SOL    HW220481   1.833   0.480   4.049  0.7956  0.4166  0.2987
 2950SOL     OW20482   3.213   2.072   3.303  0.2177  0.5089 -0.3671
 2950SOL    HW120483   3.237   2.106   3.389  0.4742 -0.6902  0.0301
 2950SOL    HW220484   3.137   2.127   3.286  0.5998  0.1728 -3.1606
 2951SOL     OW20485   0.374   2.701  15.427  0.0322  0.2192 -0.2885
 2951SOL    HW120486   0.377   2.612  15.463 -2.6806 -0.1181 -0.9240
 2951SOL    HW220487   0.367   2.754  15.507 -3.2910 -0.5268 -0.0886
 2952SOL     OW20488   2.954   2.030  16.787 -0.3957  0.2277 -0.2454
 2952SOL    HW120489   2.958   1.971  16.712 -2.4389  0.5845 -0.6310
 2952SOL    HW220490   2.950   1.969  16.860  3.7659  1.0811  0.6974
 2953SOL     OW20491   3.362   0.609   2.741  0.3630  0.4393  0.4383
 2953SOL    HW120492   3.277   0.567   2.726  1.0053 -1.4082  2.1193
 2953SOL    HW220493   3.377   0.655   2.658  0.3322  0.8207  0.6427
 2954SOL     OW20494   0.809   4.150   0.041 -0.4021 -0.7656 -0.6256
 2954SOL    HW120495   0.866   4.220   0.009 -0.4539 -0.8179 -0.8326
 2954SOL    HW220496   0.835   4.150   0.133  1.0610  1.8299 -1.0456
 2955SOL     OW20497   3.029   1.231   8.172  0.1843  0.2702 -0.3211
 2955SOL    HW120498   2.958   1.274   8.125  0.3534 -0.0656 -0.8757
 2955SOL    HW220499   3.031   1.151   8.119 -3.1595 -0.5754  0.8542
 2956SOL     OW20500   1.046   3.391   2.173 -0.0204 -0.3556 -0.1182
 2956SOL    HW120501   0.997   3.379   2.092  0.7028 -0.5821 -0.5195
 2956SOL    HW220502   1.122   3.341   2.144  0.2932  0.2622 -0.3708
 2957SOL     OW20503   1.587   0.947   4.094 -0.1422  0.5448  0.4862
 2957SOL    HW120504   1.566   0.954   4.001  0.5698  1.4730  0.3960
 2957SOL    HW220505   1.523   1.012   4.125 -2.0373 -0.4356 -1.4190
 2958SOL     OW20506   0.397   4.346   9.314 -0.2922  0.0757 -0.3042
 2958SOL    HW120507   0.406   4.257   9.279  2.1265  0.1280  0.1719
 2958SOL    HW220508   0.302   4.358   9.313 -0.5484 -1.8086  0.9685
 2959SOL     OW20509   0.345   3.981   7.570  0.3357  0.3028  1.2025
 2959SOL    HW120510   0.301   3.914   7.518 -0.7769  1.0753  1.1657
 2959SOL    HW220511   0.309   3.973   7.659 -3.0718  2.7397  0.0185
 2960SOL     OW20512   2.112   0.409   6.458  0.4224  0.1371  0.1592
 2960SOL    HW120513   2.113   0.353   6.536  2.2345 -0.5640 -0.3527
 2960SOL    HW220514   2.057   0.481   6.488  0.2099  0.2638 -0.5369
 2961SOL     OW20515   3.649   2.179   4.603 -0.2387 -0.0502  0.5065
 2961SOL    HW120516   3.676   2.103   4.654  0.2843  0.3557  0.8370
 2961SOL    HW220517   3.736   2.218   4.595 -1.1295  2.0201  0.8253
 2962SOL     OW20518   2.025   4.068  11.616  0.2773 -0.0086  0.7237
 2962SOL    HW120519   1.981   4.090  11.698  0.2467 -0.7013  0.8911
 2962SOL    HW220520   1.979   3.990  11.587 -1.8574  1.3219  0.5090
 2963SOL     OW20521   3.622   3.227  11.501 -0.1626  0.6487  0.1745
 2963SOL    HW120522   3.613   3.133  11.513 -1.3686  0.7029 -0.3333
 2963SOL    HW220523   3.544   3.260  11.546 -1.8555 -1.5099 -1.2318
 2964SOL     OW20524   2.351   1.839   8.044  0.1928  0.0597 -0.2569
 2964SOL    HW120525   2.399   1.890   7.979 -0.4367  2.0523  0.8720
 2964SOL    HW220526   2.282   1.903   8.059  1.0464  1.1986 -1.2412
 2965SOL     OW20527   0.331   2.833   5.600 -0.6062  0.6708  0.2752
 2965SOL    HW120528   0.362   2.916   5.565 -2.2453  0.7125 -1.0960
 2965SOL    HW220529   0.379   2.822   5.682 -0.7057  0.1736  0.2678
 2966SOL     OW20530   3.871   4.264  16.658  0.4055 -0.1899  0.0314
 2966SOL    HW120531   3.816   4.280  16.582  0.5326 -0.8838 -0.2034
 2966SOL    HW220532   3.933   4.337  16.655  0.3004 -0.1170 -0.3182
 2967SOL     OW20533   0.026   3.333  10.247 -0.7477 -0.0990 -0.0259
 2967SOL    HW120534   0.026   3.426  10.225  0.2968 -0.2797 -0.8173
 2967SOL    HW220535   0.097   3.304  10.189  1.2103  2.8846  0.9323
 2968SOL     OW20536   3.729   0.929  11.177  1.2458  0.4949  0.5717
 2968SOL    HW120537   3.669   0.980  11.231 -1.3593 -0.6736 -1.1995
 2968SOL    HW220538   3.767   0.872  11.244 -0.5044 -1.0501  0.2413
 2969SOL     OW20539   2.445   0.444   7.082  0.6388 -0.0810  0.0881
 2969SOL    HW120540   2.523   0.492   7.056  0.1727  0.0685 -1.0174
 2969SOL    HW220541   2.406   0.499   7.150 -0.8934 -0.7155 -0.2765
 2970SOL     OW20542   3.469   1.314   9.278  0.2934 -0.4206 -0.3802
 2970SOL    HW120543   3.389   1.347   9.238 -0.8910 -0.7014  1.7467
 2970SOL    HW220544   3.536   1.344   9.216  1.3578  0.3412  1.1273
 2971SOL     OW20545   3.976   1.312   3.514  0.0761  0.5732  0.2733
 2971SOL    HW120546   4.058   1.292   3.470 -1.7329 -1.9743 -1.9538
 2971SOL    HW220547   3.926   1.235   3.486  1.7982  0.2703 -1.9292
 2972SOL     OW20548   2.180   4.059   5.515  0.2117  0.6363  0.1722
 2972SOL    HW120549   2.112   4.039   5.579 -0.5058  0.4875 -0.6295
 2972SOL    HW220550   2.252   4.084   5.572  0.9784 -0.7853 -0.1724
 2973SOL     OW20551   2.141   3.184  10.662 -0.2237  0.5748 -0.0328
 2973SOL    HW120552   2.199   3.211  10.591  0.3560  0.1273  0.2759
 2973SOL    HW220553   2.211   3.174  10.727  0.4080  0.1598 -0.7860
 2974SOL     OW20554   0.353   2.287   3.966  0.1385 -0.1366 -0.3593
 2974SOL    HW120555   0.378   2.380   3.966 -0.4989  0.0315  1.6182
 2974SOL    HW220556   0.411   2.253   3.899  0.6515 -2.6100  1.3716
 2975SOL     OW20557   3.764   1.230   0.289 -0.0187 -0.1720 -0.2333
 2975SOL    HW120558   3.785   1.247   0.381 -0.6361 -2.0957  0.2737
 2975SOL    HW220559   3.704   1.159   0.312  0.3832 -1.0778 -1.9550
 2976SOL     OW20560   3.351   0.601   0.586  0.7140 -0.7119  0.0068
 2976SOL    HW120561   3.433   0.554   0.605  0.8418 -1.4889 -2.4206
 2976SOL    HW220562   3.388   0.669   0.530 -0.0564 -0.7028 -0.4825
 2977SOL     OW20563   2.482   1.116   2.467  0.6197  0.5684 -0.1941
 2977SOL    HW120564   2.499   1.045   2.529 -0.0770 -1.3192 -2.1722
 2977SOL    HW220565   2.414   1.073   2.415  1.6308 -0.9894 -0.2316
 2978SOL     OW20566   1.128   1.669   6.976  0.2890 -0.4847 -0.0959
 2978SOL    HW120567   1.201   1.705   7.027  0.1342 -1.5341  0.8689
 2978SOL    HW220568   1.061   1.738   6.973  0.5853 -0.1486  0.9972
 2979SOL     OW20569   0.922   1.583   0.433 -0.0221 -0.2392 -0.1313
 2979SOL    HW120570   1.011   1.616   0.445 -0.7954  2.8863 -3.0106
 2979SOL    HW220571   0.933   1.534   0.352 -1.9318 -1.1689  0.1672
 2980SOL     OW20572   4.025   1.911  15.589  0.3538 -0.2257  0.1964
 2980SOL    HW120573   4.117   1.934  15.576  0.0676  0.8677  0.0960
 2980SOL    HW220574   4.036   1.832  15.536  3.3703  1.8511 -2.2936
 2981SOL     OW20575   1.469   4.337   3.293 -0.0283  0.1761  0.2464
 2981SOL    HW120576   1.395   4.394   3.314 -2.1951 -1.6443 -2.5060
 2981SOL    HW220577   1.522   4.347   3.372  0.4926 -0.7366  0.0162
 2982SOL     OW20578   1.700   1.003   3.000 -0.2062 -0.6158 -0.2403
 2982SOL    HW120579   1.726   0.917   2.967 -1.4889 -1.4112  0.8488
 2982SOL    HW220580   1.638   0.977   3.068 -0.8401 -0.8969 -0.9235
 2983SOL     OW20581   3.884   0.901   5.590  0.3600 -0.2077 -0.0264
 2983SOL    HW120582   3.929   0.852   5.659 -3.1370 -1.7895  1.1445
 2983SOL    HW220583   3.821   0.837   5.556  0.2740 -0.5738  0.8136
 2984SOL     OW20584   3.822   3.151   3.530 -0.3596 -0.4747  0.1722
 2984SOL    HW120585   3.861   3.234   3.556 -1.3176 -0.2982  1.0573
 2984SOL    HW220586   3.854   3.144   3.440 -1.3398  0.6982 -0.2747
 2985SOL     OW20587   0.141   2.566   8.889 -0.1829  0.2399  0.2397
 2985SOL    HW120588   0.159   2.609   8.973 -1.4877 -0.2007  0.7443
 2985SOL    HW220589   0.176   2.637   8.834 -1.8175  1.2815  0.5611
 2986SOL     OW20590   1.952   3.330   3.238 -0.4796  0.1018 -0.5384
 2986SOL    HW120591   1.970   3.395   3.306 -1.8698 -1.9738  1.7916
 2986SOL    HW220592   2.037   3.321   3.196 -0.2063  0.6255 -0.0896
 2987SOL     OW20593   2.377   4.735   3.390  0.0593  0.3945  0.0667
 2987SOL    HW120594   2.421   4.718   3.307 -1.9349  0.0206 -0.9171
 2987SOL    HW220595   2.287   4.719   3.363  0.3862 -0.5285 -0.4650
 2988SOL     OW20596   4.136   0.660   0.185 -0.3902 -0.2298  0.2871
 2988SOL    HW120597   4.214   0.607   0.168 -0.6904 -1.2477  2.0414
 2988SOL    HW220598   4.127   0.633   0.276  0.0184 -0.9052  0.1293
 2989SOL     OW20599   4.036   2.660  17.595  0.4787  0.1469  0.3283
 2989SOL    HW120600   3.943   2.634  17.590 -0.1449  2.3387  0.5207
 2989SOL    HW220601   4.064   2.568  17.595 -2.0141 -0.6301 -0.7122
 2990SOL     OW20602   1.826   1.051   8.511 -0.2908  0.2216 -0.2799
 2990SOL    HW120603   1.805   1.039   8.604  1.6367 -0.9070  0.0085
 2990SOL    HW220604   1.911   1.006   8.515 -0.8032 -0.7650 -0.4002
 2991SOL     OW20605   3.708   1.746   1.760 -0.2322 -0.7391  0.2194
 2991SOL    HW120606   3.695   1.801   1.683  0.4906 -1.6125 -0.5258
 2991SOL    HW220607   3.794   1.708   1.747 -0.4149 -0.1404 -2.8679
 2992SOL     OW20608   4.009   0.051   5.091  0.2490 -0.0945 -0.1924
 2992SOL    HW120609   4.048   4.704   5.120  0.9844  0.2279 -0.2504
 2992SOL    HW220610   3.977   0.081   5.176  2.2698  0.9704  0.2045
 2993SOL     OW20611   3.191   3.306   2.873  0.0950  0.4086  0.1130
 2993SOL    HW120612   3.251   3.318   2.799 -0.5186 -3.0907 -0.9195
 2993SOL    HW220613   3.223   3.376   2.930 -2.3883  0.4233  1.4686
 2994SOL     OW20614   0.784   1.069   2.879  0.3883 -0.1262 -0.8546
 2994SOL    HW120615   0.777   1.104   2.790  1.9595  1.6127 -0.3033
 2994SOL    HW220616   0.878   1.052   2.890  0.3970  1.4660  1.6201
 2995SOL     OW20617   1.185   1.304   3.924 -0.2669  0.0500 -0.2443
 2995SOL    HW120618   1.209   1.315   3.832  1.9185  0.5968  0.3919
 2995SOL    HW220619   1.187   1.394   3.958  0.5281  0.4816 -1.4385
 2996SOL     OW20620   0.063   1.562   5.936  0.6467  0.2771 -0.5568
 2996SOL    HW120621   0.070   1.590   5.845  2.0719 -1.4469 -0.9725
 2996SOL    HW220622   0.044   1.470   5.922  2.1290 -0.4994  2.4911
 2997SOL     OW20623   3.579   4.084  15.997  0.1241 -0.1431  0.1081
 2997SOL    HW120624   3.639   4.012  15.976  0.5006  0.3666 -0.5852
 2997SOL    HW220625   3.522   4.088  15.920 -0.3840 -2.6272  0.3388
 2998SOL     OW20626   2.393   3.153   9.607 -1.0194  0.0995 -0.0606
 2998SOL    HW120627   2.406   3.093   9.680 -1.0573 -0.8161 -0.8050
 2998SOL    HW220628   2.320   3.109   9.563 -0.2520  0.8743 -2.1008
 2999SOL     OW20629   0.212   2.571   6.583 -0.3177  0.2434  0.1475
 2999SOL    HW120630   0.193   2.515   6.658  0.5996 -0.1348  0.0948
 2999SOL    HW220631   0.306   2.583   6.599  0.2389  0.3213 -3.1107
 3000SOL     OW20632   2.529   4.551   2.665  0.2167  0.2189 -0.2521
 3000SOL    HW120633   2.572   4.635   2.646 -0.8341  0.8109  0.0084
 3000SOL    HW220634   2.504   4.518   2.578  1.2727 -0.2779 -0.3671
 3001SOL     OW20635   3.426   1.843   0.047  0.4400  0.3661  0.1797
 3001SOL    HW120636   3.355   1.782   0.067 -0.7775  2.0448  0.9559
 3001SOL    HW220637   3.410   1.848  17.692  1.6196  1.8160  0.0463
 3002SOL     OW20638   3.300   4.382   9.635 -0.3652  0.0972  0.1724
 3002SOL    HW120639   3.374   4.329   9.609  0.0892  0.5863  0.4543
 3002SOL    HW220640   3.284   4.344   9.721 -1.3264 -0.5595 -0.2979
 3003SOL     OW20641   0.752   0.862   0.806 -0.3634 -0.1536 -0.4001
 3003SOL    HW120642   0.708   0.801   0.747  1.3205  0.2922 -2.1140
 3003SOL    HW220643   0.703   0.942   0.788 -0.3528 -0.4146 -1.6045
 3004SOL     OW20644   4.724   1.482   3.956  0.0266  0.5470  0.0757
 3004SOL    HW120645   4.665   1.407   3.960  0.0246  0.4058 -2.6399
 3004SOL    HW220646   4.675   1.542   4.012  0.8323  0.6688  0.6349
 3005SOL     OW20647   2.922   0.969  14.492 -0.0869  0.5696 -0.2634
 3005SOL    HW120648   2.850   0.951  14.552  0.4224 -0.5495  0.0161
 3005SOL    HW220649   2.986   0.905  14.523  1.6126  1.9275 -1.0039
 3006SOL     OW20650   3.846   1.230   7.841 -0.0767  0.3115 -0.2408
 3006SOL    HW120651   3.879   1.179   7.915 -0.8255  0.5224  0.2386
 3006SOL    HW220652   3.755   1.243   7.868  0.5778  1.3813  1.4335
 3007SOL     OW20653   3.695   3.030  14.994 -0.4353 -0.1598 -0.5050
 3007SOL    HW120654   3.711   2.936  14.985 -2.3616 -0.5658  0.3969
 3007SOL    HW220655   3.781   3.050  14.957  0.3371 -1.0110  0.8186
 3008SOL     OW20656   1.734   1.099  10.483  0.1353 -0.0242  0.6875
 3008SOL    HW120657   1.801   1.136  10.541  0.9590 -1.9816  0.9897
 3008SOL    HW220658   1.777   1.018  10.457 -3.0157 -0.8850 -1.7414
 3009SOL     OW20659   3.225   4.203   4.855  0.1917 -0.8685  0.2712
 3009SOL    HW120660   3.302   4.207   4.912  0.7269  2.7996 -0.6786
 3009SOL    HW220661   3.147   4.205   4.910  1.7159 -2.1658  2.4928
 3010SOL     OW20662   4.053   4.524   1.712 -0.1811  0.4611  0.0750
 3010SOL    HW120663   3.984   4.591   1.708 -0.9674 -0.2754  1.1356
 3010SOL    HW220664   4.068   4.527   1.806  1.9523  2.9264 -0.3325
 3011SOL     OW20665   4.496   3.793   2.802 -0.0958 -0.1942  0.0425
 3011SOL    HW120666   4.458   3.705   2.813  0.9005 -0.8054 -1.5074
 3011SOL    HW220667   4.466   3.820   2.889 -1.0032 -2.3822  0.4208
 3012SOL     OW20668   0.510   0.032   6.991 -0.7749 -0.2586  0.2744
 3012SOL    HW120669   0.553   4.702   6.936 -2.7539 -0.9530 -0.4479
 3012SOL    HW220670   0.424   4.727   7.003  0.0049 -1.2107  2.7028
 3013SOL     OW20671   0.988   0.177   4.373  0.1105  0.2492  0.2942
 3013SOL    HW120672   1.052   0.106   4.363 -3.1144 -2.6152 -0.0790
 3013SOL    HW220673   0.990   0.190   4.468  0.2652  0.4029  0.2717
 3014SOL     OW20674   0.825   2.887   7.239  0.3671 -0.4791 -0.2575
 3014SOL    HW120675   0.806   2.801   7.277  0.8024 -0.6372 -0.3996
 3014SOL    HW220676   0.868   2.934   7.311 -1.2428 -0.5430  0.7474
 3015SOL     OW20677   4.735   1.618   5.682 -0.6608  0.4817  0.0981
 3015SOL    HW120678   0.023   1.545   5.625  1.3149  0.2988  1.1586
 3015SOL    HW220679   4.639   1.621   5.688 -0.6419  0.4691  0.4003
 3016SOL     OW20680   3.766   1.390   2.981  0.3438 -0.2028 -0.0737
 3016SOL    HW120681   3.779   1.315   2.923 -3.5952  1.4954 -3.1229
 3016SOL    HW220682   3.671   1.382   2.988  0.0739  2.2640 -0.7176
 3017SOL     OW20683   0.523   1.886   6.882 -0.2096 -0.6459 -0.6257
 3017SOL    HW120684   0.560   1.896   6.794 -0.3286 -0.4437 -0.6541
 3017SOL    HW220685   0.525   1.791   6.894  1.2641 -0.4873  0.3194
 3018SOL     OW20686   0.709   2.046   6.993  0.7158  0.1746 -0.3713
 3018SOL    HW120687   0.665   2.124   6.959 -2.4774 -0.2055  2.8761
 3018SOL    HW220688   0.644   1.998   7.045  0.5221  0.3713 -0.4268
 3019SOL     OW20689   4.696   3.447   2.033 -0.2758 -0.2816  0.0059
 3019SOL    HW120690   4.692   3.381   1.965 -0.1214 -0.6971  0.3981
 3019SOL    HW220691   0.051   3.425   2.058  0.4696  3.4695  0.6079
 3020SOL     OW20692   2.970   2.828   3.713  0.1337  0.3053 -0.0352
 3020SOL    HW120693   3.006   2.835   3.625 -0.9351 -0.5569 -0.5397
 3020SOL    HW220694   2.879   2.813   3.685  0.2494  2.1566 -1.3653
 3021SOL     OW20695   3.173   4.217   5.301  0.1310  0.4476  0.4164
 3021SOL    HW120696   3.225   4.202   5.380  0.5750  1.2575  0.2883
 3021SOL    HW220697   3.154   4.128   5.272  2.2000  0.3590 -0.6922
 3022SOL     OW20698   3.983   3.142   5.512  0.6237 -1.1782  0.1582
 3022SOL    HW120699   3.975   3.047   5.521  2.2726 -1.0776  2.4183
 3022SOL    HW220700   4.013   3.161   5.601  2.8711 -0.5927 -0.7350
 3023SOL     OW20701   3.367   1.016   1.864  0.9537  0.3622  0.1021
 3023SOL    HW120702   3.388   1.070   1.940 -1.0769 -0.5969  1.3402
 3023SOL    HW220703   3.452   0.982   1.836  0.5357  1.0751 -1.9850
 3024SOL     OW20704   0.309   3.430   5.394  0.2219  0.1646  0.3680
 3024SOL    HW120705   0.362   3.414   5.472  0.5549 -0.8666 -0.0732
 3024SOL    HW220706   0.346   3.361   5.340 -0.9950 -0.2715  0.0946
 3025SOL     OW20707   3.793   0.560  13.115  0.8667  0.2539 -0.5768
 3025SOL    HW120708   3.798   0.655  13.110  0.3094  0.2384 -1.4591
 3025SOL    HW220709   3.774   0.537  13.024 -2.5398 -0.0354  0.1867
 3026SOL     OW20710   0.082   0.483   1.215 -0.0607 -0.3811 -0.3033
 3026SOL    HW120711   0.000   0.499   1.167  0.2188 -4.8172 -2.2483
 3026SOL    HW220712   0.142   0.515   1.147 -0.2254  0.0719 -0.2329
 3027SOL     OW20713   4.288   0.886  12.897 -0.1487  0.2139  0.1290
 3027SOL    HW120714   4.234   0.847  12.966 -0.8463  1.0618  0.0630
 3027SOL    HW220715   4.368   0.833  12.898  0.3503  0.9295 -1.2259
 3028SOL     OW20716   2.834   0.163   4.048 -0.1626 -0.4943  0.2120
 3028SOL    HW120717   2.749   0.140   4.086  0.1893 -0.3710  1.0826
 3028SOL    HW220718   2.890   0.175   4.125  1.3952 -1.1438 -0.8117
 3029SOL     OW20719   0.108   0.038   9.069  0.4194  0.6621  0.0688
 3029SOL    HW120720   0.136   4.721   8.993  4.1349 -0.6030  2.3279
 3029SOL    HW220721   0.163   0.113   9.044 -2.9588  2.4353 -2.0357
 3030SOL     OW20722   3.398   0.659   6.596  0.1339 -0.1169 -0.0362
 3030SOL    HW120723   3.390   0.754   6.593 -0.4214 -0.2879 -3.2538
 3030SOL    HW220724   3.309   0.649   6.629  0.4544 -1.7053  0.3478
 3031SOL     OW20725   0.887   0.021   2.545 -0.6085 -0.5970 -0.0117
 3031SOL    HW120726   0.848   0.072   2.474  1.1405 -0.4334 -0.8336
 3031SOL    HW220727   0.800   4.727   2.574 -0.9393  0.1193 -0.2858
 3032SOL     OW20728   2.168   0.614   4.003 -0.1673 -0.0213 -0.0591
 3032SOL    HW120729   2.185   0.684   3.941 -0.7609 -0.5976 -0.8893
 3032SOL    HW220730   2.077   0.585   3.989  0.0259 -1.0525  0.8330
 3033SOL     OW20731   1.647   1.806   4.445  0.0758 -0.8706 -0.2861
 3033SOL    HW120732   1.667   1.769   4.359 -2.4489  0.7294 -1.5610
 3033SOL    HW220733   1.731   1.806   4.490  0.0373  0.0097 -0.2258
 3034SOL     OW20734   3.836   3.890  16.816  0.0051  0.2010  0.0911
 3034SOL    HW120735   3.864   3.954  16.881  1.7951 -0.5933  0.1162
 3034SOL    HW220736   3.854   3.932  16.732  1.3117 -0.8728 -0.1729
 3035SOL     OW20737   4.397   3.938   2.564  0.1062  0.5653  0.0416
 3035SOL    HW120738   4.399   3.916   2.657 -1.1189 -0.1514 -0.1069
 3035SOL    HW220739   4.460   3.871   2.537  1.5190  1.8605  0.1267
 3036SOL     OW20740   0.923   0.936  17.212  0.1283  0.5696  0.0880
 3036SOL    HW120741   0.872   0.985  17.277 -1.3734 -1.2085  0.2454
 3036SOL    HW220742   1.004   0.971  17.247  1.0127 -1.6350  0.2222
 3037SOL     OW20743   4.107   0.902   8.213 -0.2292 -0.2506 -0.6144
 3037SOL    HW120744   4.103   0.843   8.137 -2.9066 -0.1612 -0.5411
 3037SOL    HW220745   4.138   0.979   8.166  0.1781 -1.2483 -1.9971
 3038SOL     OW20746   1.870   3.242   5.922 -0.0230 -0.0765 -0.0567
 3038SOL    HW120747   1.888   3.333   5.946  0.6369  0.0287 -0.9519
 3038SOL    HW220748   1.948   3.197   5.954 -0.1986 -1.4002 -1.4841
 3039SOL     OW20749   1.882   0.048   5.821 -0.2850  0.3057 -0.2594
 3039SOL    HW120750   1.925   0.090   5.896  1.1853 -2.7123  0.5570
 3039SOL    HW220751   1.944   4.716   5.795 -0.6186  0.5134 -1.5959
 3040SOL     OW20752   4.639   2.290  16.959  0.9190 -0.0018 -0.2427
 3040SOL    HW120753   4.634   2.386  16.969  3.8755 -0.0655  1.8468
 3040SOL    HW220754   4.727   2.260  16.980  1.3578  2.9853  2.3238
 3041SOL     OW20755   2.301   0.030   7.031  0.4940 -0.0386  0.1471
 3041SOL    HW120756   2.293   0.079   7.113 -0.3485  0.7029 -0.3802
 3041SOL    HW220757   2.364   4.696   7.053  3.0734  1.9965 -0.8165
 3042SOL     OW20758   4.473   4.069  13.621  0.1959  0.2284  0.5215
 3042SOL    HW120759   4.479   4.144  13.680  2.9632 -1.1062  1.9378
 3042SOL    HW220760   4.559   4.026  13.626 -0.2348 -0.4089  2.2802
 3043SOL     OW20761   2.480   0.160   4.736 -0.5111 -0.2809  0.4157
 3043SOL    HW120762   2.473   0.219   4.811  2.3118 -0.5343  0.8695
 3043SOL    HW220763   2.464   0.221   4.664 -0.0317 -0.4706  0.1475
 3044SOL     OW20764   0.449   2.871  11.207 -0.0583  0.2623  0.2799
 3044SOL    HW120765   0.522   2.909  11.160  0.4521 -0.5940  0.3783
 3044SOL    HW220766   0.498   2.821  11.272 -0.9313 -1.3641 -0.2986
 3045SOL     OW20767   0.874   4.653   2.862  0.3918 -0.2517 -0.2352
 3045SOL    HW120768   0.853   4.622   2.774  2.4701 -0.0509 -0.7939
 3045SOL    HW220769   0.969   4.652   2.849  0.4134  1.9429 -0.3044
 3046SOL     OW20770   2.596   4.025   7.724  0.1868  0.3737 -0.0689
 3046SOL    HW120771   2.532   4.096   7.718 -1.3467 -0.8543  2.0086
 3046SOL    HW220772   2.582   3.986   7.810 -0.2189 -1.8328 -1.1255
 3047SOL     OW20773   1.996   3.258   2.665 -0.1528 -0.2136 -0.2376
 3047SOL    HW120774   2.003   3.245   2.760  3.3383 -0.8624 -0.5810
 3047SOL    HW220775   1.925   3.199   2.639  0.2326  0.4124 -2.7105
 3048SOL     OW20776   1.586   1.104   8.382 -0.4110  0.2456  0.2985
 3048SOL    HW120777   1.673   1.079   8.414 -1.6748 -1.0974  2.7610
 3048SOL    HW220778   1.556   1.170   8.444 -2.3584 -0.5063  0.1604
 3049SOL     OW20779   1.963   2.704   6.911  0.0158 -0.3827  0.4785
 3049SOL    HW120780   1.964   2.786   6.862 -1.1338  1.4665  3.5305
 3049SOL    HW220781   2.000   2.724   6.997  2.4968 -0.0436 -0.6626
 3050SOL     OW20782   3.167   3.301   7.297  0.1650  0.0040 -0.5439
 3050SOL    HW120783   3.161   3.210   7.266  0.2287  0.1326 -0.9263
 3050SOL    HW220784   3.120   3.356   7.235 -2.9471 -2.6291 -0.5399
 3051SOL     OW20785   2.529   1.047   3.847  0.3277 -0.3352  0.1031
 3051SOL    HW120786   2.460   1.033   3.912  1.6058  1.4027  1.8251
 3051SOL    HW220787   2.471   1.055   3.771 -1.2977  0.2775  1.4266
 3052SOL     OW20788   2.540   0.699   4.878  0.5900 -0.4317  0.2421
 3052SOL    HW120789   2.480   0.766   4.846 -1.4735 -1.6920  1.4646
 3052SOL    HW220790   2.525   0.628   4.815  0.5426  2.6010 -3.1741
 3053SOL     OW20791   1.244   1.183  16.068 -0.3040  0.2866  0.0450
 3053SOL    HW120792   1.323   1.158  16.115  0.2162 -1.6247 -1.8694
 3053SOL    HW220793   1.228   1.264  16.118 -2.8404 -1.2566  1.7443
 3054SOL     OW20794   0.470   2.604   0.833  0.0108  0.4655 -0.0682
 3054SOL    HW120795   0.468   2.561   0.918  0.0337  0.1513 -0.2270
 3054SOL    HW220796   0.390   2.657   0.841 -0.3101 -0.1760  0.8928
 3055SOL     OW20797   0.048   2.764  10.039  0.3683  0.3572 -0.4236
 3055SOL    HW120798   0.084   2.846  10.006 -1.1991  1.0535 -0.3810
 3055SOL    HW220799   0.067   2.761  10.133 -0.0532 -0.0525 -0.3532
 3056SOL     OW20800   3.440   4.085  16.255 -0.5694 -0.0772  0.4503
 3056SOL    HW120801   3.487   4.018  16.306 -0.2650 -0.7388 -0.6843
 3056SOL    HW220802   3.476   4.058  16.171 -3.1478 -1.3493 -0.2580
 3057SOL     OW20803   3.709   4.572   5.644  0.2107  0.4031 -0.1056
 3057SOL    HW120804   3.670   4.578   5.732  1.7260  0.9658  0.5239
 3057SOL    HW220805   3.794   4.614   5.654 -0.7346  1.8521  2.1440
 3058SOL     OW20806   2.091   1.034   9.254  0.1107 -0.9542 -0.1016
 3058SOL    HW120807   2.045   1.029   9.338  1.7523  0.8623  0.8962
 3058SOL    HW220808   2.152   1.106   9.267 -1.2091  0.3985 -1.4125
 3059SOL     OW20809   3.326   0.526   1.203 -0.3043 -0.1560  0.6644
 3059SOL    HW120810   3.331   0.532   1.107 -1.0986 -2.6201  0.4599
 3059SOL    HW220811   3.369   0.442   1.221  2.1318  0.5139 -2.1406
 3060SOL     OW20812   0.710   0.112   3.438  0.0693 -0.1084 -0.0207
 3060SOL    HW120813   0.697   0.018   3.424 -2.0754 -0.0189  1.3707
 3060SOL    HW220814   0.740   0.108   3.529 -1.3632 -0.7802  0.4143
 3061SOL     OW20815   1.745   4.512  11.468 -0.0951 -0.9234 -0.0058
 3061SOL    HW120816   1.800   4.501  11.390  1.4354 -0.4465  0.9948
 3061SOL    HW220817   1.794   4.482  11.545  1.7892  0.5049 -0.6431
 3062SOL     OW20818   4.268   3.629   3.197 -0.8307 -0.3865 -0.1414
 3062SOL    HW120819   4.212   3.594   3.128 -1.9880 -0.3583  0.7696
 3062SOL    HW220820   4.204   3.688   3.239  0.9171  1.2674  0.1954
 3063SOL     OW20821   2.634   3.956   1.483  0.1338 -0.6300  0.2932
 3063SOL    HW120822   2.572   3.990   1.548 -1.4215  1.5520 -2.3648
 3063SOL    HW220823   2.654   3.874   1.527  2.3183 -1.2572 -1.8843
 3064SOL     OW20824   3.489   4.725   4.214  0.6397  0.0508  0.2664
 3064SOL    HW120825   3.404   4.724   4.171 -0.8367 -0.5050  3.1702
 3064SOL    HW220826   3.495   0.081   4.244  0.5961 -0.6965  2.5831
 3065SOL     OW20827   1.965   3.368   7.997  0.3768  0.2382 -0.2620
 3065SOL    HW120828   2.059   3.389   7.995  0.5372 -0.5520 -1.3983
 3065SOL    HW220829   1.933   3.415   8.074  0.6946 -0.5754  0.3665
 3066SOL     OW20830   3.698   2.324   4.860 -0.5332 -0.2338 -0.4388
 3066SOL    HW120831   3.745   2.360   4.935 -1.1628  1.6430 -0.9331
 3066SOL    HW220832   3.756   2.316   4.784 -0.8724  0.8196 -0.8100
 3067SOL     OW20833   2.152   0.834  10.526 -0.3432 -0.0357  0.5459
 3067SOL    HW120834   2.145   0.901  10.594  0.9466 -0.7209  1.3586
 3067SOL    HW220835   2.077   0.861  10.472  1.2559 -1.8555 -2.5643
 3068SOL     OW20836   4.622   3.394  12.932  0.5094 -0.2518  0.2089
 3068SOL    HW120837   4.642   3.485  12.911 -3.2434  0.7902  1.1683
 3068SOL    HW220838   4.671   3.334  12.876  1.4600  0.4353  0.3027
 3069SOL     OW20839   1.325   2.960  15.546 -0.4433 -0.1535 -0.1596
 3069SOL    HW120840   1.243   2.955  15.497 -0.5290 -1.3503  0.1038
 3069SOL    HW220841   1.367   3.034  15.502 -0.1939 -0.4754 -0.4560
 3070SOL     OW20842   1.736   4.035   1.708 -0.2801  0.1747  0.1263
 3070SOL    HW120843   1.651   4.008   1.742  0.1993 -1.1761  0.2695
 3070SOL    HW220844   1.706   4.100   1.645  0.7669 -0.5932 -1.1544
 3071SOL     OW20845   0.578   3.870   9.314  0.7016  0.5425  0.7454
 3071SOL    HW120846   0.632   3.797   9.345 -0.1026  0.0208  0.9305
 3071SOL    HW220847   0.498   3.850   9.364  2.4895 -0.9920  3.0012
 3072SOL     OW20848   0.933   2.533   7.570  0.0124  0.1729  0.0900
 3072SOL    HW120849   1.006   2.589   7.595  0.3955  0.9969 -2.8184
 3072SOL    HW220850   0.869   2.579   7.625 -1.4280  0.4879 -1.8468
 3073SOL     OW20851   1.214   1.796  12.455 -0.0448 -0.5027  1.0301
 3073SOL    HW120852   1.236   1.870  12.398 -0.1227 -0.8570  0.5424
 3073SOL    HW220853   1.305   1.767  12.465 -0.1395 -1.0703  0.2276
 3074SOL     OW20854   2.684   3.292   2.315  0.4294  0.1536 -0.1220
 3074SOL    HW120855   2.711   3.302   2.406 -0.0253  1.8283 -0.1904
 3074SOL    HW220856   2.774   3.290   2.281  1.3674  1.1128  2.3494
 3075SOL     OW20857   2.475   3.781  11.625  0.2772  0.4276  0.3349
 3075SOL    HW120858   2.525   3.797  11.704  2.9251  0.1361 -1.3063
 3075SOL    HW220859   2.385   3.773  11.658  0.7439 -1.2553  1.1336
 3076SOL     OW20860   3.588   4.492   7.495  0.1070  0.2080  0.2687
 3076SOL    HW120861   3.572   4.492   7.589 -0.1808  1.1508  0.2215
 3076SOL    HW220862   3.529   4.421   7.471  0.8187 -1.3590  3.2389
 3077SOL     OW20863   2.995   3.504   3.536 -0.4948 -0.0209 -0.1474
 3077SOL    HW120864   2.905   3.519   3.565 -0.6676  1.6093 -1.5166
 3077SOL    HW220865   3.008   3.576   3.474 -2.3304  1.5412  1.2954
 3078SOL     OW20866   0.578   2.235   9.912  0.2623  0.1684 -0.4057
 3078SOL    HW120867   0.504   2.203   9.860 -1.4139  0.0026  2.0961
 3078SOL    HW220868   0.565   2.327   9.933  1.1883  0.7840 -2.5152
 3079SOL     OW20869   1.336   3.868  10.667 -0.3948 -0.7697  0.1657
 3079SOL    HW120870   1.389   3.948  10.660 -0.8638 -0.3600  1.3261
 3079SOL    HW220871   1.397   3.806  10.626 -1.4406 -0.5956 -1.6190
 3080SOL     OW20872   2.136   4.582   9.096  0.1057 -0.4164  0.0651
 3080SOL    HW120873   2.110   4.520   9.027  1.3382  0.6098 -1.3211
 3080SOL    HW220874   2.209   4.537   9.137 -0.4206  1.1347  2.6688
 3081SOL     OW20875   3.995   2.150   3.210  0.0583 -0.4263  0.2793
 3081SOL    HW120876   3.922   2.103   3.170 -0.5031  0.1451  0.6322
 3081SOL    HW220877   3.951   2.221   3.256  0.8298  0.6544 -0.6550
 3082SOL     OW20878   2.720   3.365   7.456 -0.2012 -0.0848  0.3134
 3082SOL    HW120879   2.811   3.339   7.471 -0.5622 -0.8509  1.1402
 3082SOL    HW220880   2.675   3.300   7.510  1.1853 -1.7844 -0.5647
 3083SOL     OW20881   2.307   4.705  16.489 -0.7375 -0.5198  0.3534
 3083SOL    HW120882   2.395   4.676  16.513  0.7430  4.0287  0.4139
 3083SOL    HW220883   2.274   0.007  16.571  1.7547  0.1466  1.0383
 3084SOL     OW20884   1.282   3.393   8.353  0.2873 -0.2236 -0.3171
 3084SOL    HW120885   1.294   3.333   8.280 -1.1987 -2.3972  1.2536
 3084SOL    HW220886   1.220   3.452   8.310 -1.8718 -1.2294  1.4519
 3085SOL     OW20887   1.568   2.196   3.166  1.0791 -0.3428 -0.0250
 3085SOL    HW120888   1.514   2.186   3.244 -1.9714  2.6319 -1.7604
 3085SOL    HW220889   1.644   2.141   3.184  1.7388 -0.1907 -2.3286
 3086SOL     OW20890   2.883   3.651   8.152 -0.4236 -0.0730  0.4262
 3086SOL    HW120891   2.976   3.629   8.152 -0.5076 -0.4042  1.0911
 3086SOL    HW220892   2.867   3.630   8.060  2.3451 -0.4348  0.0310
 3087SOL     OW20893   1.100   4.407   5.968  0.2206 -0.2088  0.2927
 3087SOL    HW120894   1.131   4.437   5.882  0.2879  1.0991  0.7659
 3087SOL    HW220895   1.115   4.487   6.019 -0.6670 -0.4328  0.8994
 3088SOL     OW20896   3.034   4.429   3.494  0.0104  0.2289 -0.3085
 3088SOL    HW120897   2.965   4.430   3.560  2.3546 -0.9576  2.1816
 3088SOL    HW220898   3.099   4.377   3.541 -1.3867 -1.1122  0.1120
 3089SOL     OW20899   4.644   0.324   6.330 -0.5089 -0.0092  0.6256
 3089SOL    HW120900   4.551   0.333   6.349 -0.8907  0.7082 -1.5580
 3089SOL    HW220901   4.644   0.241   6.282  2.4745  1.6378 -2.2051
 3090SOL     OW20902   1.580   2.286   1.254  0.6794  0.5390 -0.2488
 3090SOL    HW120903   1.630   2.224   1.306  0.1792  1.0942  0.8809
 3090SOL    HW220904   1.494   2.265   1.290  0.1925  0.8712 -1.2099
 3091SOL     OW20905   3.102   3.031   4.448 -0.0402 -1.1589 -0.1153
 3091SOL    HW120906   3.179   3.063   4.400 -0.5264  0.1809  0.0224
 3091SOL    HW220907   3.035   3.028   4.380  1.2617  0.8806 -1.5122
 3092SOL     OW20908   3.561   2.498   7.549 -0.2425  0.1901  1.0195
 3092SOL    HW120909   3.648   2.480   7.584  0.5635  0.2083 -0.9302
 3092SOL    HW220910   3.586   2.512   7.457 -1.2840 -3.6659  0.1302
 3093SOL     OW20911   2.253   0.376  14.789  0.0420 -0.4211 -0.2737
 3093SOL    HW120912   2.325   0.430  14.758  0.0069  0.0849  0.5324
 3093SOL    HW220913   2.314   0.305  14.809 -0.2884 -0.6636 -0.1202
 3094SOL     OW20914   1.609   0.740   2.703  0.2573  0.7229 -0.1113
 3094SOL    HW120915   1.666   0.675   2.661  1.6030  1.4698  0.5725
 3094SOL    HW220916   1.607   0.710   2.794  0.3092  0.8025 -0.0842
 3095SOL     OW20917   1.618   3.007  10.978 -0.1319 -0.6455 -0.2296
 3095SOL    HW120918   1.538   3.004  11.031 -1.8400  0.0073 -2.7501
 3095SOL    HW220919   1.605   3.079  10.916 -2.6976 -2.3748 -1.7017
 3096SOL     OW20920   1.740   2.439   5.875  0.6387  0.2469  0.0502
 3096SOL    HW120921   1.718   2.351   5.904  0.9621  0.4744  0.9870
 3096SOL    HW220922   1.648   2.464   5.865  0.4651 -0.0055  1.0843
 3097SOL     OW20923   3.279   1.794   3.236 -0.0295 -0.3729 -0.0218
 3097SOL    HW120924   3.244   1.879   3.264  2.4774  0.1962  1.3047
 3097SOL    HW220925   3.341   1.817   3.167 -0.1022 -0.1949 -0.0302
 3098SOL     OW20926   4.596   3.266   5.776 -0.5750  0.5266 -0.1587
 3098SOL    HW120927   4.616   3.356   5.749 -1.0951  0.7568  0.2216
 3098SOL    HW220928   4.682   3.224   5.767 -0.2442  1.3764 -1.0325
 3099SOL     OW20929   0.037   0.626   4.151  0.2495  0.2692 -0.0707
 3099SOL    HW120930   4.718   0.553   4.180 -0.5736  1.5404  1.5575
 3099SOL    HW220931   0.115   0.623   4.206 -0.1222 -2.1580  0.2983
 3100SOL     OW20932   2.134   3.015   3.914 -0.8987  0.4976  0.3247
 3100SOL    HW120933   2.125   3.107   3.940 -0.4536  0.8228 -0.6825
 3100SOL    HW220934   2.208   3.018   3.853  0.3648  1.9530  1.9339
 3101SOL     OW20935   3.458   3.888   6.224 -1.2697  0.0729 -0.1149
 3101SOL    HW120936   3.379   3.934   6.193 -0.4830  0.5754 -1.3648
 3101SOL    HW220937   3.517   3.955   6.191 -1.9623  0.7628  0.0405
 3102SOL     OW20938   2.138   2.059  10.009  0.0076  0.2054 -0.5563
 3102SOL    HW120939   2.215   2.106   9.976  0.2218  0.6992  0.6243
 3102SOL    HW220940   2.176   1.998  10.073  1.3148 -1.1095 -2.5721
 3103SOL     OW20941   3.459   2.822   8.690  0.1317 -0.4905  0.7228
 3103SOL    HW120942   3.434   2.882   8.760 -0.2848  1.0631 -0.7537
 3103SOL    HW220943   3.375   2.808   8.645 -0.0147 -1.8375  1.4069
 3104SOL     OW20944   1.039   3.201   2.403  0.1621  0.1806 -0.7258
 3104SOL    HW120945   1.051   3.287   2.363 -0.5465  1.7240  2.3844
 3104SOL    HW220946   1.084   3.211   2.487  0.4294  0.7767 -0.9411
 3105SOL     OW20947   0.877   3.948   1.503  0.1472  0.5011  0.4250
 3105SOL    HW120948   0.923   4.031   1.512  0.8338  0.2172 -0.4347
 3105SOL    HW220949   0.909   3.913   1.587 -1.1211 -0.6805  0.4218
 3106SOL     OW20950   2.833   0.240   5.676  0.0123 -0.2199  0.3460
 3106SOL    HW120951   2.815   0.204   5.762 -2.0526  3.7713  1.5553
 3106SOL    HW220952   2.869   0.327   5.690  0.0657  0.1687 -2.1136
 3107SOL     OW20953   3.690   2.065   0.110  0.3722  0.4596  0.0665
 3107SOL    HW120954   3.666   2.041   0.200 -1.4503  1.0277 -0.2786
 3107SOL    HW220955   3.785   2.050   0.105  0.2033 -0.7433  0.3943
 3108SOL     OW20956   2.606   1.502  11.184  0.0452 -0.1497  0.0548
 3108SOL    HW120957   2.548   1.474  11.113 -2.4391 -0.2386  2.1211
 3108SOL    HW220958   2.539   1.552  11.230 -0.6386 -1.2609  0.2821
 3109SOL     OW20959   4.534   3.392   5.058  0.0853 -0.1069 -0.1527
 3109SOL    HW120960   4.465   3.387   4.991  0.3717 -2.7417 -0.2661
 3109SOL    HW220961   4.499   3.328   5.120  0.6480 -2.0457 -1.8251
 3110SOL     OW20962   2.154   3.723   9.958 -0.8928 -0.0413  0.0579
 3110SOL    HW120963   2.206   3.794   9.920  0.3870 -0.3161  1.2872
 3110SOL    HW220964   2.118   3.683   9.879 -0.4941  1.1556 -0.7385
 3111SOL     OW20965   2.324   4.457   1.826 -0.0456 -0.7344 -0.3515
 3111SOL    HW120966   2.391   4.435   1.761  0.2402 -2.5214  0.5514
 3111SOL    HW220967   2.288   4.529   1.774  1.7371  1.9960  2.2314
 3112SOL     OW20968   0.256   2.609  16.667  0.0669 -0.5244 -0.2115
 3112SOL    HW120969   0.175   2.577  16.705 -0.2373  1.9101  1.1271
 3112SOL    HW220970   0.314   2.543  16.706 -1.9603 -3.6761 -2.4425
 3113SOL     OW20971   0.929   3.062   7.059 -0.2072 -0.6147  0.4421
 3113SOL    HW120972   1.016   3.078   7.095 -0.1026  0.8081 -0.4388
 3113SOL    HW220973   0.896   2.994   7.118 -0.7191 -1.3580 -0.6978
 3114SOL     OW20974   3.189   4.248   8.035 -0.2994 -0.3133  0.5303
 3114SOL    HW120975   3.216   4.176   7.979 -1.0235 -0.1988  0.0301
 3114SOL    HW220976   3.269   4.299   8.050  0.5561 -1.9376  1.4024
 3115SOL     OW20977   0.795   2.964  16.072 -0.6002 -0.1059  0.3593
 3115SOL    HW120978   0.858   3.035  16.063 -0.3926 -0.4578 -0.9626
 3115SOL    HW220979   0.808   2.913  15.992 -0.1411 -0.3627  0.6012
 3116SOL     OW20980   2.968   0.894   1.048  0.3659 -0.4455 -0.5168
 3116SOL    HW120981   2.889   0.946   1.038 -1.6353 -3.8381 -2.3794
 3116SOL    HW220982   3.035   0.962   1.036 -1.5065  0.9866 -2.9434
 3117SOL     OW20983   4.298   0.765   4.325 -0.4653  0.0554 -0.3281
 3117SOL    HW120984   4.328   0.851   4.355  1.4270 -0.4750 -0.7455
 3117SOL    HW220985   4.356   0.769   4.250  0.2011  1.0395  0.2415
 3118SOL     OW20986   0.256   3.421  12.113 -0.4040 -0.4836 -0.1814
 3118SOL    HW120987   0.207   3.364  12.054  0.7017  0.7620 -2.3026
 3118SOL    HW220988   0.309   3.470  12.050  2.7876  0.6971  3.3574
 3119SOL     OW20989   1.232   4.179  11.957 -0.3233  0.0417  0.0482
 3119SOL    HW120990   1.174   4.255  11.960 -0.7930 -0.3067 -0.3892
 3119SOL    HW220991   1.278   4.184  12.041 -1.1018 -0.7950  0.5159
 3120SOL     OW20992   3.886   0.355   9.421  0.2462 -0.6032  0.2647
 3120SOL    HW120993   3.871   0.353   9.327  2.0720 -0.0790 -0.0529
 3120SOL    HW220994   3.872   0.261   9.431 -1.2112 -0.5444 -1.2790
 3121SOL     OW20995   2.669   0.859   1.789  0.4806 -0.8932 -0.1326
 3121SOL    HW120996   2.594   0.912   1.763  0.3351 -1.1492 -0.2419
 3121SOL    HW220997   2.716   0.825   1.713  0.4093 -0.4885 -0.3609
 3122SOL     OW20998   2.621   2.636   0.119  0.2404  0.0642 -0.2035
 3122SOL    HW120999   2.533   2.622   0.082  0.0833 -2.4045  1.0490
 3122SOL    HW221000   2.591   2.686   0.195  2.6068 -0.9255  1.3879
 3123SOL     OW21001   0.130   4.242   9.128  0.2103 -0.3682  0.5449
 3123SOL    HW121002   0.153   4.149   9.119  0.9419 -0.0082 -1.2762
 3123SOL    HW221003   0.135   4.260   9.222 -0.2743 -1.8247  0.8468
 3124SOL     OW21004   0.133   4.259   2.630 -0.0439 -0.2220  0.1213
 3124SOL    HW121005   0.077   4.181   2.624  0.2636 -0.3534 -1.1149
 3124SOL    HW221006   0.177   4.238   2.712 -0.5922 -1.1262  0.1873
 3125SOL     OW21007   0.221   1.127   5.145  0.3115  0.1881  0.8416
 3125SOL    HW121008   0.243   1.202   5.089 -0.0108  0.7155  1.4183
 3125SOL    HW221009   0.148   1.163   5.197 -0.8390  0.2171 -0.7957
 3126SOL     OW21010   3.297   1.911   3.833  0.1575 -0.3550 -0.0359
 3126SOL    HW121011   3.299   1.842   3.766 -0.2454  2.2662 -2.7572
 3126SOL    HW221012   3.267   1.865   3.911  0.6904  0.4719  0.6556
 3127SOL     OW21013   1.813   2.146   3.381 -0.0380  0.3791  0.5916
 3127SOL    HW121014   1.837   2.072   3.326  1.5039  0.1584  1.5744
 3127SOL    HW221015   1.738   2.107   3.427 -0.4680 -1.4539 -1.6583
 3128SOL     OW21016   4.312   4.567   5.679 -0.7624 -0.3133 -0.0098
 3128SOL    HW121017   4.237   4.584   5.736 -0.5335 -2.9960  1.0773
 3128SOL    HW221018   4.331   4.655   5.645 -0.6845  0.6394  2.5007
 3129SOL     OW21019   1.201   0.228  13.567  0.0368 -0.0354  0.0909
 3129SOL    HW121020   1.225   0.136  13.581  0.1858 -0.0801 -0.4452
 3129SOL    HW221021   1.142   0.217  13.493 -2.2392  0.0879  1.8786
 3130SOL     OW21022   1.868   2.801  17.128  0.3572  0.3141  0.2067
 3130SOL    HW121023   1.861   2.737  17.058  0.9186 -0.6073  0.9878
 3130SOL    HW221024   1.815   2.869  17.086  1.1796  1.2474  0.6741
 3131SOL     OW21025   3.507   0.076   6.704  0.2710 -0.1095  0.1967
 3131SOL    HW121026   3.511   0.141   6.633  0.3842 -0.1567  0.1607
 3131SOL    HW221027   3.576   0.013   6.684  0.7664  0.8529 -1.1450
 3132SOL     OW21028   2.827   3.139  10.127 -0.2409 -0.0343 -0.2937
 3132SOL    HW121029   2.755   3.098  10.079 -1.2621 -0.5060  1.6644
 3132SOL    HW221030   2.817   3.093  10.210 -0.4785  2.7222  1.1827
 3133SOL     OW21031   4.482   1.353   4.304  0.3699  0.4853  0.1789
 3133SOL    HW121032   4.513   1.415   4.370 -0.4017  0.3755  0.6485
 3133SOL    HW221033   4.441   1.420   4.248  1.2306  0.0761 -0.9274
 3134SOL     OW21034   1.813   2.551   4.211  0.3560  0.2054 -0.2692
 3134SOL    HW121035   1.888   2.514   4.258 -0.1940  0.4633  0.8079
 3134SOL    HW221036   1.755   2.475   4.201 -0.1955  0.5615  0.2302
 3135SOL     OW21037   3.769   4.476   6.888  0.0917  0.4127  0.2000
 3135SOL    HW121038   3.826   4.431   6.951  1.5486 -0.6419 -1.8768
 3135SOL    HW221039   3.768   4.424   6.808 -2.0784 -0.7539  0.9622
 3136SOL     OW21040   0.160   3.403  10.938  0.2531  0.2513  0.1033
 3136SOL    HW121041   0.136   3.494  10.954  1.2572 -0.1394  3.7549
 3136SOL    HW221042   0.137   3.367  11.024  1.1366  1.1431  0.7056
 3137SOL     OW21043   2.612   2.393   6.054  0.5475 -0.3772  0.1634
 3137SOL    HW121044   2.550   2.396   5.982  0.3393 -2.4771  0.2666
 3137SOL    HW221045   2.677   2.337   6.012 -0.7457 -0.7624 -1.3160
 3138SOL     OW21046   1.454   3.281   1.329  0.0642  0.0242  0.2199
 3138SOL    HW121047   1.535   3.243   1.294 -1.4823 -3.0066 -0.0799
 3138SOL    HW221048   1.454   3.257   1.421  0.2136 -1.1514 -0.0814
 3139SOL     OW21049   4.071   0.017   7.869  0.7087  0.1237  0.4838
 3139SOL    HW121050   3.978   0.034   7.886  0.2108 -1.3792 -0.7748
 3139SOL    HW221051   4.090   0.108   7.844  0.1050 -0.3522 -1.7282
 3140SOL     OW21052   2.707   0.322  12.882  0.6984  0.3856  0.2344
 3140SOL    HW121053   2.658   0.372  12.947 -2.2697 -1.0601 -0.9267
 3140SOL    HW221054   2.797   0.334  12.912  0.6790  0.3349  0.3131
 3141SOL     OW21055   1.728   4.463   4.060  0.2690  0.0660 -0.0971
 3141SOL    HW121056   1.702   4.391   4.118  1.3464 -0.1139  0.1587
 3141SOL    HW221057   1.823   4.463   4.068  0.0242 -0.4641  3.0450
 3142SOL     OW21058   3.139   3.408  13.096 -0.6790 -0.4260  0.1593
 3142SOL    HW121059   3.195   3.448  13.163 -0.5340  0.5492 -0.5440
 3142SOL    HW221060   3.200   3.353  13.046 -0.7050  1.4392 -1.9568
 3143SOL     OW21061   3.424   4.614  14.543  0.1154  0.2080 -0.5293
 3143SOL    HW121062   3.474   4.669  14.604 -0.7089  0.5120 -0.1325
 3143SOL    HW221063   3.423   4.668  14.464 -1.4796  0.8283 -0.0992
 3144SOL     OW21064   2.676   2.780   7.937 -0.5675 -0.2947 -0.6438
 3144SOL    HW121065   2.581   2.771   7.930 -0.5858 -1.3661  0.9595
 3144SOL    HW221066   2.714   2.715   7.877  1.5351  2.3801 -2.2459
 3145SOL     OW21067   0.767   1.661   0.094 -0.2673  0.8251  0.4597
 3145SOL    HW121068   0.820   1.739   0.110 -2.2501  2.6283 -1.7942
 3145SOL    HW221069   0.824   1.611   0.036  0.2060  0.9356  0.8304
 3146SOL     OW21070   4.184   2.173   4.063  0.0945  0.4029 -0.3876
 3146SOL    HW121071   4.098   2.184   4.024 -0.1827  0.0688  0.1291
 3146SOL    HW221072   4.242   2.213   3.998  1.3185 -0.7329 -0.0129
 3147SOL     OW21073   2.342   4.658   6.445 -0.2236  0.9022  0.4185
 3147SOL    HW121074   2.420   4.604   6.430 -0.7539 -0.3534  2.2881
 3147SOL    HW221075   2.287   4.612   6.508  1.7239 -0.6048  1.0060
 3148SOL     OW21076   1.036   4.662   1.340  0.0820 -0.3293 -0.6928
 3148SOL    HW121077   0.952   4.624   1.313 -0.0530  1.4791 -2.7728
 3148SOL    HW221078   1.019   0.001   1.398 -1.2889 -0.8150 -0.4907
 3149SOL     OW21079   4.264   1.480   2.301 -0.7466  0.4390  0.0671
 3149SOL    HW121080   4.184   1.502   2.348 -0.5474  1.5052 -0.0932
 3149SOL    HW221081   4.237   1.510   2.214 -0.7028 -0.8530 -0.3964
 3150SOL     OW21082   1.943   3.771   6.166  0.1720 -0.2926  0.3687
 3150SOL    HW121083   1.874   3.820   6.212 -0.6100 -1.5822  0.5502
 3150SOL    HW221084   1.915   3.780   6.075 -2.3548 -0.3095  1.1467
 3151SOL     OW21085   3.150   0.737  14.477 -0.1104  0.2688  0.0976
 3151SOL    HW121086   3.218   0.771  14.535  2.0734  1.7700 -3.3792
 3151SOL    HW221087   3.184   0.752  14.389 -1.4404 -0.0408 -0.4764
 3152SOL     OW21088   1.546   1.677   6.303 -0.5708 -0.4044 -0.2924
 3152SOL    HW121089   1.565   1.612   6.235  0.7108  0.3885 -0.6904
 3152SOL    HW221090   1.511   1.744   6.244 -1.0308 -1.1333 -0.8487
 3153SOL     OW21091   0.183   2.928  13.054  0.0962 -0.6707 -0.4891
 3153SOL    HW121092   0.181   2.837  13.025  0.6754 -1.0412  0.6227
 3153SOL    HW221093   0.269   2.944  13.093 -0.0124 -1.8353  0.2386
 3154SOL     OW21094   0.873   4.470   0.092 -0.0444 -0.0259 -0.1753
 3154SOL    HW121095   0.853   4.518   0.172 -0.3896  0.4822 -0.5638
 3154SOL    HW221096   0.939   4.407   0.119  0.5510  0.1097 -1.3196
 3155SOL     OW21097   4.442   3.878  16.824 -0.0101  0.2852 -0.1493
 3155SOL    HW121098   4.359   3.925  16.833 -0.7355 -0.5667 -2.4911
 3155SOL    HW221099   4.502   3.950  16.807 -0.7312  0.5622 -1.4476
 3156SOL     OW21100   3.867   4.030  12.541  0.0149  0.1689  0.0823
 3156SOL    HW121101   3.930   4.004  12.475 -1.5866  0.9951 -1.7597
 3156SOL    HW221102   3.916   3.988  12.612 -0.0005  0.3666  0.2101
 3157SOL     OW21103   3.924   3.696   2.074  0.1738  0.4578 -0.1023
 3157SOL    HW121104   3.967   3.781   2.063  3.7811 -1.3335  0.4528
 3157SOL    HW221105   3.836   3.703   2.037 -0.3053  0.8052  1.1096
 3158SOL     OW21106   1.330   1.291   9.923 -0.0475  0.3171 -0.6669
 3158SOL    HW121107   1.340   1.334   9.838 -0.3016  1.1371 -0.2782
 3158SOL    HW221108   1.293   1.365   9.972  1.5619  1.5939 -1.3644
 3159SOL     OW21109   1.796   0.821   1.814 -0.1214 -0.1530  0.5137
 3159SOL    HW121110   1.725   0.882   1.834  0.4564  0.1000  1.7875
 3159SOL    HW221111   1.759   0.735   1.793  1.8914 -1.3441  1.8227
 3160SOL     OW21112   3.845   4.500   3.853  0.1940  0.5566 -0.2415
 3160SOL    HW121113   3.897   4.424   3.878 -0.4153 -0.7183 -2.8455
 3160SOL    HW221114   3.807   4.540   3.931 -1.1980 -1.5657  0.1662
 3161SOL     OW21115   0.362   4.508   6.899 -0.2290 -0.6387 -0.2859
 3161SOL    HW121116   0.390   4.553   6.819  1.3473 -1.6188 -0.2831
 3161SOL    HW221117   0.266   4.511   6.895 -0.1149  2.9338 -0.7222
 3162SOL     OW21118   3.215   3.316   8.402 -0.3376 -0.7653  0.1754
 3162SOL    HW121119   3.133   3.356   8.432 -0.5118 -1.0026  0.0218
 3162SOL    HW221120   3.178   3.234   8.368 -0.0114  0.0913 -2.2221
 3163SOL     OW21121   1.289   0.940   4.001  0.4475  0.4812  0.0991
 3163SOL    HW121122   1.276   0.854   3.962 -1.9218 -0.3038  2.6289
 3163SOL    HW221123   1.300   1.001   3.928  0.9546 -1.1575 -1.1696
 3164SOL     OW21124   1.168   2.410  12.228 -0.4802 -0.2960  0.2201
 3164SOL    HW121125   1.122   2.492  12.210  0.8024 -0.2030 -2.6768
 3164SOL    HW221126   1.223   2.404  12.149 -1.5905 -1.1534 -0.5026
 3165SOL     OW21127   2.579   1.528   4.100 -0.4573  0.3973 -0.6010
 3165SOL    HW121128   2.558   1.506   4.009  0.2024  0.9398 -0.8874
 3165SOL    HW221129   2.569   1.441   4.138  1.4967 -1.0756 -3.4909
 3166SOL     OW21130   1.664   4.455  17.196  0.3643  0.1162  0.2742
 3166SOL    HW121131   1.604   4.522  17.162 -0.3095 -0.8719 -0.4926
 3166SOL    HW221132   1.638   4.446  17.287  1.2455 -1.0999  0.3951
 3167SOL     OW21133   2.766   4.479   6.759 -0.0568  0.0266  0.2069
 3167SOL    HW121134   2.769   4.494   6.664 -1.3052 -0.3936  0.1025
 3167SOL    HW221135   2.682   4.511   6.790 -1.0458  0.0257 -2.4395
 3168SOL     OW21136   3.652   1.683   2.159 -0.0061  0.3693  0.3212
 3168SOL    HW121137   3.617   1.628   2.230 -0.4902  1.2347  0.7505
 3168SOL    HW221138   3.597   1.646   2.090 -0.9625 -0.8050  1.7028
 3169SOL     OW21139   2.499   0.554   2.389  0.4759 -0.1846 -0.0487
 3169SOL    HW121140   2.421   0.572   2.442  0.8379  0.0688  0.4015
 3169SOL    HW221141   2.516   0.465   2.419  2.5352  0.8674  1.9311
 3170SOL     OW21142   2.794   0.564   9.158 -0.0729  0.3596  0.6559
 3170SOL    HW121143   2.786   0.483   9.209 -0.8304 -1.2426 -1.9799
 3170SOL    HW221144   2.811   0.530   9.070 -2.1488  0.4731  0.2062
 3171SOL     OW21145   1.050   0.415  12.176  0.1194  0.5011  0.0294
 3171SOL    HW121146   1.096   0.493  12.207 -2.5916  0.7973  3.3671
 3171SOL    HW221147   0.970   0.410  12.229  0.1206  3.2711  0.2770
 3172SOL     OW21148   0.466   3.975  15.134 -0.1691  0.0189 -0.3370
 3172SOL    HW121149   0.426   3.961  15.219 -1.1888  2.3242 -0.4384
 3172SOL    HW221150   0.404   3.937  15.071 -2.2130 -1.8426  2.8421
 3173SOL     OW21151   4.098   2.432  15.922 -0.0323  0.1870  0.6881
 3173SOL    HW121152   4.126   2.449  15.832  0.7953 -1.0318  0.7173
 3173SOL    HW221153   4.063   2.344  15.907  2.4208 -0.4827 -0.9815
 3174SOL     OW21154   1.472   0.153   2.334  0.2126 -0.1759 -0.2538
 3174SOL    HW121155   1.403   0.089   2.313 -0.1692 -0.3737  1.5821
 3174SOL    HW221156   1.438   0.187   2.417  0.0755 -2.3680  0.6001
 3175SOL     OW21157   0.430   2.032   2.400 -0.0482  0.3815  0.1759
 3175SOL    HW121158   0.495   2.028   2.470 -0.4161 -0.5203  0.4780
 3175SOL    HW221159   0.481   1.981   2.338 -0.5425 -0.4462  0.4446
 3176SOL     OW21160   3.377   2.355   6.370  0.3202 -0.0067 -0.1054
 3176SOL    HW121161   3.394   2.313   6.454 -1.1760  1.3471  0.8575
 3176SOL    HW221162   3.405   2.295   6.300 -0.2340 -1.0972  0.6066
 3177SOL     OW21163   2.154   3.223   0.061 -0.7474  0.5094  0.3212
 3177SOL    HW121164   2.176   3.130   0.058  0.7185  0.8171  1.7137
 3177SOL    HW221165   2.230   3.267   0.023 -0.7002  1.9189  2.1067
 3178SOL     OW21166   4.295   1.834  11.621 -0.7452  0.1219  0.2055
 3178SOL    HW121167   4.239   1.759  11.642 -0.0286 -0.7624 -1.0034
 3178SOL    HW221168   4.240   1.910  11.642 -1.9465 -0.0022 -2.4969
 3179SOL     OW21169   3.607   1.176   7.958  0.6565 -0.1670 -0.0604
 3179SOL    HW121170   3.522   1.181   7.913  0.4872 -0.0861  0.2656
 3179SOL    HW221171   3.594   1.090   7.998 -1.6701  0.1360 -0.1284
 3180SOL     OW21172   2.215   0.564   6.227  0.2886 -0.4515 -0.3510
 3180SOL    HW121173   2.297   0.516   6.216  1.4559  1.5981 -0.4719
 3180SOL    HW221174   2.200   0.535   6.317  0.9493  0.4627  0.0517
 3181SOL     OW21175   2.905   2.406  16.256 -0.0004  0.2124  0.1597
 3181SOL    HW121176   2.985   2.354  16.253  1.2571  2.2235 -0.8738
 3181SOL    HW221177   2.933   2.494  16.231 -2.1961  0.6490 -0.7551
 3182SOL     OW21178   0.596   1.234  14.419 -0.6910 -0.1065  0.4719
 3182SOL    HW121179   0.677   1.203  14.459  0.0937 -0.6171 -1.5109
 3182SOL    HW221180   0.617   1.317  14.376  0.5837 -1.5744 -1.7276
 3183SOL     OW21181   4.176   4.130   4.431  0.4538 -0.2005 -0.5418
 3183SOL    HW121182   4.209   4.212   4.394 -1.6340  1.2410  0.7668
 3183SOL    HW221183   4.254   4.077   4.450  1.5801  1.7713  0.3394
 3184SOL     OW21184   1.573   1.899  10.170  0.0772 -0.5178 -0.7952
 3184SOL    HW121185   1.652   1.883  10.220 -0.0094  0.3824 -0.3617
 3184SOL    HW221186   1.533   1.965  10.226 -2.1529 -2.4231 -0.1461
 3185SOL     OW21187   4.390   2.753   6.877 -0.4924 -0.7375 -0.2028
 3185SOL    HW121188   4.323   2.708   6.928 -0.3021 -1.2013 -0.3618
 3185SOL    HW221189   4.366   2.721   6.790 -0.1914  1.0355 -0.9446
 3186SOL     OW21190   0.416   4.049   5.013 -0.1778  0.2990 -0.3444
 3186SOL    HW121191   0.461   3.965   5.013 -0.7644 -0.0037  0.7039
 3186SOL    HW221192   0.418   4.070   5.106  3.5386 -1.9917  0.0810
 3187SOL     OW21193   3.708   3.037   5.369 -0.1683 -0.1228  0.1975
 3187SOL    HW121194   3.674   3.112   5.320  3.1532  0.6284 -0.8953
 3187SOL    HW221195   3.760   3.085   5.434  0.1956 -0.0474 -0.1547
 3188SOL     OW21196   3.577   2.628   7.030 -0.1616  0.2514 -0.0132
 3188SOL    HW121197   3.497   2.636   6.977 -0.4419  1.7347  0.6215
 3188SOL    HW221198   3.629   2.611   6.952 -0.2267 -1.0703  0.2382
 3189SOL     OW21199   3.345   0.992   6.794  0.0456  0.3554  0.4057
 3189SOL    HW121200   3.283   0.921   6.806  1.1746 -0.8803 -1.0517
 3189SOL    HW221201   3.310   1.066   6.843 -1.2951 -0.8882  1.2875
 3190SOL     OW21202   3.065   4.046   2.442  0.2934 -0.5122  0.1200
 3190SOL    HW121203   3.036   3.979   2.504  1.3044  0.5685  1.7761
 3190SOL    HW221204   3.154   4.012   2.446  0.2661 -0.5473  0.4843
 3191SOL     OW21205   3.819   0.262   1.242  0.8248 -0.1885  0.3701
 3191SOL    HW121206   3.864   0.337   1.202  2.0686 -0.7098  0.7706
 3191SOL    HW221207   3.741   0.306   1.274  1.4300  1.8687 -0.9479
 3192SOL     OW21208   1.076   4.116   5.742 -0.3102 -0.3683  0.0011
 3192SOL    HW121209   1.119   4.191   5.703  2.5000 -1.0864  1.7280
 3192SOL    HW221210   1.098   4.136   5.833 -2.0034  0.9693  0.1314
 3193SOL     OW21211   0.949   0.752   2.653 -0.5031 -0.2401 -0.4798
 3193SOL    HW121212   1.026   0.752   2.597 -0.2852  0.8157 -0.1834
 3193SOL    HW221213   0.967   0.689   2.723 -1.7809  0.1292  0.1893
 3194SOL     OW21214   3.701   4.449  12.811 -0.1628  0.2939  0.1137
 3194SOL    HW121215   3.728   4.375  12.865 -0.0930 -0.7473 -1.3481
 3194SOL    HW221216   3.611   4.427  12.788  0.6074 -1.8023 -0.8325
 3195SOL     OW21217   2.092   0.433  12.147  0.1527 -0.3826  0.4158
 3195SOL    HW121218   1.998   0.417  12.151  0.6505 -2.7619  2.4992
 3195SOL    HW221219   2.128   0.370  12.085 -1.6226 -0.9622 -0.0354
 3196SOL     OW21220   0.001   4.057   6.555 -0.5856  0.6182  0.2996
 3196SOL    HW121221   0.062   4.109   6.503 -1.2404  2.5125  1.4134
 3196SOL    HW221222   0.068   4.012   6.606  0.3749  1.0319 -0.5961
 3197SOL     OW21223   1.452   2.815   8.709 -0.0719  0.1045  0.3242
 3197SOL    HW121224   1.500   2.778   8.784  0.7829  1.5238  0.4750
 3197SOL    HW221225   1.397   2.879   8.754 -0.3481 -0.7449  1.1890
 3198SOL     OW21226   3.941   2.043   0.156 -0.0068  0.0058 -0.2751
 3198SOL    HW121227   3.982   1.984   0.219 -0.3316  0.3642  0.2732
 3198SOL    HW221228   4.022   2.080   0.120  1.6330 -1.9520  1.3739
 3199SOL     OW21229   0.722   2.742   2.908  0.0037  0.4218  0.1671
 3199SOL    HW121230   0.791   2.807   2.894 -0.2264  0.9738  1.6126
 3199SOL    HW221231   0.660   2.769   2.840 -0.2970  1.0439  0.6860
 3200SOL     OW21232   1.047   2.775  14.654  0.2076 -0.0443  0.3499
 3200SOL    HW121233   1.044   2.825  14.572 -1.9198 -1.5627 -0.5078
 3200SOL    HW221234   1.047   2.844  14.720  0.9774 -0.1388  0.4471
 3201SOL     OW21235   2.091   0.514   1.789  0.1974  0.2025  0.8879
 3201SOL    HW121236   2.161   0.467   1.835 -0.5007  1.3540  3.1398
 3201SOL    HW221237   2.115   0.604   1.810  2.3054 -0.0938 -0.2157
 3202SOL     OW21238   2.700   1.638   4.547  0.1073  1.0126 -0.1824
 3202SOL    HW121239   2.745   1.565   4.505 -1.5689  0.4451 -0.9427
 3202SOL    HW221240   2.665   1.677   4.467 -0.9693  1.3660  0.4539
 3203SOL     OW21241   0.803   1.405   3.820 -0.8462  0.0202 -0.1113
 3203SOL    HW121242   0.853   1.483   3.845  0.7914 -1.1393  0.1886
 3203SOL    HW221243   0.843   1.393   3.734 -0.9257 -2.2566  0.1695
 3204SOL     OW21244   0.919   2.449  10.743  0.2312  0.0301 -0.2805
 3204SOL    HW121245   1.001   2.404  10.762  0.5509 -0.2065 -2.2064
 3204SOL    HW221246   0.860   2.375  10.730  0.7712 -0.2620 -1.0703
 3205SOL     OW21247   3.801   1.936   7.862 -0.0722 -0.2483 -0.3295
 3205SOL    HW121248   3.879   1.982   7.831 -1.7900  1.7490 -1.7582
 3205SOL    HW221249   3.821   1.939   7.955 -1.4430 -0.1380 -0.0376
 3206SOL     OW21250   1.612   2.850  15.867 -0.2028  0.0222 -0.6215
 3206SOL    HW121251   1.538   2.838  15.808 -1.8416 -0.4359  1.5230
 3206SOL    HW221252   1.684   2.841  15.804 -0.9143  2.5968 -1.7893
 3207SOL     OW21253   3.667   0.643   9.246  0.5655  0.1966 -0.1882
 3207SOL    HW121254   3.751   0.689   9.258  0.2902  1.2431 -2.1712
 3207SOL    HW221255   3.621   0.673   9.324 -0.1379 -2.1436  0.2729
 3208SOL     OW21256   2.029   0.356   2.162 -0.0428  0.0614 -0.5409
 3208SOL    HW121257   2.047   0.373   2.254 -2.3857 -0.0704 -0.0415
 3208SOL    HW221258   1.997   0.440   2.129 -3.1571 -0.8798  0.0457
 3209SOL     OW21259   3.196   1.379   8.334  0.6292 -0.0329  0.0331
 3209SOL    HW121260   3.183   1.473   8.326 -1.3798 -0.2783  0.4528
 3209SOL    HW221261   3.139   1.345   8.265  1.0450 -1.1769  0.2480
 3210SOL     OW21262   1.176   4.318   7.592  0.7222  0.4418  0.0658
 3210SOL    HW121263   1.156   4.391   7.534  2.3375  0.4168 -0.5243
 3210SOL    HW221264   1.099   4.260   7.583  0.3234  0.5548  2.7121
 3211SOL     OW21265   0.363   0.551   5.027  0.1740  0.1829 -0.2888
 3211SOL    HW121266   0.276   0.568   5.063  1.2089  2.1545  1.2999
 3211SOL    HW221267   0.333   0.498   4.953 -1.1403  2.3784 -1.3357
 3212SOL     OW21268   3.272   4.697  17.228 -0.2460 -0.5102  0.3016
 3212SOL    HW121269   3.326   4.667  17.301 -1.1425  0.4231  1.3511
 3212SOL    HW221270   3.256   4.609  17.194 -1.5957 -0.0859 -0.1660
 3213SOL     OW21271   0.517   1.862   2.806  0.5709  0.1891 -0.0267
 3213SOL    HW121272   0.438   1.882   2.756 -0.4278  0.4192  1.6263
 3213SOL    HW221273   0.587   1.871   2.742 -0.3353  2.4730 -0.6876
 3214SOL     OW21274   2.012   0.382   1.064  0.2403 -0.0642  0.1203
 3214SOL    HW121275   1.982   0.340   1.144  1.3465  1.8547  1.5291
 3214SOL    HW221276   2.108   0.377   1.071  0.2766 -1.2764 -1.1977
 3215SOL     OW21277   3.070   0.045  10.491  0.0672  0.0686  0.4552
 3215SOL    HW121278   3.052   0.079  10.403  0.8702 -0.4104  0.1049
 3215SOL    HW221279   3.047   4.687  10.485  0.3585  0.0663 -0.7223
 3216SOL     OW21280   0.975   1.459   4.601  0.4594 -0.5169 -0.4455
 3216SOL    HW121281   0.937   1.547   4.600 -1.7125 -1.4895 -4.2920
 3216SOL    HW221282   1.069   1.477   4.607  0.7549 -1.1796 -3.2156
 3217SOL     OW21283   0.898   4.582  12.281 -0.1027 -0.5047  0.7146
 3217SOL    HW121284   0.989   4.554  12.276  0.6282  1.8105  0.7440
 3217SOL    HW221285   0.856   4.500  12.254  0.1415 -1.4528  3.2514
 3218SOL     OW21286   3.489   1.764   6.257  0.9702 -0.1233 -0.3095
 3218SOL    HW121287   3.576   1.724   6.261 -0.3522 -2.9250  0.8145
 3218SOL    HW221288   3.472   1.792   6.347  1.3352  2.7801 -1.1483
 3219SOL     OW21289   1.835   4.458  12.580 -0.0536  0.3570  0.3272
 3219SOL    HW121290   1.836   4.408  12.498  0.2621 -2.6448  2.1287
 3219SOL    HW221291   1.912   4.514  12.582  0.7349 -0.6498 -2.0497
 3220SOL     OW21292   4.711   1.576   8.239  0.4202  0.4216 -0.2676
 3220SOL    HW121293   4.673   1.661   8.262  1.1157  0.9391 -1.0036
 3220SOL    HW221294   4.662   1.513   8.291 -1.4673  1.8550 -0.3144
 3221SOL     OW21295   0.172   1.499   9.395  0.0659  0.1207  0.3525
 3221SOL    HW121296   0.116   1.422   9.403 -0.4156  0.4534  0.2075
 3221SOL    HW221297   0.221   1.471   9.317 -0.1448 -3.5241  1.5270
 3222SOL     OW21298   0.972   3.080   8.367 -0.2980 -0.0943  0.1562
 3222SOL    HW121299   0.912   3.090   8.441 -1.4946  0.8964 -0.9390
 3222SOL    HW221300   1.049   3.116   8.411 -1.0255  2.8613 -1.0082
 3223SOL     OW21301   0.577   0.823   8.393 -0.2960  0.1512  0.1734
 3223SOL    HW121302   0.551   0.889   8.458 -1.2061 -0.1137  0.0814
 3223SOL    HW221303   0.644   0.871   8.345  0.7659 -1.0976  0.4469
 3224SOL     OW21304   2.890   3.480   6.498  0.0171  0.4183  0.3222
 3224SOL    HW121305   2.824   3.467   6.566 -1.7587  1.5623 -1.1838
 3224SOL    HW221306   2.963   3.444   6.548 -1.7597  0.2793  2.8279
 3225SOL     OW21307   2.796   4.459   7.719 -0.1393  0.3591 -0.3624
 3225SOL    HW121308   2.724   4.502   7.765  0.2719 -1.9388  2.4332
 3225SOL    HW221309   2.763   4.460   7.629 -1.3676 -0.4613  0.0852
 3226SOL     OW21310   2.214   4.189   2.140 -0.2314  0.2933  0.3545
 3226SOL    HW121311   2.223   4.156   2.230 -1.8921 -2.8920 -0.6740
 3226SOL    HW221312   2.304   4.211   2.116 -0.6793  2.4083  0.6103
 3227SOL     OW21313   4.597   3.553   7.914 -0.2226 -0.1899  0.3033
 3227SOL    HW121314   4.604   3.592   7.827  2.0385 -0.9042  0.1554
 3227SOL    HW221315   4.533   3.609   7.957 -1.2246 -0.8621 -0.3316
 3228SOL     OW21316   1.962   1.702  11.440 -0.6488  0.1116  0.0875
 3228SOL    HW121317   1.949   1.789  11.403 -0.8203 -0.0105 -0.1360
 3228SOL    HW221318   1.904   1.707  11.516 -1.4933 -0.1068 -0.5503
 3229SOL     OW21319   3.717   1.790  14.024  0.1197 -0.5409 -0.7688
 3229SOL    HW121320   3.706   1.872  14.072  1.5374 -1.4315  1.0342
 3229SOL    HW221321   3.777   1.748  14.085  0.7779  2.7241  0.8271
 3230SOL     OW21322   0.368   0.495   9.834  0.5380 -0.5234  0.1157
 3230SOL    HW121323   0.340   0.510   9.744  0.3625  1.5116  0.4979
 3230SOL    HW221324   0.357   0.583   9.872  0.8319 -0.4258 -0.0310
 3231SOL     OW21325   0.881   0.490   5.125 -0.2736  0.1721  0.2934
 3231SOL    HW121326   0.899   0.422   5.060 -0.8224  1.8821 -1.6644
 3231SOL    HW221327   0.802   0.453   5.165 -0.4722  0.1074 -0.1490
 3232SOL     OW21328   3.463   1.308   9.979 -0.3286 -0.4671  0.2830
 3232SOL    HW121329   3.508   1.360   9.912 -1.4732 -0.1027 -0.2115
 3232SOL    HW221330   3.534   1.275  10.033  0.6312 -0.2593 -0.8529
 3233SOL     OW21331   0.884   2.903   7.595 -0.2631  0.3856 -0.6564
 3233SOL    HW121332   0.905   2.971   7.659  0.2866  1.2999 -1.8272
 3233SOL    HW221333   0.948   2.927   7.529  1.5344  0.1247  0.9845
 3234SOL     OW21334   0.261   4.101   2.865 -0.1658 -0.1386 -0.3265
 3234SOL    HW121335   0.325   4.035   2.840  0.1937 -0.6842  2.0457
 3234SOL    HW221336   0.249   4.076   2.956  0.4564 -1.0693 -0.4946
 3235SOL     OW21337   4.022   0.988   4.384 -0.6429  0.0992 -0.3540
 3235SOL    HW121338   4.044   0.900   4.352 -1.3641 -0.4634  0.7181
 3235SOL    HW221339   4.003   1.037   4.304  1.0418  1.3425  0.0065
 3236SOL     OW21340   3.380   0.663   7.025  1.2556 -0.5259 -0.0723
 3236SOL    HW121341   3.430   0.741   7.052  0.3278  0.3692 -0.9891
 3236SOL    HW221342   3.302   0.690   6.978  0.5546 -0.7688  0.9467
 3237SOL     OW21343   3.636   1.990   6.760 -0.0348 -0.7720  0.5409
 3237SOL    HW121344   3.650   2.078   6.724  0.6019 -0.8804  0.5302
 3237SOL    HW221345   3.682   1.941   6.693  0.0488 -0.1535  0.1410
 3238SOL     OW21346   3.780   3.536  15.667 -0.6274 -0.1046  0.4272
 3238SOL    HW121347   3.837   3.562  15.595 -1.6201  0.1863 -0.2569
 3238SOL    HW221348   3.696   3.529  15.621 -0.3496 -2.2135  0.2514
 3239SOL     OW21349   0.728   3.176   2.105  0.9710  0.5998  0.4123
 3239SOL    HW121350   0.808   3.129   2.131 -0.6977 -2.2266  0.3866
 3239SOL    HW221351   0.747   3.191   2.012 -2.0236 -0.3692 -0.3374
 3240SOL     OW21352   3.512   2.496   4.377  0.2043 -0.0571 -0.5276
 3240SOL    HW121353   3.608   2.490   4.379  0.1842 -0.8003 -1.5135
 3240SOL    HW221354   3.495   2.541   4.459 -1.1967 -1.3993 -0.0697
 3241SOL     OW21355   0.817   1.063   7.031  0.6216  0.2410 -0.0404
 3241SOL    HW121356   0.866   1.000   7.084 -0.0608 -1.1226 -1.0236
 3241SOL    HW221357   0.883   1.119   6.990 -0.4812  1.4174 -0.2093
 3242SOL     OW21358   2.220   0.812  14.925 -0.0573  0.0313 -0.3267
 3242SOL    HW121359   2.182   0.784  15.008 -1.1074 -1.7143 -1.4070
 3242SOL    HW221360   2.148   0.859  14.882 -1.4586 -2.2252 -0.4254
 3243SOL     OW21361   3.820   4.032   6.708  0.3496 -0.2526 -0.0118
 3243SOL    HW121362   3.761   3.977   6.657 -0.0734  0.7051 -0.5605
 3243SOL    HW221363   3.903   4.010   6.666  0.3438  0.2571 -0.2902
 3244SOL     OW21364   1.805   1.768   6.026  0.4093  0.7844  0.4677
 3244SOL    HW121365   1.835   1.677   6.026  1.8102  1.2477  1.3251
 3244SOL    HW221366   1.741   1.760   6.097  0.4318 -0.6725  0.3169
 3245SOL     OW21367   0.373   2.369  16.805  0.0701 -0.4761  0.1901
 3245SOL    HW121368   0.418   2.319  16.874  1.6078 -0.8492 -1.0755
 3245SOL    HW221369   0.320   2.300  16.764 -1.2572  1.1264 -0.7735
 3246SOL     OW21370   2.719   4.660   8.554  0.2235  0.8724 -0.4537
 3246SOL    HW121371   2.766   4.607   8.489  3.8005  0.0431  2.8194
 3246SOL    HW221372   2.733   4.609   8.633 -0.3766 -0.9104 -1.4845
 3247SOL     OW21373   2.856   3.658  11.773  0.4924  0.4264 -0.5652
 3247SOL    HW121374   2.868   3.714  11.850  2.7027 -1.0517  0.1793
 3247SOL    HW221375   2.764   3.637  11.788  0.7886 -2.1736 -2.3932
 3248SOL     OW21376   1.193   0.402   6.565 -0.5250 -0.2844  0.0729
 3248SOL    HW121377   1.099   0.409   6.549 -0.4605  1.4382  0.3704
 3248SOL    HW221378   1.192   0.395   6.660  1.2802  0.8036  0.1778
 3249SOL     OW21379   0.788   1.388  10.838  0.4276  0.4913  0.0822
 3249SOL    HW121380   0.766   1.388  10.744 -0.3592 -1.7561  0.2605
 3249SOL    HW221381   0.880   1.416  10.841  0.0849  1.7799 -1.3460
 3250SOL     OW21382   2.049   0.736   2.915  0.0341  0.0467  0.2563
 3250SOL    HW121383   2.023   0.755   2.825  2.5481 -0.5823 -0.6168
 3250SOL    HW221384   2.066   0.821   2.954  0.4428  0.6161 -1.1724
 3251SOL     OW21385   4.210   0.885   9.224  0.3559 -0.0128  0.1643
 3251SOL    HW121386   4.275   0.841   9.170  1.2453 -1.3090  2.3028
 3251SOL    HW221387   4.163   0.942   9.162  1.8113  0.4426 -0.5093
 3252SOL     OW21388   2.589   1.691  11.570 -0.3378 -0.1125 -0.5181
 3252SOL    HW121389   2.522   1.729  11.627 -0.8318 -0.7082 -0.7028
 3252SOL    HW221390   2.594   1.602  11.602  0.6443  0.3497  0.5870
 3253SOL     OW21391   3.186   0.703   4.950  0.4430 -0.1028 -0.3212
 3253SOL    HW121392   3.228   0.672   5.030  0.4757 -0.1827 -0.3688
 3253SOL    HW221393   3.232   0.785   4.930  0.8238 -0.5042 -1.0761
 3254SOL     OW21394   2.406   3.910   4.167  0.0125 -0.0101 -0.5237
 3254SOL    HW121395   2.370   3.956   4.242  4.3707  1.6956  0.5228
 3254SOL    HW221396   2.394   3.820   4.197 -0.7570  1.0814  2.4447
 3255SOL     OW21397   4.339   1.766   7.609  0.0612 -0.3152 -0.0459
 3255SOL    HW121398   4.405   1.726   7.665 -0.6413 -0.6135  0.5603
 3255SOL    HW221399   4.363   1.858   7.619  0.7729 -0.2012 -2.7138
 3256SOL     OW21400   1.005   2.494   4.630  0.3869 -0.2710 -0.6949
 3256SOL    HW121401   1.090   2.473   4.592 -0.1873 -1.3628 -1.3984
 3256SOL    HW221402   0.987   2.585   4.608  0.0509 -0.3385 -0.7022
 3257SOL     OW21403   0.048   1.105   6.123  0.8649 -0.2411 -0.0516
 3257SOL    HW121404   0.112   1.161   6.078 -0.1348  0.3151 -0.7671
 3257SOL    HW221405   0.103   1.076   6.195 -0.6745 -0.5159  1.0095
 3258SOL     OW21406   4.219   3.781   9.850 -0.4750 -0.0485  0.3608
 3258SOL    HW121407   4.255   3.850   9.906 -0.0016  1.9015 -2.3683
 3258SOL    HW221408   4.245   3.700   9.893 -0.5087  0.0536  0.5800
 3259SOL     OW21409   3.386   3.363   5.413 -0.1579 -0.0469 -0.0723
 3259SOL    HW121410   3.367   3.324   5.498 -1.0443 -0.4321 -0.4469
 3259SOL    HW221411   3.301   3.388   5.377  0.9767 -0.5975 -3.0992
 3260SOL     OW21412   3.505   1.522   0.529 -0.4220 -0.3108  0.3627
 3260SOL    HW121413   3.463   1.605   0.550 -0.5145 -0.5082  0.9514
 3260SOL    HW221414   3.598   1.536   0.549 -0.1338 -1.4038 -0.1756
 3261SOL     OW21415   2.293   0.422  16.893 -0.2984 -0.1017  0.0923
 3261SOL    HW121416   2.269   0.334  16.865  1.7711 -1.6747  3.3367
 3261SOL    HW221417   2.227   0.476  16.849  0.3940  0.5747 -0.1165
 3262SOL     OW21418   3.387   3.429  16.326 -0.8315 -0.3147 -0.1467
 3262SOL    HW121419   3.405   3.483  16.249 -2.4082  0.5453  0.0945
 3262SOL    HW221420   3.303   3.392  16.297 -0.6129  0.8556 -2.2463
 3263SOL     OW21421   1.497   1.284  14.943  0.6479 -0.5595  0.4382
 3263SOL    HW121422   1.470   1.259  15.031 -1.2181  1.8651  0.5665
 3263SOL    HW221423   1.427   1.346  14.921 -1.2861 -2.4570  1.3675
 3264SOL     OW21424   2.696   2.518  16.419  0.2286 -0.0631 -0.0149
 3264SOL    HW121425   2.762   2.531  16.486  1.1481 -1.1270 -0.7182
 3264SOL    HW221426   2.751   2.505  16.342  0.2512 -3.9059  0.6295
 3265SOL     OW21427   2.905   1.282  14.472  0.1350  0.0993  0.1482
 3265SOL    HW121428   2.820   1.320  14.493 -0.3243 -0.3159 -0.9389
 3265SOL    HW221429   2.913   1.192  14.504 -3.0138 -1.1783 -2.6084
 3266SOL     OW21430   4.191   4.647   2.568  0.4736 -0.3751 -0.0998
 3266SOL    HW121431   4.129   4.575   2.572  0.5864 -0.2680  3.1609
 3266SOL    HW221432   4.126   4.717   2.561  1.1189  0.3758  1.5185
 3267SOL     OW21433   2.612   1.367   0.771 -0.3261 -0.0857  0.0795
 3267SOL    HW121434   2.640   1.360   0.863  0.2175 -1.7378 -0.2151
 3267SOL    HW221435   2.584   1.459   0.771  0.0550  0.0329  1.0342
 3268SOL     OW21436   1.822   1.428   6.282 -0.7501  0.1113 -0.5193
 3268SOL    HW121437   1.743   1.437   6.336 -1.4242 -2.0956 -1.1273
 3268SOL    HW221438   1.878   1.482   6.338 -0.3916  0.1438 -0.9136
 3269SOL     OW21439   4.258   2.004   4.305  0.2105  0.8424  0.0105
 3269SOL    HW121440   4.186   1.950   4.273  0.9788  1.1267 -2.1962
 3269SOL    HW221441   4.271   2.069   4.236  0.3010  0.2439 -0.5356
 3270SOL     OW21442   4.063   0.297   2.366 -0.2321 -0.0218 -0.3593
 3270SOL    HW121443   4.057   0.368   2.302  1.2847  0.1320 -0.3362
 3270SOL    HW221444   4.133   0.339   2.416 -1.1838  2.4971 -1.1637
 3271SOL     OW21445   0.596   1.175   7.188 -0.0608 -0.1577  0.2331
 3271SOL    HW121446   0.562   1.154   7.101  0.4047  0.6951 -0.1544
 3271SOL    HW221447   0.687   1.164   7.161 -0.3962 -1.5595 -0.3243
 3272SOL     OW21448   4.172   0.842   3.389 -0.6284  0.1411  0.1213
 3272SOL    HW121449   4.140   0.852   3.299 -2.1228  0.6643  0.7272
 3272SOL    HW221450   4.267   0.850   3.377 -0.6196 -0.6122 -0.3168
 3273SOL     OW21451   2.168   4.644   6.208 -0.8098 -0.3644 -0.4009
 3273SOL    HW121452   2.226   4.577   6.170 -0.4936 -0.4474  0.2334
 3273SOL    HW221453   2.228   4.658   6.281 -1.2129 -0.6582 -0.0147
 3274SOL     OW21454   2.590   0.994   8.025 -0.1344  0.5253 -0.0154
 3274SOL    HW121455   2.495   0.987   8.024 -0.1745  1.2166 -1.2741
 3274SOL    HW221456   2.598   1.054   7.951 -1.1724  0.2349 -0.3577
 3275SOL     OW21457   2.827   1.628  11.075  0.1642 -0.3292  0.4599
 3275SOL    HW121458   2.778   1.692  11.022 -0.6865 -0.6104  0.9098
 3275SOL    HW221459   2.756   1.587  11.125 -0.2197 -0.0083  0.1762
 3276SOL     OW21460   4.067   2.865   9.509 -0.1679 -0.9276 -0.5297
 3276SOL    HW121461   4.004   2.936   9.523  2.2634  1.2893 -0.7465
 3276SOL    HW221462   4.030   2.788   9.552 -0.1150  0.1648  1.4486
 3277SOL     OW21463   2.446   2.030   7.419 -0.3159  0.4773 -0.0603
 3277SOL    HW121464   2.486   1.999   7.501  0.9563  2.6003  0.1015
 3277SOL    HW221465   2.478   2.120   7.419 -1.2341  0.8088  0.6493
 3278SOL     OW21466   2.545   2.474   9.316 -0.3968  0.2293  0.0774
 3278SOL    HW121467   2.455   2.506   9.320 -1.1191 -1.7769  0.2423
 3278SOL    HW221468   2.541   2.413   9.390  2.4556 -1.2065 -0.9146
 3279SOL     OW21469   4.551   1.309   3.553 -0.0035  0.0151 -0.2409
 3279SOL    HW121470   4.493   1.370   3.599 -0.6258 -0.1143 -0.8623
 3279SOL    HW221471   4.607   1.375   3.511  0.7482 -0.1768  0.4535
 3280SOL     OW21472   3.467   1.238   2.560 -0.1554 -0.1652 -0.1747
 3280SOL    HW121473   3.470   1.169   2.626  1.2659 -0.0806 -0.1543
 3280SOL    HW221474   3.415   1.302   2.609 -0.1504  0.2751 -0.7345
 3281SOL     OW21475   2.191   0.909  13.927 -0.1709  0.0769 -0.3532
 3281SOL    HW121476   2.191   0.957  14.010 -0.0782  0.5977 -0.6592
 3281SOL    HW221477   2.232   0.970  13.867 -2.1826  1.9863  0.1976
 3282SOL     OW21478   0.420   4.485   4.226 -0.0450 -0.1022 -0.1969
 3282SOL    HW121479   0.405   4.409   4.170  0.9754 -1.3910  1.2928
 3282SOL    HW221480   0.431   4.454   4.315 -0.4543  0.3873  0.0232
 3283SOL     OW21481   3.302   0.153  15.809 -0.0777 -0.2570  0.2466
 3283SOL    HW121482   3.302   0.226  15.747  1.0149 -0.2495  0.2634
 3283SOL    HW221483   3.392   0.153  15.840 -0.1504 -1.6552  0.4487
 3284SOL     OW21484   2.544   0.548   4.644 -0.4083 -0.3000  0.3085
 3284SOL    HW121485   2.635   0.525   4.624 -0.5980  1.4852 -2.5268
 3284SOL    HW221486   2.507   0.462   4.622  0.3469 -0.1869 -1.4168
 3285SOL     OW21487   0.708   0.212   6.935  0.1659  0.4954  0.5268
 3285SOL    HW121488   0.774   0.193   6.868  2.0025  1.1961  2.1456
 3285SOL    HW221489   0.644   0.142   6.921  0.1758  0.7119 -0.6073
 3286SOL     OW21490   2.228   2.493  13.327 -0.1456  0.2643  0.1282
 3286SOL    HW121491   2.167   2.437  13.280 -1.9768  1.6549  0.8775
 3286SOL    HW221492   2.172   2.517  13.401  1.9735 -1.0447  2.2014
 3287SOL     OW21493   0.588   4.248   3.209  0.3074  0.3748  0.4279
 3287SOL    HW121494   0.554   4.279   3.293 -3.0956 -2.2039 -0.0223
 3287SOL    HW221495   0.587   4.334   3.167 -1.2889 -0.2511 -0.7839
 3288SOL     OW21496   4.067   4.666   7.391 -0.0970 -0.4401  0.4176
 3288SOL    HW121497   4.117   4.691   7.468 -1.6243  0.2797  1.1661
 3288SOL    HW221498   3.982   4.654   7.434 -0.1788 -1.4388  0.0025
 3289SOL     OW21499   1.238   2.799   9.670  0.1659  0.7827  0.0316
 3289SOL    HW121500   1.307   2.747   9.629  1.6162  0.4303  2.9780
 3289SOL    HW221501   1.223   2.863   9.600 -0.5355  1.0374  0.4106
 3290SOL     OW21502   0.193   4.259   2.356 -0.0736 -0.2672  0.3189
 3290SOL    HW121503   0.183   4.351   2.334  0.7610  0.1503  1.7137
 3290SOL    HW221504   0.182   4.281   2.448 -0.2506  1.5255 -0.1319
 3291SOL     OW21505   2.391   0.047  12.792 -0.0877  0.2622  0.1436
 3291SOL    HW121506   2.312   0.087  12.830  0.2856  0.5866  0.5762
 3291SOL    HW221507   2.435   0.123  12.754 -0.7240 -0.1345 -1.3876
 3292SOL     OW21508   3.771   2.611  12.038 -0.4157 -0.3304  0.4064
 3292SOL    HW121509   3.833   2.646  12.102  2.5374 -2.9221 -1.0152
 3292SOL    HW221510   3.722   2.553  12.096 -1.4125  2.1355  2.0428
 3293SOL     OW21511   4.496   1.039   3.620  0.5382 -0.0408 -0.0617
 3293SOL    HW121512   4.580   1.001   3.646  0.5027 -1.3052 -1.8003
 3293SOL    HW221513   4.514   1.133   3.610  0.1036  0.1349  0.8697
 3294SOL     OW21514   3.050   2.113   8.588  0.4888  0.7824 -0.2253
 3294SOL    HW121515   3.093   2.199   8.593  1.8938 -0.0601  2.1905
 3294SOL    HW221516   3.044   2.095   8.682 -1.3003  2.9933  0.0775
 3295SOL     OW21517   1.783   1.827   5.326 -0.7881  0.2239 -0.2531
 3295SOL    HW121518   1.723   1.900   5.334  2.1576  2.3722  2.3283
 3295SOL    HW221519   1.848   1.863   5.386  0.4196 -1.3946 -0.5777
 3296SOL     OW21520   0.475   2.339   8.049 -0.1621  0.7562  0.1678
 3296SOL    HW121521   0.472   2.314   8.141 -1.5499  0.6231  0.0876
 3296SOL    HW221522   0.465   2.433   8.062 -2.2484  0.3425  1.4754
 3297SOL     OW21523   4.456   1.451   9.336 -0.2072  0.4765  0.3796
 3297SOL    HW121524   4.410   1.368   9.349  0.0838  0.6920  2.6652
 3297SOL    HW221525   4.543   1.439   9.374 -0.1207  0.7256  0.2652
 3298SOL     OW21526   4.241   4.416  14.491 -0.1176  0.0384 -0.0941
 3298SOL    HW121527   4.264   4.508  14.479  1.0969  0.1738  3.0912
 3298SOL    HW221528   4.163   4.420  14.547 -1.1800 -2.2803 -1.4256
 3299SOL     OW21529   4.633   1.949  15.470  0.0297 -0.1074  0.3732
 3299SOL    HW121530   4.569   1.882  15.448  2.3782 -1.8325 -1.2244
 3299SOL    HW221531   4.636   1.943  15.565  0.4038  0.4249  0.3988
 3300SOL     OW21532   3.656   4.558   4.073 -0.0834 -0.3603  0.3075
 3300SOL    HW121533   3.578   4.600   4.110 -0.2855 -1.1762  0.7932
 3300SOL    HW221534   3.617   4.496   4.012 -2.0499  1.0397  0.1262
 3301SOL     OW21535   1.715   0.301   9.152 -0.3209  0.1353 -0.2242
 3301SOL    HW121536   1.746   0.270   9.237 -1.3901 -1.5767 -0.4447
 3301SOL    HW221537   1.799   0.294   9.107  0.2031 -0.9929  0.9264
 3302SOL     OW21538   1.926   3.033  16.055  0.0972  0.7304 -0.2483
 3302SOL    HW121539   1.894   3.103  15.999 -2.1938 -1.0442 -1.1500
 3302SOL    HW221540   1.991   2.985  16.003 -0.4126 -1.5278  1.1797
 3303SOL     OW21541   1.365   4.673   2.949 -0.5415  0.1709 -0.7416
 3303SOL    HW121542   1.405   4.588   2.932  1.0385  0.1610  2.9489
 3303SOL    HW221543   1.436   4.721   2.905  1.1824 -1.2616  0.4697
 3304SOL     OW21544   1.867   0.816   8.768  0.7874  0.1873  0.0848
 3304SOL    HW121545   1.940   0.777   8.720  0.1263  0.7790 -1.4113
 3304SOL    HW221546   1.890   0.816   8.861  2.7356 -0.8553 -0.3977
 3305SOL     OW21547   2.405   0.254   5.357  0.1050 -0.2267  0.3807
 3305SOL    HW121548   2.493   0.230   5.386  0.6806  0.2534 -0.9988
 3305SOL    HW221549   2.393   0.330   5.415 -1.8732  0.3247 -0.7653
 3306SOL     OW21550   4.731   2.847   2.755 -0.3485 -0.3457 -0.1607
 3306SOL    HW121551   0.001   2.757   2.787  1.7779 -0.2846 -0.3305
 3306SOL    HW221552   0.018   2.899   2.831 -4.3104 -0.1909  0.9018
 3307SOL     OW21553   3.212   3.708   7.214  0.2684 -0.1942 -0.2408
 3307SOL    HW121554   3.272   3.774   7.179  0.1743  1.1151  2.1126
 3307SOL    HW221555   3.229   3.626   7.167  0.9447  1.9183 -3.7303
 3308SOL     OW21556   3.878   1.613   9.459 -0.0556  0.0791  0.2044
 3308SOL    HW121557   3.843   1.702   9.463  0.3106  0.1589  1.4389
 3308SOL    HW221558   3.802   1.560   9.434  2.2582 -2.6049 -1.1158
 3309SOL     OW21559   1.799   4.491   3.444 -0.4173 -0.1538 -0.3299
 3309SOL    HW121560   1.823   4.419   3.385  0.8528  1.1512 -1.4132
 3309SOL    HW221561   1.753   4.445   3.514 -0.7497  2.1972  0.9999
 3310SOL     OW21562   3.923   3.887   2.316  0.2832 -0.1058  0.5617
 3310SOL    HW121563   3.883   3.880   2.229  2.6072  0.9939 -0.6042
 3310SOL    HW221564   4.017   3.889   2.297  0.3064 -0.1644  0.6690
 3311SOL     OW21565   2.683   2.369  16.046  0.2620 -0.5649  0.2205
 3311SOL    HW121566   2.676   2.274  16.043  0.8466 -0.6931  3.2627
 3311SOL    HW221567   2.725   2.382  16.131 -0.7400 -2.5342  1.0114
 3312SOL     OW21568   3.956   1.486  15.462 -0.7911  0.2443 -0.1647
 3312SOL    HW121569   3.861   1.479  15.475 -1.0651 -0.3110 -2.5545
 3312SOL    HW221570   3.962   1.414  15.400  3.3217  0.6075 -0.1944
 3313SOL     OW21571   1.362   0.283   0.585 -0.5702  0.1203 -0.6891
 3313SOL    HW121572   1.323   0.197   0.569  0.0284 -0.3835  0.5355
 3313SOL    HW221573   1.432   0.263   0.648 -0.9133 -1.1909 -0.7408
 3314SOL     OW21574   1.579   4.379   6.482  0.3271  0.2695 -0.7457
 3314SOL    HW121575   1.605   4.427   6.561  0.3143 -0.2503 -0.4248
 3314SOL    HW221576   1.656   4.324   6.466 -0.1842  0.0589 -2.4631
 3315SOL     OW21577   2.124   4.369   0.306  0.2976  0.1130  0.2338
 3315SOL    HW121578   2.133   4.359   0.212 -1.3615 -1.6430  0.2625
 3315SOL    HW221579   2.216   4.363   0.330  0.3440  1.3403  0.3631
 3316SOL     OW21580   4.609   0.287   1.130  0.7060  0.6565  0.1860
 3316SOL    HW121581   4.547   0.247   1.069  0.0178  1.5312  0.3107
 3316SOL    HW221582   4.546   0.333   1.185 -0.0189  1.8486 -1.6376
 3317SOL     OW21583   2.103   2.737   7.368  0.0255 -0.0462  0.3401
 3317SOL    HW121584   2.137   2.673   7.431 -0.3303 -0.4034  0.1665
 3317SOL    HW221585   2.080   2.820   7.409  3.2768  0.9410  0.1837
 3318SOL     OW21586   3.416   0.598   4.770  0.2766  0.1319 -0.3755
 3318SOL    HW121587   3.450   0.684   4.794 -0.9479  0.7527 -0.8771
 3318SOL    HW221588   3.459   0.540   4.833 -0.2882  0.9097  0.7158
 3319SOL     OW21589   4.403   0.572   1.517  0.3305 -0.7834  0.3460
 3319SOL    HW121590   4.428   0.485   1.488  2.7196  0.2157 -0.6046
 3319SOL    HW221591   4.472   0.631   1.487 -0.3908 -0.6873 -1.1562
 3320SOL     OW21592   0.079   4.571   7.546  0.6409  0.4362  0.8197
 3320SOL    HW121593   4.733   4.583   7.596  0.6365  1.9445  0.4239
 3320SOL    HW221594   0.120   4.657   7.547  1.2751  0.1376  0.2774
 3321SOL     OW21595   1.954   1.717  13.040 -0.3435 -0.5441 -0.0917
 3321SOL    HW121596   1.872   1.765  13.053 -1.2018 -1.8646 -0.5892
 3321SOL    HW221597   1.948   1.664  13.120  0.8169 -0.4375  0.0652
 3322SOL     OW21598   1.097   4.592   8.019  0.4821 -0.1633 -0.2430
 3322SOL    HW121599   1.047   4.532   7.963 -0.5771  0.5514 -0.0516
 3322SOL    HW221600   1.166   4.609   7.955  0.6184  1.8216  0.4528
 3323SOL     OW21601   4.595   3.064   9.860  0.3014  0.4599  0.3779
 3323SOL    HW121602   4.591   3.072   9.956  0.5320 -2.0075  0.5880
 3323SOL    HW221603   4.504   3.083   9.840  0.2640 -1.3831 -1.1273
 3324SOL     OW21604   3.836   4.223   6.011 -0.0133 -0.2659  0.2148
 3324SOL    HW121605   3.811   4.218   5.919 -0.2855  0.8385  0.2205
 3324SOL    HW221606   3.877   4.138   6.025  0.7588 -0.2070 -1.6755
 3325SOL     OW21607   4.328   3.518   6.030  0.9180  0.7546  0.2763
 3325SOL    HW121608   4.348   3.518   5.936  0.8922  0.3727  0.2724
 3325SOL    HW221609   4.347   3.427   6.050 -0.3169  0.0859 -1.4967
 3326SOL     OW21610   3.837   0.433   8.423  0.4164 -0.4035 -0.1226
 3326SOL    HW121611   3.916   0.396   8.384  0.6302 -0.5303  0.4332
 3326SOL    HW221612   3.797   0.355   8.462  2.7122 -0.1007  2.8604
 3327SOL     OW21613   0.875   1.610   1.937 -0.1782 -0.1965 -0.0042
 3327SOL    HW121614   0.924   1.542   1.983 -2.3989 -1.1325  0.9885
 3327SOL    HW221615   0.814   1.561   1.883  1.4762 -2.7226  0.4009
 3328SOL     OW21616   0.896   4.281  16.417  0.2866 -0.3413 -0.1917
 3328SOL    HW121617   0.801   4.283  16.403  0.2152  1.5487  0.5819
 3328SOL    HW221618   0.933   4.248  16.335 -0.6225  0.5915 -0.9822
 3329SOL     OW21619   3.258   2.960  14.151  0.1612 -0.0876  0.5893
 3329SOL    HW121620   3.239   2.866  14.160 -1.0291  0.1100  0.0815
 3329SOL    HW221621   3.351   2.953  14.172  0.1861  1.7232  1.1268
 3330SOL     OW21622   3.890   1.541   5.886  0.3591  0.9619 -0.3955
 3330SOL    HW121623   3.958   1.567   5.948  1.0062 -0.7055 -0.3901
 3330SOL    HW221624   3.844   1.472   5.934 -0.2089  0.5282 -1.5709
 3331SOL     OW21625   2.574   2.333   2.321  0.2029 -0.0055 -0.2592
 3331SOL    HW121626   2.552   2.258   2.377  0.1038 -0.2144 -0.5834
 3331SOL    HW221627   2.502   2.323   2.260 -1.5633 -0.7521  1.9465
 3332SOL     OW21628   1.126   3.157   3.024 -0.1707  0.2116  0.3217
 3332SOL    HW121629   1.126   3.135   3.118 -4.5942 -1.1183 -0.0109
 3332SOL    HW221630   1.188   3.092   2.991 -0.8137  1.0856 -2.6177
 3333SOL     OW21631   4.274   2.558   6.704  0.5252 -0.4848 -0.4802
 3333SOL    HW121632   4.296   2.529   6.615  2.3943 -1.8467  0.4139
 3333SOL    HW221633   4.326   2.500   6.760  0.8020  2.4498  2.3178
 3334SOL     OW21634   0.253   1.677   9.616 -0.7453  0.1155  0.0025
 3334SOL    HW121635   0.263   1.609   9.549 -1.9561  0.6146 -0.6939
 3334SOL    HW221636   0.286   1.631   9.693 -0.0788 -1.6599 -1.3465
 3335SOL     OW21637   3.565   3.992   5.571 -0.2703 -0.6816  0.1680
 3335SOL    HW121638   3.559   3.912   5.520  1.8455  0.0186 -1.1501
 3335SOL    HW221639   3.651   3.977   5.610 -0.4514  1.7837  1.5880
 3336SOL     OW21640   2.462   4.166   2.838 -0.9339  0.6825 -0.1507
 3336SOL    HW121641   2.462   4.164   2.742  0.8672  0.7327 -0.1594
 3336SOL    HW221642   2.528   4.233   2.855 -0.0009  0.2950 -2.1732
 3337SOL     OW21643   2.941   1.776   0.231 -0.4562  0.3777  0.2609
 3337SOL    HW121644   2.909   1.688   0.214  0.3404  0.0128  0.6444
 3337SOL    HW221645   2.879   1.835   0.188 -0.8724  0.3609  0.8404
 3338SOL     OW21646   0.883   4.488   1.170  0.2690  0.0292  0.0382
 3338SOL    HW121647   0.817   4.508   1.235  0.3630  3.4056 -0.9306
 3338SOL    HW221648   0.852   4.401   1.143 -1.5360  0.5130  0.5967
 3339SOL     OW21649   2.125   4.122  13.210  0.6880 -0.1109  0.2536
 3339SOL    HW121650   2.219   4.113  13.229  0.5905 -3.7477 -0.9364
 3339SOL    HW221651   2.114   4.029  13.192  1.7542 -0.3429  0.7522
 3340SOL     OW21652   1.686   1.357  11.276 -0.2247  0.2526 -0.4709
 3340SOL    HW121653   1.628   1.388  11.346  0.1658  0.8324 -0.4079
 3340SOL    HW221654   1.649   1.391  11.194 -1.3067 -0.3918 -0.2582
 3341SOL     OW21655   4.648   1.818  11.024  0.4096  1.4017 -0.3247
 3341SOL    HW121656   4.582   1.887  11.026 -0.2253  0.8114 -0.7539
 3341SOL    HW221657   4.679   1.816  10.933 -0.6519  0.3437 -0.6712
 3342SOL     OW21658   4.714   2.603  16.045  0.9764 -0.2443 -0.4735
 3342SOL    HW121659   4.633   2.641  16.078  0.0493 -1.4699 -1.3134
 3342SOL    HW221660   4.679   2.553  15.971  0.5155 -0.5723 -0.0341
 3343SOL     OW21661   1.517   4.033   4.067 -0.5000  0.3624 -0.0429
 3343SOL    HW121662   1.583   4.054   4.001  0.6717 -0.9631  0.6979
 3343SOL    HW221663   1.435   4.027   4.017 -1.0454 -1.0166  1.0056
 3344SOL     OW21664   3.981   0.870  12.364  0.6944  0.5099 -0.7289
 3344SOL    HW121665   3.953   0.916  12.443 -1.3848 -1.3580 -0.3905
 3344SOL    HW221666   4.075   0.858  12.382  0.3087 -0.5667  0.5451
 3345SOL     OW21667   1.467   0.982   6.735  0.1219 -0.1494 -0.2521
 3345SOL    HW121668   1.405   0.925   6.781 -0.1926  0.2154 -0.2247
 3345SOL    HW221669   1.421   1.001   6.654  1.2452 -0.4057 -0.9521
 3346SOL     OW21670   0.111   0.488   8.896  0.8739  0.7282  0.2679
 3346SOL    HW121671   0.193   0.499   8.945  1.1676 -2.7523  0.5550
 3346SOL    HW221672   0.074   0.576   8.895 -1.4005 -0.2332 -0.6072
 3347SOL     OW21673   3.432   2.882   0.721  0.0701 -0.0277  0.1021
 3347SOL    HW121674   3.391   2.934   0.790  0.1881  0.3298 -0.0977
 3347SOL    HW221675   3.449   2.802   0.771  0.6980 -1.7437 -2.8732
 3348SOL     OW21676   4.684   3.735   5.872  0.3018  0.3887 -0.2350
 3348SOL    HW121677   4.681   3.805   5.808  2.1024  0.7625  0.0719
 3348SOL    HW221678   4.730   3.773   5.947 -0.6944 -0.3627  0.7604
 3349SOL     OW21679   0.038   2.530   3.671  0.0798 -0.8568  0.3464
 3349SOL    HW121680   0.111   2.589   3.684 -0.9596  1.0273 -2.1828
 3349SOL    HW221681   0.016   2.503   3.760 -0.2732 -4.1007 -0.7295
 3350SOL     OW21682   3.682   2.943   8.645 -1.7239  0.6292  0.6531
 3350SOL    HW121683   3.684   2.950   8.549 -1.0809  0.9305  0.6885
 3350SOL    HW221684   3.593   2.913   8.663 -1.5292  0.3526  1.1254
 3351SOL     OW21685   4.057   0.777   7.896 -0.1172 -0.7265 -0.6736
 3351SOL    HW121686   4.042   0.720   7.971 -2.0284  0.1420 -0.3845
 3351SOL    HW221687   3.976   0.820   7.870 -0.3044 -0.2141  0.7618
 3352SOL     OW21688   4.225   0.476  13.309  0.4418 -0.3847  0.0620
 3352SOL    HW121689   4.134   0.502  13.326  0.7270  0.7315 -0.0669
 3352SOL    HW221690   4.271   0.549  13.352 -1.0002  0.5603  0.0175
 3353SOL     OW21691   4.576   0.192   5.431 -0.3485  0.0373 -0.4131
 3353SOL    HW121692   4.520   0.256   5.387 -2.5574 -0.5936  1.5017
 3353SOL    HW221693   4.612   0.148   5.354 -2.0437 -2.3948  0.1478
 3354SOL     OW21694   0.366   2.421   2.325  0.5970  0.4980 -0.2729
 3354SOL    HW121695   0.274   2.394   2.328  1.1623 -1.2417  1.1820
 3354SOL    HW221696   0.377   2.500   2.378  0.3904 -0.6124  1.4161
 3355SOL     OW21697   0.054   4.661   0.958 -0.0598  0.4171  0.9684
 3355SOL    HW121698   0.075   4.605   1.032  1.1457  2.4128  2.1370
 3355SOL    HW221699   0.125   4.635   0.899 -0.4869 -2.3241  1.6578
 3356SOL     OW21700   2.129   0.767   3.472  0.2069  0.2513 -0.4357
 3356SOL    HW121701   2.137   0.688   3.525 -1.4980 -1.0863 -2.1794
 3356SOL    HW221702   2.171   0.731   3.394  1.2408  1.8700 -0.6135
 3357SOL     OW21703   3.912   1.593   3.048  0.0024 -0.0539  0.3145
 3357SOL    HW121704   3.949   1.597   2.959 -0.1573  1.2715  0.3062
 3357SOL    HW221705   3.862   1.513   3.034 -2.5099  1.9356 -2.2214
 3358SOL     OW21706   3.029   3.944   9.607 -0.1926 -0.3250  0.1909
 3358SOL    HW121707   3.115   3.952   9.648 -1.2426  0.9102  2.1423
 3358SOL    HW221708   3.052   3.972   9.518 -1.2259 -3.4217 -1.0550
 3359SOL     OW21709   3.299   2.382   7.813 -0.1198 -0.0424  0.2757
 3359SOL    HW121710   3.338   2.304   7.775  0.2504  1.1195 -1.7149
 3359SOL    HW221711   3.209   2.358   7.790  0.0250 -0.9589  0.6810
 3360SOL     OW21712   1.682   0.333  13.272  0.1386  0.1871 -0.4364
 3360SOL    HW121713   1.622   0.276  13.320  0.9351  0.5602  1.0092
 3360SOL    HW221714   1.737   0.277  13.217  0.4886 -1.2263  1.3867
 3361SOL     OW21715   3.675   3.291   3.243  0.0843  0.0205  0.1872
 3361SOL    HW121716   3.656   3.370   3.193 -0.6805  1.1043  2.1788
 3361SOL    HW221717   3.759   3.309   3.284  0.0466 -0.5502  0.5183
 3362SOL     OW21718   4.543   0.616  13.277  0.1321  0.2875 -0.3301
 3362SOL    HW121719   4.552   0.539  13.334 -1.2597  0.1316 -0.3157
 3362SOL    HW221720   4.466   0.659  13.313 -0.3685 -0.5562 -0.3795
 3363SOL     OW21721   4.700   0.866  12.896  0.3225  0.0261  0.4620
 3363SOL    HW121722   0.021   0.801  12.938 -1.4561 -1.7008  0.1417
 3363SOL    HW221723   4.654   0.821  12.825  0.9685  1.0960 -0.6415
 3364SOL     OW21724   1.232   3.374   4.664 -0.2627  0.2031  0.4876
 3364SOL    HW121725   1.239   3.440   4.595  0.6855  0.2657  0.6426
 3364SOL    HW221726   1.322   3.362   4.694 -0.0467 -2.3215 -1.1360
 3365SOL     OW21727   1.242   2.691  15.354  0.2953 -0.0035  0.4479
 3365SOL    HW121728   1.175   2.624  15.348  1.2326 -0.8809 -0.2583
 3365SOL    HW221729   1.303   2.654  15.417  0.9698  1.3170  0.5802
 3366SOL     OW21730   1.853   2.559   7.749  0.0055  0.3769 -0.0315
 3366SOL    HW121731   1.871   2.500   7.822 -0.0365  0.3965 -0.0053
 3366SOL    HW221732   1.916   2.627   7.772  3.2404 -1.3870 -3.6446
 3367SOL     OW21733   1.323   2.772   3.994  0.3908 -0.0753  0.3323
 3367SOL    HW121734   1.264   2.724   3.937  1.8030 -1.1868 -0.1837
 3367SOL    HW221735   1.306   2.728   4.078 -2.3280  1.2056  0.4620
 3368SOL     OW21736   2.109   2.544   9.358 -0.0969 -0.4272 -0.0503
 3368SOL    HW121737   2.078   2.634   9.362  1.9420  0.4085 -2.6339
 3368SOL    HW221738   2.127   2.522   9.449 -2.6802 -2.6645 -0.0675
 3369SOL     OW21739   0.189   3.559   3.234 -0.5679  0.0500 -0.0722
 3369SOL    HW121740   0.123   3.514   3.182 -0.5970 -0.8639  0.7566
 3369SOL    HW221741   0.267   3.536   3.183 -1.6324  0.8784 -2.0816
 3370SOL     OW21742   4.546   1.165  15.672 -0.2865  0.2914 -0.0381
 3370SOL    HW121743   4.612   1.140  15.607 -0.2672 -1.0650  0.5022
 3370SOL    HW221744   4.465   1.163  15.620  0.3675 -0.7119 -1.0092
 3371SOL     OW21745   0.373   1.616  15.880 -0.0391 -0.0495  0.7638
 3371SOL    HW121746   0.449   1.652  15.834  0.5346 -1.1528  0.8483
 3371SOL    HW221747   0.324   1.697  15.891  1.1318  0.7924 -0.2013
 3372SOL     OW21748   1.870   4.225   3.407  0.4541  1.0244 -0.0931
 3372SOL    HW121749   1.936   4.194   3.469 -0.6261 -0.8109  0.1253
 3372SOL    HW221750   1.856   4.143   3.360 -1.0055  0.1702  1.8084
 3373SOL     OW21751   2.059   2.349  15.636  0.3211  0.1741  0.2264
 3373SOL    HW121752   2.075   2.426  15.582  0.3292 -0.7178 -1.0489
 3373SOL    HW221753   2.141   2.300  15.629  0.8632  0.8132  2.2614
 3374SOL     OW21754   2.461   3.125  13.750 -0.1839  0.3300 -0.5261
 3374SOL    HW121755   2.554   3.134  13.768 -0.4825  0.2374  1.0698
 3374SOL    HW221756   2.438   3.100  13.839  0.3375  2.4018  0.1914
 3375SOL     OW21757   4.160   4.730   8.746  0.1613 -0.3084 -0.0915
 3375SOL    HW121758   4.210   4.726   8.828  0.2440  0.6946 -0.0916
 3375SOL    HW221759   4.206   4.669   8.689  1.5493  1.0956 -0.4578
 3376SOL     OW21760   2.010   3.353  11.026  0.0292  0.6700  0.0268
 3376SOL    HW121761   1.935   3.372  11.082 -0.2032  0.0034 -0.0626
 3376SOL    HW221762   2.077   3.412  11.061  1.2204 -1.0273  0.6104
 3377SOL     OW21763   3.459   0.271   6.201 -0.1107 -0.2410  0.9249
 3377SOL    HW121764   3.512   0.332   6.150  0.0582  0.5670  2.0428
 3377SOL    HW221765   3.427   0.216   6.130  1.0850 -0.5761  0.6386
 3378SOL     OW21766   1.839   2.401  13.580 -0.0886 -0.1800  0.2127
 3378SOL    HW121767   1.890   2.367  13.507 -1.8425 -2.6324  0.1148
 3378SOL    HW221768   1.775   2.457  13.536  0.8376  0.5856 -0.1634
 3379SOL     OW21769   2.511   3.434   4.205  0.1107 -0.1924 -0.5318
 3379SOL    HW121770   2.595   3.453   4.163  1.4357  0.1600  2.2607
 3379SOL    HW221771   2.509   3.341   4.227 -0.4905 -0.2120 -0.6672
 3380SOL     OW21772   1.304   0.507   0.081  0.4455  0.1383  0.8516
 3380SOL    HW121773   1.215   0.541   0.084  0.3645 -0.0379  0.4468
 3380SOL    HW221774   1.298   0.448   0.157  0.2841 -1.9248 -0.7444
 3381SOL     OW21775   2.189   1.279   7.432  0.2281  0.1102  0.5212
 3381SOL    HW121776   2.139   1.260   7.353 -0.8087 -0.7209  1.3663
 3381SOL    HW221777   2.152   1.364   7.455 -0.3664  0.2523 -0.9938
 3382SOL     OW21778   4.341   0.155  12.711 -0.6424  0.2801 -0.0966
 3382SOL    HW121779   4.370   0.190  12.626 -1.2293  2.4336  0.6040
 3382SOL    HW221780   4.402   0.199  12.770  2.0997 -0.3128 -2.4707
 3383SOL     OW21781   4.292   1.018   5.225 -0.0814 -0.0935  0.0418
 3383SOL    HW121782   4.297   1.112   5.206 -0.2831  0.4602  2.8278
 3383SOL    HW221783   4.274   0.972   5.142 -1.8450 -0.4087  0.6042
 3384SOL     OW21784   3.823   0.228  13.226  0.0187  0.3368 -0.1963
 3384SOL    HW121785   3.895   0.232  13.290 -1.6582  1.8497  1.5885
 3384SOL    HW221786   3.794   0.319  13.225 -1.7969 -0.2655 -1.5838
 3385SOL     OW21787   4.082   2.296   0.833 -0.5887  0.0782 -0.5871
 3385SOL    HW121788   4.042   2.248   0.761 -0.8497  1.1755 -1.1764
 3385SOL    HW221789   4.173   2.282   0.808 -0.4635  1.1436 -0.7169
 3386SOL     OW21790   2.395   1.803   1.276  0.3569 -0.7732 -0.4984
 3386SOL    HW121791   2.447   1.724   1.287 -0.8369 -1.5486 -0.4006
 3386SOL    HW221792   2.468   1.866   1.276 -0.5225  0.2465 -2.2525
 3387SOL     OW21793   2.442   1.647   1.864 -0.7451  0.5344  0.0844
 3387SOL    HW121794   2.508   1.607   1.809  0.2967  2.9913 -0.4811
 3387SOL    HW221795   2.492   1.689   1.934 -0.7305  0.6379  0.0126
 3388SOL     OW21796   1.856   4.006   0.596  0.0746 -0.7654 -0.2915
 3388SOL    HW121797   1.864   3.911   0.586  0.8412 -0.9215  1.6987
 3388SOL    HW221798   1.901   4.015   0.681 -1.6848 -0.5942  0.6176
 3389SOL     OW21799   1.338   2.780  10.345 -0.2218 -0.2364 -0.1811
 3389SOL    HW121800   1.309   2.705  10.397 -0.1358  1.3090  2.1388
 3389SOL    HW221801   1.256   2.802  10.302 -0.6375 -0.4826  0.4898
 3390SOL     OW21802   1.949   2.159  10.986 -0.5020 -0.0132 -0.0421
 3390SOL    HW121803   2.011   2.090  11.009  0.2130  0.1298 -1.5809
 3390SOL    HW221804   1.978   2.175  10.896  0.3643 -0.1540  0.2137
 3391SOL     OW21805   1.570   0.948   1.833  0.0324 -0.2055  0.0709
 3391SOL    HW121806   1.557   0.927   1.740  0.0008  0.3734 -0.0579
 3391SOL    HW221807   1.491   1.000   1.844 -0.1593 -0.9408  2.0620
 3392SOL     OW21808   0.505   0.115   3.936 -0.1409  0.2763 -1.0603
 3392SOL    HW121809   0.444   0.184   3.912 -1.8437 -0.0261  2.3817
 3392SOL    HW221810   0.502   0.117   4.032 -2.0034 -1.0192 -1.0903
 3393SOL     OW21811   3.237   1.369  10.107 -0.3263 -0.1454  0.6291
 3393SOL    HW121812   3.309   1.341  10.051  1.0807 -0.6879  2.7103
 3393SOL    HW221813   3.200   1.431  10.044  1.2502  1.4135  1.2386
 3394SOL     OW21814   0.618   0.691   5.442  0.4160  0.1590  0.4858
 3394SOL    HW121815   0.666   0.611   5.419 -0.6647 -0.6439  1.0213
 3394SOL    HW221816   0.541   0.671   5.388  0.5559  1.0874 -0.0574
 3395SOL     OW21817   2.919   0.318   4.700 -0.5099 -0.1754  0.2675
 3395SOL    HW121818   2.873   0.250   4.749 -1.4163 -1.5048 -2.4069
 3395SOL    HW221819   2.968   0.361   4.770 -2.0291 -0.0034  1.2111
 3396SOL     OW21820   1.986   0.703  15.728 -0.1110  0.2210  0.5835
 3396SOL    HW121821   2.068   0.698  15.679 -0.0445 -0.1220  0.7302
 3396SOL    HW221822   1.937   0.750  15.661 -2.8074 -0.8877  1.7696
 3397SOL     OW21823   2.415   0.449   5.535  0.7710  0.2089 -0.2781
 3397SOL    HW121824   2.483   0.454   5.602 -0.7173  0.7399  1.1804
 3397SOL    HW221825   2.334   0.445   5.585  1.3718  0.6741  0.7212
 3398SOL     OW21826   2.554   4.703   5.005  0.1699 -0.0902  0.0361
 3398SOL    HW121827   2.498   0.044   4.987 -2.3737 -1.8188  0.6472
 3398SOL    HW221828   2.637   0.005   5.033 -1.2225  0.9707  2.7533
 3399SOL     OW21829   0.476   4.285   0.493  0.2687  0.0668  0.0673
 3399SOL    HW121830   0.449   4.232   0.419  0.6802 -1.8167  1.2772
 3399SOL    HW221831   0.497   4.367   0.448  3.8906 -0.8333  0.1031
 3400SOL     OW21832   1.754   1.935   7.374 -0.3769  0.2311  0.1132
 3400SOL    HW121833   1.835   1.939   7.425 -0.1790 -4.2587  0.1536
 3400SOL    HW221834   1.782   1.943   7.283 -0.7704 -2.8563 -0.2844
 3401SOL     OW21835   0.658   1.151   3.530 -0.8421 -0.9151 -0.1393
 3401SOL    HW121836   0.572   1.112   3.516 -0.8912  0.1505 -2.7881
 3401SOL    HW221837   0.646   1.168   3.623  1.1406 -2.0882  0.3281
 3402SOL     OW21838   2.312   2.991  13.425  0.6217 -0.2424 -0.3015
 3402SOL    HW121839   2.378   2.933  13.463  1.1579  0.5785  0.0335
 3402SOL    HW221840   2.365   3.053  13.376 -0.8898  1.9298  0.7664
 3403SOL     OW21841   3.188   2.318   5.494  0.4612  0.0643  0.2910
 3403SOL    HW121842   3.144   2.233   5.496 -0.3580  0.5027  0.8342
 3403SOL    HW221843   3.265   2.302   5.548  3.0332  1.5709 -2.9255
 3404SOL     OW21844   0.368   4.469   8.880  0.2033  0.5068 -0.1551
 3404SOL    HW121845   0.363   4.373   8.886  2.8941  0.2447 -1.9243
 3404SOL    HW221846   0.345   4.486   8.971  2.5796  1.0350  0.3488
 3405SOL     OW21847   2.251   3.819   0.977 -0.0566 -0.4512 -0.2665
 3405SOL    HW121848   2.232   3.730   1.007 -0.8054 -0.3632 -0.4624
 3405SOL    HW221849   2.305   3.842   1.052 -0.0843 -1.5149  0.0780
 3406SOL     OW21850   2.350   2.243   2.170 -0.3224 -0.1669 -0.4833
 3406SOL    HW121851   2.365   2.321   2.117  1.5076 -0.3697 -0.2777
 3406SOL    HW221852   2.294   2.192   2.112  0.9955 -1.2806 -0.7495
 3407SOL     OW21853   2.881   2.701   5.738 -0.2625 -0.1749  0.2952
 3407SOL    HW121854   2.823   2.768   5.704  0.5096  0.1908 -0.2941
 3407SOL    HW221855   2.829   2.629   5.702 -1.0756  0.3904  0.3524
 3408SOL     OW21856   4.137   4.125   0.850 -0.3525  0.2481 -0.2970
 3408SOL    HW121857   4.104   4.214   0.861 -3.4038 -0.7984 -1.0250
 3408SOL    HW221858   4.188   4.122   0.931  0.7147  2.1422 -0.9063
 3409SOL     OW21859   3.741   1.398   7.270  0.3901  0.3088  0.4422
 3409SOL    HW121860   3.688   1.444   7.335  0.3792  1.3721 -0.3222
 3409SOL    HW221861   3.792   1.346   7.332  1.6658  2.0122  0.8160
 3410SOL     OW21862   4.116   1.288   6.306  0.2127 -0.4673 -0.2795
 3410SOL    HW121863   4.188   1.263   6.249 -0.1453 -1.0372 -0.4787
 3410SOL    HW221864   4.054   1.217   6.288 -0.2654 -0.5903  1.8075
 3411SOL     OW21865   1.979   0.336   8.424 -0.1529 -0.2715 -0.2039
 3411SOL    HW121866   2.026   0.352   8.506 -0.6060  2.3061 -0.4529
 3411SOL    HW221867   1.946   0.252   8.456  0.9830 -0.3788  0.7116
 3412SOL     OW21868   1.248   0.523   9.690 -0.1879  0.2051  0.2374
 3412SOL    HW121869   1.209   0.476   9.764 -2.3037  2.3803  0.5066
 3412SOL    HW221870   1.321   0.465   9.670  0.0297  0.6751 -0.3282
 3413SOL     OW21871   2.860   1.985   7.200  0.1177 -0.7700 -0.4428
 3413SOL    HW121872   2.873   1.895   7.229  0.7512 -0.7643 -0.7015
 3413SOL    HW221873   2.881   2.026   7.284 -1.2740 -2.2206  0.5989
 3414SOL     OW21874   2.677   3.396   9.757 -0.1556 -0.3213 -0.2196
 3414SOL    HW121875   2.744   3.336   9.724 -0.1267 -0.7407  0.5880
 3414SOL    HW221876   2.714   3.394   9.846 -2.2716 -0.0173  0.6582
 3415SOL     OW21877   0.638   0.049  15.158 -0.4872 -0.0112 -0.0962
 3415SOL    HW121878   0.712   0.043  15.097  1.5288  2.6970  2.0908
 3415SOL    HW221879   0.632   4.697  15.197  0.2417  0.8731  1.9663
 3416SOL     OW21880   2.671   3.993   3.373 -0.0333 -0.1516 -0.1978
 3416SOL    HW121881   2.674   4.006   3.468 -3.7745 -0.5540 -0.0430
 3416SOL    HW221882   2.577   3.993   3.357  0.4176  1.9979 -2.7670
 3417SOL     OW21883   3.881   3.674   6.076 -1.0004 -0.2481  0.1547
 3417SOL    HW121884   3.861   3.616   6.149 -0.1511  0.2307  0.7671
 3417SOL    HW221885   3.842   3.621   6.005  1.7505 -2.0474  0.0093
 3418SOL     OW21886   3.044   2.836  15.888 -0.0274 -0.1655  0.2620
 3418SOL    HW121887   3.038   2.883  15.805 -0.5274 -4.3110 -2.0561
 3418SOL    HW221888   3.045   2.907  15.951 -1.3537  0.8938 -0.9158
 3419SOL     OW21889   1.529   0.056  13.592 -0.1771 -0.1133 -1.0427
 3419SOL    HW121890   1.444   0.024  13.621 -0.7663  2.2252 -0.1768
 3419SOL    HW221891   1.583   0.010  13.657 -1.0464 -0.3843 -0.5187
 3420SOL     OW21892   1.703   3.908   6.215  0.0940 -0.4348 -0.7159
 3420SOL    HW121893   1.735   3.896   6.126 -1.9216  0.7133 -1.6111
 3420SOL    HW221894   1.616   3.947   6.204 -0.4580 -1.0410  1.4721
 3421SOL     OW21895   0.732   2.551   8.194 -0.1491  0.4645  0.4648
 3421SOL    HW121896   0.787   2.629   8.200  2.6238 -1.2603 -2.7040
 3421SOL    HW221897   0.651   2.573   8.148 -0.5121  0.0460  0.9089
 3422SOL     OW21898   2.810   1.337   6.142  0.4846 -0.3085  0.0490
 3422SOL    HW121899   2.824   1.259   6.195  2.4379  0.5573  0.8418
 3422SOL    HW221900   2.901   1.366   6.130  0.2432 -0.6407 -2.6559
 3423SOL     OW21901   2.702   2.761   4.438 -0.3208 -0.1087  0.5692
 3423SOL    HW121902   2.664   2.849   4.434 -2.0873 -0.8452  1.4593
 3423SOL    HW221903   2.766   2.767   4.510  0.6466  4.7898 -0.6612
 3424SOL     OW21904   3.320   4.157  13.677  0.2360  0.1393  0.0009
 3424SOL    HW121905   3.252   4.181  13.741  0.3464 -1.1894  0.6294
 3424SOL    HW221906   3.401   4.198  13.707 -0.6630  0.3497  2.1678
 3425SOL     OW21907   0.662   0.272   8.993 -0.2295  0.0938 -0.2926
 3425SOL    HW121908   0.655   0.313   8.906  1.0068 -0.8623 -0.8514
 3425SOL    HW221909   0.611   0.342   9.032 -0.5023 -0.7638  0.8825
 3426SOL     OW21910   3.218   0.522   6.048 -0.0077  0.4636  0.5616
 3426SOL    HW121911   3.234   0.447   6.106  0.7309 -1.0512 -1.5723
 3426SOL    HW221912   3.128   0.534   6.078  0.2611 -2.0472  2.4358
 3427SOL     OW21913   1.666   1.760  14.368 -0.2540  0.4332 -0.4837
 3427SOL    HW121914   1.683   1.674  14.328 -1.4442 -1.5168  3.2201
 3427SOL    HW221915   1.624   1.713  14.440  0.4330 -0.2529 -0.5259
 3428SOL     OW21916   1.282   3.970   3.942  0.2289  0.7039  0.1459
 3428SOL    HW121917   1.271   4.061   3.967  1.4951  1.2798 -1.3933
 3428SOL    HW221918   1.203   3.930   3.977  0.9328 -1.5679 -0.8039
 3429SOL     OW21919   3.941   4.667  10.589  0.2314 -0.2799  0.4213
 3429SOL    HW121920   4.036   4.661  10.585  0.1899 -0.8004  0.2101
 3429SOL    HW221921   3.914   4.579  10.565 -2.7446  0.9992 -0.9085
 3430SOL     OW21922   2.487   1.340  13.431  0.1477 -0.2257  0.1822
 3430SOL    HW121923   2.528   1.426  13.424 -0.1112 -0.1131  0.0453
 3430SOL    HW221924   2.555   1.302  13.486  0.2430  0.6600  0.6812
 3431SOL     OW21925   2.934   4.301   9.694 -0.4194  0.0029  0.3528
 3431SOL    HW121926   2.997   4.244   9.737 -1.3131 -0.1819  1.4352
 3431SOL    HW221927   2.934   4.267   9.605  1.3462 -1.1299  0.7951
 3432SOL     OW21928   1.177   3.001   8.013 -0.5747 -0.7787  0.0147
 3432SOL    HW121929   1.184   2.912   8.047  0.8575 -0.1636  1.3355
 3432SOL    HW221930   1.225   2.979   7.933 -0.1233 -0.1910  0.1245
 3433SOL     OW21931   1.573   2.024   8.965 -0.1974  0.0959 -0.5011
 3433SOL    HW121932   1.625   2.105   8.970 -0.1234  0.1969 -2.9840
 3433SOL    HW221933   1.644   1.960   8.974  0.4263  0.7264 -0.9176
 3434SOL     OW21934   0.720   4.195   2.243  0.1038 -0.5207 -0.4234
 3434SOL    HW121935   0.794   4.143   2.213  0.6770 -0.2880  0.6109
 3434SOL    HW221936   0.658   4.124   2.226  2.6967 -2.4201 -1.9074
 3435SOL     OW21937   2.067   3.727  17.067 -0.5030 -0.2020 -0.1141
 3435SOL    HW121938   2.150   3.775  17.075 -0.4999 -0.2770  0.2695
 3435SOL    HW221939   2.008   3.798  17.091 -0.1201 -0.2248  0.8855
 3436SOL     OW21940   2.335   4.645   4.069 -0.1103  0.0237 -0.3573
 3436SOL    HW121941   2.319   4.607   3.983 -0.2647  0.7906 -0.6696
 3436SOL    HW221942   2.263   4.609   4.121 -0.8553 -0.6397 -1.8501
 3437SOL     OW21943   3.653   0.725   6.631  0.0147  0.6602 -0.2417
 3437SOL    HW121944   3.665   0.720   6.726 -0.1392  1.1242 -0.1982
 3437SOL    HW221945   3.561   0.698   6.622 -0.3219  1.8147 -0.2521
 3438SOL     OW21946   4.330   1.557   9.571  0.3254  0.4863 -0.1229
 3438SOL    HW121947   4.390   1.504   9.519  0.5657  0.7991 -0.1672
 3438SOL    HW221948   4.351   1.537   9.662 -0.2750  0.5936  0.0377
 3439SOL     OW21949   1.088   1.120  10.882  0.1658 -0.2531  0.5310
 3439SOL    HW121950   1.053   1.113  10.793 -1.0124  0.0025  0.9782
 3439SOL    HW221951   1.051   1.052  10.938  0.7319  1.3058  2.8239
 3440SOL     OW21952   0.268   3.508   8.782 -0.3501  0.0972  0.1127
 3440SOL    HW121953   0.353   3.478   8.812 -0.1644  0.2360 -0.2704
 3440SOL    HW221954   0.280   3.603   8.781 -3.4243  0.5010 -1.5256
 3441SOL     OW21955   1.600   3.560   3.603 -0.1167  0.4256  0.6230
 3441SOL    HW121956   1.554   3.641   3.626  0.6604  1.4111 -1.2486
 3441SOL    HW221957   1.620   3.597   3.517  0.0933  1.5237  1.1430
 3442SOL     OW21958   3.636   1.479  11.170  0.3373 -0.6972 -0.1119
 3442SOL    HW121959   3.703   1.525  11.119  0.9574 -1.3022  0.1577
 3442SOL    HW221960   3.689   1.456  11.246  0.2057 -0.9919 -0.1064
 3443SOL     OW21961   1.337   0.656  12.570 -0.1634  0.6509 -0.1024
 3443SOL    HW121962   1.318   0.566  12.545  1.4952 -0.5541  2.9866
 3443SOL    HW221963   1.420   0.650  12.617 -1.0023  2.7610  1.6815
 3444SOL     OW21964   1.394   4.549   1.837  0.1077 -0.7799  0.0570
 3444SOL    HW121965   1.345   4.466   1.842 -1.4693  0.2736  2.5360
 3444SOL    HW221966   1.351   4.581   1.758 -1.7010 -1.4970  0.7492
 3445SOL     OW21967   0.767   1.600  17.077  0.4578  0.5165 -0.2076
 3445SOL    HW121968   0.829   1.662  17.116  0.4390  0.0107  0.6347
 3445SOL    HW221969   0.700   1.592  17.145  1.1303  0.3628  0.4417
 3446SOL     OW21970   3.318   1.629   1.076 -0.2709 -0.4720 -0.0593
 3446SOL    HW121971   3.335   1.680   1.156  1.0604 -0.6354 -0.2391
 3446SOL    HW221972   3.363   1.677   1.007 -1.9630  1.3152  0.0786
 3447SOL     OW21973   4.481   3.776  10.247 -0.2426 -1.2349 -0.6729
 3447SOL    HW121974   4.505   3.750  10.158 -1.5785 -1.6402 -0.9116
 3447SOL    HW221975   4.501   3.870  10.248  1.3214 -1.5788  0.4217
 3448SOL     OW21976   0.450   4.582   6.643 -0.4554  0.0123 -0.0795
 3448SOL    HW121977   0.536   4.595   6.684 -0.2278  0.4555 -0.7030
 3448SOL    HW221978   0.476   4.566   6.553 -0.3140  5.4111 -0.9756
 3449SOL     OW21979   0.780   1.316   2.221  0.1307 -0.1297 -0.5492
 3449SOL    HW121980   0.743   1.326   2.133 -1.8722 -2.0191  0.0493
 3449SOL    HW221981   0.873   1.321   2.202  0.0199  1.5404 -0.6114
 3450SOL     OW21982   1.975   3.197   4.592  0.5470 -0.2946  0.2565
 3450SOL    HW121983   1.910   3.166   4.530  1.3970 -0.9731 -0.2935
 3450SOL    HW221984   1.940   3.171   4.677 -0.2402 -1.4306 -0.4196
 3451SOL     OW21985   0.708   1.263  16.902  0.8565 -0.2925 -0.1998
 3451SOL    HW121986   0.751   1.191  16.856 -2.9954 -0.5397 -3.3557
 3451SOL    HW221987   0.750   1.273  16.987  0.8601 -1.1145 -0.0993
 3452SOL     OW21988   0.815   4.204  10.125 -0.4353 -0.1451 -0.5342
 3452SOL    HW121989   0.789   4.112  10.130  1.0273 -0.5289  0.1243
 3452SOL    HW221990   0.745   4.246  10.175  0.6631 -0.7427  1.5021
 3453SOL     OW21991   0.361   1.428   5.708 -0.4497  0.2023  0.0493
 3453SOL    HW121992   0.386   1.337   5.720  0.8263  0.6432  0.7950
 3453SOL    HW221993   0.290   1.420   5.645 -0.3482 -0.5359  0.0376
 3454SOL     OW21994   3.090   2.732   9.390  0.1338 -0.1795 -0.5933
 3454SOL    HW121995   3.168   2.681   9.369  1.6172 -0.2668  4.8795
 3454SOL    HW221996   3.072   2.696   9.477 -1.4356 -0.4141 -1.0099
 3455SOL     OW21997   1.054   1.631   7.992 -1.0416  0.4434 -0.1917
 3455SOL    HW121998   1.060   1.579   8.072 -0.9520  2.4163  1.0645
 3455SOL    HW221999   0.961   1.648   8.006 -0.4288  2.6439  1.1167
 3456SOL     OW22000   2.964   0.116   6.664  0.1232  0.2466  0.3829
 3456SOL    HW122001   2.871   0.110   6.684 -0.1059  1.5557 -0.2428
 3456SOL    HW222002   2.985   0.153   6.750  1.4789  2.4914 -0.8965
 3457SOL     OW22003   4.316   2.764  17.256  0.1871  0.5325 -0.2393
 3457SOL    HW122004   4.228   2.728  17.241 -0.1631  0.7038  1.3790
 3457SOL    HW222005   4.302   2.820  17.332 -1.5626  0.5347 -0.5481
 3458SOL     OW22006   2.488   4.213   2.083  0.0782 -0.3873  0.3841
 3458SOL    HW122007   2.527   4.287   2.130 -0.5972  0.8383 -0.9990
 3458SOL    HW222008   2.563   4.154   2.072 -0.3071 -0.8231  0.0868
 3459SOL     OW22009   1.303   2.441  14.560  0.4571  0.4977 -0.4467
 3459SOL    HW122010   1.243   2.500  14.515 -0.0696  1.3818  1.4140
 3459SOL    HW222011   1.384   2.489  14.540 -1.1828  3.4857  0.0817
 3460SOL     OW22012   0.832   4.487   7.600 -0.3301 -0.2874 -0.2737
 3460SOL    HW122013   0.845   4.419   7.534 -2.2236 -1.6446  0.7536
 3460SOL    HW222014   0.846   4.562   7.542  2.0000 -0.3096  0.2614
 3461SOL     OW22015   4.708   1.621   4.936 -0.0693 -0.6657 -0.0096
 3461SOL    HW122016   0.066   1.598   4.927  0.1163  0.1473 -0.1927
 3461SOL    HW222017   4.717   1.716   4.930 -0.0304 -0.6191  0.7875
 3462SOL     OW22018   2.576   3.695   7.934  0.2461  0.5662  0.0390
 3462SOL    HW122019   2.582   3.683   8.029  0.4496  3.1256  0.3583
 3462SOL    HW222020   2.543   3.785   7.929 -0.9216  0.2095  1.5196
 3463SOL     OW22021   4.546   4.731   4.087  0.1740 -0.0176 -0.3379
 3463SOL    HW122022   4.577   4.697   4.171  1.1557 -0.2254 -0.7828
 3463SOL    HW222023   4.495   4.660   4.047  0.9697 -0.8046  0.0356
 3464SOL     OW22024   0.641   4.568   2.968  0.3461  0.3562 -0.3803
 3464SOL    HW122025   0.666   4.549   3.058  2.7666  2.6653 -0.5744
 3464SOL    HW222026   0.731   4.571   2.936  0.6888  1.1542  0.6477
 3465SOL     OW22027   2.876   0.328  15.548 -0.1173 -0.3560  0.0859
 3465SOL    HW122028   2.898   0.236  15.564 -1.4720 -0.6724  0.1889
 3465SOL    HW222029   2.892   0.369  15.633 -1.0845  0.0228  0.0892
 3466SOL     OW22030   4.453   3.327  13.484  0.0876  0.2593  0.1779
 3466SOL    HW122031   4.427   3.269  13.555 -0.8217 -0.1901 -0.5307
 3466SOL    HW222032   4.457   3.269  13.409  1.1256  0.7576 -0.1559
 3467SOL     OW22033   2.890   4.357  13.917 -0.0247 -0.3132 -0.3036
 3467SOL    HW122034   2.869   4.384  13.828 -0.5398  0.6085  0.0975
 3467SOL    HW222035   2.802   4.334  13.947 -0.2967 -0.7242 -1.4250
 3468SOL     OW22036   0.833   1.326  11.618  0.4068 -0.6209 -0.3647
 3468SOL    HW122037   0.764   1.285  11.566 -0.0366 -1.1007  0.5854
 3468SOL    HW222038   0.849   1.252  11.677 -0.6155 -1.0820 -0.6714
 3469SOL     OW22039   0.680   2.530   5.795  0.3068  0.1598  0.2648
 3469SOL    HW122040   0.694   2.436   5.798 -0.1831  0.1068  0.7086
 3469SOL    HW222041   0.770   2.557   5.816 -0.1731  1.2181  0.9602
 3470SOL     OW22042   2.909   0.922   2.797 -0.0754  0.1843  0.6318
 3470SOL    HW122043   2.963   0.844   2.812 -0.8081 -0.7852 -1.8624
 3470SOL    HW222044   2.844   0.912   2.866 -1.1201 -1.1099 -0.5461
 3471SOL     OW22045   4.183   1.049  15.280 -0.2036 -0.2067 -0.1178
 3471SOL    HW122046   4.206   1.093  15.198 -3.2893  0.1474 -0.8104
 3471SOL    HW222047   4.219   0.961  15.270  2.1535  0.9558 -1.8513
 3472SOL     OW22048   3.909   1.522  10.763  0.0419 -0.1258  0.3103
 3472SOL    HW122049   3.962   1.602  10.755 -1.1554  0.5594 -0.6854
 3472SOL    HW222050   3.916   1.491  10.673  3.3838  0.4939  0.3462
 3473SOL     OW22051   4.153   4.392   9.277  0.2620  0.1391 -0.1743
 3473SOL    HW122052   4.183   4.476   9.242  0.9724  0.0320  0.1720
 3473SOL    HW222053   4.177   4.398   9.370  0.1825  0.6545 -0.1871
 3474SOL     OW22054   2.814   0.246   2.183  0.2433 -0.7193 -0.3609
 3474SOL    HW122055   2.723   0.271   2.169 -0.3691 -0.7596  3.5510
 3474SOL    HW222056   2.840   0.210   2.098  1.3665  2.0689 -1.2109
 3475SOL     OW22057   4.698   4.208   4.584 -0.6868 -1.1596 -0.3901
 3475SOL    HW122058   0.033   4.155   4.546  1.4443  1.4958 -0.1815
 3475SOL    HW222059   4.716   4.199   4.677  0.4018  0.4546 -0.4440
 3476SOL     OW22060   2.865   0.726   4.302 -0.1901 -0.4774  0.0099
 3476SOL    HW122061   2.782   0.694   4.338 -0.0927  0.7709  1.3746
 3476SOL    HW222062   2.920   0.651   4.322  0.3037  0.8177  3.5034
 3477SOL     OW22063   1.869   1.910   3.685  0.3617 -0.6014  0.7495
 3477SOL    HW122064   1.876   1.897   3.590 -0.2592  0.2704  0.5849
 3477SOL    HW222065   1.819   1.991   3.694  2.8686  0.7624  2.5021
 3478SOL     OW22066   2.642   2.754  15.719 -0.3153 -0.2396  0.4862
 3478SOL    HW122067   2.613   2.835  15.678 -1.9235 -0.6107  0.8812
 3478SOL    HW222068   2.727   2.784  15.751 -0.7438  3.2250 -1.6583
 3479SOL     OW22069   0.687   2.281  13.635  0.6788 -0.1343 -0.6099
 3479SOL    HW122070   0.682   2.190  13.662 -1.0490  0.3834  0.8265
 3479SOL    HW222071   0.661   2.320  13.718  1.5179  0.4510 -0.6150
 3480SOL     OW22072   1.116   0.009   0.331  0.3426  0.4037  0.4809
 3480SOL    HW122073   1.046   0.066   0.299  0.0366 -0.6983 -0.8139
 3480SOL    HW222074   1.189   0.036   0.275  1.2979  0.6228  1.8301
 3481SOL     OW22075   1.503   0.118  13.093 -0.5043  0.4868  0.1293
 3481SOL    HW122076   1.533   0.030  13.113 -2.0866 -0.0818 -0.0489
 3481SOL    HW222077   1.481   0.147  13.181  0.6157  0.2367  0.4949
 3482SOL     OW22078   1.479   0.032   3.855 -0.1980  0.4132  0.3180
 3482SOL    HW122079   1.421   0.032   3.779 -0.6089 -0.9528  0.6271
 3482SOL    HW222080   1.555   4.732   3.809  1.0037  0.0289  2.5800
 3483SOL     OW22081   0.609   1.539   1.867 -0.3298 -0.0753  0.2621
 3483SOL    HW122082   0.520   1.521   1.836  0.1297 -1.9854  0.0437
 3483SOL    HW222083   0.641   1.592   1.795  1.2580  0.8129  1.6186
 3484SOL     OW22084   0.938   1.922  12.155 -0.6856 -0.3012 -0.3920
 3484SOL    HW122085   0.946   2.015  12.174  0.5596 -1.0021  2.4772
 3484SOL    HW222086   0.930   1.885  12.243  0.9500 -1.1190 -0.5968
 3485SOL     OW22087   3.460   4.536   2.425 -0.1596  0.6370 -0.0572
 3485SOL    HW122088   3.496   4.577   2.346 -1.2481  2.0986  0.2065
 3485SOL    HW222089   3.519   4.541   2.500  0.7384 -2.9305 -0.5188
 3486SOL     OW22090   4.529   3.056  15.422 -0.5312  0.4612 -0.1158
 3486SOL    HW122091   4.605   3.109  15.444 -0.5946 -0.4677  2.4014
 3486SOL    HW222092   4.572   2.973  15.444  1.2687  1.7162  1.0951
 3487SOL     OW22093   2.940   3.006  11.983  0.3591 -0.0101  0.8677
 3487SOL    HW122094   3.030   2.976  11.973 -0.0695 -0.7617 -0.6602
 3487SOL    HW222095   2.899   2.941  11.926 -2.1734  2.1551  0.2289
 3488SOL     OW22096   1.141   2.155   4.726 -0.3706  0.0350 -0.2760
 3488SOL    HW122097   1.158   2.098   4.801  1.6537  0.8540 -0.1105
 3488SOL    HW222098   1.232   2.171   4.702 -0.8411  0.7309 -1.6098
 3489SOL     OW22099   1.671   0.492   0.411 -0.7389 -0.1913  0.1288
 3489SOL    HW122100   1.661   0.397   0.404 -0.6520 -0.1418 -0.6700
 3489SOL    HW222101   1.755   0.513   0.451  0.0025 -0.4337 -1.3003
 3490SOL     OW22102   4.386   3.193   7.577  0.1068  0.2144  0.0698
 3490SOL    HW122103   4.408   3.101   7.588 -0.0167  0.0946 -0.6972
 3490SOL    HW222104   4.417   3.229   7.660  2.0882 -0.2741 -0.4729
 3491SOL     OW22105   0.836   4.614  17.553  0.1091  0.5846  0.1754
 3491SOL    HW122106   0.777   4.690  17.559  0.0664  0.5671 -0.0304
 3491SOL    HW222107   0.812   4.565  17.631 -0.1569 -0.2503 -0.4330
 3492SOL     OW22108   2.598   4.466  11.052 -0.3924 -0.1466  0.1944
 3492SOL    HW122109   2.612   4.469  10.957 -1.3744  2.0132  0.1202
 3492SOL    HW222110   2.532   4.535  11.054  1.3172  1.6267 -3.2864
 3493SOL     OW22111   1.139   4.072   4.300 -0.6333 -0.2645 -0.5119
 3493SOL    HW122112   1.082   3.997   4.319 -1.3821 -0.3936 -3.3119
 3493SOL    HW222113   1.218   4.032   4.338 -1.2811 -1.3136 -0.2730
 3494SOL     OW22114   2.078   4.452   8.178 -0.0616  0.0471  0.1329
 3494SOL    HW122115   2.027   4.371   8.179 -0.5856  0.4159  2.5990
 3494SOL    HW222116   2.122   4.445   8.092  0.4227 -0.2359  0.4008
 3495SOL     OW22117   3.160   1.551   9.925 -0.6652 -0.2107  0.0333
 3495SOL    HW122118   3.187   1.626   9.872  0.9032 -1.8246 -1.4182
 3495SOL    HW222119   3.070   1.538   9.893 -0.3954  0.0614 -0.8260
 3496SOL     OW22120   2.856   1.082   2.564 -0.2311  0.2138  0.2755
 3496SOL    HW122121   2.832   0.990   2.554 -2.0705  0.9093 -1.6594
 3496SOL    HW222122   2.940   1.082   2.519 -1.0389  1.3514 -1.2265
 3497SOL     OW22123   3.434   3.169  16.082  0.2455 -0.0415 -0.3753
 3497SOL    HW122124   3.415   3.075  16.091  0.8423 -0.0685  0.5873
 3497SOL    HW222125   3.346   3.203  16.098 -1.2605 -4.4189  0.6354
 3498SOL     OW22126   4.557   1.291  14.646  0.3505  0.0505 -0.7755
 3498SOL    HW122127   4.509   1.233  14.586  1.2004  0.8979 -2.2893
 3498SOL    HW222128   4.572   1.363  14.584 -0.2830  1.0308  0.2101
 3499SOL     OW22129   1.319   3.360  14.764 -0.1951 -0.2789  0.5871
 3499SOL    HW122130   1.380   3.432  14.748  0.6780 -0.7282  1.8109
 3499SOL    HW222131   1.239   3.403  14.735  0.8320  0.8487 -0.5557
 3500SOL     OW22132   0.197   0.143   8.360  0.7143 -0.2533  0.2154
 3500SOL    HW122133   0.216   0.179   8.446  0.9210 -1.1284  0.5350
 3500SOL    HW222134   0.270   0.086   8.339  2.6698  1.9996  0.9044
 3501SOL     OW22135   1.206   0.851  15.146 -0.3578 -0.4454 -0.1187
 3501SOL    HW122136   1.298   0.835  15.125  0.5410  0.9044  2.7407
 3501SOL    HW222137   1.180   0.767  15.182 -0.1544 -0.1684  0.6813
 3502SOL     OW22138   2.588   0.111   3.773 -0.0136  0.3170 -0.5679
 3502SOL    HW122139   2.568   0.043   3.708 -0.5713  1.4858 -1.6089
 3502SOL    HW222140   2.676   0.080   3.797 -0.9955 -0.3515  2.1645
 3503SOL     OW22141   2.455   2.325   8.022 -0.4614  0.1182  0.1892
 3503SOL    HW122142   2.431   2.401   8.075  0.8458 -1.0635  2.4668
 3503SOL    HW222143   2.469   2.352   7.931 -0.1797  3.2476  1.1781
 3504SOL     OW22144   1.118   1.711   2.900  0.3891  0.9022  0.4743
 3504SOL    HW122145   1.132   1.621   2.871  2.6412  1.1096  0.9263
 3504SOL    HW222146   1.153   1.760   2.825 -0.3468  1.4596  0.4921
 3505SOL     OW22147   1.707   0.332   5.692  0.1318 -0.0550 -0.2513
 3505SOL    HW122148   1.747   0.246   5.676 -0.2499 -0.8070  2.8420
 3505SOL    HW222149   1.626   0.327   5.743 -0.1227 -2.6956 -0.8837
 3506SOL     OW22150   0.588   1.585   5.721 -0.0659 -0.0394  0.2182
 3506SOL    HW122151   0.507   1.541   5.693 -0.4346  0.7188  0.1029
 3506SOL    HW222152   0.656   1.521   5.743  0.2812 -0.2629 -1.4743
 3507SOL     OW22153   4.372   4.009   5.927 -0.0535 -0.2899  0.3666
 3507SOL    HW122154   4.443   4.072   5.939 -1.1193  0.2433  3.7838
 3507SOL    HW222155   4.405   3.935   5.977 -0.5062  1.2789  2.9636
 3508SOL     OW22156   0.263   1.094   7.064  0.5492 -0.3879  0.5095
 3508SOL    HW122157   0.278   1.033   7.136  1.3805 -0.2104  0.4784
 3508SOL    HW222158   0.349   1.080   7.025 -0.5515 -2.3576 -1.2375
 3509SOL     OW22159   0.831   1.026   4.210 -0.0358  0.2467 -0.0800
 3509SOL    HW122160   0.912   0.985   4.180 -0.1902 -1.4636  1.8056
 3509SOL    HW222161   0.838   1.112   4.170  0.6151 -0.4218 -1.3828
 3510SOL     OW22162   3.156   1.163  15.146 -0.2280 -0.3270  0.5098
 3510SOL    HW122163   3.180   1.099  15.213 -0.0311 -0.9563 -0.1604
 3510SOL    HW222164   3.071   1.199  15.173 -0.1075  0.4538 -0.1659
 3511SOL     OW22165   0.092   0.115   3.432  0.2220  0.1842 -0.6399
 3511SOL    HW122166   0.128   0.171   3.363 -1.2841  0.7184 -0.9789
 3511SOL    HW222167   0.032   0.182   3.465 -0.9261 -0.6164 -1.0903
 3512SOL     OW22168   3.808   1.246  13.463 -0.0622  0.0851 -0.2220
 3512SOL    HW122169   3.751   1.277  13.392 -0.3826 -0.0712 -0.0328
 3512SOL    HW222170   3.839   1.328  13.501 -1.3652  0.8542 -0.8170
 3513SOL     OW22171   0.944   3.027   2.108  0.0815  0.2749  0.1251
 3513SOL    HW122172   1.024   3.074   2.130  0.4471  0.3371 -1.3562
 3513SOL    HW222173   0.967   2.939   2.138 -1.7974 -0.6924 -1.2561
 3514SOL     OW22174   3.634   4.380  13.088  0.4648 -0.1545 -0.1224
 3514SOL    HW122175   3.675   4.336  13.162 -0.2459  0.1921  0.4715
 3514SOL    HW222176   3.647   4.472  13.107 -0.8291 -0.0911  0.4332
 3515SOL     OW22177   0.809   4.302  11.502  0.1303 -0.1078  0.0646
 3515SOL    HW122178   0.866   4.300  11.579  1.0549 -2.4321 -0.6686
 3515SOL    HW222179   0.749   4.374  11.518 -1.1538 -0.5777 -2.6712
 3516SOL     OW22180   4.453   4.294   6.638 -0.1993  0.0109 -0.1065
 3516SOL    HW122181   4.426   4.203   6.628  0.7335 -0.3041  0.2416
 3516SOL    HW222182   4.381   4.348   6.607  0.3240  1.3446  1.0011
 3517SOL     OW22183   2.991   3.043   4.875 -0.2332 -0.1055  0.1630
 3517SOL    HW122184   3.063   3.096   4.841 -2.2293  1.9351 -0.8752
 3517SOL    HW222185   2.980   3.083   4.961  1.3021 -1.0198  0.7832
 3518SOL     OW22186   3.046   1.272   1.908 -0.2291  0.4879  0.2124
 3518SOL    HW122187   3.138   1.264   1.933 -0.0468 -0.4888 -0.7533
 3518SOL    HW222188   3.005   1.219   1.976 -0.7472  1.2333  0.4815
 3519SOL     OW22189   2.731   3.730   8.534  0.4514 -0.7491 -0.2276
 3519SOL    HW122190   2.688   3.667   8.477  0.4255  1.2748 -2.4311
 3519SOL    HW222191   2.673   3.732   8.610  0.6447  0.4479 -0.1162
 3520SOL     OW22192   0.859   2.023   3.548 -0.1519 -0.5355 -0.3959
 3520SOL    HW122193   0.949   2.035   3.518 -0.5149  1.1818 -0.7939
 3520SOL    HW222194   0.816   2.028   3.462 -0.2510  3.8909 -0.0702
 3521SOL     OW22195   3.103   1.709  14.251 -0.3162 -0.5306 -0.4341
 3521SOL    HW122196   3.133   1.757  14.174 -1.1707  1.0525  0.2024
 3521SOL    HW222197   3.064   1.635  14.206 -3.0320  1.0980 -0.7799
 3522SOL     OW22198   4.565   1.543  11.124  0.8351  0.1478 -0.8363
 3522SOL    HW122199   4.615   1.625  11.127  0.6412  0.2480 -0.1433
 3522SOL    HW222200   4.585   1.503  11.209 -2.9984  1.5543  0.7640
 3523SOL     OW22201   1.969   1.279   5.249 -0.1319  0.0533  0.0978
 3523SOL    HW122202   1.910   1.267   5.175 -0.2570  2.1908 -0.1618
 3523SOL    HW222203   2.053   1.280   5.205 -0.5473 -0.0463 -0.6987
 3524SOL     OW22204   1.009   2.643   6.841  0.2088 -0.3537  0.0346
 3524SOL    HW122205   0.936   2.704   6.845  0.5762  0.0995 -0.0727
 3524SOL    HW222206   0.978   2.581   6.906  0.2906  1.0348  1.4082
 3525SOL     OW22207   1.759   2.202   4.667  0.4780 -0.6103 -0.4078
 3525SOL    HW122208   1.712   2.121   4.689  4.0194 -2.5635 -0.0837
 3525SOL    HW222209   1.849   2.183   4.692  1.2467  1.4684 -1.6753
 3526SOL     OW22210   3.000   1.544  14.483  1.1317  0.1725  0.7697
 3526SOL    HW122211   3.051   1.589  14.415 -1.1586  1.0630 -0.3398
 3526SOL    HW222212   2.998   1.451  14.461  0.2260  0.0252  1.5072
 3527SOL     OW22213   3.221   1.848  16.692  0.1087 -0.2370 -0.2512
 3527SOL    HW122214   3.230   1.920  16.630  2.3695 -0.2490  0.0984
 3527SOL    HW222215   3.143   1.799  16.666 -0.4640  0.4582  0.1603
 3528SOL     OW22216   2.373   4.260  12.960  0.2256  0.3729  0.2295
 3528SOL    HW122217   2.284   4.226  12.950  0.8889 -0.3341 -3.2865
 3528SOL    HW222218   2.354   4.332  13.020 -0.3879 -0.8677  1.5219
 3529SOL     OW22219   3.420   0.338  10.342  0.0355 -0.5021  0.2212
 3529SOL    HW122220   3.380   0.253  10.322 -1.1550  0.6503 -2.2353
 3529SOL    HW222221   3.359   0.376  10.405  1.2828  0.0758  1.0972
 3530SOL     OW22222   2.186   1.241   7.151 -0.2567 -0.3910  0.3494
 3530SOL    HW122223   2.211   1.149   7.151  0.8347 -0.0798 -1.5852
 3530SOL    HW222224   2.234   1.262   7.071 -0.5038  2.8327  1.0352
 3531SOL     OW22225   4.690   1.648  16.098 -0.2269  0.3512 -0.0993
 3531SOL    HW122226   4.623   1.699  16.052 -0.1543 -0.2933 -0.9299
 3531SOL    HW222227   4.687   1.672  16.190  0.9643  1.0800 -0.2531
 3532SOL     OW22228   3.465   2.073   1.651  0.3754  0.1303 -0.2401
 3532SOL    HW122229   3.420   2.154   1.628 -0.1566  0.5132  2.1753
 3532SOL    HW222230   3.519   2.091   1.728 -0.1215  1.2254 -0.1479
 3533SOL     OW22231   0.720   4.224   3.869 -0.0882 -0.5452  0.1109
 3533SOL    HW122232   0.773   4.176   3.932  1.6869 -0.0908 -1.0170
 3533SOL    HW222233   0.655   4.255   3.932 -0.1189 -0.6449  0.1277
 3534SOL     OW22234   2.611   2.777   4.978 -0.1000 -0.7472  0.5443
 3534SOL    HW122235   2.661   2.709   5.024  1.2783  0.1820  0.4204
 3534SOL    HW222236   2.653   2.787   4.893  3.0080  1.3882  2.3242
 3535SOL     OW22237   0.185   4.322  17.099 -0.4215  0.1818 -0.2272
 3535SOL    HW122238   0.228   4.270  17.167  0.3388 -0.6552 -1.3523
 3535SOL    HW222239   0.135   4.387  17.149 -1.7448 -0.0302 -1.2641
 3536SOL     OW22240   1.194   3.226   7.498 -0.9402  0.0355 -0.5264
 3536SOL    HW122241   1.271   3.182   7.534 -0.4155  1.9552  0.7301
 3536SOL    HW222242   1.160   3.273   7.574 -3.4997 -1.8628 -0.5149
 3537SOL     OW22243   3.134   0.598   3.412  0.1619 -0.0946  0.4604
 3537SOL    HW122244   3.047   0.628   3.436  1.0289  2.1032  0.8707
 3537SOL    HW222245   3.177   0.589   3.497  0.6116 -1.0495  0.1369
 3538SOL     OW22246   4.558   1.480   6.928 -0.2066 -0.0393 -0.2787
 3538SOL    HW122247   4.538   1.569   6.896  0.9195 -0.1665 -1.3121
 3538SOL    HW222248   4.588   1.495   7.017  0.1599 -2.1552 -0.0543
 3539SOL     OW22249   3.714   0.760   4.959 -0.3217  0.3831 -0.2202
 3539SOL    HW122250   3.703   0.850   4.991 -0.6425 -0.0749  0.9596
 3539SOL    HW222251   3.678   0.769   4.871  2.1137 -0.0351 -1.2408
 3540SOL     OW22252   4.266   2.405   2.551  0.0420 -0.1912  0.2717
 3540SOL    HW122253   4.293   2.496   2.561 -1.4211  0.3559 -0.6880
 3540SOL    HW222254   4.172   2.406   2.569 -0.3328  3.5497 -1.7552
 3541SOL     OW22255   0.310   1.216  13.641 -0.2268  0.0345 -0.0952
 3541SOL    HW122256   0.309   1.165  13.722  1.7762  2.2012  1.2964
 3541SOL    HW222257   0.402   1.228  13.619 -0.2524 -0.0204 -0.2328
 3542SOL     OW22258   0.064   2.485  10.671 -0.4585  0.9650 -0.0042
 3542SOL    HW122259   4.730   2.552  10.670  0.7054  2.1461 -1.0065
 3542SOL    HW222260   0.140   2.539  10.688 -1.0800  1.8884 -0.1496
 3543SOL     OW22261   2.139   4.487   3.559 -0.0295 -0.4675  0.4386
 3543SOL    HW122262   2.162   4.562   3.504 -1.4177 -0.0724  0.3984
 3543SOL    HW222263   2.043   4.488   3.558  0.0089  0.7977 -1.0925
 3544SOL     OW22264   2.098   4.244   4.636 -0.3348 -0.1890 -0.5391
 3544SOL    HW122265   2.007   4.260   4.609 -0.4431  1.0103  0.5697
 3544SOL    HW222266   2.136   4.332   4.630 -0.5327  0.0960  2.3120
 3545SOL     OW22267   0.064   1.158   7.225 -0.0509 -0.1835 -0.3752
 3545SOL    HW122268   0.143   1.165   7.171  0.7675  0.3827  0.9074
 3545SOL    HW222269   4.733   1.143   7.157 -0.6330  0.3632  0.0722
 3546SOL     OW22270   0.010   3.802   6.121 -0.1305  0.5859  0.2948
 3546SOL    HW122271   4.733   3.813   6.216 -0.6653  0.3235  0.2538
 3546SOL    HW222272   0.102   3.822   6.104 -0.2097  0.3711 -0.3548
 3547SOL     OW22273   0.097   3.555   8.054 -0.4649 -0.7435 -0.0635
 3547SOL    HW122274   0.007   3.564   8.025 -0.8961  4.8483  3.1235
 3547SOL    HW222275   0.072   3.579   8.143 -0.0497  1.7155 -0.5971
 3548SOL     OW22276   4.462   2.643   5.170  0.2354  0.0196 -0.1399
 3548SOL    HW122277   4.496   2.554   5.159  1.3091  0.4882 -0.6603
 3548SOL    HW222278   4.456   2.652   5.075  1.2708 -1.8567 -0.3914
 3549SOL     OW22279   2.314   0.340   2.020 -0.3018  0.1384  0.2753
 3549SOL    HW122280   2.238   0.335   2.077 -0.7236 -0.7564 -0.3744
 3549SOL    HW222281   2.298   0.278   1.949  0.6425  0.9374 -0.6462
 3550SOL     OW22282   4.475   1.406   1.837  0.1068  0.1782  0.2689
 3550SOL    HW122283   4.479   1.435   1.928  0.0894 -1.1694  0.7059
 3550SOL    HW222284   4.495   1.312   1.841 -1.0627 -0.1318 -1.1928
 3551SOL     OW22285   1.178   3.442   1.880  0.5620 -0.8332 -0.0899
 3551SOL    HW122286   1.092   3.465   1.915  1.0880  0.5175  0.3356
 3551SOL    HW222287   1.148   3.406   1.797 -2.1050 -0.4302  0.6750
 3552SOL     OW22288   1.966   0.255   0.267  0.2640 -0.4377  0.4612
 3552SOL    HW122289   1.909   0.216   0.333 -1.9427  1.7848 -0.1656
 3552SOL    HW222290   1.895   0.297   0.220  0.5041 -0.7477 -0.1818
 3553SOL     OW22291   4.632   0.241   9.605  0.2729 -0.0708 -0.3026
 3553SOL    HW122292   4.569   0.279   9.544 -1.2503 -1.6629  0.2942
 3553SOL    HW222293   4.665   0.171   9.548  0.7378 -0.0776 -0.0228
 3554SOL     OW22294   3.068   0.908   7.697  0.7689 -0.0758 -0.1358
 3554SOL    HW122295   2.985   0.946   7.667 -0.1815 -1.3846  0.8248
 3554SOL    HW222296   3.029   0.829   7.733 -0.9300  0.8840  0.1494
 3555SOL     OW22297   0.449   2.641  15.929 -0.6407  0.2491  0.1873
 3555SOL    HW122298   0.521   2.621  15.988  0.5296  0.8093 -1.0564
 3555SOL    HW222299   0.380   2.636  15.995 -0.9497  0.1969 -0.1403
 3556SOL     OW22300   3.800   0.621  14.965  0.5831 -0.0891  0.6273
 3556SOL    HW122301   3.808   0.643  15.058 -0.6995  0.7305  0.5436
 3556SOL    HW222302   3.865   0.685  14.936  0.8782 -0.8017 -0.2798
 3557SOL     OW22303   2.607   3.951   9.307  0.0639 -0.4372 -0.0071
 3557SOL    HW122304   2.629   3.866   9.270 -0.4013 -1.2196  1.5614
 3557SOL    HW222305   2.519   3.973   9.275 -0.1170 -1.6266 -0.3222
 3558SOL     OW22306   2.705   2.421   6.301 -0.0770  0.2923  0.0706
 3558SOL    HW122307   2.689   2.335   6.339 -2.7212  0.5299 -0.5429
 3558SOL    HW222308   2.678   2.401   6.212  1.6151 -0.9218 -0.1702
 3559SOL     OW22309   1.734   0.409   2.364 -0.0824 -0.1147  0.5668
 3559SOL    HW122310   1.664   0.472   2.379 -0.8153 -0.8200  0.1524
 3559SOL    HW222311   1.733   0.389   2.270 -0.4567  2.5774  0.0177
 3560SOL     OW22312   0.782   3.236  15.877  0.3592  0.0255  0.8162
 3560SOL    HW122313   0.850   3.207  15.937 -0.1215  0.9080  1.7928
 3560SOL    HW222314   0.712   3.266  15.936 -0.4168 -2.9955  1.4295
 3561SOL     OW22315   3.755   4.322  11.633 -0.4877  0.0646  0.0629
 3561SOL    HW122316   3.819   4.361  11.574 -0.7343 -0.4229 -0.5349
 3561SOL    HW222317   3.715   4.398  11.675 -0.4852 -0.0580  0.2864
 3562SOL     OW22318   0.458   0.907  13.646  0.0188  0.4229 -0.3714
 3562SOL    HW122319   0.515   0.959  13.590 -0.4532  0.0569 -1.1995
 3562SOL    HW222320   0.394   0.891  13.576 -0.8399 -3.0767  1.2635
 3563SOL     OW22321   4.682   4.565   6.440  0.8465 -0.0752 -0.3971
 3563SOL    HW122322   4.651   4.572   6.530 -0.4900  1.9633 -1.0377
 3563SOL    HW222323   4.633   4.490   6.407  0.1702 -0.4732  1.5192
 3564SOL     OW22324   3.076   1.502   4.675 -0.3001 -0.3332  0.1255
 3564SOL    HW122325   3.044   1.510   4.764 -1.1198  0.1869 -0.2100
 3564SOL    HW222326   3.148   1.440   4.682 -0.6210 -0.6572  0.5244
 3565SOL     OW22327   3.685   2.830  13.045 -0.4841 -0.2292  0.6010
 3565SOL    HW122328   3.632   2.908  13.025 -1.2922 -0.2642  2.6368
 3565SOL    HW222329   3.770   2.869  13.025  0.4853 -1.9983  1.3635
 3566SOL     OW22330   2.640   2.898   3.932  0.1108 -0.1589  0.0179
 3566SOL    HW122331   2.609   2.882   3.843 -0.4776  0.7719  0.0429
 3566SOL    HW222332   2.556   2.885   3.976  0.5303  1.4173  1.2870
 3567SOL     OW22333   0.249   0.791   1.129  0.3857  0.1379 -0.3814
 3567SOL    HW122334   0.280   0.708   1.094  1.3353 -0.5907  2.1715
 3567SOL    HW222335   0.193   0.812   1.054  0.2457  0.7304 -0.1117
 3568SOL     OW22336   3.444   0.756   5.566 -0.7166 -0.5178  0.5231
 3568SOL    HW122337   3.459   0.681   5.509 -0.6903 -1.0266  1.1892
 3568SOL    HW222338   3.377   0.804   5.518 -0.4869  0.8921  1.5995
 3569SOL     OW22339   3.459   4.439  17.600  0.6680  0.1780  0.8862
 3569SOL    HW122340   3.527   4.436  17.667  2.3571 -3.3986 -1.0059
 3569SOL    HW222341   3.399   4.376  17.640  1.0998 -1.2291 -0.6739
 3570SOL     OW22342   4.708   4.021  12.749 -0.0275 -0.5336 -0.4707
 3570SOL    HW122343   4.658   3.978  12.679 -0.3972  1.6522 -1.5828
 3570SOL    HW222344   0.047   4.058  12.700  0.2099 -1.9923 -1.2260
 3571SOL     OW22345   1.607   3.256  16.715 -0.4687 -0.1510 -0.4365
 3571SOL    HW122346   1.569   3.310  16.646 -2.0181  0.9931  1.2845
 3571SOL    HW222347   1.627   3.329  16.775  0.0355  0.9998 -2.0127
 3572SOL     OW22348   2.703   3.111  15.966  0.5964  0.0969 -0.0417
 3572SOL    HW122349   2.617   3.074  15.945  0.9310 -0.8004  0.1946
 3572SOL    HW222350   2.684   3.187  16.021  1.5332  0.7461 -0.6082
 3573SOL     OW22351   0.773   1.313  15.371 -0.3939  0.0770  0.5463
 3573SOL    HW122352   0.687   1.282  15.343 -0.0368 -0.7042  0.2908
 3573SOL    HW222353   0.818   1.228  15.367  2.1442  1.4395  0.4397
 3574SOL     OW22354   2.717   1.704   3.484 -0.0584 -0.1763 -0.5293
 3574SOL    HW122355   2.722   1.625   3.429  0.5530  0.3268 -1.1965
 3574SOL    HW222356   2.663   1.758   3.427 -1.7817  1.2587  2.4852
 3575SOL     OW22357   4.117   4.574  13.852 -0.1510  0.3172  0.4339
 3575SOL    HW122358   4.147   4.654  13.896 -0.0063 -0.0390  0.9782
 3575SOL    HW222359   4.187   4.509  13.857 -1.5438 -1.3567 -1.8094
 3576SOL     OW22360   4.566   3.403   8.757  0.0035 -0.1408  0.0502
 3576SOL    HW122361   4.498   3.335   8.759 -1.4886  1.3775  0.0557
 3576SOL    HW222362   4.549   3.452   8.837  1.5002  1.5919 -0.7022
 3577SOL     OW22363   1.493   1.084   7.930  0.2560 -0.5745  0.1605
 3577SOL    HW122364   1.546   1.091   8.009  1.9418 -0.3658 -1.0073
 3577SOL    HW222365   1.405   1.071   7.967 -0.2117 -2.2641 -1.5211
 3578SOL     OW22366   4.244   2.064  15.623  0.2925 -0.5811 -0.1605
 3578SOL    HW122367   4.295   2.133  15.579 -0.1406  1.1533  2.0787
 3578SOL    HW222368   4.313   1.998  15.615  0.8600  0.1275 -1.1221
 3579SOL     OW22369   2.718   4.553   1.893  0.1610  0.1145 -0.0019
 3579SOL    HW122370   2.686   4.505   1.817 -0.1943  0.2527  0.0611
 3579SOL    HW222371   2.704   4.493   1.967  0.2885 -2.2120 -1.8757
 3580SOL     OW22372   0.077   3.322   8.599 -0.1699  0.5806 -0.2747
 3580SOL    HW122373   0.152   3.365   8.640 -0.8566  1.6633 -0.1465
 3580SOL    HW222374   4.734   3.345   8.650 -1.0623 -1.3589 -0.7404
 3581SOL     OW22375   1.022   1.909   4.337 -0.8575  0.0030 -0.3095
 3581SOL    HW122376   1.048   1.903   4.429  1.4981  0.9946 -0.8959
 3581SOL    HW222377   0.994   2.000   4.335  2.6230  1.0992  0.1685
 3582SOL     OW22378   4.266   3.753   4.249 -0.1343  0.0822 -0.0468
 3582SOL    HW122379   4.187   3.807   4.246 -0.1495  0.0645  0.0375
 3582SOL    HW222380   4.284   3.744   4.343  0.6424  3.3560  0.0891
 3583SOL     OW22381   2.106   4.029   2.397  0.1927  0.1895  0.3054
 3583SOL    HW122382   2.038   3.983   2.348  1.0028  0.6462 -1.2641
 3583SOL    HW222383   2.052   4.074   2.461 -2.4083 -0.7091 -1.2691
 3584SOL     OW22384   4.456   0.908  14.776 -0.1900 -0.2193  0.2636
 3584SOL    HW122385   4.452   0.993  14.821 -0.4460 -0.0175 -0.1400
 3584SOL    HW222386   4.514   0.925  14.701 -0.7256  0.5044  0.0168
 3585SOL     OW22387   1.420   3.408  17.047  0.2282 -0.5119 -0.0991
 3585SOL    HW122388   1.425   3.488  17.099 -4.1044 -0.3232  0.0849
 3585SOL    HW222389   1.333   3.420  17.007  0.0694  1.2169  0.7448
 3586SOL     OW22390   0.563   4.093  17.703 -0.3516 -0.4926  0.5352
 3586SOL    HW122391   0.578   4.037  17.628 -0.7830 -0.2805  0.2892
 3586SOL    HW222392   0.652   4.101  17.737 -0.6871  0.1445  1.2743
 3587SOL     OW22393   2.838   0.281   7.287  0.0568  0.4511 -0.1550
 3587SOL    HW122394   2.930   0.260   7.301 -0.0061  0.4564  0.2529
 3587SOL    HW222395   2.802   0.257   7.372 -0.5000 -1.3204 -0.8971
 3588SOL     OW22396   3.185   3.983   7.592  0.6431  0.5765  0.4851
 3588SOL    HW122397   3.154   3.892   7.592 -1.4243  1.3043 -2.7734
 3588SOL    HW222398   3.197   3.998   7.498 -2.1471  0.3569  0.0941
 3589SOL     OW22399   1.307   4.643   7.461  0.2667 -0.2722  0.1084
 3589SOL    HW122400   1.254   4.567   7.436  0.5295 -0.9054  1.4936
 3589SOL    HW222401   1.234   4.704   7.461  1.0275  0.6441 -3.0233
 3590SOL     OW22402   3.066   1.849   3.039  0.8760  0.5932  0.0103
 3590SOL    HW122403   3.071   1.925   2.982  0.3843 -0.5729 -1.6019
 3590SOL    HW222404   3.125   1.870   3.111  0.8929  0.9916 -0.1231
 3591SOL     OW22405   0.526   3.497   2.146 -0.1867  0.8229  0.4275
 3591SOL    HW122406   0.511   3.406   2.118 -2.7927  1.5701 -0.6023
 3591SOL    HW222407   0.555   3.525   2.059 -1.2077 -0.0379 -0.1983
 3592SOL     OW22408   0.678   0.258   7.420 -0.1070 -0.1019 -0.1944
 3592SOL    HW122409   0.662   0.342   7.462 -1.0030  0.1713 -1.0757
 3592SOL    HW222410   0.593   0.244   7.376  0.2735 -0.2083 -0.9004
 3593SOL     OW22411   1.202   2.628  17.061  0.4801  0.4541  0.1870
 3593SOL    HW122412   1.270   2.623  16.994  3.4278  0.0141  3.2097
 3593SOL    HW222413   1.132   2.575  17.023  1.2481  0.3763 -1.0842
 3594SOL     OW22414   0.874   1.528  14.376 -0.1383  0.3068  0.7366
 3594SOL    HW122415   0.781   1.527  14.399 -0.3565 -0.0898 -0.1789
 3594SOL    HW222416   0.876   1.438  14.342  1.0134  0.3239  0.7629
 3595SOL     OW22417   2.161   1.333   4.937  0.0377 -0.3891  0.1602
 3595SOL    HW122418   2.104   1.410   4.939 -1.0350 -1.1915  0.2246
 3595SOL    HW222419   2.244   1.373   4.910  0.5121 -0.6597  1.1937
 3596SOL     OW22420   1.803   0.540  11.459  0.1390 -0.4179  0.9245
 3596SOL    HW122421   1.749   0.502  11.528  2.0575 -0.3074  2.4751
 3596SOL    HW222422   1.737   0.577  11.400  0.7826 -1.2736 -0.3264
 3597SOL     OW22423   2.300   3.036   7.661 -0.6755 -0.6726  0.0515
 3597SOL    HW122424   2.301   3.036   7.757  0.9886  0.2454  0.0399
 3597SOL    HW222425   2.310   3.130   7.654  0.8214 -0.9018 -0.8582
 3598SOL     OW22426   1.934   3.100  15.748  0.1269 -0.3842 -0.3582
 3598SOL    HW122427   1.919   3.194  15.753  2.5507 -0.0747  0.8807
 3598SOL    HW222428   1.999   3.087  15.679 -2.3381  0.2787 -2.7822
 3599SOL     OW22429   0.531   3.280  16.044  0.3207 -0.5958 -0.4571
 3599SOL    HW122430   0.444   3.244  16.060 -1.2713  3.6420  0.5001
 3599SOL    HW222431   0.581   3.222  16.100 -1.6920 -0.7619  1.1605
 3600SOL     OW22432   3.903   2.280   9.365 -0.2450  0.4169  0.2922
 3600SOL    HW122433   3.976   2.238   9.410 -1.1227 -0.3235  1.0391
 3600SOL    HW222434   3.937   2.330   9.292  1.3493  0.5831  1.1414
 3601SOL     OW22435   2.926   3.707   5.181  0.0399  0.2140 -0.2963
 3601SOL    HW122436   2.900   3.782   5.127  1.4207 -0.2051 -1.5497
 3601SOL    HW222437   2.942   3.752   5.264  0.3625  1.2907 -0.9377
 3602SOL     OW22438   1.681   0.559   9.499 -0.1922  0.3511  0.8023
 3602SOL    HW122439   1.603   0.596   9.458  0.2462 -0.4521 -0.7512
 3602SOL    HW222440   1.738   0.540   9.424 -1.3045 -2.2204  0.6204
 3603SOL     OW22441   3.370   2.566   4.890  0.5795 -0.1640  0.0581
 3603SOL    HW122442   3.446   2.561   4.949  0.7984 -0.3503 -0.2366
 3603SOL    HW222443   3.340   2.655   4.907 -0.6371 -0.4264 -0.7599
 3604SOL     OW22444   0.624   2.941   7.748 -0.2365  0.9295  0.1234
 3604SOL    HW122445   0.688   3.010   7.731  1.0539 -0.2269  0.2832
 3604SOL    HW222446   0.676   2.890   7.810 -1.0647  0.0133  0.0719
 3605SOL     OW22447   0.895   0.896  14.635 -0.7594  0.2331  0.5714
 3605SOL    HW122448   0.889   0.922  14.727  0.1940  0.0712  0.6748
 3605SOL    HW222449   0.985   0.923  14.617 -0.1071 -2.2460  0.1511
 3606SOL     OW22450   0.221   4.704   9.459  0.1193  0.1261 -0.1341
 3606SOL    HW122451   0.300   4.670   9.500  0.4959  1.9342  0.6625
 3606SOL    HW222452   0.253   0.057   9.439  1.3977 -0.3252 -0.0741
 3607SOL     OW22453   2.555   2.817  13.501  0.0327  0.3309  0.3254
 3607SOL    HW122454   2.629   2.769  13.463 -0.3626 -0.0651  0.0633
 3607SOL    HW222455   2.589   2.841  13.588  1.5896 -0.7986  0.0233
 3608SOL     OW22456   0.092   0.630   6.191 -0.1782  0.2142  0.2275
 3608SOL    HW122457   0.067   0.609   6.281 -2.1010  2.1052  0.1500
 3608SOL    HW222458   0.187   0.625   6.199 -0.1585  0.9211  0.4478
 3609SOL     OW22459   3.942   1.459   9.030 -0.9525 -0.4261  0.0596
 3609SOL    HW122460   4.005   1.524   9.061 -1.3702  0.9002 -1.8526
 3609SOL    HW222461   3.862   1.509   9.044 -0.5236  0.5517 -0.9615
 3610SOL     OW22462   4.309   1.762   8.555  0.3509 -0.0053  0.2851
 3610SOL    HW122463   4.330   1.673   8.582 -1.3929 -0.4382  0.1751
 3610SOL    HW222464   4.292   1.748   8.462 -1.2398  1.0551  0.4125
 3611SOL     OW22465   3.194   0.612   5.407  0.7155  0.0526 -0.1028
 3611SOL    HW122466   3.115   0.642   5.452  0.1349 -1.2739 -0.2122
 3611SOL    HW222467   3.207   0.529   5.453 -2.3457 -1.5013 -1.9600
 3612SOL     OW22468   4.708   2.989   8.199  0.0071 -0.2264 -0.6873
 3612SOL    HW122469   4.672   3.077   8.207 -0.5068 -0.4744 -0.2797
 3612SOL    HW222470   0.001   2.984   8.107 -1.3886  1.1625 -1.1877
 3613SOL     OW22471   0.498   1.868   5.768 -0.1551  0.3614 -0.0007
 3613SOL    HW122472   0.583   1.891   5.731 -0.7546 -0.5073 -1.9279
 3613SOL    HW222473   0.507   1.773   5.780 -1.0938  0.2830  0.0356
 3614SOL     OW22474   0.322   0.125   0.512  0.2594 -0.1674 -0.3616
 3614SOL    HW122475   0.399   0.082   0.551  0.2232 -1.7235 -2.0162
 3614SOL    HW222476   0.337   0.124   0.417 -0.0396 -2.8031 -0.3954
 3615SOL     OW22477   1.396   3.497   3.186 -0.0222  0.1316 -0.5822
 3615SOL    HW122478   1.443   3.491   3.103 -0.3096  1.2987 -0.8275
 3615SOL    HW222479   1.414   3.413   3.228 -2.0605 -1.0173 -2.0374
 3616SOL     OW22480   3.993   3.346   4.181 -0.6963  0.1334  0.3214
 3616SOL    HW122481   4.087   3.329   4.184 -0.7693 -0.4025 -0.3795
 3616SOL    HW222482   3.981   3.343   4.086 -1.4852 -1.4048  0.4646
 3617SOL     OW22483   1.067   3.383  10.377 -0.0208  0.4185 -0.2449
 3617SOL    HW122484   1.113   3.329  10.441  0.6291  0.4161 -0.7066
 3617SOL    HW222485   0.977   3.392  10.409  0.3308  1.7241  0.3997
 3618SOL     OW22486   0.827   4.353  16.052 -0.1029  0.4570 -0.1645
 3618SOL    HW122487   0.907   4.308  16.079 -0.3648 -0.4577 -0.9402
 3618SOL    HW222488   0.842   4.442  16.086 -0.0507  0.4882 -0.2697
 3619SOL     OW22489   0.988   0.474   5.455  0.1080 -0.0326  1.0686
 3619SOL    HW122490   0.998   0.440   5.366 -1.3671  0.4378  0.7123
 3619SOL    HW222491   1.077   0.471   5.490  0.4703 -1.9707 -0.0299
 3620SOL     OW22492   1.175   1.739   6.570  0.4021  0.3365  0.4732
 3620SOL    HW122493   1.202   1.672   6.633 -1.9801  0.2979  1.4402
 3620SOL    HW222494   1.257   1.753   6.523  1.2118 -2.9225  0.9052
 3621SOL     OW22495   0.255   1.500   8.949 -0.9748 -0.4069  0.5008
 3621SOL    HW122496   0.296   1.487   9.034  0.7913  1.3406 -0.0875
 3621SOL    HW222497   0.232   1.592   8.955 -0.8670 -0.4848  2.1035
 3622SOL     OW22498   1.883   2.846   1.684 -0.0437  0.2124 -0.2383
 3622SOL    HW122499   1.852   2.772   1.631  0.7754 -0.6838  0.5299
 3622SOL    HW222500   1.826   2.920   1.665 -0.3613  0.4150  1.5006
 3623SOL     OW22501   3.719   0.237   8.566 -0.3121 -0.4305 -0.0642
 3623SOL    HW122502   3.653   0.195   8.620  1.6011 -0.7198  2.0504
 3623SOL    HW222503   3.775   0.164   8.541  0.4555 -0.1885  0.9340
 3624SOL     OW22504   2.268   2.035  13.051 -0.1402 -0.3506  0.2815
 3624SOL    HW122505   2.248   1.954  13.005  0.9617 -1.5477  1.9210
 3624SOL    HW222506   2.359   2.047  13.022 -0.3057  0.1261 -0.0366
 3625SOL     OW22507   2.149   1.530  12.599  0.2700 -0.5723 -0.2401
 3625SOL    HW122508   2.102   1.446  12.591  0.2827 -0.5811 -0.2237
 3625SOL    HW222509   2.105   1.554  12.681  0.1585  1.3916 -0.8817
 3626SOL     OW22510   2.727   0.419  16.069 -0.5789 -0.0866  0.0291
 3626SOL    HW122511   2.661   0.488  16.072 -1.2242 -0.7270  0.5912
 3626SOL    HW222512   2.671   0.348  16.039 -2.0025  0.8112  0.5709
 3627SOL     OW22513   2.598   4.172   4.894  0.2195  0.4380 -0.1024
 3627SOL    HW122514   2.545   4.202   4.820 -0.5855  0.8721  0.6610
 3627SOL    HW222515   2.623   4.085   4.864  1.5866  0.3336  1.3749
 3628SOL     OW22516   0.424   1.472   2.952 -0.3086 -0.2242 -0.2006
 3628SOL    HW122517   0.352   1.462   2.889  1.2335 -1.9455 -1.6519
 3628SOL    HW222518   0.375   1.537   3.002  0.1423  1.2032 -1.6102
 3629SOL     OW22519   4.427   0.565   3.758 -0.0629 -0.2250 -0.1566
 3629SOL    HW122520   4.489   0.622   3.712  0.7530  0.4154  1.7563
 3629SOL    HW222521   4.356   0.628   3.773  0.1004 -0.2661  0.7538
 3630SOL     OW22522   3.703   4.382   8.331 -0.2480  0.1890  0.1261
 3630SOL    HW122523   3.712   4.296   8.372  1.5079  0.5798  0.5367
 3630SOL    HW222524   3.619   4.414   8.362 -0.4465  1.0858 -1.3020
 3631SOL     OW22525   3.027   3.950   2.926 -0.1674 -0.0057 -0.2850
 3631SOL    HW122526   3.004   4.041   2.910  0.5048  0.3927  1.0796
 3631SOL    HW222527   3.113   3.963   2.964 -0.6504  2.7755 -0.1765
 3632SOL     OW22528   1.724   2.296   0.148  0.3410 -0.2881 -0.1082
 3632SOL    HW122529   1.767   2.212   0.132 -1.2282 -1.0103 -0.5024
 3632SOL    HW222530   1.651   2.285   0.088  1.0400 -0.3687 -0.9391
 3633SOL     OW22531   2.919   0.491  15.332 -0.2912  0.6032 -0.5777
 3633SOL    HW122532   2.931   0.422  15.266  1.1058 -0.1483  0.4530
 3633SOL    HW222533   2.923   0.439  15.412  1.0848 -1.2896 -1.8629
 3634SOL     OW22534   1.290   3.824  15.579 -0.3114  0.6270  0.5156
 3634SOL    HW122535   1.211   3.868  15.549  0.7329  3.7819  2.4736
 3634SOL    HW222536   1.360   3.889  15.572  0.9814 -0.7513  0.3738
 3635SOL     OW22537   4.446   3.729   3.553 -0.3265 -0.3473  0.7569
 3635SOL    HW122538   4.484   3.694   3.472 -1.8281  0.1837 -0.1816
 3635SOL    HW222539   4.525   3.753   3.602 -0.0624 -0.4126  0.3682
 3636SOL     OW22540   3.616   0.942   5.352 -0.0294  0.3215 -0.1957
 3636SOL    HW122541   3.639   0.861   5.398  1.9781  0.3818 -1.0652
 3636SOL    HW222542   3.522   0.954   5.362 -0.4032 -1.3629 -1.8897
 3637SOL     OW22543   1.189   4.410   1.368  0.1499  0.3035 -0.0043
 3637SOL    HW122544   1.122   4.470   1.335 -1.5341 -1.0470  0.9181
 3637SOL    HW222545   1.144   4.328   1.349  0.1975 -0.1963  1.9590
 3638SOL     OW22546   0.943   3.532   7.083 -0.1657  0.3038  0.1163
 3638SOL    HW122547   0.949   3.459   7.021  4.5841  2.2125 -1.7262
 3638SOL    HW222548   0.940   3.483   7.165 -1.0600 -0.6387 -0.4810
 3639SOL     OW22549   3.643   3.211   4.519 -0.2756  0.2829 -0.7046
 3639SOL    HW122550   3.662   3.302   4.500 -0.0142 -0.1913 -2.7519
 3639SOL    HW222551   3.713   3.176   4.463  0.6747  0.2547  0.5177
 3640SOL     OW22552   2.195   1.385   6.333  0.4186 -0.2948  0.1305
 3640SOL    HW122553   2.114   1.382   6.383 -0.1724  0.9210 -0.7532
 3640SOL    HW222554   2.218   1.292   6.327  0.8883 -0.1018 -1.1271
 3641SOL     OW22555   2.715   1.194  17.504  0.0158  0.5105  0.3045
 3641SOL    HW122556   2.634   1.188  17.453  0.0809 -1.0897  0.4025
 3641SOL    HW222557   2.755   1.108  17.490 -1.1172 -0.6496  4.2139
 3642SOL     OW22558   4.290   2.005   2.648  0.1301 -0.3230 -0.2230
 3642SOL    HW122559   4.240   2.014   2.566 -0.5829  1.2659  0.3857
 3642SOL    HW222560   4.375   1.985   2.610 -0.2164  0.1435 -1.2481
 3643SOL     OW22561   4.629   2.213   5.437  0.2825  0.1251 -0.1192
 3643SOL    HW122562   4.589   2.202   5.523 -1.6488 -0.7539 -1.1126
 3643SOL    HW222563   4.717   2.180   5.452  0.2403  0.1877  0.2614
 3644SOL     OW22564   3.730   1.626   0.259 -0.2632 -0.5932 -0.3124
 3644SOL    HW122565   3.681   1.579   0.327 -0.3038  1.6784  1.2163
 3644SOL    HW222566   3.685   1.603   0.178 -0.4546 -0.1434 -0.3299
 3645SOL     OW22567   2.866   4.466   3.702 -0.2178 -0.0687 -0.4529
 3645SOL    HW122568   2.895   4.533   3.765  1.5649 -2.6952  1.4961
 3645SOL    HW222569   2.830   4.526   3.637  0.6106  2.2141  1.1731
 3646SOL     OW22570   3.869   4.673   2.401 -0.2709 -0.1603  0.6584
 3646SOL    HW122571   3.874   4.584   2.367  0.8846  0.2723 -0.2981
 3646SOL    HW222572   3.802   4.658   2.467 -2.2912  0.1485 -1.3326
 3647SOL     OW22573   1.058   1.712   0.106  0.0521 -0.4624 -0.0285
 3647SOL    HW122574   1.130   1.761   0.066 -0.1106 -0.8546 -0.8045
 3647SOL    HW222575   1.003   1.778   0.148 -0.9747 -1.4144  0.1193
 3648SOL     OW22576   2.470   0.578   1.822 -0.1829 -0.0180  0.9077
 3648SOL    HW122577   2.398   0.640   1.828  0.2112  0.2756  2.8028
 3648SOL    HW222578   2.459   0.531   1.904  1.3306  0.7372  1.5574
 3649SOL     OW22579   4.243   2.841   8.118  0.6704  0.0906  0.0671
 3649SOL    HW122580   4.206   2.905   8.179  0.2664  0.4179 -0.5213
 3649SOL    HW222581   4.251   2.770   8.181 -2.0800  0.0732  0.3657
 3650SOL     OW22582   1.669   2.406   3.496  0.2300 -0.4701 -0.2849
 3650SOL    HW122583   1.667   2.390   3.590  1.0524 -0.7812 -0.3234
 3650SOL    HW222584   1.672   2.315   3.465 -1.0294 -0.2570 -1.0460
 3651SOL     OW22585   4.163   0.485   1.829  0.2972  0.6170 -0.1695
 3651SOL    HW122586   4.196   0.546   1.895  2.1946 -0.7101  0.1108
 3651SOL    HW222587   4.245   0.436   1.818  0.0114 -0.1821  1.2391
 3652SOL     OW22588   2.684   2.760   1.596 -0.0705 -0.4386  0.7395
 3652SOL    HW122589   2.771   2.721   1.597 -0.8937 -2.3110 -0.9428
 3652SOL    HW222590   2.672   2.785   1.687 -0.0881  0.7560  0.4130
 3653SOL     OW22591   3.990   1.612   2.801  0.1305 -0.0685  0.4910
 3653SOL    HW122592   3.935   1.564   2.738  1.2270  0.5953 -0.9526
 3653SOL    HW222593   4.066   1.624   2.744  0.8937 -0.4665  1.4420
 3654SOL     OW22594   4.441   3.510   7.568 -0.7911 -0.2370 -0.0767
 3654SOL    HW122595   4.424   3.452   7.642 -0.8970  0.1125  0.1741
 3654SOL    HW222596   4.445   3.594   7.615 -1.2140  1.7656 -3.6565
 3655SOL     OW22597   0.314   3.765   9.123  0.0164  0.1561  0.1860
 3655SOL    HW122598   0.356   3.796   9.044 -0.7888  0.0925 -0.2683
 3655SOL    HW222599   0.381   3.700   9.145  0.5782  0.7018  0.0618
 3656SOL     OW22600   3.748   2.282   6.066 -0.9037 -0.0036 -0.2455
 3656SOL    HW122601   3.746   2.361   6.012 -1.5022 -0.1897 -0.4962
 3656SOL    HW222602   3.843   2.279   6.076 -0.8017 -0.4803 -1.3792
 3657SOL     OW22603   3.911   2.568   6.094 -0.6486  0.0113  0.0423
 3657SOL    HW122604   3.947   2.589   6.007  0.4167 -3.4758 -0.3359
 3657SOL    HW222605   3.816   2.562   6.080 -0.6031 -1.2562  0.3250
 3658SOL     OW22606   1.702   3.436   9.146  0.3288  0.3558 -0.4335
 3658SOL    HW122607   1.631   3.453   9.083 -0.9700 -0.3054  0.8559
 3658SOL    HW222608   1.719   3.344   9.127  1.0372  0.5877 -0.9387
 3659SOL     OW22609   1.889   4.345   1.836  0.3331  0.5252 -0.2570
 3659SOL    HW122610   1.972   4.305   1.809 -0.2513 -0.5985 -0.3821
 3659SOL    HW222611   1.830   4.324   1.764 -0.2804  0.4580  0.2686
 3660SOL     OW22612   2.797   3.973   6.572  0.3032 -0.3787  0.0750
 3660SOL    HW122613   2.845   4.056   6.569 -1.1841  0.4637 -0.4654
 3660SOL    HW222614   2.850   3.919   6.630  2.7404  1.2970 -0.6306
 3661SOL     OW22615   2.686   4.237  11.817 -0.2517  0.1877  0.1777
 3661SOL    HW122616   2.745   4.306  11.847  0.8863 -0.6848 -0.1035
 3661SOL    HW222617   2.730   4.161  11.854 -1.3275 -1.0371 -1.0424
 3662SOL     OW22618   1.139   2.703   2.525 -0.4451 -0.1989  0.1153
 3662SOL    HW122619   1.051   2.729   2.499 -0.3646 -0.5828 -0.5396
 3662SOL    HW222620   1.180   2.788   2.510  0.4750 -0.4818  1.0142
 3663SOL     OW22621   3.344   0.550   3.007  0.1003 -0.3627  0.1828
 3663SOL    HW122622   3.346   0.574   2.915  0.1143  0.1266  0.3123
 3663SOL    HW222623   3.294   0.623   3.043 -0.3052 -1.1637  1.2715
 3664SOL     OW22624   2.947   1.266   7.037  1.2584 -0.3936 -0.3626
 3664SOL    HW122625   2.885   1.244   6.968 -1.6110 -1.1527  2.4430
 3664SOL    HW222626   3.023   1.284   6.982  1.9784  1.7626  1.3503
 3665SOL     OW22627   0.391   3.830  12.440  0.3454 -0.0873 -0.2614
 3665SOL    HW122628   0.455   3.897  12.419 -0.4979  0.5078 -0.9302
 3665SOL    HW222629   0.436   3.754  12.404  1.6395  0.8537 -0.6144
 3666SOL     OW22630   4.529   2.496   1.848 -0.7949 -0.1491  0.2739
 3666SOL    HW122631   4.501   2.408   1.821  1.2668 -0.7766  0.1955
 3666SOL    HW222632   4.523   2.484   1.943 -3.2591  1.2669  0.3102
 3667SOL     OW22633   3.452   4.221   9.442  0.3256 -0.1806  0.2185
 3667SOL    HW122634   3.442   4.135   9.402  0.3902 -0.0146 -0.1553
 3667SOL    HW222635   3.498   4.269   9.373 -0.4726 -0.4774 -0.5131
 3668SOL     OW22636   2.199   2.520   7.925 -0.3961  0.0177 -0.5211
 3668SOL    HW122637   2.235   2.487   8.007  3.1639  1.2180 -1.6095
 3668SOL    HW222638   2.114   2.545   7.960  0.8266  1.9628  1.0254
 3669SOL     OW22639   3.868   0.936  16.305 -0.0906  0.3624 -0.4679
 3669SOL    HW122640   3.842   0.901  16.220  2.0102 -1.7832 -0.2325
 3669SOL    HW222641   3.801   0.900  16.364  1.5618  0.6884  1.6144
 3670SOL     OW22642   2.064   1.482  10.033 -0.3849 -0.5479 -0.3598
 3670SOL    HW122643   2.110   1.496   9.950  0.4816 -0.6649  0.0995
 3670SOL    HW222644   1.980   1.448  10.002 -0.3098 -0.6716 -0.4265
 3671SOL     OW22645   3.187   4.536   9.196 -0.0109  0.8641 -0.7357
 3671SOL    HW122646   3.158   4.615   9.151  1.8460  1.5260 -0.7443
 3671SOL    HW222647   3.282   4.537   9.192  0.0134  1.2203 -0.0509
 3672SOL     OW22648   2.700   2.173   4.152  0.1368  0.0421 -0.7829
 3672SOL    HW122649   2.697   2.232   4.077  0.9202 -0.7699 -1.4528
 3672SOL    HW222650   2.645   2.225   4.211  0.7729 -2.1817  1.7476
 3673SOL     OW22651   1.152   4.086   8.965 -0.0117 -0.3787  0.1262
 3673SOL    HW122652   1.074   4.140   8.949  0.1121 -1.1099 -2.8837
 3673SOL    HW222653   1.205   4.146   9.018  0.5346  0.0400 -0.8992
 3674SOL     OW22654   4.553   2.778  16.667  0.1105 -0.2501  0.0229
 3674SOL    HW122655   4.590   2.754  16.582  0.0400 -0.7132  0.1220
 3674SOL    HW222656   4.528   2.688  16.687  0.0804 -0.3564 -0.4887
 3675SOL     OW22657   0.651   1.024   7.407  0.3657  0.1735 -0.1148
 3675SOL    HW122658   0.703   0.967   7.351  0.4162  0.1506 -0.0448
 3675SOL    HW222659   0.601   1.065   7.337 -0.7157 -2.7819 -1.0865
 3676SOL     OW22660   0.259   2.143   4.976  0.0413 -0.2948  0.1621
 3676SOL    HW122661   0.230   2.152   4.885 -0.1432  0.4873  0.3022
 3676SOL    HW222662   0.352   2.148   4.954  0.4432  2.3549  2.6431
 3677SOL     OW22663   1.848   3.794  11.410  0.1078 -0.1100  0.5730
 3677SOL    HW122664   1.816   3.876  11.370  1.0067 -0.6436 -1.2562
 3677SOL    HW222665   1.939   3.798  11.380 -0.1643  0.3904 -0.2057
 3678SOL     OW22666   3.381   4.525   3.510  0.6411  0.2760 -0.0409
 3678SOL    HW122667   3.334   4.607   3.503 -1.0074 -0.5191  1.7136
 3678SOL    HW222668   3.401   4.489   3.424 -0.3965  1.0560 -0.5981
 3679SOL     OW22669   1.469   4.044   3.296  0.4028  0.5603  0.0343
 3679SOL    HW122670   1.412   3.988   3.350  0.2518 -0.7491 -1.4917
 3679SOL    HW222671   1.431   4.130   3.314  1.4487  1.1091 -0.3933
 3680SOL     OW22672   1.361   3.898  14.735  0.5123 -0.7251  0.0682
 3680SOL    HW122673   1.396   3.945  14.659  0.3042 -0.1750  0.3117
 3680SOL    HW222674   1.309   3.829  14.694 -0.8134 -0.3399  1.1056
 3681SOL     OW22675   2.289   2.699   3.191 -0.4359  0.1660  0.5512
 3681SOL    HW122676   2.232   2.677   3.265 -0.1516 -0.8472  0.4579
 3681SOL    HW222677   2.333   2.768   3.240 -1.3189  0.2892  1.1698
 3682SOL     OW22678   3.381   2.727  16.269  0.2039 -0.2852  0.3328
 3682SOL    HW122679   3.451   2.787  16.297 -1.0044  1.2475  0.0818
 3682SOL    HW222680   3.333   2.788  16.213  0.9806  0.5595  0.5697
 3683SOL     OW22681   4.615   3.639   4.087 -0.2729 -0.2643 -0.1060
 3683SOL    HW122682   4.706   3.627   4.062 -0.2984 -2.2097  0.7180
 3683SOL    HW222683   4.607   3.603   4.175  2.0228  1.7582  0.9280
 3684SOL     OW22684   2.608   3.476   8.512  0.4734  0.3881 -0.3054
 3684SOL    HW122685   2.640   3.388   8.493 -0.3439 -0.6815  3.3195
 3684SOL    HW222686   2.513   3.470   8.511  0.5633 -0.8838 -0.5693
 3685SOL     OW22687   1.202   4.717  16.619  0.5036  0.4249  0.8431
 3685SOL    HW122688   1.289   4.709  16.580 -0.2663  0.5657 -0.9022
 3685SOL    HW222689   1.175   4.625  16.624  0.9532  0.3013  0.9745
 3686SOL     OW22690   4.387   3.100   5.798 -0.0293  0.0831 -0.5926
 3686SOL    HW122691   4.462   3.160   5.798  0.3233 -0.3571 -0.3574
 3686SOL    HW222692   4.423   3.020   5.758  0.6999  1.4747 -2.6963
 3687SOL     OW22693   1.180   3.318   1.322  0.5001  0.0037 -0.6551
 3687SOL    HW122694   1.265   3.308   1.280  1.5437  0.1235  1.4493
 3687SOL    HW222695   1.142   3.252   1.264  0.0322  0.4368 -0.8383
 3688SOL     OW22696   3.224   3.857   5.434  0.3368 -0.4402  0.2392
 3688SOL    HW122697   3.191   3.908   5.360  0.5831  1.1231  1.2134
 3688SOL    HW222698   3.312   3.858   5.397  0.2623  0.4489  0.0766
 3689SOL     OW22699   2.166   4.487  15.765  0.4537  0.1134 -0.6296
 3689SOL    HW122700   2.092   4.446  15.720 -1.7957  1.9838  1.3779
 3689SOL    HW222701   2.139   4.482  15.857 -0.4956  0.1152 -0.9115
 3690SOL     OW22702   3.446   4.527   1.922  0.1103  0.2088  0.7770
 3690SOL    HW122703   3.526   4.480   1.945  0.7550  1.3761  0.9145
 3690SOL    HW222704   3.443   4.537   1.826 -0.9935  1.4032  0.9352
 3691SOL     OW22705   4.496   1.295   1.521  0.3243 -0.1496  0.1457
 3691SOL    HW122706   4.523   1.206   1.502  1.9006 -0.0172  1.8528
 3691SOL    HW222707   4.571   1.347   1.548 -0.9343  0.5611  2.2945
 3692SOL     OW22708   1.447   4.727  16.490  0.0831 -0.0657 -0.0291
 3692SOL    HW122709   1.536   0.026  16.478 -0.4869  1.1273 -0.9285
 3692SOL    HW222710   1.410   0.024  16.407  0.7892 -1.2538 -0.8019
 3693SOL     OW22711   0.843   0.560   3.073  0.3525  0.2381 -0.2371
 3693SOL    HW122712   0.756   0.521   3.078 -1.0358  3.0955 -2.3875
 3693SOL    HW222713   0.827   0.649   3.041 -0.1342 -0.2357 -1.3038
 3694SOL     OW22714   4.308   1.756   7.316 -0.3769  0.2741 -0.3453
 3694SOL    HW122715   4.358   1.779   7.394 -1.7836 -0.9264  0.9063
 3694SOL    HW222716   4.342   1.666   7.320 -3.7819 -1.0559 -1.5769
 3695SOL     OW22717   0.303   4.191   5.657 -0.1538  0.0012 -0.4377
 3695SOL    HW122718   0.363   4.227   5.592 -0.0689  3.2639  1.4512
 3695SOL    HW222719   0.361   4.171   5.731  2.0693  0.7669 -1.9830
 3696SOL     OW22720   0.138   2.575  12.700  0.2882 -0.1143 -0.1724
 3696SOL    HW122721   0.098   2.558  12.614  0.3821 -0.4352 -0.1541
 3696SOL    HW222722   0.186   2.655  12.680 -0.7671  0.1065 -1.8697
 3697SOL     OW22723   3.509   3.218   8.000 -0.5254 -0.4141 -0.2531
 3697SOL    HW122724   3.495   3.297   8.052 -0.0497  0.5623 -1.6221
 3697SOL    HW222725   3.548   3.160   8.065 -0.7781  0.3100  0.5436
 3698SOL     OW22726   3.075   4.318   5.574  0.5509  0.4440 -0.2452
 3698SOL    HW122727   3.083   4.300   5.667 -0.1727 -0.3697 -0.3384
 3698SOL    HW222728   3.143   4.385   5.573 -0.6464  1.6460 -1.8000
 3699SOL     OW22729   1.238   0.246   4.848 -0.0889 -0.0298 -0.5526
 3699SOL    HW122730   1.278   0.333   4.836  1.7717 -0.4150  3.1371
 3699SOL    HW222731   1.265   0.187   4.778  0.0421 -0.2734 -0.2921
 3700SOL     OW22732   1.183   0.085  12.185  0.0212 -0.4470  0.3417
 3700SOL    HW122733   1.121   0.137  12.236  1.9141  1.5849  0.5632
 3700SOL    HW222734   1.141   0.065  12.101  1.0205 -2.2314  0.2708
 3701SOL     OW22735   2.692   2.575   2.404  0.1602 -0.5823  0.5080
 3701SOL    HW122736   2.610   2.584   2.452 -0.1767  1.4354 -0.4673
 3701SOL    HW222737   2.673   2.497   2.352  1.3658 -0.1954 -0.5246
 3702SOL     OW22738   4.636   0.557   0.347 -0.6698  0.0753 -0.2255
 3702SOL    HW122739   4.600   0.643   0.324  2.2086  0.9388 -1.4965
 3702SOL    HW222740   4.563   0.520   0.397 -0.9020 -0.3854 -0.9144
 3703SOL     OW22741   4.554   0.658   1.293  0.1299 -0.0078  0.6895
 3703SOL    HW122742   4.511   0.573   1.301 -1.8500  1.0935  1.5532
 3703SOL    HW222743   4.561   0.651   1.198  0.4867 -1.2983  0.7991
 3704SOL     OW22744   0.498   4.349   3.441 -0.5201 -0.2234 -0.0230
 3704SOL    HW122745   0.535   4.295   3.510 -4.4555 -1.0894  1.4161
 3704SOL    HW222746   0.404   4.332   3.452 -0.9152  1.8682 -0.0584
 3705SOL     OW22747   3.749   4.239   5.709 -0.3906  0.6421  0.2239
 3705SOL    HW122748   3.772   4.147   5.698  2.2635  1.2718  0.3733
 3705SOL    HW222749   3.826   4.291   5.689  0.2724 -0.4130  0.0123
 3706SOL     OW22750   0.855   4.290   2.505 -0.4910  0.0891  0.3042
 3706SOL    HW122751   0.793   4.335   2.447 -0.5467 -0.4385 -0.0438
 3706SOL    HW222752   0.932   4.345   2.489  0.1585 -0.8070  0.3747
 3707SOL     OW22753   3.683   3.817   1.969 -0.0161 -0.2484  0.2421
 3707SOL    HW122754   3.647   3.757   1.905  1.3905  0.8449 -1.5635
 3707SOL    HW222755   3.600   3.845   2.008  0.8298  2.1844  0.3103
 3708SOL     OW22756   2.936   0.031  14.465  0.5513 -0.0129 -0.4208
 3708SOL    HW122757   3.018   0.074  14.489  2.1529 -2.4656 -1.5805
 3708SOL    HW222758   2.884   0.105  14.431  0.6257  1.4653  2.6066
 3709SOL     OW22759   1.039   0.261  10.495  0.0784  0.3257 -0.1357
 3709SOL    HW122760   1.116   0.303  10.534  2.0308 -3.2104 -0.1857
 3709SOL    HW222761   0.963   0.283  10.549  0.9773  1.5757  0.6154
 3710SOL     OW22762   0.586   0.875  11.101 -0.3524  0.3592  0.5932
 3710SOL    HW122763   0.592   0.866  11.197  0.5837  3.0456  0.8109
 3710SOL    HW222764   0.502   0.830  11.094  0.9302 -1.8868 -0.4405
 3711SOL     OW22765   1.659   4.230   4.232  0.5986 -0.0963 -1.0255
 3711SOL    HW122766   1.699   4.194   4.311 -0.4583 -0.8548 -0.8321
 3711SOL    HW222767   1.607   4.157   4.197  1.8209 -1.0604 -0.8356
 3712SOL     OW22768   3.599   0.923  11.591  0.3008 -0.0468  0.3357
 3712SOL    HW122769   3.623   1.008  11.628 -4.1750  1.5263 -0.3117
 3712SOL    HW222770   3.684   0.880  11.600 -0.6639 -1.9540  0.3213
 3713SOL     OW22771   3.899   3.788   6.452 -0.6443  0.3332  0.4437
 3713SOL    HW122772   3.945   3.848   6.511  1.0736 -2.0153  1.5061
 3713SOL    HW222773   3.813   3.779   6.493 -0.6298 -0.2424  0.3454
 3714SOL     OW22774   4.461   4.176   7.959  0.3345 -0.0980 -0.1827
 3714SOL    HW122775   4.502   4.227   8.029 -0.6136 -0.0204  0.3153
 3714SOL    HW222776   4.394   4.232   7.921  1.5822  0.4016 -1.6113
 3715SOL     OW22777   3.282   0.351   5.561  0.3215  0.2430 -0.1732
 3715SOL    HW122778   3.249   0.261   5.567 -3.0448  1.3405 -1.7045
 3715SOL    HW222779   3.314   0.363   5.650  1.8625 -0.2812 -0.6687
 3716SOL     OW22780   1.028   4.082  14.137  0.0568 -0.0916 -0.5575
 3716SOL    HW122781   0.952   4.027  14.154 -0.2761  0.4691 -0.2143
 3716SOL    HW222782   0.976   4.150  14.093  0.6548 -0.5558 -1.9766
 3717SOL     OW22783   0.354   2.153   9.212  0.1729  0.2298  0.1492
 3717SOL    HW122784   0.363   2.160   9.307  0.4112  1.1580  0.0607
 3717SOL    HW222785   0.269   2.110   9.219  0.4272 -0.1049  1.1641
 3718SOL     OW22786   1.949   4.465   8.601 -0.8858 -0.0339 -0.3196
 3718SOL    HW122787   1.958   4.371   8.583  2.1953  0.3892 -0.9414
 3718SOL    HW222788   1.913   4.489   8.515 -0.6650  1.4846  0.0045
 3719SOL     OW22789   1.974   2.838  13.123 -0.6816 -0.3568 -0.2707
 3719SOL    HW122790   1.919   2.905  13.165 -0.6828 -1.3555  1.3044
 3719SOL    HW222791   2.061   2.859  13.156 -0.5506  1.1303 -1.5387
 3720SOL     OW22792   1.370   0.415  15.782  0.2427 -0.0603  0.2926
 3720SOL    HW122793   1.411   0.465  15.711  0.8994  1.4329  1.7231
 3720SOL    HW222794   1.292   0.382  15.737  0.3865 -0.6913  0.5152
 3721SOL     OW22795   3.380   3.734   6.584 -0.3226 -0.0995 -0.1536
 3721SOL    HW122796   3.317   3.673   6.546 -1.8479  1.5790 -0.2692
 3721SOL    HW222797   3.313   3.801   6.583 -0.5797 -0.3491  0.3415
 3722SOL     OW22798   2.920   3.315  13.732 -0.3018  0.0311  0.0333
 3722SOL    HW122799   2.909   3.296  13.825 -1.2406  3.7346  0.6596
 3722SOL    HW222800   3.013   3.299  13.716 -0.2081 -0.8205  1.4248
 3723SOL     OW22801   1.713   4.690   2.285 -0.1586  0.2487 -0.1791
 3723SOL    HW122802   1.650   0.024   2.305  1.7639  2.1088 -0.6271
 3723SOL    HW222803   1.784   0.018   2.276 -1.5273  1.7205 -0.6890
 3724SOL     OW22804   0.041   1.701   3.330  0.7319  0.1115 -0.3981
 3724SOL    HW122805   0.044   1.637   3.258 -1.0281 -0.5643  0.1210
 3724SOL    HW222806   4.691   1.738   3.305  0.8974 -0.4337 -1.7804
 3725SOL     OW22807   2.023   1.266   0.443  0.4991 -0.1073 -0.0800
 3725SOL    HW122808   2.074   1.239   0.520 -0.2575 -2.4831 -0.4117
 3725SOL    HW222809   2.089   1.314   0.393  2.2571  0.6738  3.0108
 3726SOL     OW22810   1.187   1.591  17.221 -0.2539  0.0187 -0.1623
 3726SOL    HW122811   1.109   1.630  17.182 -0.1655 -0.1095 -0.4725
 3726SOL    HW222812   1.252   1.620  17.156  1.5250 -1.6953  0.8672
 3727SOL     OW22813   1.406   1.189   2.425 -0.0104  0.0603  0.0197
 3727SOL    HW122814   1.410   1.268   2.478 -0.6786  0.0428  0.0875
 3727SOL    HW222815   1.411   1.119   2.491 -2.2304  0.1382  0.2574
 3728SOL     OW22816   2.927   1.746   4.256 -0.3942 -0.5509  0.1576
 3728SOL    HW122817   2.992   1.690   4.297  1.1529  0.2722 -1.1665
 3728SOL    HW222818   2.943   1.725   4.165  0.2768 -2.7270  0.7842
 3729SOL     OW22819   2.065   4.254  13.629  0.1211 -0.2174 -0.1683
 3729SOL    HW122820   2.150   4.281  13.596  0.5901 -2.0260 -0.4575
 3729SOL    HW222821   2.087   4.167  13.662 -1.6094 -0.0301  1.4756
 3730SOL     OW22822   1.666   0.976   4.361  0.0728 -0.4240  0.0896
 3730SOL    HW122823   1.596   0.960   4.299 -0.9197  1.6109  0.6708
 3730SOL    HW222824   1.723   0.904   4.333 -3.9791 -3.4429 -0.3586
 3731SOL     OW22825   2.357   4.171   9.805  0.1702  0.3908 -0.3921
 3731SOL    HW122826   2.449   4.160   9.784  0.5783  0.1720  1.5028
 3731SOL    HW222827   2.344   4.260   9.771 -1.1787  1.0509  1.8366
 3732SOL     OW22828   2.629   3.801   7.514  0.3966  0.3781  0.6155
 3732SOL    HW122829   2.651   3.851   7.435  1.7542 -0.9437  0.1348
 3732SOL    HW222830   2.626   3.866   7.584 -2.6555  0.9540 -0.0667
 3733SOL     OW22831   1.861   3.470  10.104 -0.4891  0.1336  0.4208
 3733SOL    HW122832   1.866   3.428  10.190 -2.5388  1.2119  1.0616
 3733SOL    HW222833   1.814   3.553  10.112 -0.4565  0.0746  1.2629
 3734SOL     OW22834   2.681   0.554   3.988  0.2174 -0.2544  0.2009
 3734SOL    HW122835   2.587   0.535   3.986 -0.2320  1.7863  1.1567
 3734SOL    HW222836   2.681   0.650   3.996 -1.1323 -0.1627 -0.8816
 3735SOL     OW22837   3.772   4.570   2.023  0.5697 -0.7424  0.2839
 3735SOL    HW122838   3.785   4.556   1.930  1.1414 -2.6394  0.6587
 3735SOL    HW222839   3.776   4.666   2.034  0.3706 -0.3185 -3.4805
 3736SOL     OW22840   0.874   1.516  13.227  0.0026 -0.0272  0.1992
 3736SOL    HW122841   0.801   1.462  13.258 -0.9684  1.2745  0.2224
 3736SOL    HW222842   0.823   1.596  13.209 -0.2293 -0.3219 -0.4322
 3737SOL     OW22843   4.383   2.977   5.393 -0.4738 -0.1821 -0.1058
 3737SOL    HW122844   4.305   2.921   5.390  0.1758 -1.1237  0.3219
 3737SOL    HW222845   4.380   3.028   5.312 -1.0472  2.7174  1.7468
 3738SOL     OW22846   3.628   4.148  14.401  0.5019 -0.1897 -0.6221
 3738SOL    HW122847   3.542   4.186  14.380  0.1605 -0.3705  0.4619
 3738SOL    HW222848   3.626   4.146  14.496  2.3678 -0.5528 -0.5927
 3739SOL     OW22849   2.215   0.728   1.866 -0.1442  0.0153  0.1616
 3739SOL    HW122850   2.287   0.760   1.921 -0.9012 -0.2188  1.2948
 3739SOL    HW222851   2.136   0.769   1.901 -1.2770 -2.3249  0.3715
 3740SOL     OW22852   2.308   2.090   4.494 -0.1811  0.2456 -0.2749
 3740SOL    HW122853   2.333   1.998   4.486  0.5935  0.4415 -0.0947
 3740SOL    HW222854   2.361   2.128   4.424  0.1828 -0.3993 -0.3531
 3741SOL     OW22855   0.720   1.144   7.903  0.6247 -0.2881 -0.2566
 3741SOL    HW122856   0.754   1.195   7.830  0.2554  1.1942  0.5984
 3741SOL    HW222857   0.753   1.058   7.876  3.0357  0.1528  1.2924
 3742SOL     OW22858   1.755   4.625   2.713 -0.2086 -0.7157 -0.1123
 3742SOL    HW122859   1.741   4.554   2.775 -2.5790  1.4425  1.7987
 3742SOL    HW222860   1.844   4.654   2.733 -0.3502 -1.4714  1.5454
 3743SOL     OW22861   4.689   2.364  15.417 -0.1943 -0.4147  0.1201
 3743SOL    HW122862   4.681   2.451  15.379 -2.1941 -0.6772 -0.0413
 3743SOL    HW222863   4.726   2.387  15.503 -0.4759  1.3844 -0.2315
 3744SOL     OW22864   4.209   0.068   4.835  0.9852  0.0482 -0.4983
 3744SOL    HW122865   4.258   0.065   4.918  1.1231 -2.1403 -0.6609
 3744SOL    HW222866   4.280   0.056   4.772 -0.3705 -0.7475 -1.8503
 3745SOL     OW22867   3.448   3.389   8.211  0.1073  0.2239 -0.4988
 3745SOL    HW122868   3.359   3.386   8.176 -0.3487  1.0269  0.5574
 3745SOL    HW222869   3.426   3.377   8.304  2.1165 -1.1976 -0.2294
 3746SOL     OW22870   1.703   4.254   8.965 -0.7062 -0.3273 -0.3361
 3746SOL    HW122871   1.626   4.278   8.913 -1.5936  1.1604  1.6835
 3746SOL    HW222872   1.706   4.321   9.033 -3.1352 -1.8748  1.3066
 3747SOL     OW22873   2.799   1.068   3.804  0.0215  0.3534 -0.5305
 3747SOL    HW122874   2.703   1.065   3.798 -0.2023 -1.4386  3.9473
 3747SOL    HW222875   2.810   1.156   3.840 -2.2762  0.2091  0.5201
 3748SOL     OW22876   0.549   2.186   3.418 -0.1408  0.0689  0.2032
 3748SOL    HW122877   0.615   2.121   3.393 -0.1174  0.3976 -0.5987
 3748SOL    HW222878   0.594   2.258   3.463 -0.3381 -1.0432  2.1642
 3749SOL     OW22879   3.445   2.226   7.671 -0.2524 -0.4517 -0.5005
 3749SOL    HW122880   3.534   2.239   7.703 -0.1062 -0.6938 -0.8090
 3749SOL    HW222881   3.448   2.132   7.651  2.7299 -0.4445 -0.0408
 3750SOL     OW22882   3.128   3.334   1.708 -0.3526  0.2631  0.0370
 3750SOL    HW122883   3.141   3.240   1.693  0.4686  0.2712  0.7484
 3750SOL    HW222884   3.033   3.341   1.720  0.0424  1.8801  2.2715
 3751SOL     OW22885   2.113   3.123  13.567 -0.3402  0.5440  0.3548
 3751SOL    HW122886   2.165   3.084  13.497 -0.9103 -1.0390  0.8354
 3751SOL    HW222887   2.170   3.195  13.596 -0.2521  1.2569 -1.5946
 3752SOL     OW22888   1.972   4.540   1.607 -0.5114 -0.1385  0.1873
 3752SOL    HW122889   1.889   4.563   1.650  0.4128 -1.0537  2.4796
 3752SOL    HW222890   1.950   4.484   1.532 -0.5703 -0.9883  0.8324
 3753SOL     OW22891   1.498   1.285  12.696  0.1567 -0.1833 -0.3383
 3753SOL    HW122892   1.500   1.191  12.679 -1.5600 -0.5716  1.5752
 3753SOL    HW222893   1.409   1.302  12.728 -0.6639 -2.3553 -1.4787
 3754SOL     OW22894   0.491   1.451   6.569 -0.4756 -0.0413  0.2014
 3754SOL    HW122895   0.447   1.531   6.540 -1.0889 -0.5106 -0.1603
 3754SOL    HW222896   0.545   1.480   6.643  0.1706  0.8870 -0.6234
 3755SOL     OW22897   3.910   0.449   6.038 -0.1465  0.0823 -0.3028
 3755SOL    HW122898   3.827   0.477   6.000  0.5868 -0.5108 -2.3720
 3755SOL    HW222899   3.885   0.418   6.125 -0.8949  0.9315 -0.2263
 3756SOL     OW22900   1.976   4.031   8.958  0.2820  0.1922  0.3707
 3756SOL    HW122901   1.922   4.094   9.006 -1.4498  0.2888 -1.7118
 3756SOL    HW222902   2.031   4.094   8.911 -0.5236  0.4518 -0.2258
 3757SOL     OW22903   1.674   0.177   5.005 -0.1526 -0.4691 -0.0877
 3757SOL    HW122904   1.599   0.170   5.064 -0.7880  1.0315 -0.7223
 3757SOL    HW222905   1.626   0.231   4.943  1.1706  0.4594 -0.2989
 3758SOL     OW22906   2.617   1.249   3.986 -0.2606  0.0209 -0.1707
 3758SOL    HW122907   2.618   1.330   3.935 -2.0014 -0.1810 -0.5198
 3758SOL    HW222908   2.561   1.190   3.937  0.3786 -0.6183 -0.1307
 3759SOL     OW22909   3.967   0.543   5.299 -0.2071  0.4195  0.1483
 3759SOL    HW122910   3.953   0.559   5.205 -1.7751 -3.3962 -0.2497
 3759SOL    HW222911   4.051   0.590   5.298  0.2422 -0.3939 -1.3881
 3760SOL     OW22912   3.703   4.537  10.494 -0.2709  0.0671  0.2805
 3760SOL    HW122913   3.705   4.618  10.544 -1.0353 -0.0370  0.4854
 3760SOL    HW222914   3.686   4.573  10.407  1.4703 -1.8166 -0.8610
 3761SOL     OW22915   4.646   3.515   2.684 -0.5613 -0.2664 -0.7325
 3761SOL    HW122916   4.684   3.564   2.757 -0.9684 -1.1880  0.1045
 3761SOL    HW222917   4.723   3.492   2.633 -1.8626 -0.3074 -2.6917
 3762SOL     OW22918   2.163   1.620   7.272  0.1620  0.2219 -0.0716
 3762SOL    HW122919   2.139   1.583   7.187  0.4859  0.4269 -0.2506
 3762SOL    HW222920   2.093   1.577   7.321  0.7927 -0.6398  0.0847
 3763SOL     OW22921   3.368   0.871   8.626 -0.2932  0.3582  0.3857
 3763SOL    HW122922   3.316   0.931   8.573  0.1490  0.3410 -0.0657
 3763SOL    HW222923   3.456   0.907   8.617  0.3088 -1.0471  0.6959
 3764SOL     OW22924   1.939   4.424  16.508 -0.2265 -0.1447  0.9395
 3764SOL    HW122925   1.895   4.456  16.430  3.1847  2.4830  0.0953
 3764SOL    HW222926   1.979   4.345  16.470  0.3756 -0.0849  1.4293
 3765SOL     OW22927   3.220   4.563   6.167 -0.4423 -0.1697  0.3467
 3765SOL    HW122928   3.178   4.600   6.244 -1.4492  0.0375 -0.3105
 3765SOL    HW222929   3.144   4.540   6.115 -0.2828  0.8482 -0.3350
 3766SOL     OW22930   1.925   0.573   3.297 -0.1553 -0.1354 -0.5080
 3766SOL    HW122931   1.990   0.511   3.330 -2.3962 -2.4713 -0.4964
 3766SOL    HW222932   1.977   0.650   3.274  0.9792 -0.5737  0.6210
 3767SOL     OW22933   3.400   1.504   8.855  0.4270 -0.2519 -0.4486
 3767SOL    HW122934   3.459   1.515   8.781 -0.2014  0.0050 -0.9120
 3767SOL    HW222935   3.318   1.543   8.824 -0.3492 -1.0533  0.6018
 3768SOL     OW22936   3.891   3.743   0.645 -0.4845  0.0155 -0.0120
 3768SOL    HW122937   3.947   3.810   0.607  1.4701 -0.8801  1.2836
 3768SOL    HW222938   3.907   3.766   0.737  0.7255 -2.4035  0.4029
 3769SOL     OW22939   3.383   3.395  11.560  0.2039  0.5074  0.0577
 3769SOL    HW122940   3.450   3.454  11.595 -0.7388  2.6136 -1.7528
 3769SOL    HW222941   3.313   3.458  11.547  0.4404  1.1083  1.6593
 3770SOL     OW22942   3.658   0.055  11.591 -0.2860 -0.2145  0.7837
 3770SOL    HW122943   3.675   0.124  11.655  1.4499  0.9427 -0.9112
 3770SOL    HW222944   3.728   4.729  11.616 -0.0636  0.1606  1.0856
 3771SOL     OW22945   1.892   4.335  16.192 -0.7528 -0.1379  0.3958
 3771SOL    HW122946   1.838   4.260  16.218 -1.7811  0.2822 -0.5211
 3771SOL    HW222947   1.970   4.287  16.167 -1.3848 -1.1620  0.3908
 3772SOL     OW22948   2.632   4.082  16.131  0.3116  0.2466  1.1225
 3772SOL    HW122949   2.698   4.044  16.073  0.6271  0.3920  1.3861
 3772SOL    HW222950   2.576   4.123  16.065 -0.5200 -0.9398  1.0808
 3773SOL     OW22951   2.266   3.819   2.296  0.0608  0.2069  0.2526
 3773SOL    HW122952   2.217   3.739   2.317  0.9004 -0.3952 -0.0975
 3773SOL    HW222953   2.221   3.892   2.339 -0.5740 -0.4438  0.7098
 3774SOL     OW22954   0.118   2.763   7.080  0.3714  0.5545  0.1947
 3774SOL    HW122955   0.148   2.779   6.990 -1.0242 -2.1040 -0.7148
 3774SOL    HW222956   0.041   2.709   7.066  1.0306 -0.3976  0.2500
 3775SOL     OW22957   0.535   0.688   7.040 -0.2441 -0.3772 -0.0303
 3775SOL    HW122958   0.582   0.761   7.000 -0.4977 -0.2283 -0.0567
 3775SOL    HW222959   0.449   0.707   7.004  1.0663 -0.3564 -3.1080
 3776SOL     OW22960   2.603   1.403   0.318 -0.1592  0.2914 -0.0216
 3776SOL    HW122961   2.662   1.346   0.367 -2.1465 -1.2515  0.5757
 3776SOL    HW222962   2.538   1.407   0.389 -0.0070  0.6590  0.0958
 3777SOL     OW22963   4.209   2.307  12.946 -0.0097 -0.7882 -0.0916
 3777SOL    HW122964   4.302   2.305  12.926 -0.1763  2.6576 -1.1304
 3777SOL    HW222965   4.195   2.220  12.984 -0.9890 -0.6082 -0.0394
 3778SOL     OW22966   3.048   1.020   9.142 -0.0531  0.0368  0.4460
 3778SOL    HW122967   3.098   1.079   9.199  0.4380  0.8941 -0.8899
 3778SOL    HW222968   3.098   0.939   9.155 -1.5282 -1.3818 -2.8656
 3779SOL     OW22969   3.224   4.091  17.162  0.1341 -0.2347  0.0673
 3779SOL    HW122970   3.213   4.114  17.254  2.6266 -0.7248  0.5094
 3779SOL    HW222971   3.260   4.002  17.166  0.4970 -0.1188 -0.5713
 3780SOL     OW22972   0.568   1.370   3.352 -0.1124  0.1189 -0.6244
 3780SOL    HW122973   0.621   1.299   3.389  0.5753  0.4769 -0.9213
 3780SOL    HW222974   0.606   1.452   3.386  0.7731  0.0950 -1.5460
 3781SOL     OW22975   4.286   0.975  17.527 -0.7707  0.2689  0.2360
 3781SOL    HW122976   4.319   1.035  17.459  0.1703  1.3932  1.6861
 3781SOL    HW222977   4.311   0.887  17.501  1.3675  0.3591  1.9677
 3782SOL     OW22978   1.005   3.664  14.882 -0.0990 -0.4078  0.0630
 3782SOL    HW122979   0.923   3.683  14.927  0.1925  2.1807 -0.5001
 3782SOL    HW222980   1.031   3.749  14.845  1.6519 -0.7757  0.4581
 3783SOL     OW22981   1.824   2.836  15.691  0.0746 -0.2195  0.3212
 3783SOL    HW122982   1.900   2.782  15.714  0.8170  0.9050  0.5333
 3783SOL    HW222983   1.865   2.921  15.709 -0.7418  0.1608  0.3707
 3784SOL     OW22984   3.360   2.625   7.672  0.7929 -0.5361  0.0881
 3784SOL    HW122985   3.334   2.557   7.734  0.7506 -0.8468 -0.2724
 3784SOL    HW222986   3.432   2.579   7.629 -0.5201 -0.0490 -2.6297
 3785SOL     OW22987   4.409   3.806   4.008 -0.7293  0.3743  0.0033
 3785SOL    HW122988   4.348   3.773   4.075  0.4327 -2.7059 -0.4695
 3785SOL    HW222989   4.486   3.751   4.023 -0.2153  0.9292 -0.6194
 3786SOL     OW22990   0.575   1.773   8.728  0.4924  0.5529 -0.3648
 3786SOL    HW122991   0.561   1.749   8.819  1.5032  0.0035 -0.3584
 3786SOL    HW222992   0.490   1.811   8.703  0.7210  0.4890 -1.2385
 3787SOL     OW22993   4.274   4.259   5.042 -0.5973  0.0677  0.3937
 3787SOL    HW122994   4.283   4.207   5.121  0.4614 -0.4344 -0.0541
 3787SOL    HW222995   4.179   4.266   5.042 -0.6064 -0.0675  0.2829
 3788SOL     OW22996   0.284   0.930   7.281  0.8074 -0.6300  0.3375
 3788SOL    HW122997   0.314   0.971   7.362 -2.2662 -0.5298  1.4221
 3788SOL    HW222998   0.272   0.842   7.316  0.0998 -0.4304  0.5859
 3789SOL     OW22999   0.574   3.550   1.581  0.3144 -0.7963 -0.0806
 3789SOL    HW123000   0.563   3.597   1.498  0.1625 -0.3278  0.2034
 3789SOL    HW223001   0.514   3.592   1.643  1.0254  2.1951 -1.4092
 3790SOL     OW23002   2.440   1.675   8.235 -0.1799  0.1445 -0.3030
 3790SOL    HW123003   2.424   1.755   8.184 -0.5467  1.0919  1.2765
 3790SOL    HW223004   2.359   1.627   8.216  1.3176 -1.4838 -2.5047
 3791SOL     OW23005   1.557   0.601   9.104  0.5057 -0.3015 -0.4119
 3791SOL    HW123006   1.652   0.603   9.100  0.4629 -1.0369 -1.5670
 3791SOL    HW223007   1.547   0.508   9.086  0.7455 -0.5131  0.5218
 3792SOL     OW23008   0.108   1.748  10.788  0.2596  0.1572  0.3566
 3792SOL    HW123009   0.158   1.671  10.760  1.4270  0.2820  2.0993
 3792SOL    HW223010   0.047   1.767  10.718  1.1011  0.6753 -0.2411
 3793SOL     OW23011   1.885   4.671  15.823  0.0576 -0.3361  0.2708
 3793SOL    HW123012   1.936   4.594  15.846 -0.9711 -0.4257  2.2876
 3793SOL    HW223013   1.833   4.682  15.903 -0.0475  1.6969 -0.0675
 3794SOL     OW23014   4.519   1.705   0.779  0.0614  0.4453  0.4668
 3794SOL    HW123015   4.484   1.791   0.758  0.5694  0.0644 -1.9543
 3794SOL    HW223016   4.497   1.651   0.703 -0.5333  0.6423  0.5042
 3795SOL     OW23017   0.339   0.316   4.584 -0.2454  0.3049 -0.0096
 3795SOL    HW123018   0.396   0.389   4.563 -3.3807  1.7098 -3.7319
 3795SOL    HW223019   0.369   0.253   4.518 -1.2798  2.2444 -2.3316
 3796SOL     OW23020   0.360   0.145   0.230  0.1990 -0.3263 -0.2913
 3796SOL    HW123021   0.324   0.084   0.166  0.3484  1.3594 -1.9989
 3796SOL    HW223022   0.367   0.222   0.174 -0.6848 -0.9262 -1.2396
 3797SOL     OW23023   1.195   0.336   5.273 -0.5769 -0.4054  0.3597
 3797SOL    HW123024   1.200   0.422   5.232  0.3091 -1.0386 -0.8246
 3797SOL    HW223025   1.189   0.272   5.203  1.4187 -0.7237  0.4801
 3798SOL     OW23026   2.389   2.890   3.350  0.3237  0.0010  0.1672
 3798SOL    HW123027   2.483   2.908   3.348  1.0499 -3.7696  0.0448
 3798SOL    HW223028   2.352   2.978   3.350 -1.4063 -0.7392 -0.7071
 3799SOL     OW23029   2.731   3.589   5.869 -0.3311 -0.2110 -0.0861
 3799SOL    HW123030   2.796   3.607   5.937 -2.0290 -1.7082  1.9277
 3799SOL    HW223031   2.670   3.529   5.913 -0.9555 -0.0005 -0.6649
 3800SOL     OW23032   4.560   4.466   8.554 -0.2257 -0.0535 -0.6485
 3800SOL    HW123033   4.646   4.447   8.518  0.3198 -0.4753  0.8660
 3800SOL    HW223034   4.527   4.376   8.564 -0.1772  0.0861  0.8675
 3801SOL     OW23035   0.803   2.159  15.444 -0.1682  0.3180  0.0422
 3801SOL    HW123036   0.717   2.134  15.479  0.4205  2.4029  3.0002
 3801SOL    HW223037   0.785   2.130  15.355 -0.6549 -0.4667  0.3984
 3802SOL     OW23038   0.030   2.296   7.997 -0.1170  0.0920 -0.3189
 3802SOL    HW123039   0.103   2.251   8.039 -0.8661 -0.3238  0.5155
 3802SOL    HW223040   0.078   2.321   7.918 -0.2332 -0.0394 -0.4316
 3803SOL     OW23041   0.684   1.968  13.650  0.4880  0.2362 -0.5356
 3803SOL    HW123042   0.662   2.017  13.730 -0.4526 -0.2413 -0.4965
 3803SOL    HW223043   0.715   1.885  13.686  0.7496  0.7132  0.3341
 3804SOL     OW23044   2.964   3.061  16.019  0.2481  0.2094  0.3348
 3804SOL    HW123045   2.987   3.136  15.964 -0.6538 -0.0426 -0.3900
 3804SOL    HW223046   2.872   3.053  15.995  0.1965 -0.8806  0.9354
 3805SOL     OW23047   1.611   1.200   7.073  0.2147  0.6085  0.3760
 3805SOL    HW123048   1.534   1.243   7.035  0.3455  0.5576  0.0500
 3805SOL    HW223049   1.603   1.108   7.048 -0.1869  0.7137  0.1198
 3806SOL     OW23050   0.914   2.901   5.965 -0.0938 -0.0742 -0.0373
 3806SOL    HW123051   0.993   2.895   5.910 -0.3010 -0.1169 -0.3301
 3806SOL    HW223052   0.914   2.994   5.986  0.1902 -0.1387  0.2440
 3807SOL     OW23053   2.561   3.705   9.828 -0.0199 -0.3845 -0.0276
 3807SOL    HW123054   2.640   3.745   9.791 -1.1249  0.0874 -1.9075
 3807SOL    HW223055   2.567   3.611   9.815  1.5636 -0.3912  0.7323
 3808SOL     OW23056   1.699   0.850   9.392 -0.3451  0.2803  0.1928
 3808SOL    HW123057   1.751   0.845   9.312  1.3538 -0.9573  1.3711
 3808SOL    HW223058   1.697   0.760   9.424  1.8770  0.1639  0.0530
 3809SOL     OW23059   1.771   0.096   4.042 -0.1848 -0.3350 -0.0258
 3809SOL    HW123060   1.838   0.045   3.996 -0.8653 -0.7000 -0.6243
 3809SOL    HW223061   1.828   0.140   4.105  0.8361  0.3339 -1.4157
 3810SOL     OW23062   2.227   3.424   8.009 -0.2073  0.3744 -0.0397
 3810SOL    HW123063   2.315   3.389   8.023 -1.0745 -1.9007 -0.2793
 3810SOL    HW223064   2.248   3.515   7.989  0.1426  0.5352  1.0341
 3811SOL     OW23065   4.521   0.233   8.442 -0.1274 -0.7596  0.0514
 3811SOL    HW123066   4.588   0.178   8.400 -1.4586 -1.4813 -1.1316
 3811SOL    HW223067   4.562   0.246   8.527  1.4486 -1.8976 -0.5376
 3812SOL     OW23068   2.524   0.096   4.058 -0.2854 -0.5083  0.3131
 3812SOL    HW123069   2.463   0.028   4.027 -0.3221 -0.6159  0.6259
 3812SOL    HW223070   2.533   0.147   3.977 -3.8472  0.7668  0.6940
 3813SOL     OW23071   3.979   1.377   6.831 -0.2001 -0.0759 -0.2064
 3813SOL    HW123072   3.905   1.427   6.865 -0.7527 -0.7994 -0.3492
 3813SOL    HW223073   4.056   1.433   6.839 -1.2750  1.4494 -0.6122
 3814SOL     OW23074   2.585   2.256   7.455  0.0634 -0.6677  0.1193
 3814SOL    HW123075   2.626   2.316   7.392  2.1099 -0.9781  1.1567
 3814SOL    HW223076   2.641   2.276   7.531  1.9547  0.0112 -1.4627
 3815SOL     OW23077   2.860   4.076   2.243  0.4622 -0.4602  0.4135
 3815SOL    HW123078   2.922   4.112   2.180  0.2181  1.5270  1.3370
 3815SOL    HW223079   2.925   4.035   2.300  1.9186 -0.8082 -1.5081
 3816SOL     OW23080   2.743   3.140   4.085  0.2957  0.0319  0.2919
 3816SOL    HW123081   2.707   3.076   4.024  0.6234 -2.3714  2.6135
 3816SOL    HW223082   2.750   3.225   4.042  0.0115  0.5928  1.3417
 3817SOL     OW23083   3.877   3.045   9.609 -0.0497  0.0606  1.1358
 3817SOL    HW123084   3.822   2.986   9.559  0.4149 -0.2478  0.9852
 3817SOL    HW223085   3.839   3.127   9.578  0.6553 -1.2293 -3.0618
 3818SOL     OW23086   1.999   4.226   8.493  0.2584 -0.2685 -0.0870
 3818SOL    HW123087   2.048   4.157   8.449  2.5872  1.2398  0.1452
 3818SOL    HW223088   1.915   4.204   8.453 -0.8229  2.6644  0.5530
 3819SOL     OW23089   0.337   4.503  17.358 -0.2329  0.6529 -0.2939
 3819SOL    HW123090   0.373   4.415  17.351 -1.3037  0.3916 -2.3224
 3819SOL    HW223091   0.250   4.492  17.322 -1.3543  0.1237  2.5774
 3820SOL     OW23092   1.900   3.340  10.610  0.0621  0.1603  0.1688
 3820SOL    HW123093   1.864   3.307  10.693 -0.5864  0.4781  0.0161
 3820SOL    HW223094   1.992   3.314  10.618  0.3313  1.2745  0.6948
 3821SOL     OW23095   1.430   4.036  11.394 -0.3793 -0.3268 -0.2244
 3821SOL    HW123096   1.345   4.066  11.428 -0.1196  1.3427 -1.0441
 3821SOL    HW223097   1.477   4.117  11.379  0.0827 -0.5454  0.0547
 3822SOL     OW23098   2.833   3.329   9.338  0.1269 -0.3730  0.5471
 3822SOL    HW123099   2.753   3.280   9.355 -0.7035  1.2118  1.1693
 3822SOL    HW223100   2.810   3.417   9.367 -1.3274 -1.2339  1.9926
 3823SOL     OW23101   3.233   4.261  16.537  0.1677 -0.0353  0.5272
 3823SOL    HW123102   3.223   4.172  16.571 -2.6562 -0.0560 -0.4318
 3823SOL    HW223103   3.287   4.292  16.610  0.8139  1.3958 -0.5651
 3824SOL     OW23104   0.351   4.253   4.806 -0.4330  0.1708  0.4562
 3824SOL    HW123105   0.329   4.163   4.832 -2.9321  0.1248 -1.8683
 3824SOL    HW223106   0.430   4.244   4.860  0.9029 -0.9240 -1.6855
 3825SOL     OW23107   4.185   3.842  13.566 -0.3335  0.4178  0.1529
 3825SOL    HW123108   4.232   3.806  13.641  1.8904  0.1938 -1.3451
 3825SOL    HW223109   4.144   3.762  13.534 -0.6950  0.7941 -0.3189
 3826SOL     OW23110   1.262   0.717  16.289  0.1425  0.0232  0.1527
 3826SOL    HW123111   1.280   0.768  16.210  1.5380  1.0884  1.1454
 3826SOL    HW223112   1.346   0.673  16.306  0.4781  0.5207 -0.2339
 3827SOL     OW23113   4.407   3.937   1.858  0.2126  0.4481 -0.0571
 3827SOL    HW123114   4.399   3.877   1.932 -1.2535 -0.4169 -0.9207
 3827SOL    HW223115   4.315   3.952   1.836  0.4215  0.7116 -0.7599
 3828SOL     OW23116   0.619   1.064   2.205  0.5891 -0.4770  0.0474
 3828SOL    HW123117   0.624   1.113   2.124  1.1136  1.1985  1.1025
 3828SOL    HW223118   0.583   0.989   2.158  0.0965  0.0468 -0.4005
 3829SOL     OW23119   0.387   1.649   8.389  0.0169  0.3171 -0.3598
 3829SOL    HW123120   0.375   1.680   8.478 -2.1179 -2.9576  0.4920
 3829SOL    HW223121   0.456   1.707   8.356 -0.0685  1.5109  1.5376
 3830SOL     OW23122   0.373   0.933   2.592  0.0711 -0.7628 -0.2034
 3830SOL    HW123123   0.319   0.984   2.532  0.2120  0.0859  0.3870
 3830SOL    HW223124   0.461   0.940   2.555 -0.4763 -1.2328 -1.5859
 3831SOL     OW23125   0.285   0.466   5.752  0.1591 -0.2947 -0.2256
 3831SOL    HW123126   0.291   0.547   5.803  1.8564  0.4891 -1.6689
 3831SOL    HW223127   0.378   0.466   5.730 -0.0407  1.6813 -1.0102
 3832SOL     OW23128   1.297   3.491   1.079  0.1497 -0.0171 -0.4994
 3832SOL    HW123129   1.226   3.552   1.099 -0.3811  0.0775 -2.5683
 3832SOL    HW223130   1.256   3.444   1.006  0.4790  1.4041 -1.5959
 3833SOL     OW23131   0.215   0.222   5.831  0.4434 -0.4048  0.4561
 3833SOL    HW123132   0.239   0.302   5.784 -0.3695  0.6697  1.8581
 3833SOL    HW223133   0.142   0.207   5.770 -0.4992  0.7278  1.2915
 3834SOL     OW23134   1.454   1.769   2.204  0.0459  0.5267 -0.8043
 3834SOL    HW123135   1.465   1.837   2.270  0.1987 -0.5566  0.3082
 3834SOL    HW223136   1.359   1.757   2.207  0.1691 -0.6255 -1.3340
 3835SOL     OW23137   2.178   0.507   5.008  0.1526 -0.5239  0.7175
 3835SOL    HW123138   2.119   0.567   4.963 -0.1765 -0.0499  1.7852
 3835SOL    HW223139   2.131   0.425   4.998  1.8726 -1.0798 -2.7827
 3836SOL     OW23140   0.680   1.705  13.442  0.1400  0.1401 -0.0380
 3836SOL    HW123141   0.714   1.736  13.357  3.1328 -1.7861  0.4441
 3836SOL    HW223142   0.748   1.722  13.507 -0.9828  1.5832  0.7318
 3837SOL     OW23143   3.862   2.126   8.366 -0.2484 -0.4166 -0.0544
 3837SOL    HW123144   3.937   2.071   8.391 -0.4713 -0.4463  0.5488
 3837SOL    HW223145   3.821   2.135   8.452 -0.1366 -0.0252 -0.0439
 3838SOL     OW23146   0.229   3.131   2.837  0.6848 -0.1078  0.3305
 3838SOL    HW123147   0.223   3.226   2.845  0.7702  0.2720 -4.1748
 3838SOL    HW223148   0.174   3.096   2.907  0.3862  2.4383  1.3447
 3839SOL     OW23149   2.294   3.673   7.219 -0.7278 -0.1203 -0.5861
 3839SOL    HW123150   2.375   3.720   7.200 -1.1245  0.3162 -1.2095
 3839SOL    HW223151   2.309   3.584   7.185  3.9128  0.0643  1.0187
 3840SOL     OW23152   1.386   1.706   9.463  0.4203  0.4020  0.3509
 3840SOL    HW123153   1.297   1.733   9.439  1.1753  0.1023 -2.8932
 3840SOL    HW223154   1.394   1.759   9.542 -1.0711  0.4744  0.4486
 3841SOL     OW23155   1.931   3.607   1.433  0.3598 -0.4895 -0.3680
 3841SOL    HW123156   1.967   3.569   1.513  0.9084  1.4080  0.2724
 3841SOL    HW223157   1.996   3.672   1.409 -0.3855  0.5562  0.4449
 3842SOL     OW23158   3.897   0.523   1.015 -0.0895  0.2229  0.4859
 3842SOL    HW123159   3.816   0.536   1.064  0.0410 -0.1263  0.7923
 3842SOL    HW223160   3.863   0.531   0.925  2.3779  0.4960 -0.4291
 3843SOL     OW23161   1.691   3.536   7.359 -0.0360 -0.3275  0.2812
 3843SOL    HW123162   1.653   3.620   7.385 -1.3713 -1.5181  2.1535
 3843SOL    HW223163   1.650   3.542   7.273 -0.0821  0.2855  0.3467
 3844SOL     OW23164   3.222   1.285   0.799 -0.4235  0.2563 -0.3669
 3844SOL    HW123165   3.310   1.298   0.835  0.1439 -2.7032 -0.7084
 3844SOL    HW223166   3.238   1.254   0.710  3.6189 -0.1916  0.5321
 3845SOL     OW23167   2.022   0.876   8.230 -0.3439  0.0756 -0.3719
 3845SOL    HW123168   2.029   0.869   8.325  0.1446 -1.1419 -0.4978
 3845SOL    HW223169   2.102   0.836   8.197 -0.2767  0.5980 -0.8565
 3846SOL     OW23170   0.324   1.804   8.621  0.0819 -0.1901 -0.0735
 3846SOL    HW123171   0.305   1.896   8.603  1.6171  0.1879  0.2078
 3846SOL    HW223172   0.239   1.787   8.663  0.9559 -1.3318  1.2500
 3847SOL     OW23173   1.492   3.019  14.789 -0.1797 -0.1721  0.2547
 3847SOL    HW123174   1.419   2.985  14.840  0.1121 -0.5444  0.4280
 3847SOL    HW223175   1.476   2.978  14.703  2.2667  0.1788 -0.3736
 3848SOL     OW23176   2.893   0.299   3.119  0.3261 -0.4125  0.4107
 3848SOL    HW123177   2.922   0.247   3.044  1.0737 -0.0370  0.4416
 3848SOL    HW223178   2.975   0.342   3.144 -0.6206  1.1863  0.7499
 3849SOL     OW23179   3.937   4.440  10.204 -0.7852  0.1078  0.7132
 3849SOL    HW123180   3.992   4.514  10.176 -1.3065  1.0245  2.0801
 3849SOL    HW223181   3.859   4.496  10.201 -0.6599  0.1198 -1.8696
 3850SOL     OW23182   0.814   1.041   6.606 -0.5044 -0.2723 -0.5839
 3850SOL    HW123183   0.745   1.053   6.541  0.1244 -0.9990 -1.3820
 3850SOL    HW223184   0.825   0.946   6.600  1.2643 -0.1716  1.1024
 3851SOL     OW23185   2.650   1.853   2.587  0.2733  0.3098  0.4855
 3851SOL    HW123186   2.670   1.886   2.674 -1.2365  0.1702  0.8866
 3851SOL    HW223187   2.736   1.817   2.564 -0.4050 -0.9874 -0.0330
 3852SOL     OW23188   3.119   1.307   5.230 -0.2919 -0.3597  0.3570
 3852SOL    HW123189   3.086   1.236   5.286  1.3596 -0.1174  1.6490
 3852SOL    HW223190   3.204   1.327   5.271 -0.0507 -1.1819  0.2670
 3853SOL     OW23191   3.763   1.554   0.618  0.1254  0.4271 -0.1216
 3853SOL    HW123192   3.725   1.603   0.692 -1.5498  1.7229 -1.8506
 3853SOL    HW223193   3.840   1.609   0.607 -0.3351  1.0840 -0.1003
 3854SOL     OW23194   3.642   0.336  16.648  0.0747 -0.1278 -0.8114
 3854SOL    HW123195   3.707   0.406  16.650  1.9684 -1.9372  0.7862
 3854SOL    HW223196   3.620   0.325  16.555 -0.9753 -0.3359 -0.5457
 3855SOL     OW23197   2.873   2.671   3.370 -0.1296 -0.3139 -0.3382
 3855SOL    HW123198   2.966   2.684   3.388 -0.2065 -0.8860  0.4884
 3855SOL    HW223199   2.879   2.682   3.276  0.3229 -0.1727 -0.2902
 3856SOL     OW23200   2.279   1.277   9.035  0.2034  0.1445 -0.2227
 3856SOL    HW123201   2.183   1.271   9.029  0.0947  0.8861  0.8398
 3856SOL    HW223202   2.294   1.262   9.128  0.2838  0.2764 -0.2145
 3857SOL     OW23203   0.439   2.199   2.174 -0.9328 -0.2823 -0.4978
 3857SOL    HW123204   0.413   2.284   2.210 -0.3816 -0.7341  0.9743
 3857SOL    HW223205   0.429   2.136   2.245  0.3955 -0.0428 -0.0977
 3858SOL     OW23206   2.835   1.636   2.533 -0.3944 -0.0870  0.4513
 3858SOL    HW123207   2.787   1.631   2.616 -0.2739  1.7570  0.6227
 3858SOL    HW223208   2.876   1.549   2.532 -0.2999 -0.0482  0.9336
 3859SOL     OW23209   0.004   3.680   7.696 -0.0631 -0.2724  0.2267
 3859SOL    HW123210   4.694   3.708   7.617  1.2984 -0.3653 -0.5845
 3859SOL    HW223211   0.050   3.760   7.722 -1.7370  1.5200 -2.3377
 3860SOL     OW23212   0.575   2.650   3.749  0.1468  0.2292 -0.2481
 3860SOL    HW123213   0.500   2.683   3.699  1.7032  3.4559 -0.4520
 3860SOL    HW223214   0.651   2.654   3.692 -1.2709 -1.1944 -2.2300
 3861SOL     OW23215   0.859   2.848   3.261 -0.0940 -0.1498  0.2376
 3861SOL    HW123216   0.909   2.777   3.221 -1.2787 -0.0032 -1.4979
 3861SOL    HW223217   0.934   2.901   3.287  0.5506 -0.2755 -1.3954
 3862SOL     OW23218   0.916   0.363  11.896 -0.2059 -0.1958 -0.3264
 3862SOL    HW123219   1.001   0.375  11.853  0.5703  0.1411  1.2809
 3862SOL    HW223220   0.944   0.387  11.985  0.2169  1.5547 -0.9332
 3863SOL     OW23221   1.839   0.510   6.734 -0.6090  0.1494  0.1632
 3863SOL    HW123222   1.860   0.542   6.822 -0.2202 -0.6980  0.3769
 3863SOL    HW223223   1.747   0.536   6.727 -0.3520  0.8015 -0.8089
 3864SOL     OW23224   3.391   3.972   4.761  0.3802 -0.2236 -0.6803
 3864SOL    HW123225   3.334   4.038   4.800  0.3062 -0.3117 -0.6385
 3864SOL    HW223226   3.429   4.019   4.687 -1.3705  1.1044 -0.7458
 3865SOL     OW23227   3.697   4.258  16.190  0.1452 -0.2586  0.2218
 3865SOL    HW123228   3.737   4.179  16.228 -1.8235 -1.1872  0.3353
 3865SOL    HW223229   3.627   4.223  16.136 -1.2801  1.4247  0.9978
 3866SOL     OW23230   3.072   2.999   8.087 -0.2459 -0.0305 -0.0794
 3866SOL    HW123231   3.131   2.959   8.023 -2.4030 -1.2281 -1.3485
 3866SOL    HW223232   3.022   2.925   8.121  0.1661 -0.2318  0.0781
 3867SOL     OW23233   3.752   1.086   6.588 -0.2213  0.0989  0.0660
 3867SOL    HW123234   3.748   1.155   6.522  0.8397  1.6773  1.6269
 3867SOL    HW223235   3.689   1.107   6.657 -0.0911 -1.1611  0.5677
 3868SOL     OW23236   4.000   2.003   6.031  0.2707  0.6499  0.2931
 3868SOL    HW123237   4.061   1.929   6.021 -1.7585 -0.6545 -2.4641
 3868SOL    HW223238   4.038   2.086   6.001 -1.6086  0.3514 -2.8019
 3869SOL     OW23239   4.292   1.523   4.161 -0.1033 -0.3029 -0.2526
 3869SOL    HW123240   4.279   1.588   4.230 -0.6946 -1.5561  0.8115
 3869SOL    HW223241   4.256   1.565   4.083 -0.2250  0.1016  0.0258
 3870SOL     OW23242   4.214   1.429   7.119  0.3104  0.7444  0.2231
 3870SOL    HW123243   4.122   1.456   7.115  0.2603  0.7532  1.4457
 3870SOL    HW223244   4.255   1.490   7.058  0.4834  1.4101  0.9954
 3871SOL     OW23245   3.850   3.620   1.293 -0.1722 -0.4180  0.1682
 3871SOL    HW123246   3.871   3.643   1.202 -0.1787  0.0295  0.2803
 3871SOL    HW223247   3.939   3.591   1.315  0.0597  0.5731  0.5538
 3872SOL     OW23248   0.352   2.243   6.253  0.2843 -0.1061  0.4674
 3872SOL    HW123249   0.289   2.246   6.325 -1.3261 -0.4863 -0.9170
 3872SOL    HW223250   0.293   2.279   6.186  0.0585 -0.3429  0.5373
 3873SOL     OW23251   0.893   2.254   4.633 -0.9088 -0.4762 -0.5205
 3873SOL    HW123252   0.928   2.342   4.646  1.3179 -1.7231  1.8785
 3873SOL    HW223253   0.953   2.208   4.693 -0.4045 -0.0305 -0.6846
 3874SOL     OW23254   1.574   3.081   2.957 -0.0817 -0.1362  0.0754
 3874SOL    HW123255   1.570   3.073   3.052 -1.2054  2.5889  0.2445
 3874SOL    HW223256   1.609   3.170   2.951  1.6078 -0.8859 -1.3972
 3875SOL     OW23257   4.677   2.219   6.960  0.4074  0.0164  0.0305
 3875SOL    HW123258   4.641   2.230   6.872 -1.4523 -0.0617  0.7744
 3875SOL    HW223259   4.595   2.219   7.010  0.5237  3.1551  0.2221
 3876SOL     OW23260   4.527   2.366   4.076 -0.2441  0.1699  0.0686
 3876SOL    HW123261   4.551   2.281   4.114  0.2250 -0.6675 -2.1155
 3876SOL    HW223262   4.457   2.391   4.136 -0.8683 -1.0357 -0.1533
 3877SOL     OW23263   3.945   0.847  17.145 -0.2382 -0.5014  0.4094
 3877SOL    HW123264   3.889   0.904  17.197 -2.6191  0.9473 -3.6822
 3877SOL    HW223265   4.016   0.829  17.206 -0.0564  3.3102  1.3067
 3878SOL     OW23266   4.092   3.290   6.808 -0.2155 -0.1062 -0.2787
 3878SOL    HW123267   4.016   3.323   6.856  0.2685  3.1565 -1.7285
 3878SOL    HW223268   4.115   3.209   6.853  1.4041  0.7349  0.4159
 3879SOL     OW23269   1.055   4.594   4.178 -0.2150  0.1719  0.5389
 3879SOL    HW123270   0.977   4.548   4.207 -1.1405  2.3451  1.5330
 3879SOL    HW223271   1.094   4.629   4.258  0.4459  1.4401 -0.3214
 3880SOL     OW23272   1.598   3.940   2.548 -0.6594  0.4718 -0.0961
 3880SOL    HW123273   1.661   4.005   2.577 -0.4405  0.3388 -0.2757
 3880SOL    HW223274   1.601   3.964   2.456 -0.6234 -0.0848 -0.2406
 3881SOL     OW23275   2.132   2.272   7.851 -0.0004 -0.5021 -0.4390
 3881SOL    HW123276   2.171   2.350   7.891  0.6892 -1.9831  1.7387
 3881SOL    HW223277   2.039   2.295   7.849 -0.2244 -1.6151 -3.0177
 3882SOL     OW23278   2.992   1.361   9.492  0.3279  0.0739 -0.2141
 3882SOL    HW123279   2.912   1.341   9.443  0.2067 -1.0971  0.4531
 3882SOL    HW223280   3.033   1.425   9.434  0.7270 -0.0946 -0.1147
 3883SOL     OW23281   4.354   3.679   6.361  0.0744 -0.1031 -0.0496
 3883SOL    HW123282   4.309   3.701   6.443  1.5325 -0.5447  0.8796
 3883SOL    HW223283   4.286   3.702   6.298  0.6482  3.3508  0.5624
 3884SOL     OW23284   2.434   3.509   2.588  0.1195  0.3616  0.0560
 3884SOL    HW123285   2.464   3.500   2.678 -0.7794 -1.3518  0.1915
 3884SOL    HW223286   2.495   3.567   2.543 -1.7161  2.7920  0.7484
 3885SOL     OW23287   2.486   0.986  13.147  0.1343  0.1741  0.2203
 3885SOL    HW123288   2.403   0.940  13.159  0.7905 -0.9899  0.2599
 3885SOL    HW223289   2.507   0.966  13.056 -1.7625 -1.4912  0.1529
 3886SOL     OW23290   3.215   1.716  10.970  0.3867  0.3222 -0.4783
 3886SOL    HW123291   3.280   1.653  11.000 -1.3602 -1.8326 -1.2371
 3886SOL    HW223292   3.184   1.748  11.055 -0.3654 -3.7384  0.7444
 3887SOL     OW23293   1.575   3.527   7.127 -0.1736  0.2046 -0.1431
 3887SOL    HW123294   1.530   3.452   7.089  1.4638 -0.1411 -1.3882
 3887SOL    HW223295   1.578   3.590   7.055  2.3752 -1.0676 -1.1326
 3888SOL     OW23296   0.020   0.957   5.353  0.1367 -0.5306  0.2890
 3888SOL    HW123297   4.665   0.940   5.381  0.2331  1.4114  1.7891
 3888SOL    HW223298   0.026   1.052   5.350  1.6002 -0.5812  1.5405
 3889SOL     OW23299   3.484   4.444  11.175 -0.1582 -0.2637  0.1538
 3889SOL    HW123300   3.453   4.356  11.196  1.5341 -1.4116 -2.1116
 3889SOL    HW223301   3.560   4.447  11.233  0.5775  0.6773 -0.8363
 3890SOL     OW23302   2.244   1.038   2.051 -0.0396  0.4157  0.4102
 3890SOL    HW123303   2.274   0.962   2.102  1.8939  0.6417 -0.3788
 3890SOL    HW223304   2.217   0.998   1.968  0.0939 -1.8913  1.4828
 3891SOL     OW23305   2.527   2.579   8.606  0.2648 -0.4165 -0.3483
 3891SOL    HW123306   2.577   2.654   8.574 -1.8183  1.1559  0.0882
 3891SOL    HW223307   2.569   2.554   8.688  2.6585  3.4449 -0.4001
 3892SOL     OW23308   3.117   4.261   2.583  0.2982  0.1199  0.3595
 3892SOL    HW123309   3.069   4.192   2.538 -0.8929  0.6145  0.8784
 3892SOL    HW223310   3.194   4.249   2.527 -0.4553  0.1260 -0.6658
 3893SOL     OW23311   1.900   1.654   4.247  0.0081  0.2826 -0.5244
 3893SOL    HW123312   1.935   1.737   4.280  0.9237 -0.8593  1.3762
 3893SOL    HW223313   1.870   1.684   4.161  0.9726 -1.1733 -1.3721
 3894SOL     OW23314   0.037   3.454   4.939 -0.1705  0.1418  0.3290
 3894SOL    HW123315   4.684   3.437   4.973  1.0289 -0.9285  2.9231
 3894SOL    HW223316   0.069   3.533   4.983  1.2372 -0.7905  0.9633
 3895SOL     OW23317   2.662   3.278   4.536 -0.3515  0.3280  0.4737
 3895SOL    HW123318   2.691   3.243   4.620  2.5154 -1.9510 -1.4339
 3895SOL    HW223319   2.694   3.217   4.469 -1.7335  0.5882 -0.4188
 3896SOL     OW23320   0.882   1.416   8.823 -0.0562  0.1428 -0.6116
 3896SOL    HW123321   0.961   1.458   8.790 -0.3561  0.7549 -0.5379
 3896SOL    HW223322   0.922   1.353   8.883 -1.1174  0.1133  0.0697
 3897SOL     OW23323   3.327   2.311  11.114  0.0334 -1.1373 -0.0290
 3897SOL    HW123324   3.243   2.278  11.082 -0.0676 -0.3865 -0.5381
 3897SOL    HW223325   3.365   2.312  11.026  0.8366 -0.8132  0.3269
 3898SOL     OW23326   1.633   2.236   7.917  1.7659  0.1060 -0.0430
 3898SOL    HW123327   1.592   2.258   7.834 -0.0057  1.2340  1.1208
 3898SOL    HW223328   1.550   2.233   7.966  1.1961  1.6462 -0.9549
 3899SOL     OW23329   0.257   2.119   4.286 -0.1036  0.2240 -0.1317
 3899SOL    HW123330   0.326   2.176   4.251  0.8031 -0.1872  1.0250
 3899SOL    HW223331   0.192   2.117   4.215  0.8104 -1.5249 -0.9116
 3900SOL     OW23332   4.647   0.882   1.935  0.3668  0.2222  0.3127
 3900SOL    HW123333   4.704   0.857   2.009  1.0243  0.8342  0.0083
 3900SOL    HW223334   4.649   0.811   1.871 -1.6522  0.8078 -0.3868
 3901SOL     OW23335   3.779   3.525   2.362  0.1297 -0.3464 -0.2344
 3901SOL    HW123336   3.864   3.532   2.404 -0.0747 -1.1733  0.3020
 3901SOL    HW223337   3.752   3.613   2.335  0.0529 -1.0422 -2.4554
 3902SOL     OW23338   3.402   3.114   5.208  0.2668  0.3562 -0.1181
 3902SOL    HW123339   3.487   3.144   5.242  0.7105  1.1119 -1.9068
 3902SOL    HW223340   3.375   3.191   5.157  0.0428  0.6807  0.4859
 3903SOL     OW23341   4.183   1.629   3.945 -0.8707 -0.1054  0.3284
 3903SOL    HW123342   4.123   1.563   3.911 -3.0064  0.8249  2.2860
 3903SOL    HW223343   4.136   1.707   3.914  0.2629  0.0177 -1.0730
 3904SOL     OW23344   2.908   2.024   6.488 -0.0788  0.0297  0.1956
 3904SOL    HW123345   2.846   2.096   6.476  1.0429  1.0366  0.5083
 3904SOL    HW223346   2.973   2.048   6.554  1.4011  0.5198 -1.4350
 3905SOL     OW23347   2.760   3.166  14.457  0.3206  0.2073  0.3046
 3905SOL    HW123348   2.739   3.093  14.516  2.3095 -0.8264 -0.2858
 3905SOL    HW223349   2.717   3.231  14.513 -0.8366 -0.5991  0.3545
 3906SOL     OW23350   4.082   2.082   6.823 -0.4098 -0.6998  0.6131
 3906SOL    HW123351   4.086   2.168   6.782 -0.8825 -0.8930  0.1564
 3906SOL    HW223352   4.024   2.100   6.898 -0.3967 -0.6032  0.5992
 3907SOL     OW23353   2.079   2.239   7.286  0.4531 -0.0578 -0.0129
 3907SOL    HW123354   2.110   2.164   7.337 -0.5287 -0.3717  0.1103
 3907SOL    HW223355   2.159   2.291   7.299 -0.2246  0.8395  0.4924
 3908SOL     OW23356   1.163   2.847   8.368 -0.0492 -0.1168  0.8295
 3908SOL    HW123357   1.127   2.935   8.377  0.5048  0.0299  1.5924
 3908SOL    HW223358   1.250   2.847   8.407  0.7153 -0.2552 -0.8956
 3909SOL     OW23359   4.103   4.415   8.187  0.3207  0.1117 -0.1955
 3909SOL    HW123360   4.131   4.324   8.189 -0.3856 -0.1249 -1.0152
 3909SOL    HW223361   4.141   4.462   8.112  0.2139  0.2019 -0.1941
 3910SOL     OW23362   0.209   2.439   5.651  0.0663  0.6148  0.3542
 3910SOL    HW123363   0.137   2.469   5.596 -0.2008 -1.4099 -0.3766
 3910SOL    HW223364   0.282   2.488   5.612  0.3809 -0.4741 -0.4017
 3911SOL     OW23365   2.388   2.476   6.207  0.0156  0.3653  0.4011
 3911SOL    HW123366   2.460   2.420   6.176 -2.2596 -0.7339 -2.8160
 3911SOL    HW223367   2.427   2.560   6.181 -0.7386  1.5189  2.9945
 3912SOL     OW23368   1.969   0.586  15.094  0.6298  0.3714  0.2508
 3912SOL    HW123369   1.994   0.600  15.003  0.4616 -3.0718 -0.3318
 3912SOL    HW223370   2.032   0.518  15.118  2.0630  1.5600 -0.1796
 3913SOL     OW23371   1.952   3.601   6.593 -0.4687  0.2066 -0.4092
 3913SOL    HW123372   1.972   3.508   6.598 -1.3394 -0.0219 -0.9993
 3913SOL    HW223373   1.910   3.618   6.678 -0.4377  1.1040 -0.5700
 3914SOL     OW23374   0.818   1.656   7.808 -0.2355  0.0749  0.5512
 3914SOL    HW123375   0.724   1.668   7.790 -0.5262 -0.3056  1.8113
 3914SOL    HW223376   0.846   1.589   7.746 -0.1311  0.3172  0.3346
 3915SOL     OW23377   3.865   1.100  11.490 -0.1902  0.2563 -0.7637
 3915SOL    HW123378   3.930   1.137  11.430  1.8805  0.2794  1.4927
 3915SOL    HW223379   3.854   1.172  11.553  1.0097 -0.5278  0.3422
 3916SOL     OW23380   0.989   1.501   4.946 -0.8019  0.2443  0.0493
 3916SOL    HW123381   1.069   1.463   4.983 -1.4056 -1.8992 -0.8731
 3916SOL    HW223382   1.016   1.592   4.932 -2.0104  0.5285 -0.4589
 3917SOL     OW23383   0.392   2.130   5.862 -0.1249 -0.2457  0.0471
 3917SOL    HW123384   0.367   2.068   5.931 -1.2816 -1.2036 -1.2424
 3917SOL    HW223385   0.445   2.068   5.813 -0.0857  0.9223 -1.3775
 3918SOL     OW23386   0.762   0.324   6.006  0.2808  0.3179 -0.2722
 3918SOL    HW123387   0.795   0.412   5.991  1.3449  0.1796  1.2050
 3918SOL    HW223388   0.835   0.295   6.061 -2.4813 -0.1604  3.1686
 3919SOL     OW23389   2.375   0.275   3.795  0.7494  0.3322 -0.1224
 3919SOL    HW123390   2.452   0.223   3.771  1.2237  1.3437 -0.7647
 3919SOL    HW223391   2.408   0.354   3.838 -0.4067 -0.0634  1.5284
 3920SOL     OW23392   2.718   2.798  10.710 -0.5008 -0.1767  0.4449
 3920SOL    HW123393   2.734   2.857  10.784 -1.2265  1.1101 -0.4037
 3920SOL    HW223394   2.642   2.755  10.750 -1.1661  1.8675  1.4013
 3921SOL     OW23395   0.633   1.290   1.973 -0.6893 -0.3506  0.4747
 3921SOL    HW123396   0.627   1.377   1.933  1.0565  0.7857  2.7438
 3921SOL    HW223397   0.560   1.243   1.933 -1.5579  1.4994 -0.1158
 3922SOL     OW23398   3.020   0.675   7.839  0.2114  0.1491 -0.0153
 3922SOL    HW123399   3.081   0.716   7.900  0.4464 -1.7826  1.0607
 3922SOL    HW223400   2.945   0.672   7.898 -1.4354 -1.8208 -2.1757
 3923SOL     OW23401   3.657   4.659   1.583  0.1273 -0.0106 -0.6435
 3923SOL    HW123402   3.694   0.004   1.545  0.5642  1.6216  3.2860
 3923SOL    HW223403   3.564   4.677   1.575  0.5616  2.0352 -1.0148
 3924SOL     OW23404   3.529   2.901  14.193 -0.1665  0.3780  0.2862
 3924SOL    HW123405   3.623   2.901  14.174 -0.1404  1.0797  0.4272
 3924SOL    HW223406   3.514   2.810  14.167  2.3987 -0.7649  2.8891
 3925SOL     OW23407   1.409   1.758   5.251  0.1148  0.1276 -0.8036
 3925SOL    HW123408   1.452   1.834   5.290 -1.8265  0.8085  0.0382
 3925SOL    HW223409   1.461   1.686   5.287 -0.2845  0.0018 -0.4663
 3926SOL     OW23410   1.215   2.189  13.460  0.7117 -0.2732 -0.1430
 3926SOL    HW123411   1.202   2.173  13.554 -2.2983  0.2513 -0.4752
 3926SOL    HW223412   1.262   2.271  13.474 -2.9529  2.2733 -2.9204
 3927SOL     OW23413   2.914   0.928   5.681 -0.1429 -0.1226  0.8679
 3927SOL    HW123414   2.959   1.006   5.714  0.4654  0.1173 -0.5086
 3927SOL    HW223415   2.839   0.971   5.640  0.0607  0.7657  1.4401
 3928SOL     OW23416   4.572   1.853  11.599 -0.2262  0.2438  0.6677
 3928SOL    HW123417   4.484   1.830  11.629  0.2482 -0.3277  1.6195
 3928SOL    HW223418   4.598   1.768  11.564  0.5717  0.8136 -0.1199
 3929SOL     OW23419   1.939   0.795  16.582  0.5936  0.3303 -0.0305
 3929SOL    HW123420   1.876   0.833  16.521 -0.8629 -0.6735  0.8470
 3929SOL    HW223421   1.924   0.702  16.565 -4.2655  1.8522 -3.9981
 3930SOL     OW23422   1.213   0.994  14.871 -0.0256  0.1716  0.2336
 3930SOL    HW123423   1.234   0.920  14.929 -0.7480 -0.8547 -0.8271
 3930SOL    HW223424   1.222   1.073  14.925  1.3070  0.0891  0.1336
 3931SOL     OW23425   2.781   0.357   7.761  0.0105 -0.2613  0.1903
 3931SOL    HW123426   2.777   0.451   7.742  0.6789 -0.0471  1.0965
 3931SOL    HW223427   2.775   0.359   7.857 -1.6578  1.7100  0.0445
 3932SOL     OW23428   4.192   1.807   6.019  0.4531  0.1001  0.3091
 3932SOL    HW123429   4.270   1.863   6.022 -1.2659  2.5956 -2.4130
 3932SOL    HW223430   4.229   1.739   5.962  0.0059  0.0226  0.1137
 3933SOL     OW23431   2.922   3.328   2.218  0.4509  0.1838 -0.1328
 3933SOL    HW123432   2.976   3.369   2.149  1.8051 -0.6929  0.4020
 3933SOL    HW223433   2.911   3.410   2.266 -0.3772 -0.9819  1.6705
 3934SOL     OW23434   2.367   0.068   8.242  0.1178  0.3596 -0.3377
 3934SOL    HW123435   2.354   0.121   8.320  1.1057  1.6281 -1.0414
 3934SOL    HW223436   2.350   4.713   8.270  0.7096  0.0672 -0.9036
 3935SOL     OW23437   1.008   1.047  15.162 -0.0700  0.2110 -0.2127
 3935SOL    HW123438   0.979   1.055  15.253 -2.8718 -1.3799 -0.9818
 3935SOL    HW223439   1.068   0.973  15.173  1.0933  1.1134 -0.4903
 3936SOL     OW23440   2.379   3.578   5.776  0.2391 -0.0746 -0.2833
 3936SOL    HW123441   2.390   3.624   5.859 -1.2205  0.6498 -0.4956
 3936SOL    HW223442   2.315   3.631   5.729  2.5384  1.0394 -2.2146
 3937SOL     OW23443   3.080   2.462   3.075 -0.1660 -0.3911  0.3578
 3937SOL    HW123444   3.053   2.429   2.990 -2.5093  1.8341  0.2587
 3937SOL    HW223445   3.001   2.440   3.125 -0.9963  0.5371 -0.5518
 3938SOL     OW23446   4.310   0.309   5.746 -0.1131  0.3581 -0.3758
 3938SOL    HW123447   4.259   0.347   5.675 -0.1904 -2.5562 -1.8685
 3938SOL    HW223448   4.241   0.288   5.808 -1.5819  1.0268 -1.7768
 3939SOL     OW23449   0.384   2.787   7.881  0.2381 -0.1793 -0.4059
 3939SOL    HW123450   0.375   2.881   7.896  3.3632  0.0656 -0.1476
 3939SOL    HW223451   0.473   2.793   7.847  0.3733  2.6424  0.5064
 3940SOL     OW23452   2.595   3.213   1.902 -0.2524  0.0353 -0.4065
 3940SOL    HW123453   2.576   3.263   1.981  0.1914 -0.0417 -0.2531
 3940SOL    HW223454   2.507   3.213   1.865  0.0783 -0.6901 -1.1792
 3941SOL     OW23455   0.735   3.814   0.628 -0.2206  0.0955 -0.1609
 3941SOL    HW123456   0.723   3.892   0.574  1.5959 -0.9268 -2.0450
 3941SOL    HW223457   0.760   3.856   0.711 -4.0695  2.3934 -0.1908
 3942SOL     OW23458   3.458   2.622  13.767 -0.4246  0.1940 -0.0549
 3942SOL    HW123459   3.364   2.621  13.783 -0.0288 -1.8800  2.3224
 3942SOL    HW223460   3.469   2.548  13.708  3.2293  0.7365 -0.0450
 3943SOL     OW23461   4.460   0.670   6.917  0.1563  0.1356  0.0345
 3943SOL    HW123462   4.413   0.704   6.841  0.4906 -1.3421 -0.8275
 3943SOL    HW223463   4.541   0.721   6.915  0.9744 -1.2377 -1.5277
 3944SOL     OW23464   4.141   4.104  12.510 -0.5107  0.1245  0.4021
 3944SOL    HW123465   4.106   4.017  12.529 -1.0547 -0.0555 -1.3950
 3944SOL    HW223466   4.090   4.155  12.573 -0.0068  0.7024  0.3415
 3945SOL     OW23467   0.858   3.392   9.914  0.0467 -0.1410  1.0089
 3945SOL    HW123468   0.925   3.425   9.974  0.9719  2.2367 -1.3484
 3945SOL    HW223469   0.830   3.307   9.949  0.8928 -1.1601 -0.7821
 3946SOL     OW23470   0.998   0.989   5.412 -0.0434 -0.1352  0.2200
 3946SOL    HW123471   0.945   0.939   5.349  1.2730 -2.1414  0.7206
 3946SOL    HW223472   1.008   0.918   5.475 -0.8923  0.0214  0.5305
 3947SOL     OW23473   2.535   0.271   7.275  0.2756  0.6867  0.2723
 3947SOL    HW123474   2.624   0.256   7.245 -0.7547 -2.0553 -1.3900
 3947SOL    HW223475   2.509   0.333   7.206 -0.3847 -0.0081 -0.1110
 3948SOL     OW23476   3.071   1.307   7.394 -0.3386 -0.1120 -0.1676
 3948SOL    HW123477   3.107   1.231   7.350 -1.6435  0.8645 -2.8927
 3948SOL    HW223478   2.977   1.293   7.378 -0.5435 -0.5831  1.3584
 3949SOL     OW23479   2.641   3.187   9.498 -0.0961  0.3017  0.3383
 3949SOL    HW123480   2.682   3.144   9.573  0.7321  0.1550 -0.1984
 3949SOL    HW223481   2.548   3.186   9.522  0.1568 -0.2996  1.3082
 3950SOL     OW23482   0.143   3.299   6.963  1.3906 -0.0435 -0.3240
 3950SOL    HW123483   0.074   3.261   7.017  0.5280  1.4695 -0.3674
 3950SOL    HW223484   0.181   3.363   7.024 -2.1148  0.9050  0.8710
 3951SOL     OW23485   3.875   3.243  15.173  0.4562 -0.7460 -0.0772
 3951SOL    HW123486   3.809   3.281  15.114 -0.3473 -1.7036  0.2181
 3951SOL    HW223487   3.950   3.282  15.128  0.7179 -1.1635  0.0042
 3952SOL     OW23488   2.223   1.159   0.670  0.2614  0.4104  0.1294
 3952SOL    HW123489   2.226   1.069   0.701  2.1636  0.3744 -0.1863
 3952SOL    HW223490   2.147   1.196   0.715  0.8206  1.2568  0.3747
 3953SOL     OW23491   0.362   2.957  13.432 -0.4272 -0.1894 -0.0721
 3953SOL    HW123492   0.302   2.886  13.409 -0.2926  0.2581 -1.8344
 3953SOL    HW223493   0.441   2.909  13.407 -0.0864 -0.7902  2.1725
 3954SOL     OW23494   2.380   3.698  14.398 -0.3014 -0.1928 -0.4343
 3954SOL    HW123495   2.325   3.648  14.458 -1.5780  1.4024 -0.2785
 3954SOL    HW223496   2.349   3.673  14.311  3.1289  2.0030 -2.3202
 3955SOL     OW23497   2.530   0.498   4.284  0.5701 -0.1950  0.0509
 3955SOL    HW123498   2.578   0.514   4.202 -0.0653  0.1813 -0.2481
 3955SOL    HW223499   2.450   0.551   4.278  0.6965 -0.0557 -0.3886
 3956SOL     OW23500   1.593   4.242  14.226  0.5693 -0.9669  0.4732
 3956SOL    HW123501   1.685   4.270  14.229 -0.6896  3.0964  0.7489
 3956SOL    HW223502   1.565   4.248  14.318  1.5202 -1.6115  0.8117
 3957SOL     OW23503   3.130   2.015   1.695  0.3581 -0.1968 -0.1532
 3957SOL    HW123504   3.220   2.008   1.663  0.7555 -1.2888  1.2069
 3957SOL    HW223505   3.110   1.924   1.718  0.1811  0.3190  1.7563
 3958SOL     OW23506   0.609   1.110   8.497  0.0710  0.2481 -0.2693
 3958SOL    HW123507   0.617   1.171   8.423 -0.4599  1.5122  0.7248
 3958SOL    HW223508   0.633   1.166   8.570  1.0178 -1.1112  0.4591
 3959SOL     OW23509   1.958   1.253   8.375  0.6534 -0.2419 -0.5209
 3959SOL    HW123510   1.909   1.175   8.399 -0.8042  1.3866  1.7804
 3959SOL    HW223511   1.966   1.244   8.280 -0.4561  2.2895 -0.8555
 3960SOL     OW23512   4.445   0.853   8.188  0.0130 -0.1822 -0.3951
 3960SOL    HW123513   4.433   0.769   8.232  1.8896 -0.3136 -0.1566
 3960SOL    HW223514   4.388   0.834   8.113 -0.3291  2.0449 -0.7022
 3961SOL     OW23515   0.802   1.420   6.181  0.2327 -0.1605  0.1640
 3961SOL    HW123516   0.815   1.386   6.269  0.0387 -2.4212 -0.6827
 3961SOL    HW223517   0.740   1.491   6.198  1.7135  1.0805  0.3431
 3962SOL     OW23518   4.070   3.031   8.987  0.1718 -0.1056  0.2680
 3962SOL    HW123519   4.048   3.123   8.999 -2.3390 -0.4385 -1.9835
 3962SOL    HW223520   3.990   3.003   8.943  0.9675 -3.6447  1.0907
 3963SOL     OW23521   1.221   3.083  10.134  0.2105 -0.5227  0.4640
 3963SOL    HW123522   1.199   3.003  10.182  1.5393 -1.4950 -0.5713
 3963SOL    HW223523   1.313   3.099  10.152  0.8626 -1.5302 -2.1369
 3964SOL     OW23524   2.750   2.460   5.559 -0.5409 -0.4123 -0.6279
 3964SOL    HW123525   2.704   2.384   5.524  1.6912 -0.5593 -3.2132
 3964SOL    HW223526   2.681   2.504   5.610  1.5160  0.7394  1.1991
 3965SOL     OW23527   3.441   3.833   2.158  0.6681 -0.1062  0.2422
 3965SOL    HW123528   3.431   3.769   2.088  1.0605  0.7392 -0.5846
 3965SOL    HW223529   3.364   3.820   2.213 -0.2134  0.1596 -0.9390
 3966SOL     OW23530   0.433   2.766  11.538 -0.2275  0.3716 -0.0628
 3966SOL    HW123531   0.503   2.710  11.573 -0.7064  0.4973  1.1004
 3966SOL    HW223532   0.357   2.710  11.554 -1.5309  2.8875  2.6177
 3967SOL     OW23533   2.330   4.618   5.717  0.3384 -0.3485  0.2493
 3967SOL    HW123534   2.264   4.684   5.695  1.2657  0.3720 -0.4147
 3967SOL    HW223535   2.350   4.592   5.627 -1.3728 -2.4043  0.4734
 3968SOL     OW23536   4.271   3.071  10.278  0.4779  0.1873 -0.2307
 3968SOL    HW123537   4.181   3.088  10.306  1.0533 -0.0353  1.7651
 3968SOL    HW223538   4.258   3.014  10.202 -1.1082 -1.2336  1.0980
 3969SOL     OW23539   3.174   2.909  16.224  0.2202 -0.4062 -0.6419
 3969SOL    HW123540   3.132   2.978  16.171  0.9326  0.8614  0.4619
 3969SOL    HW223541   3.206   2.969  16.291  0.9308 -0.5738 -0.8364
 3970SOL     OW23542   0.535   2.070   4.387 -0.1998  0.3958  0.2529
 3970SOL    HW123543   0.457   2.025   4.354 -0.9946  2.8732 -1.2083
 3970SOL    HW223544   0.541   2.145   4.327  0.0165 -0.6926 -1.0970
 3971SOL     OW23545   3.193   3.869   3.491 -0.1069 -0.7464 -0.1421
 3971SOL    HW123546   3.114   3.831   3.452 -0.1399 -2.4400  1.5885
 3971SOL    HW223547   3.175   3.961   3.467 -0.9579 -1.3993 -2.0263
 3972SOL     OW23548   0.972   1.231   6.765 -1.0751  0.1250  0.2487
 3972SOL    HW123549   0.949   1.146   6.726 -1.9704  0.3222  0.3408
 3972SOL    HW223550   1.005   1.279   6.689  0.8688 -0.4098  0.7684
 3973SOL     OW23551   2.363   1.679   2.533 -0.1280  0.2857  0.3054
 3973SOL    HW123552   2.329   1.712   2.450 -0.3036 -0.3112  0.1358
 3973SOL    HW223553   2.454   1.709   2.536  0.4563 -1.3984 -0.3153
 3974SOL     OW23554   4.083   3.354   9.627  0.1212  0.1138 -0.1572
 3974SOL    HW123555   4.033   3.320   9.553 -1.0475  0.9545  0.2642
 3974SOL    HW223556   4.013   3.359   9.691 -0.3833  0.6712 -0.7517
 3975SOL     OW23557   0.670   4.642   5.725  0.8230 -0.3587  0.3948
 3975SOL    HW123558   0.642   4.718   5.777  1.7265  1.3806 -1.6680
 3975SOL    HW223559   0.595   4.583   5.736  1.3098 -1.1400 -0.5204
 3976SOL     OW23560   4.428   1.576  12.001  1.0136 -0.2325  0.6255
 3976SOL    HW123561   4.438   1.490  12.041  2.4330 -0.3995 -0.0857
 3976SOL    HW223562   4.341   1.557  11.967  0.6961 -0.3473  1.5046
 3977SOL     OW23563   1.681   0.959   5.302  0.4368  0.9394  0.4757
 3977SOL    HW123564   1.627   0.994   5.232  2.3519  1.6703 -0.6437
 3977SOL    HW223565   1.615   0.945   5.370 -0.0649 -0.3001 -0.2676
 3978SOL     OW23566   0.671   3.388   3.890 -0.0655  0.1610 -0.2725
 3978SOL    HW123567   0.638   3.302   3.864  2.0333 -0.6056 -0.4100
 3978SOL    HW223568   0.728   3.359   3.961  0.4029  0.7901 -0.3894
 3979SOL     OW23569   0.828   3.296   4.469  0.0775 -0.3148  0.0111
 3979SOL    HW123570   0.892   3.342   4.523 -1.6492  3.0048 -0.8198
 3979SOL    HW223571   0.878   3.214   4.463  1.2801  0.5754 -1.9228
 3980SOL     OW23572   1.788   3.843   3.952 -0.1494  0.3229 -0.2115
 3980SOL    HW123573   1.866   3.795   3.924 -1.4765 -0.4983 -2.5078
 3980SOL    HW223574   1.733   3.768   3.975 -0.3369  0.7246  0.6398
 3981SOL     OW23575   0.432   1.549   0.955  0.1350 -0.4091  0.0162
 3981SOL    HW123576   0.337   1.545   0.948  0.1738  2.4075 -2.0948
 3981SOL    HW223577   0.448   1.635   0.916 -0.3214  0.4141  1.6543
 3982SOL     OW23578   4.240   1.082   3.829  0.4165 -0.3043  0.6257
 3982SOL    HW123579   4.190   1.114   3.754  2.2154 -2.3514 -1.4113
 3982SOL    HW223580   4.210   1.137   3.901  0.8571  0.5351  0.1659
 3983SOL     OW23581   0.767   2.209  10.757 -0.5856 -0.0067 -0.1229
 3983SOL    HW123582   0.760   2.159  10.839  3.3830  0.3577  0.4434
 3983SOL    HW223583   0.675   2.209  10.734 -0.4993 -1.2837 -0.4653
 3984SOL     OW23584   3.209   0.276   4.313  0.0539 -0.1829 -0.8504
 3984SOL    HW123585   3.203   0.330   4.391  0.7393  0.0607 -0.9686
 3984SOL    HW223586   3.304   0.273   4.300 -0.3537  0.3825 -4.1038
 3985SOL     OW23587   2.737   4.086   3.137  0.1926 -0.4386 -0.0194
 3985SOL    HW123588   2.727   4.074   3.231  0.6935  0.8511  0.1952
 3985SOL    HW223589   2.648   4.111   3.110  0.2825  0.0913  0.1649
 3986SOL     OW23590   2.010   2.717   4.778  0.4253 -0.1869  0.0098
 3986SOL    HW123591   2.085   2.667   4.810  1.1015 -0.3832 -1.9213
 3986SOL    HW223592   1.995   2.782   4.847  0.0437  0.0822 -0.3247
 3987SOL     OW23593   0.377   3.149   7.231 -0.3463  0.3625  0.1886
 3987SOL    HW123594   0.360   3.123   7.140  0.6245  0.4550 -0.0192
 3987SOL    HW223595   0.291   3.128   7.265 -0.7816  1.9726  0.0850
 3988SOL     OW23596   4.204   4.051   5.323 -0.3270  0.5479 -0.0787
 3988SOL    HW123597   4.295   4.079   5.324  0.2774 -1.2864 -2.5871
 3988SOL    HW223598   4.160   4.094   5.396 -1.8488  0.0584 -0.7106
 3989SOL     OW23599   4.061   1.041   3.541 -0.2505 -0.0035  0.2077
 3989SOL    HW123600   4.115   0.979   3.492 -3.5176 -0.3073 -3.0124
 3989SOL    HW223601   3.978   1.046   3.494 -1.8162  1.6977  3.1118
 3990SOL     OW23602   0.830   0.017   0.554  0.0688 -0.1768 -0.1395
 3990SOL    HW123603   0.787   0.102   0.540 -0.0441 -0.0537  0.9715
 3990SOL    HW223604   0.830   0.016   0.650 -2.3491 -1.0578 -0.1400
 3991SOL     OW23605   2.033   1.926   3.235 -0.0910 -0.1595  0.2138
 3991SOL    HW123606   2.040   1.832   3.250  0.2107  0.1061  1.7084
 3991SOL    HW223607   1.949   1.928   3.189  0.3351 -0.0430 -0.5605
 3992SOL     OW23608   2.985   2.852   9.125  0.5309  0.3010 -0.1778
 3992SOL    HW123609   3.004   2.770   9.080 -1.9205 -1.4918  2.0679
 3992SOL    HW223610   2.968   2.819   9.214 -0.9891 -1.2549 -1.0369
 3993SOL     OW23611   0.767   3.362   5.155 -0.0824  0.0038  0.0243
 3993SOL    HW123612   0.808   3.322   5.079 -0.7783 -1.3977  0.3795
 3993SOL    HW223613   0.793   3.296   5.219  0.4163  0.1432 -0.0353
 3994SOL     OW23614   0.736   1.344   5.446  0.4157  0.2600  1.0755
 3994SOL    HW123615   0.759   1.434   5.421 -1.4422  0.1112 -1.1656
 3994SOL    HW223616   0.640   1.344   5.441  0.3877 -0.6031  1.6846
 3995SOL     OW23617   1.750   2.874   2.824 -0.7271 -0.3527  0.2022
 3995SOL    HW123618   1.713   2.944   2.877  0.4811 -0.1653  0.7860
 3995SOL    HW223619   1.782   2.826   2.900 -3.1434 -0.1470  1.3418
 3996SOL     OW23620   3.214   2.622   7.254  0.0282 -0.7746 -0.1722
 3996SOL    HW123621   3.159   2.670   7.192 -1.7445 -1.1533  1.1106
 3996SOL    HW223622   3.220   2.689   7.322  2.5764 -0.6840 -0.4818
 3997SOL     OW23623   4.503   3.088   4.411  0.3355  0.0418 -0.7664
 3997SOL    HW123624   4.435   3.154   4.398 -0.3070 -0.2849  0.8391
 3997SOL    HW223625   4.537   3.076   4.323 -0.3513  1.3427 -1.1974
 3998SOL     OW23626   3.515   1.854   9.708  0.9414 -0.3886  0.3995
 3998SOL    HW123627   3.508   1.946   9.736 -1.4819 -0.7989  1.1364
 3998SOL    HW223628   3.521   1.807   9.791 -0.4800  1.4636  1.5726
 3999SOL     OW23629   0.158   3.183   3.272 -0.3996 -0.3113  0.1952
 3999SOL    HW123630   0.123   3.244   3.207  0.2839  0.1561  0.2674
 3999SOL    HW223631   0.227   3.138   3.221 -1.2356 -2.2199  0.7378
 4000SOL     OW23632   3.316   4.676   8.860 -0.1803  0.3976  0.0633
 4000SOL    HW123633   3.276   4.589   8.850  1.8747 -0.5329  0.0351
 4000SOL    HW223634   3.241   4.717   8.904  0.4650  1.1297  0.4701
 4001SOL     OW23635   1.347   1.559  14.376 -0.2935  0.0741  0.3735
 4001SOL    HW123636   1.341   1.467  14.402  0.2906 -0.4360 -1.3388
 4001SOL    HW223637   1.410   1.598  14.437 -2.0688 -0.4813  2.5594
 4002SOL     OW23638   3.805   0.317  14.395 -0.2841  0.4166 -0.2438
 4002SOL    HW123639   3.788   0.284  14.483 -1.2790 -0.6383 -0.8377
 4002SOL    HW223640   3.736   0.275  14.344  1.7068 -1.0283 -1.7084
 4003SOL     OW23641   0.234   3.645   2.300 -0.2372  0.1925 -0.8650
 4003SOL    HW123642   0.143   3.673   2.288 -0.5663 -0.0642  1.0603
 4003SOL    HW223643   0.255   3.582   2.231  0.5028 -0.0381 -0.4305
 4004SOL     OW23644   0.073   3.107   8.855  0.4446 -0.0823  0.0780
 4004SOL    HW123645   0.115   3.074   8.934  1.5555 -2.4728 -1.4965
 4004SOL    HW223646   0.142   3.119   8.790 -0.2261 -2.2491 -1.0372
 4005SOL     OW23647   4.668   3.032  11.700  0.0880 -0.1821 -0.9824
 4005SOL    HW123648   4.727   2.964  11.668  0.6725 -0.0410 -0.1850
 4005SOL    HW223649   4.683   3.016  11.793 -0.3430 -0.3348 -0.9394
 4006SOL     OW23650   4.668   3.876   9.379 -0.5702 -0.1218  0.1747
 4006SOL    HW123651   0.018   3.840   9.355  0.5438  2.9300 -0.4719
 4006SOL    HW223652   4.641   3.802   9.434  0.7172  1.0585  2.3914
 4007SOL     OW23653   2.542   0.234  17.614 -0.1626 -0.4649 -0.4869
 4007SOL    HW123654   2.484   0.191  17.677 -1.8581  1.8101 -0.4771
 4007SOL    HW223655   2.493   0.314  17.595 -0.6279 -0.5124  0.5059
 4008SOL     OW23656   2.404   4.023  11.890 -0.4572 -0.1068  0.1999
 4008SOL    HW123657   2.459   3.945  11.902 -1.6363 -1.2605 -1.8120
 4008SOL    HW223658   2.379   4.009  11.798 -1.4355  2.7258  0.0363
 4009SOL     OW23659   3.965   3.877   1.663  0.2751  0.2454 -0.0716
 4009SOL    HW123660   3.916   3.813   1.611 -1.0807  1.5012 -0.3451
 4009SOL    HW223661   4.017   3.815   1.713 -0.8162  0.4058  1.2685
 4010SOL     OW23662   3.904   1.643  14.177  0.1306 -0.0603  0.3254
 4010SOL    HW123663   3.938   1.686  14.256 -0.6106  0.8350  0.1674
 4010SOL    HW223664   3.900   1.552  14.203  2.3656  0.4519  2.4757
 4011SOL     OW23665   3.378   1.826   8.807 -0.1405  1.1476  0.4085
 4011SOL    HW123666   3.296   1.830   8.856 -0.1350 -0.8702  0.6091
 4011SOL    HW223667   3.432   1.890   8.854  3.2907 -0.8649 -0.7913
 4012SOL     OW23668   4.448   4.126   3.322 -0.0115 -0.0383  0.2960
 4012SOL    HW123669   4.401   4.049   3.353 -0.3555  0.0103 -0.1065
 4012SOL    HW223670   4.392   4.201   3.343  2.1907  0.9689  2.6491
 4013SOL     OW23671   1.554   3.758   8.521  0.3038 -0.2083 -0.2587
 4013SOL    HW123672   1.550   3.749   8.425  0.5385 -3.5077  0.0503
 4013SOL    HW223673   1.621   3.826   8.526  0.0403 -0.0829  1.3770
 4014SOL     OW23674   2.904   1.456   3.182  0.2702  0.4810  0.4617
 4014SOL    HW123675   2.813   1.462   3.211  0.4861 -0.9577  1.4107
 4014SOL    HW223676   2.950   1.415   3.256 -2.8038 -2.2755  0.8475
 4015SOL     OW23677   3.409   3.395   2.706 -0.3470 -0.0563  0.1688
 4015SOL    HW123678   3.492   3.430   2.674 -1.9006  4.2559  0.7922
 4015SOL    HW223679   3.383   3.463   2.769 -0.1849  0.6255 -0.4928
 4016SOL     OW23680   1.406   0.700  14.260  0.0134 -0.1557  0.6143
 4016SOL    HW123681   1.476   0.765  14.271  0.2483 -0.5583  1.4416
 4016SOL    HW223682   1.337   0.761  14.286  0.6047  1.2239 -0.9851
 4017SOL     OW23683   3.185   2.442  14.428  0.2306  0.4490 -0.3054
 4017SOL    HW123684   3.277   2.448  14.453  0.8648 -2.6567 -1.9096
 4017SOL    HW223685   3.164   2.534  14.448 -0.0904  0.3205 -0.0512
 4018SOL     OW23686   1.763   3.430  14.908 -0.2549 -0.0257 -0.3104
 4018SOL    HW123687   1.795   3.414  14.997  2.1008  1.3037 -0.9179
 4018SOL    HW223688   1.693   3.366  14.897 -0.0743 -0.2721 -0.0209
 4019SOL     OW23689   4.555   2.104   6.712 -0.2371  0.2230 -0.0284
 4019SOL    HW123690   4.516   2.074   6.795 -1.1896 -1.8323 -1.1977
 4019SOL    HW223691   4.482   2.087   6.652  1.2382 -0.4273 -1.6263
 4020SOL     OW23692   1.255   1.180   8.521 -0.8478 -0.3942  0.0764
 4020SOL    HW123693   1.333   1.203   8.571 -1.2362  3.0397 -0.8476
 4020SOL    HW223694   1.222   1.269   8.507 -1.6760 -0.7258 -0.0402
 4021SOL     OW23695   3.064   3.076   8.595  0.1121  0.4449  0.0476
 4021SOL    HW123696   3.077   3.070   8.500  1.6320  0.1693  0.2739
 4021SOL    HW223697   3.044   3.167   8.614  2.8219  0.6028  2.1294
 4022SOL     OW23698   0.941   3.184   3.686 -0.1467  0.1294 -0.0272
 4022SOL    HW123699   0.948   3.204   3.593  0.8967 -0.0960  0.0078
 4022SOL    HW223700   0.919   3.270   3.722  1.9433  1.0890 -1.0676
 4023SOL     OW23701   1.275   3.703  16.510 -0.4102  1.0498 -0.2987
 4023SOL    HW123702   1.268   3.794  16.481 -1.7604  0.5358 -1.5803
 4023SOL    HW223703   1.200   3.689  16.568 -1.0803  1.0205 -1.1651
 4024SOL     OW23704   0.388   4.445   5.861 -0.0710  0.2131 -0.4812
 4024SOL    HW123705   0.340   4.474   5.783 -3.9294 -3.0631  0.6574
 4024SOL    HW223706   0.412   4.353   5.853 -2.3104 -0.4663  0.4899
 4025SOL     OW23707   4.586   2.554   8.044  0.4865  0.1267 -0.4446
 4025SOL    HW123708   4.594   2.475   8.097  0.9690  1.3459  1.3175
 4025SOL    HW223709   4.679   2.571   8.028  1.1707  0.1712  3.5669
 4026SOL     OW23710   3.958   3.102  14.920 -0.0336  0.1280  1.1732
 4026SOL    HW123711   3.995   3.190  14.924 -1.0378  0.6836 -1.1712
 4026SOL    HW223712   3.981   3.070  15.007 -0.1590 -1.0749  0.7586
 4027SOL     OW23713   0.955   0.790   6.103  0.0243 -0.2324  0.2351
 4027SOL    HW123714   0.928   0.871   6.145 -0.1934 -0.3624  0.3475
 4027SOL    HW223715   0.942   0.731   6.177  0.4941 -0.6004  0.0235
 4028SOL     OW23716   1.541   0.869   8.503  0.0388 -0.6702  0.4667
 4028SOL    HW123717   1.535   0.949   8.451 -0.6073  0.5757  2.4554
 4028SOL    HW223718   1.607   0.819   8.455  0.7563  0.4234  0.3145
 4029SOL     OW23719   1.715   0.097  17.518  0.3589  0.7946  0.3193
 4029SOL    HW123720   1.769   0.035  17.469  1.5246  3.1431 -1.3615
 4029SOL    HW223721   1.639   0.100  17.459  0.5615  2.3400  0.1347
 4030SOL     OW23722   1.407   1.084  17.356  0.0906 -0.2405 -0.0686
 4030SOL    HW123723   1.468   1.105  17.285  0.2005 -0.9362 -0.1878
 4030SOL    HW223724   1.422   0.990  17.365  0.8071 -0.0376  0.8119
 4031SOL     OW23725   0.879   3.876   6.429  0.3448 -0.4221  0.4631
 4031SOL    HW123726   0.798   3.849   6.473 -0.0550  0.8659  0.5085
 4031SOL    HW223727   0.839   3.941   6.371  0.0696 -1.0908 -0.1059
 4032SOL     OW23728   2.887   0.624   2.633 -0.1372 -0.3098 -0.4448
 4032SOL    HW123729   2.938   0.615   2.552  0.6406  0.9520 -0.0863
 4032SOL    HW223730   2.827   0.691   2.601 -2.2840 -1.9089  0.1735
 4033SOL     OW23731   2.898   2.832   3.971 -0.1921  0.1327 -0.6501
 4033SOL    HW123732   2.806   2.847   3.950 -0.2349  0.9456  0.0931
 4033SOL    HW223733   2.939   2.842   3.886 -2.7448  2.3259 -1.6359
 4034SOL     OW23734   3.842   2.655   8.647  0.1242 -1.0394  0.2884
 4034SOL    HW123735   3.924   2.647   8.695  1.1618  0.4425 -1.2374
 4034SOL    HW223736   3.787   2.708   8.705  1.9469 -0.9119  1.9023
 4035SOL     OW23737   2.978   3.975   3.867 -0.2940  0.5618  0.2236
 4035SOL    HW123738   2.984   4.052   3.924 -1.6054  0.4301  0.5385
 4035SOL    HW223739   2.901   3.939   3.910  0.2034 -0.2743  0.4037
 4036SOL     OW23740   2.738   3.096   9.763 -0.2117 -0.3835  0.1288
 4036SOL    HW123741   2.735   3.088   9.858  0.4580 -1.9297  0.0192
 4036SOL    HW223742   2.751   3.003   9.744 -0.1330 -0.3466 -0.0003
 4037SOL     OW23743   0.435   2.681   3.295  0.1126  0.1247 -0.5881
 4037SOL    HW123744   0.452   2.757   3.238  0.5271  0.6116  0.1887
 4037SOL    HW223745   0.428   2.612   3.228 -2.3920  0.3418 -0.5556
 4038SOL     OW23746   0.339   0.704   1.856  0.0362  0.6650  0.0835
 4038SOL    HW123747   0.365   0.747   1.775  1.1858  0.0866  0.1511
 4038SOL    HW223748   0.380   0.619   1.845 -2.0168 -0.4161  0.8433
 4039SOL     OW23749   0.078   1.983   8.345 -0.6952 -1.0026  0.1485
 4039SOL    HW123750   0.111   1.910   8.294  2.8885  0.7798 -0.0324
 4039SOL    HW223751   0.038   2.025   8.269  1.4742 -0.7365 -0.8310
 4040SOL     OW23752   0.190   1.228   1.839  0.2458 -0.4427  0.0152
 4040SOL    HW123753   0.147   1.183   1.767 -0.4169 -0.4086  0.3917
 4040SOL    HW223754   0.128   1.298   1.860 -0.0461  0.0032 -2.3345
 4041SOL     OW23755   4.607   3.792  14.941  0.5608  0.1808 -0.2071
 4041SOL    HW123756   4.662   3.784  14.863  0.0005  0.2905 -0.6193
 4041SOL    HW223757   4.669   3.808  15.012  0.3570  1.3955 -0.2939
 4042SOL     OW23758   3.585   2.093   9.767  0.0896 -1.0960  0.0784
 4042SOL    HW123759   3.671   2.077   9.806  0.9189 -0.1566 -1.3800
 4042SOL    HW223760   3.577   2.184   9.794 -2.3081 -0.9876 -0.9932
 4043SOL     OW23761   4.688   2.705   2.082  0.2091 -0.6097 -0.3187
 4043SOL    HW123762   4.648   2.622   2.108 -1.2805 -0.3554 -1.7584
 4043SOL    HW223763   4.675   2.761   2.158 -1.3618  1.1608 -1.8731
 4044SOL     OW23764   1.331   3.994   2.909 -0.2088 -0.1696 -0.3756
 4044SOL    HW123765   1.411   4.009   2.958 -1.7533  1.5023  1.6195
 4044SOL    HW223766   1.359   4.019   2.821  0.2828 -0.1688 -0.2150
 4045SOL     OW23767   0.692   1.076   1.691 -0.2358 -0.4660  0.0487
 4045SOL    HW123768   0.666   1.036   1.608  0.8176  0.3318 -0.6705
 4045SOL    HW223769   0.609   1.090   1.737 -0.5137 -0.5042 -0.4431
 4046SOL     OW23770   0.988   0.075  11.986 -0.1104  0.0839  0.1982
 4046SOL    HW123771   0.950   4.725  11.965  1.4098 -0.6954  0.5768
 4046SOL    HW223772   0.943   0.148  11.942 -0.3274  0.3820  0.9118
 4047SOL     OW23773   4.413   4.002   4.457  0.8056 -0.1931  0.7001
 4047SOL    HW123774   4.502   4.016   4.424 -0.0383 -0.1819 -1.5565
 4047SOL    HW223775   4.425   3.924   4.510  2.1550  1.0381  2.1846
 4048SOL     OW23776   2.622   2.818   7.557  0.3672 -0.0884 -0.5634
 4048SOL    HW123777   2.629   2.750   7.489  0.9029  0.1728 -0.7698
 4048SOL    HW223778   2.707   2.815   7.601 -0.2700 -0.6582  0.6277
 4049SOL     OW23779   3.202   0.031   2.960 -1.1521  0.2768 -0.4633
 4049SOL    HW123780   3.244   4.685   2.988  0.0036  1.1802  0.4023
 4049SOL    HW223781   3.269   0.054   2.896  0.7562 -0.7812  1.1651
 4050SOL     OW23782   0.753   2.855   4.660 -0.3669  0.2824  0.1077
 4050SOL    HW123783   0.708   2.847   4.576  0.3332 -0.9800 -0.1517
 4050SOL    HW223784   0.683   2.837   4.722 -0.2764  2.6506  0.8842
 4051SOL     OW23785   0.544   4.199   3.676 -0.2822 -0.5017 -0.7123
 4051SOL    HW123786   0.599   4.193   3.754 -0.9927  0.8712 -0.1019
 4051SOL    HW223787   0.459   4.172   3.712  0.1190 -0.4936  0.2348
 4052SOL     OW23788   2.918   2.404   6.776  0.3389  0.1235 -0.0278
 4052SOL    HW123789   2.983   2.333   6.767  1.5805  1.2487  0.0990
 4052SOL    HW223790   2.932   2.441   6.689  0.4408 -0.9273 -0.4708
 4053SOL     OW23791   1.929   3.381  15.458 -0.0329  0.6457 -0.1360
 4053SOL    HW123792   1.896   3.351  15.543  0.4352 -0.0246 -0.1866
 4053SOL    HW223793   2.006   3.324  15.465 -0.7235 -0.0026  2.1414
 4054SOL     OW23794   2.197   1.549   7.727 -0.3872  0.6401 -0.4886
 4054SOL    HW123795   2.156   1.614   7.783 -1.2265 -0.7475  0.5213
 4054SOL    HW223796   2.119   1.501   7.698  0.1709  0.7741 -2.2004
 4055SOL     OW23797   4.056   0.099   2.838 -0.3875  0.3264  0.0957
 4055SOL    HW123798   4.059   0.006   2.857  0.2060 -0.1149 -2.1439
 4055SOL    HW223799   3.992   0.102   2.768 -0.6677 -2.3328  0.2653
 4056SOL     OW23800   2.854   3.306   6.271  0.4654  0.5895  0.2003
 4056SOL    HW123801   2.868   3.372   6.339 -0.9193  0.7761  0.3119
 4056SOL    HW223802   2.841   3.223   6.318  1.0526  0.6593  0.4841
 4057SOL     OW23803   3.437   1.670  10.216 -0.2811  0.3181 -0.2441
 4057SOL    HW123804   3.517   1.630  10.250 -0.6497 -0.5036 -0.3643
 4057SOL    HW223805   3.386   1.590  10.205  2.7924 -1.7219  0.3668
 4058SOL     OW23806   2.280   4.391  16.977 -0.1449  0.1520 -0.5714
 4058SOL    HW123807   2.196   4.407  16.933 -1.2580 -2.3834  0.6806
 4058SOL    HW223808   2.256   4.416  17.066 -0.0017 -2.0495  0.0732
 4059SOL     OW23809   1.042   3.009   7.411 -0.3552  0.6488  0.2245
 4059SOL    HW123810   1.092   2.984   7.334 -1.1016  0.6445 -0.2623
 4059SOL    HW223811   1.085   3.091   7.435 -0.7868  0.7022  0.8297
 4060SOL     OW23812   3.036   0.189   2.756  0.2376 -0.2185 -0.0169
 4060SOL    HW123813   3.054   0.134   2.680  1.4870  1.5906 -1.0317
 4060SOL    HW223814   3.071   0.141   2.831  0.7124  2.6942  1.6248
 4061SOL     OW23815   1.757   1.853   5.048 -0.5198 -0.4245  0.4743
 4061SOL    HW123816   1.819   1.926   5.052 -0.8570 -0.0718 -0.8022
 4061SOL    HW223817   1.758   1.826   5.140 -1.8340  1.7834  1.1193
 4062SOL     OW23818   4.378   3.035  16.281 -0.1012  0.1023 -0.3783
 4062SOL    HW123819   4.324   2.959  16.302  3.4065 -1.4911  2.8654
 4062SOL    HW223820   4.340   3.106  16.333  0.9685 -1.6926  2.8287
 4063SOL     OW23821   4.373   1.953   3.797 -0.1046 -0.1323 -0.3533
 4063SOL    HW123822   4.303   1.942   3.733  0.5714 -1.1209 -0.9163
 4063SOL    HW223823   4.330   2.017   3.854 -2.3599  0.0378 -2.2588
 4064SOL     OW23824   1.433   0.453   2.698  0.5859  0.1945 -0.1922
 4064SOL    HW123825   1.524   0.436   2.723  0.5023  1.0632  0.6903
 4064SOL    HW223826   1.415   0.515   2.768 -2.9193 -0.2775 -0.6617
 4065SOL     OW23827   2.605   2.787   8.436  0.0572  0.4474 -0.5107
 4065SOL    HW123828   2.652   2.867   8.415 -0.3143  0.7474 -0.1882
 4065SOL    HW223829   2.513   2.803   8.415 -0.0828 -0.1716 -0.3682
 4066SOL     OW23830   4.329   2.499   5.937  0.9078  0.3048 -0.2854
 4066SOL    HW123831   4.346   2.457   5.853 -0.7878  0.4421 -0.6961
 4066SOL    HW223832   4.332   2.591   5.910  0.1533  0.4488  0.1148
 4067SOL     OW23833   1.431   3.130   2.317  0.5798 -0.0210  0.4039
 4067SOL    HW123834   1.451   3.207   2.370 -1.8416  0.3947  0.6951
 4067SOL    HW223835   1.520   3.097   2.300 -0.2878 -2.7519  1.0885
 4068SOL     OW23836   1.401   4.319   9.981  0.4640 -0.6238  0.0171
 4068SOL    HW123837   1.435   4.377  10.049  0.6443 -1.3213  0.5198
 4068SOL    HW223838   1.465   4.339   9.913 -0.8906  2.4507 -0.3767
 4069SOL     OW23839   2.754   2.153   4.497  0.0502  0.2877 -0.9002
 4069SOL    HW123840   2.837   2.130   4.453 -0.8663 -0.5275 -2.2121
 4069SOL    HW223841   2.769   2.112   4.582  0.3327  1.8948 -0.1729
 4070SOL     OW23842   1.463   3.700   8.272 -0.3413 -0.3988  0.2396
 4070SOL    HW123843   1.409   3.629   8.237 -1.0692  1.3327 -2.0848
 4070SOL    HW223844   1.411   3.779   8.260  1.0427  0.4199 -0.2690
 4071SOL     OW23845   3.039   4.043   8.929  0.0350  0.2852  0.2576
 4071SOL    HW123846   3.050   4.113   8.994 -1.8982  0.9137 -0.0961
 4071SOL    HW223847   2.968   3.994   8.971 -1.3525  2.3289  0.2818
 4072SOL     OW23848   1.734   3.384   5.509  0.2350 -0.1593  0.2610
 4072SOL    HW123849   1.806   3.355   5.453  0.1569  1.3935 -0.6404
 4072SOL    HW223850   1.758   3.475   5.522 -1.4652  0.2034  0.8479
 4073SOL     OW23851   0.875   1.277   0.046 -0.0587  0.5644  0.3227
 4073SOL    HW123852   0.817   1.225   0.102 -0.3118  2.4789  1.8206
 4073SOL    HW223853   0.833   1.285  17.699 -0.5483 -1.5628  0.3685
 4074SOL     OW23854   0.876   1.691   2.555  0.2297 -0.3084 -0.5609
 4074SOL    HW123855   0.929   1.718   2.481 -1.9951 -1.4730 -2.5686
 4074SOL    HW223856   0.867   1.600   2.527 -0.5766 -0.8918  1.5776
 4075SOL     OW23857   0.645   0.314  15.219 -0.0629  0.9730  0.3647
 4075SOL    HW123858   0.599   0.308  15.303  0.5367 -0.4581  0.5857
 4075SOL    HW223859   0.642   0.224  15.188  0.7416  0.6099  1.3634
 4076SOL     OW23860   3.680   4.137  15.311  0.4740  0.1898  0.2972
 4076SOL    HW123861   3.617   4.163  15.243  1.2086  1.7098  0.1847
 4076SOL    HW223862   3.653   4.212  15.364 -2.5397 -1.0316  0.4667
 4077SOL     OW23863   2.117   1.798   2.842  0.1725  0.3585 -0.0766
 4077SOL    HW123864   2.085   1.877   2.886 -1.8965 -0.6253  0.1855
 4077SOL    HW223865   2.212   1.805   2.835  0.1832  0.1772 -0.1213
 4078SOL     OW23866   1.580   3.668   4.046  0.3138  0.7492  0.6032
 4078SOL    HW123867   1.486   3.661   4.062  0.3583  1.4481  1.1597
 4078SOL    HW223868   1.614   3.595   4.098 -1.8019 -0.8334 -0.2207
 4079SOL     OW23869   2.853   2.971   7.305 -0.1393 -0.3659 -0.1193
 4079SOL    HW123870   2.840   2.887   7.350 -0.6609 -0.9639 -1.3691
 4079SOL    HW223871   2.946   2.978   7.323 -0.1196 -1.7323  0.3488
 4080SOL     OW23872   0.523   3.317   3.094  0.2578 -0.3461 -0.2117
 4080SOL    HW123873   0.508   3.412   3.089 -1.5808 -0.5690  1.1559
 4080SOL    HW223874   0.596   3.302   3.034  0.0349  2.0346 -1.0945
 4081SOL     OW23875   2.657   0.436   2.955 -0.3443  0.4936 -0.4061
 4081SOL    HW123876   2.685   0.398   3.038  3.0790  0.2936 -1.6357
 4081SOL    HW223877   2.573   0.464   2.990  1.5400  1.8627  3.0069
 4082SOL     OW23878   4.477   2.176   8.883 -0.3003 -0.2013  0.2625
 4082SOL    HW123879   4.446   2.168   8.973 -0.2646  1.4137  0.4044
 4082SOL    HW223880   4.403   2.146   8.829  0.0447 -1.6662  0.5999
 4083SOL     OW23881   1.843   0.856  15.564 -0.5377 -0.3100  0.0671
 4083SOL    HW123882   1.811   0.838  15.475  1.0795 -0.2764 -0.5150
 4083SOL    HW223883   1.825   0.948  15.582 -2.9968 -0.3386 -2.2641
 4084SOL     OW23884   0.794   0.570   7.741  0.4550 -0.1544 -0.0345
 4084SOL    HW123885   0.850   0.512   7.793 -1.3194 -1.9712 -0.1286
 4084SOL    HW223886   0.777   0.638   7.806 -0.2912 -0.3547 -0.0239
 4085SOL     OW23887   2.067   0.022  15.549 -0.5482 -0.1687  0.1802
 4085SOL    HW123888   2.155   4.721  15.539 -0.8464 -0.6369 -0.7103
 4085SOL    HW223889   2.078   0.064  15.634 -2.3547  0.8420 -0.0768
 4086SOL     OW23890   1.704   1.714  14.011  0.0190 -0.4290  0.9610
 4086SOL    HW123891   1.692   1.786  13.949  0.8355 -0.0903  1.1963
 4086SOL    HW223892   1.786   1.689  13.969  0.0473 -0.6560  1.1501
 4087SOL     OW23893   2.241   1.180   4.554  0.3986 -0.6594  1.2539
 4087SOL    HW123894   2.204   1.176   4.643 -5.3310  0.4275 -1.0407
 4087SOL    HW223895   2.301   1.252   4.570 -1.5253  1.1917  0.1927
 4088SOL     OW23896   4.127   4.143   2.195  0.8374  0.3200 -0.2568
 4088SOL    HW123897   4.125   4.078   2.124 -1.0368 -2.5408  2.4093
 4088SOL    HW223898   4.216   4.132   2.227  0.8700  0.0338 -0.4426
 4089SOL     OW23899   0.986   4.183   2.103  0.6271  0.1616  0.1122
 4089SOL    HW123900   1.051   4.177   2.173  0.0272 -1.2117  0.5460
 4089SOL    HW223901   0.968   4.275   2.125  0.2859 -0.7858  3.7853
 4090SOL     OW23902   4.545   3.231  10.536  0.2787 -0.3455 -0.7302
 4090SOL    HW123903   4.543   3.170  10.610  1.6003  0.2705 -0.1802
 4090SOL    HW223904   4.617   3.200  10.482  0.1620 -0.6863 -0.6929
 4091SOL     OW23905   3.898   1.539  13.298 -0.5064  0.0913 -0.1166
 4091SOL    HW123906   3.928   1.628  13.315  0.3793 -0.3571  0.6245
 4091SOL    HW223907   3.808   1.557  13.270 -0.5702 -0.0120  0.0201
 4092SOL     OW23908   1.051   2.157   7.880 -0.7300 -0.0144 -0.2797
 4092SOL    HW123909   1.023   2.066   7.877 -0.7151 -0.0824  1.6973
 4092SOL    HW223910   1.040   2.164   7.785 -2.7519 -1.7303 -0.1604
 4093SOL     OW23911   2.884   4.534   6.485 -0.0025 -0.0728 -0.0708
 4093SOL    HW123912   2.976   4.556   6.480  0.0286  0.0924  1.2805
 4093SOL    HW223913   2.845   4.621   6.489 -1.9836 -0.9820  0.5576
 4094SOL     OW23914   2.948   3.443   4.763  0.3861  0.4098  0.5394
 4094SOL    HW123915   2.872   3.416   4.816 -0.2627 -1.6248 -1.4277
 4094SOL    HW223916   2.944   3.374   4.697 -1.1731  0.2587  0.7882
 4095SOL     OW23917   0.899   0.633   6.312 -0.8038  0.3807  0.1948
 4095SOL    HW123918   0.906   0.545   6.347  0.9743  0.2060 -0.6121
 4095SOL    HW223919   0.857   0.678   6.385  0.5513 -0.3044  1.3823
 4096SOL     OW23920   0.011   0.278   8.735  0.5758 -0.3827 -0.0921
 4096SOL    HW123921   0.095   0.242   8.708  1.4421 -0.0791  2.1869
 4096SOL    HW223922   0.040   0.359   8.777 -0.2864  0.4428 -1.0765
 4097SOL     OW23923   2.130   0.014   8.516  0.1751 -0.1790 -0.2753
 4097SOL    HW123924   2.176   4.684   8.462 -0.0124 -1.0332  0.5924
 4097SOL    HW223925   2.187   0.087   8.493 -0.6730  0.5030 -0.1991
 4098SOL     OW23926   1.666   0.565   5.556  0.2435  0.1576  0.0995
 4098SOL    HW123927   1.676   0.477   5.592  1.9183  0.2412 -0.1758
 4098SOL    HW223928   1.749   0.601   5.586  0.6978 -0.5482 -0.3202
 4099SOL     OW23929   0.789   3.221   6.662 -0.2029 -0.5085  0.4425
 4099SOL    HW123930   0.711   3.269   6.690  0.5693  1.3853 -0.6670
 4099SOL    HW223931   0.765   3.131   6.684  2.1094 -0.9936  0.9788
 4100SOL     OW23932   2.518   2.515   2.809 -0.2912 -0.5256 -0.1979
 4100SOL    HW123933   2.470   2.435   2.830 -1.9327  0.3625 -0.5531
 4100SOL    HW223934   2.482   2.544   2.726 -0.1574  2.3846  0.7651
 4101SOL     OW23935   1.739   2.657   1.573 -0.1858 -0.2879 -0.0117
 4101SOL    HW123936   1.648   2.672   1.599 -0.3866 -2.6118  0.6840
 4101SOL    HW223937   1.737   2.596   1.499  2.0570 -0.7393  0.3125
 4102SOL     OW23938   1.065   4.156   1.325 -0.1317 -0.3373  0.0449
 4102SOL    HW123939   1.062   4.072   1.279  0.9122  0.0923 -0.8159
 4102SOL    HW223940   0.977   4.194   1.319 -0.4226 -0.6382  2.5717
 4103SOL     OW23941   2.153   2.317   2.342  0.1163 -0.1974  0.1605
 4103SOL    HW123942   2.240   2.301   2.307 -0.0599  1.4975 -1.0364
 4103SOL    HW223943   2.100   2.265   2.282 -0.4638 -0.1159  0.6016
 4104SOL     OW23944   4.258   2.898  10.013  0.0069  0.3210  0.1013
 4104SOL    HW123945   4.345   2.870  10.044  1.0842  0.2246 -3.0327
 4104SOL    HW223946   4.244   2.829   9.948  0.5199 -0.8323  1.2160
 4105SOL     OW23947   0.765   2.039   3.283 -0.0793  0.2983  0.1227
 4105SOL    HW123948   0.777   2.088   3.201  2.4354 -1.4562 -0.5480
 4105SOL    HW223949   0.712   1.964   3.256 -0.8596  0.9447 -0.1702
 4106SOL     OW23950   3.331   0.312  10.689 -0.0812  0.3686 -0.7080
 4106SOL    HW123951   3.405   0.357  10.646  1.7659 -0.3616  1.6973
 4106SOL    HW223952   3.362   0.317  10.779 -1.1815 -0.1577 -0.3149
 4107SOL     OW23953   0.509   3.792  14.925  0.1021  0.5729  0.3429
 4107SOL    HW123954   0.543   3.880  14.940  2.4789 -0.4955  1.2014
 4107SOL    HW223955   0.416   3.813  14.915  0.2452  1.1858  0.3009
 4108SOL     OW23956   4.363   0.316   3.400  0.4100  0.1830  0.1744
 4108SOL    HW123957   4.434   0.377   3.422 -1.6432  2.7857 -0.4931
 4108SOL    HW223958   4.411   0.266   3.334 -0.0998  1.2142 -0.9536
 4109SOL     OW23959   4.654   1.123   1.159 -0.5484  0.9501 -0.4886
 4109SOL    HW123960   4.560   1.138   1.152 -0.4669  0.8965 -1.6322
 4109SOL    HW223961   4.688   1.196   1.212  2.5743 -0.2171 -0.8560
 4110SOL     OW23962   1.715   1.837  15.431 -0.4510 -0.0095  0.1168
 4110SOL    HW123963   1.667   1.840  15.513 -0.0374  2.6155  0.2778
 4110SOL    HW223964   1.657   1.877  15.366 -1.4719 -3.0588 -0.8667
 4111SOL     OW23965   0.578   4.107  14.622 -0.4691 -0.1896 -0.2839
 4111SOL    HW123966   0.592   4.039  14.688  1.3427  0.2118 -0.2484
 4111SOL    HW223967   0.548   4.052  14.549 -1.8519 -0.1487  0.2542
 4112SOL     OW23968   4.076   1.943  14.927 -0.3835 -0.0467  0.3058
 4112SOL    HW123969   4.068   1.916  14.835  0.1967  2.2692 -0.4093
 4112SOL    HW223970   4.166   1.973  14.931 -0.1751 -0.4502 -1.2845
 4113SOL     OW23971   2.386   0.616   5.847  0.3867  0.5073 -0.0321
 4113SOL    HW123972   2.346   0.537   5.811  1.1941  0.7991 -1.6052
 4113SOL    HW223973   2.444   0.571   5.908  0.4000  0.0202 -0.4097
 4114SOL     OW23974   1.542   0.115   3.212 -0.0365 -0.4667  0.4360
 4114SOL    HW123975   1.557   0.153   3.298  0.7092 -2.5794  1.2360
 4114SOL    HW223976   1.560   0.022   3.218  0.9093 -0.4031 -1.2244
 4115SOL     OW23977   2.542   3.208  10.359 -0.2597 -0.1105  0.3812
 4115SOL    HW123978   2.471   3.224  10.421  0.4095  2.6921  0.4545
 4115SOL    HW223979   2.512   3.244  10.275 -1.7031  0.7437  1.2547
 4116SOL     OW23980   3.231   3.164  11.531  0.2170  0.2326 -0.1864
 4116SOL    HW123981   3.297   3.232  11.547  0.7579 -0.6353  1.3226
 4116SOL    HW223982   3.188   3.204  11.455  0.1255  1.3882  0.4674
 4117SOL     OW23983   1.238   4.205   0.078 -0.1239  0.1156 -0.1222
 4117SOL    HW123984   1.189   4.232   0.155  0.3943  1.0686 -0.1251
 4117SOL    HW223985   1.269   4.120   0.110  0.5047  1.8385  3.8279
 4118SOL     OW23986   4.385   3.053  11.907 -0.5579  0.6035  0.8252
 4118SOL    HW123987   4.358   3.030  11.818 -2.1286 -0.6334  1.6183
 4118SOL    HW223988   4.361   2.978  11.962 -0.1067  1.0169  1.5933
 4119SOL     OW23989   0.889   3.485   1.909 -0.1729 -0.5658 -0.0272
 4119SOL    HW123990   0.853   3.466   1.823 -2.6590  0.0185  0.8644
 4119SOL    HW223991   0.815   3.533   1.948 -1.4688 -0.1289 -3.0571
 4120SOL     OW23992   3.890   2.944   6.977 -0.1309 -0.5473 -0.1983
 4120SOL    HW123993   3.974   2.987   6.964 -0.1637 -0.5198 -0.3160
 4120SOL    HW223994   3.864   2.977   7.063 -0.9400 -2.2251  0.2104
 4121SOL     OW23995   1.230   0.420  10.582  0.7173  0.0459 -0.2195
 4121SOL    HW123996   1.323   0.440  10.596 -0.0259  2.6982  0.8501
 4121SOL    HW223997   1.205   0.486  10.518 -0.3023  1.4712  1.6518
 4122SOL     OW23998   2.889   1.908   6.803  0.7223 -0.3802  0.4075
 4122SOL    HW123999   2.830   1.964   6.752  1.1245  0.0719  0.4396
 4122SOL    HW224000   2.834   1.834   6.828  0.3545  0.0262  0.7871
 4123SOL     OW24001   3.476   1.157   6.393  0.1201 -0.4484 -0.0766
 4123SOL    HW124002   3.547   1.191   6.339  1.3158 -2.6040  0.1699
 4123SOL    HW224003   3.419   1.232   6.409  1.9248  1.0346 -0.6708
 4124SOL     OW24004   2.783   3.999  11.612 -0.6140  0.4748 -0.3023
 4124SOL    HW124005   2.790   4.093  11.596 -1.2214  0.3063 -1.5138
 4124SOL    HW224006   2.788   3.994  11.708 -0.0866 -0.1058 -0.3601
 4125SOL     OW24007   1.148   2.781   9.121 -0.0540  0.4204  0.5388
 4125SOL    HW124008   1.122   2.698   9.083 -1.0256  1.4759 -1.0685
 4125SOL    HW224009   1.185   2.749   9.204 -0.3094 -0.4510  0.3134
 4126SOL     OW24010   2.198   0.405   4.640  0.3067 -0.4039 -0.4855
 4126SOL    HW124011   2.273   0.408   4.581 -0.6043  1.2306 -1.5586
 4126SOL    HW224012   2.198   0.498   4.661  2.3168 -0.9683  2.0271
 4127SOL     OW24013   3.039   1.471  11.784 -0.3376  0.3649  0.3735
 4127SOL    HW124014   2.984   1.393  11.774 -2.7316  2.3338 -1.5971
 4127SOL    HW224015   3.031   1.512  11.699 -2.3906  2.8454  1.7491
 4128SOL     OW24016   2.717   4.695   9.381 -0.1586  0.3702 -0.5818
 4128SOL    HW124017   2.635   4.713   9.427 -0.1246 -3.6216  1.0656
 4128SOL    HW224018   2.776   4.720   9.451 -0.5478 -0.0444 -0.1068
 4129SOL     OW24019   4.164   2.807   3.755  0.2727  0.4798 -0.0431
 4129SOL    HW124020   4.088   2.858   3.727  0.9237  2.6100  2.0751
 4129SOL    HW224021   4.167   2.843   3.844 -0.2892 -1.5262  0.8007
 4130SOL     OW24022   0.214   3.920   2.414 -0.2303  0.6286  0.0773
 4130SOL    HW124023   0.157   3.965   2.352 -0.6389 -1.5252 -1.0992
 4130SOL    HW224024   0.271   3.866   2.360 -1.1820 -0.7256  0.4396
 4131SOL     OW24025   0.540   3.377   3.581  0.2811  0.4511 -0.1010
 4131SOL    HW124026   0.466   3.368   3.522  0.1239 -1.8008  0.4551
 4131SOL    HW224027   0.488   3.383   3.662  1.0481 -0.6435  0.4728
 4132SOL     OW24028   3.439   0.618   8.579  0.1476 -0.4196  0.0136
 4132SOL    HW124029   3.434   0.702   8.624  0.3177  0.5468 -1.7807
 4132SOL    HW224030   3.457   0.650   8.491  0.2229  2.7588  1.1910
 4133SOL     OW24031   4.473   3.434   6.427  0.0870  0.6332 -0.2174
 4133SOL    HW124032   4.427   3.501   6.376  0.2849  0.1822 -0.9854
 4133SOL    HW224033   4.459   3.467   6.515  0.1991 -1.4108  0.5634
 4134SOL     OW24034   1.488   1.973  15.311  0.1094 -0.0425 -0.5067
 4134SOL    HW124035   1.461   2.033  15.242  0.0988 -2.0735 -2.2651
 4134SOL    HW224036   1.498   2.040  15.379 -0.9844 -1.9064  1.4786
 4135SOL     OW24037   1.889   3.925   8.279  0.3467 -0.1563  0.8935
 4135SOL    HW124038   1.940   3.998   8.243  0.6286  0.4405  2.4864
 4135SOL    HW224039   1.938   3.846   8.257  0.3584  0.4977 -1.3449
 4136SOL     OW24040   4.617   0.192   1.651 -0.4893  0.1780  0.5424
 4136SOL    HW124041   4.660   0.265   1.605 -0.1171 -0.8431 -0.7492
 4136SOL    HW224042   4.630   0.123   1.585  0.1883  0.0962  0.7534
 4137SOL     OW24043   1.458   2.950   5.973  0.0357 -0.0665 -0.0830
 4137SOL    HW124044   1.522   2.882   5.992  0.4997 -0.5838 -3.6460
 4137SOL    HW224045   1.440   2.936   5.880 -1.6788  0.7276  0.1165
 4138SOL     OW24046   2.397   4.015   3.371 -0.2977  0.1675  0.2278
 4138SOL    HW124047   2.404   4.025   3.276  0.3779 -2.7496 -0.0303
 4138SOL    HW224048   2.369   4.105   3.391 -0.5960  0.0984  0.1138
 4139SOL     OW24049   0.434   3.240   2.080  0.2627  0.3003 -0.1049
 4139SOL    HW124050   0.373   3.167   2.066  0.8720 -0.2407  0.0638
 4139SOL    HW224051   0.513   3.190   2.056  0.7271  1.2322 -0.4930
 4140SOL     OW24052   0.653   2.586   6.654  0.5184  0.0116  0.6076
 4140SOL    HW124053   0.584   2.632   6.606  0.9291 -1.3686 -1.2773
 4140SOL    HW224054   0.726   2.619   6.601  2.4050 -2.8033  1.4658
 4141SOL     OW24055   3.640   3.906   8.874 -0.1382 -0.2435 -0.3503
 4141SOL    HW124056   3.623   3.998   8.856 -0.2695 -0.1797  0.0912
 4141SOL    HW224057   3.735   3.914   8.867 -0.4239  2.1101 -1.4248
 4142SOL     OW24058   2.546   4.728  16.006  0.0743 -0.1575 -0.4156
 4142SOL    HW124059   2.501   4.666  15.949  1.5627 -0.9933 -0.6815
 4142SOL    HW224060   2.634   4.698  15.984  1.4939  2.8967  1.0526
 4143SOL     OW24061   3.259   3.925   6.013  0.3056  0.4981  0.2149
 4143SOL    HW124062   3.201   3.914   5.937  1.7648 -2.6056 -0.4761
 4143SOL    HW224063   3.332   3.977   5.980 -0.2113  0.5997 -0.7789
 4144SOL     OW24064   1.008   0.157  16.561  0.1712  0.0986  0.2891
 4144SOL    HW124065   1.027   0.214  16.636 -0.1976 -0.2439  0.6403
 4144SOL    HW224066   1.084   0.099  16.573 -0.6907 -1.2379 -0.6492
 4145SOL     OW24067   0.607   0.554   4.894 -0.1039  0.0216 -0.0061
 4145SOL    HW124068   0.591   0.583   4.804  0.1122  2.4544  0.7405
 4145SOL    HW224069   0.520   0.566   4.933  0.5023  1.7088  0.8189
 4146SOL     OW24070   0.815   3.324   4.145 -0.3346  0.0646  0.7255
 4146SOL    HW124071   0.878   3.263   4.181 -1.1825 -1.3657 -0.2104
 4146SOL    HW224072   0.841   3.409   4.180  0.4070  1.0629 -2.2484
 4147SOL     OW24073   3.462   0.237  15.508 -0.2079  0.4217  0.2357
 4147SOL    HW124074   3.537   0.237  15.567 -0.8204 -0.1809  1.0314
 4147SOL    HW224075   3.404   0.298  15.552 -1.1604  0.7324 -1.4556
 4148SOL     OW24076   0.568   4.112   8.941 -0.2741 -0.1698  0.1717
 4148SOL    HW124077   0.590   4.021   8.958  3.8818  0.7608 -0.2451
 4148SOL    HW224078   0.591   4.114   8.848 -0.8239  0.1051  0.0419
 4149SOL     OW24079   1.830   0.310   1.919 -0.5572  0.1867 -0.2041
 4149SOL    HW124080   1.855   0.349   1.836  1.7383  0.8181  0.7736
 4149SOL    HW224081   1.845   0.381   1.981  1.8591 -1.3998  1.0407
 4150SOL     OW24082   4.389   1.368   0.802 -0.5766  0.2944  0.3168
 4150SOL    HW124083   4.406   1.438   0.865 -1.0219 -0.8930  1.7437
 4150SOL    HW224084   4.323   1.414   0.751 -0.3832  0.7499  0.4724
 4151SOL     OW24085   3.348   0.937   5.329  0.2097  0.1795  0.2545
 4151SOL    HW124086   3.305   0.877   5.269 -1.0127  1.0945  0.2135
 4151SOL    HW224087   3.279   0.997   5.358  1.1448 -0.1268  3.1883
 4152SOL     OW24088   4.146   3.009   5.024 -0.2020 -0.1745  0.4115
 4152SOL    HW124089   4.137   2.915   5.012 -1.3956  0.1819 -1.4762
 4152SOL    HW224090   4.205   3.031   4.951 -1.0651 -0.4540 -0.3661
 4153SOL     OW24091   3.019   3.859  11.507  0.4219 -0.2939  0.3706
 4153SOL    HW124092   2.958   3.809  11.453  1.2564 -0.5468 -0.3269
 4153SOL    HW224093   2.960   3.901  11.570 -0.7924  0.3169 -1.1524
 4154SOL     OW24094   2.427   2.672   0.336 -0.3897  0.4739 -0.1025
 4154SOL    HW124095   2.354   2.663   0.275 -1.7595 -1.2043  1.7592
 4154SOL    HW224096   2.453   2.580   0.334  1.8603  1.1094  0.4218
 4155SOL     OW24097   3.103   1.789   6.683  0.4433  0.2832 -0.2448
 4155SOL    HW124098   3.031   1.835   6.726  0.5102  1.7377 -1.6976
 4155SOL    HW224099   3.164   1.862   6.670  0.6037  0.1893 -0.0115
 4156SOL     OW24100   3.386   4.573  13.006  0.1046 -0.8257  0.6227
 4156SOL    HW124101   3.413   4.540  12.921 -0.0720 -0.4371  0.4145
 4156SOL    HW224102   3.385   4.494  13.060  0.6721 -1.2373  0.0326
 4157SOL     OW24103   1.212   0.193   3.790  0.3659 -0.3429 -0.3150
 4157SOL    HW124104   1.206   0.157   3.878  1.0776 -0.4068 -0.2941
 4157SOL    HW224105   1.178   0.283   3.790  0.4512 -0.3243  2.1769
 4158SOL     OW24106   3.866   1.452  11.353 -0.6738 -0.5063 -0.3833
 4158SOL    HW124107   3.914   1.372  11.333  0.3453  0.2914 -1.2040
 4158SOL    HW224108   3.896   1.465  11.443  1.3471 -0.5213 -1.0402
 4159SOL     OW24109   2.055   1.175   5.819  0.1580 -0.3939  0.0849
 4159SOL    HW124110   2.109   1.189   5.896  1.0843 -1.8338 -0.2881
 4159SOL    HW224111   2.118   1.205   5.754  0.2376 -0.0093  0.3437
 4160SOL     OW24112   0.685   2.619   4.154  0.0298  0.8458  0.0414
 4160SOL    HW124113   0.750   2.647   4.218  0.6390  0.2852 -0.3315
 4160SOL    HW224114   0.620   2.681   4.186 -3.1402 -1.8877 -1.1349
 4161SOL     OW24115   4.564   2.977  13.574  0.5937  0.2553 -0.0740
 4161SOL    HW124116   4.564   2.891  13.615  1.6998 -0.7380 -2.1659
 4161SOL    HW224117   4.483   3.016  13.608 -0.3775 -0.3239 -1.7420
 4162SOL     OW24118   0.476   0.610   8.758  0.1057 -0.3083  0.7480
 4162SOL    HW124119   0.398   0.643   8.714 -1.1298 -0.6961  2.6406
 4162SOL    HW224120   0.532   0.687   8.768  1.7151 -1.3490 -0.0744
 4163SOL     OW24121   2.076   1.273  11.985  0.4955 -0.3320 -0.2301
 4163SOL    HW124122   2.020   1.298  11.911 -1.3857 -0.5224  1.1308
 4163SOL    HW224123   2.162   1.297  11.951  0.3025  1.4036  0.5143
 4164SOL     OW24124   4.702   4.014   2.291 -0.1196  0.1430  0.2785
 4164SOL    HW124125   4.635   4.026   2.224 -0.6628  0.6707  0.9100
 4164SOL    HW224126   4.716   4.105   2.317  0.4707  0.3410 -0.7418
 4165SOL     OW24127   1.549   2.535   8.550 -0.0212 -0.2136 -0.3842
 4165SOL    HW124128   1.501   2.530   8.468  0.1357 -0.6331 -0.4489
 4165SOL    HW224129   1.480   2.533   8.615  1.3738  1.3622  1.1570
 4166SOL     OW24130   3.105   2.769   8.347  0.1619  0.2558 -0.0839
 4166SOL    HW124131   3.157   2.695   8.316  1.3504  0.2701  1.8911
 4166SOL    HW224132   3.032   2.735   8.398 -1.2014  0.2477 -2.0518
 4167SOL     OW24133   1.784   1.958  12.348 -0.0945  0.3392 -0.2425
 4167SOL    HW124134   1.824   2.006  12.275 -0.5428 -0.5737 -1.0800
 4167SOL    HW224135   1.787   1.873  12.304 -0.0399 -0.2324  0.8679
 4168SOL     OW24136   0.660   1.501  16.709 -0.0261  0.6588  0.2040
 4168SOL    HW124137   0.628   1.441  16.777  0.2700  0.8392  0.5011
 4168SOL    HW224138   0.654   1.584  16.756  0.2910 -1.2427  3.6497
 4169SOL     OW24139   0.692   2.717   3.424  0.1344 -0.2659  0.5250
 4169SOL    HW124140   0.611   2.733   3.375  0.2144  1.9035  1.1059
 4169SOL    HW224141   0.755   2.755   3.364  0.7115  0.8249  1.8273
 4170SOL     OW24142   3.424   2.527   5.237 -0.6630 -0.4643  0.1590
 4170SOL    HW124143   3.467   2.542   5.321  0.4982 -1.5863 -0.2293
 4170SOL    HW224144   3.485   2.569   5.176 -1.7767 -0.3936 -0.9228
 4171SOL     OW24145   1.123   1.384   2.060  0.7219 -0.2038 -0.0564
 4171SOL    HW124146   1.198   1.386   1.999  0.4128 -1.3191 -0.4787
 4171SOL    HW224147   1.055   1.353   2.000 -0.6483  1.7430  0.4957
 4172SOL     OW24148   1.327   3.647   4.152  0.3663  0.7622  0.3132
 4172SOL    HW124149   1.258   3.670   4.089 -0.0495  0.7507  0.7695
 4172SOL    HW224150   1.298   3.557   4.165 -1.7976  1.3923 -0.1127
 4173SOL     OW24151   0.490   4.659   0.662  0.0286 -0.1540  0.4573
 4173SOL    HW124152   0.529   4.592   0.606  1.1711 -0.8799  2.1285
 4173SOL    HW224153   0.565   4.699   0.706 -0.2325  0.3719  0.4231
 4174SOL     OW24154   1.428   4.628  13.993 -0.1822 -0.6818 -0.3134
 4174SOL    HW124155   1.480   4.637  13.913  0.6961  0.2206  0.3525
 4174SOL    HW224156   1.383   4.544  13.986  0.5068 -0.9710 -1.3479
 4175SOL     OW24157   3.683   2.342   8.246  0.8770  0.0784  0.3793
 4175SOL    HW124158   3.730   2.304   8.171  0.4252  2.5283 -1.1394
 4175SOL    HW224159   3.746   2.335   8.317 -1.5707 -1.2546  2.4053
 4176SOL     OW24160   2.091   1.141   7.854 -0.0540 -0.8315  0.0733
 4176SOL    HW124161   2.069   1.223   7.898  1.8423  1.6506 -3.6118
 4176SOL    HW224162   2.004   1.112   7.826  0.3896 -0.5896 -1.5610
 4177SOL     OW24163   1.510   4.704   8.512  0.2309 -0.2474 -0.3236
 4177SOL    HW124164   1.435   0.011   8.470 -0.5411  0.3187  1.6249
 4177SOL    HW224165   1.570   4.717   8.438  0.3892 -0.4214 -0.2253
 4178SOL     OW24166   1.581   0.479   8.750 -0.3653 -0.6706 -0.0310
 4178SOL    HW124167   1.573   0.448   8.840  0.6369  0.5318  0.4748
 4178SOL    HW224168   1.625   0.405   8.706 -1.5275 -1.0171 -0.5972
 4179SOL     OW24169   2.820   2.682   3.064 -0.2586 -0.0092 -0.4347
 4179SOL    HW124170   2.844   2.718   2.979 -2.2075  2.0362 -0.1063
 4179SOL    HW224171   2.724   2.681   3.056 -0.2669 -0.6571 -0.3036
 4180SOL     OW24172   0.357   4.008   3.797 -0.2629 -0.5512 -0.1934
 4180SOL    HW124173   0.338   3.915   3.809 -2.2294  0.2536  2.7292
 4180SOL    HW224174   0.283   4.056   3.833 -0.4558 -2.5445  2.1136
 4181SOL     OW24175   1.499   2.103   3.421  0.1253 -0.0844 -0.0955
 4181SOL    HW124176   1.420   2.060   3.387  0.1610  0.7648 -1.2437
 4181SOL    HW224177   1.480   2.100   3.515  2.0899 -0.6461  0.2746
 4182SOL     OW24178   3.542   4.487   5.440 -0.2853  0.3845 -0.0893
 4182SOL    HW124179   3.608   4.424   5.410  0.0986  1.3739 -1.3588
 4182SOL    HW224180   3.586   4.525   5.516 -1.2802 -0.8753  1.1082
 4183SOL     OW24181   4.428   1.686   5.751  0.9821  0.0385 -0.0022
 4183SOL    HW124182   4.358   1.741   5.715 -0.4406 -0.6285  1.7024
 4183SOL    HW224183   4.431   1.610   5.694 -1.0924  1.0872 -1.5136
 4184SOL     OW24184   4.177   0.041   6.641  0.5382  0.0800  0.1568
 4184SOL    HW124185   4.237   0.108   6.608 -0.3085  0.1507 -1.2730
 4184SOL    HW224186   4.165   0.057   6.734  0.7820 -1.5108  0.4612
 4185SOL     OW24187   2.814   1.127   7.484  0.0915  0.5940  0.3269
 4185SOL    HW124188   2.733   1.115   7.435 -0.3866 -1.3589  1.5895
 4185SOL    HW224189   2.837   1.039   7.516  0.7615  0.5713 -0.2128
 4186SOL     OW24190   1.850   0.067   8.527  0.1442  0.4910 -0.0703
 4186SOL    HW124191   1.944   0.050   8.535  0.3761  1.5515 -0.6166
 4186SOL    HW224192   1.822   4.724   8.480  1.5936 -0.6615  0.9961
 4187SOL     OW24193   3.009   1.063   7.203  0.0863  0.0642 -0.0728
 4187SOL    HW124194   2.921   1.027   7.197  0.1439  0.3129 -2.4348
 4187SOL    HW224195   3.006   1.144   7.153  0.4197  0.3416  0.3481
 4188SOL     OW24196   1.863   1.207   7.392 -0.2663 -0.4475 -0.0572
 4188SOL    HW124197   1.859   1.225   7.486  0.4772  0.7224 -0.2518
 4188SOL    HW224198   1.822   1.287   7.359  1.1658  0.6384  0.7791
 4189SOL     OW24199   3.725   1.687   9.852  0.4115 -0.2787  0.5988
 4189SOL    HW124200   3.798   1.749   9.861  0.9926 -0.7749 -0.8002
 4189SOL    HW224201   3.671   1.710   9.928 -2.6211  1.2245 -2.0433
 4190SOL     OW24202   3.186   0.503  12.289  0.5742  0.3622  0.2096
 4190SOL    HW124203   3.186   0.598  12.285 -0.0713  0.3124 -1.2184
 4190SOL    HW224204   3.279   0.489  12.269  0.1502 -1.2968 -0.6458
 4191SOL     OW24205   4.419   0.817  10.929  0.5186 -0.1040  0.1292
 4191SOL    HW124206   4.416   0.774  11.015  0.6648 -1.4261 -0.5295
 4191SOL    HW224207   4.411   0.911  10.943 -0.0183  0.1227 -1.7052
 4192SOL     OW24208   0.834   3.481   2.561 -0.1172 -0.0915  0.0759
 4192SOL    HW124209   0.923   3.504   2.534 -0.6773  1.0893 -0.7656
 4192SOL    HW224210   0.853   3.418   2.630 -0.0151  0.0609  0.1874
 4193SOL     OW24211   0.965   2.475  17.215 -0.1942 -0.1470  0.5732
 4193SOL    HW124212   0.883   2.524  17.219  0.3707  0.8155  0.6134
 4193SOL    HW224213   0.931   2.386  17.223  0.1633 -0.3364  0.0122
 4194SOL     OW24214   3.200   4.044   5.775  0.3431  0.2252  0.3242
 4194SOL    HW124215   3.207   4.134   5.808  0.0495  0.5840 -0.5868
 4194SOL    HW224216   3.124   4.057   5.719 -0.0286 -1.5906  0.3970
 4195SOL     OW24217   4.157   4.231  16.822 -0.6011 -0.0666 -0.3361
 4195SOL    HW124218   4.121   4.145  16.796 -0.2943  0.0977 -1.3178
 4195SOL    HW224219   4.220   4.250  16.753  2.1265 -2.1139  1.5891
 4196SOL     OW24220   0.837   3.149   5.376 -0.0886  0.5293 -0.7354
 4196SOL    HW124221   0.922   3.110   5.351 -0.9418 -2.0325  0.3632
 4196SOL    HW224222   0.817   3.097   5.454 -0.8119  2.2687  0.2108
 4197SOL     OW24223   0.348   1.247   6.413  0.0115 -0.4090 -0.0020
 4197SOL    HW124224   0.370   1.319   6.472 -0.5788 -0.5714  0.4164
 4197SOL    HW224225   0.368   1.292   6.331  0.1071 -0.5415 -0.0513
 4198SOL     OW24226   0.649   2.445   0.672 -0.3383  0.4553 -0.4388
 4198SOL    HW124227   0.590   2.513   0.704 -1.0786  0.3940 -1.6641
 4198SOL    HW224228   0.576   2.389   0.643  0.7851 -1.1990 -0.0848
 4199SOL     OW24229   1.450   0.370   2.168 -0.4089  0.1268  0.0958
 4199SOL    HW124230   1.375   0.406   2.214 -1.3963 -1.6642 -0.1075
 4199SOL    HW224231   1.464   0.296   2.227  0.9316  0.3105  0.0192
 4200SOL     OW24232   0.241   0.363   7.006 -0.3236 -0.1192 -0.1805
 4200SOL    HW124233   0.327   0.344   7.043 -0.2887  0.6836  0.1673
 4200SOL    HW224234   0.259   0.449   6.969 -1.4193  0.7585  1.2922
 4201SOL     OW24235   3.687   3.088  11.238 -0.2304 -0.2934  0.6572
 4201SOL    HW124236   3.683   3.135  11.322  1.1317  0.5604  0.2479
 4201SOL    HW224237   3.594   3.069  11.227  0.1836 -1.0655 -1.3554
 4202SOL     OW24238   4.355   2.420   0.482  0.3302 -0.3485  0.2702
 4202SOL    HW124239   4.411   2.352   0.519  1.2032 -0.1172 -0.6439
 4202SOL    HW224240   4.284   2.359   0.463  0.2733  0.0936 -0.9641
 4203SOL     OW24241   1.683   2.443   3.075  0.2274 -1.2801  0.0817
 4203SOL    HW124242   1.625   2.396   3.134 -1.1215 -1.1293 -1.1333
 4203SOL    HW224243   1.751   2.455   3.142 -0.1870 -1.0057  0.4591
 4204SOL     OW24244   1.432   1.441   7.071  0.4300  0.7520  0.6402
 4204SOL    HW124245   1.449   1.519   7.018 -0.1965 -0.6761 -1.6402
 4204SOL    HW224246   1.428   1.475   7.160  0.5772 -1.1726  1.3674
 4205SOL     OW24247   3.479   1.956   0.299  0.6160 -0.0649  0.4967
 4205SOL    HW124248   3.438   2.040   0.282  1.0624 -0.4431 -2.3177
 4205SOL    HW224249   3.447   1.912   0.220 -0.4941  0.3047  0.7453
 4206SOL     OW24250   2.922   3.299   7.973 -0.1578 -0.1083 -0.2753
 4206SOL    HW124251   2.845   3.353   7.953 -0.0772  0.0325 -0.2055
 4206SOL    HW224252   2.889   3.211   7.992 -2.1117  0.8710  0.9061
 4207SOL     OW24253   1.100   3.898   1.745 -0.1354 -0.2825 -0.3040
 4207SOL    HW124254   1.056   3.867   1.824 -0.2219 -1.2498 -0.7343
 4207SOL    HW224255   1.155   3.819   1.743  1.6829  0.9128  1.7077
 4208SOL     OW24256   1.227   3.905   1.366  0.7214  0.5386  0.2389
 4208SOL    HW124257   1.275   3.895   1.284 -0.0020  2.4646 -0.4281
 4208SOL    HW224258   1.152   3.852   1.341  0.2126  1.6004 -0.5260
 4209SOL     OW24259   1.763   0.253   3.066  0.1057  0.4752 -0.1392
 4209SOL    HW124260   1.856   0.233   3.067 -0.1180 -0.5519  0.1856
 4209SOL    HW224261   1.741   0.222   3.154  1.8502 -0.5594 -0.0698
 4210SOL     OW24262   1.166   0.842   3.758 -0.2104 -1.2179  0.0113
 4210SOL    HW124263   1.171   0.783   3.683  0.3669 -1.4140  0.2096
 4210SOL    HW224264   1.158   0.930   3.720 -2.0090 -1.3055  0.1572
 4211SOL     OW24265   0.129   4.281  10.190  0.1028  0.3026 -0.1593
 4211SOL    HW124266   0.076   4.236  10.255  2.7715 -0.8871  1.1965
 4211SOL    HW224267   0.164   4.207  10.138  2.1391  0.6109  0.7855
 4212SOL     OW24268   0.071   4.284   0.840 -0.1053  0.4848  0.2205
 4212SOL    HW124269   4.731   4.339   0.863 -1.1739 -1.3831  1.2699
 4212SOL    HW224270   0.049   4.269   0.748 -0.8916 -1.0481  0.6454
 4213SOL     OW24271   0.117   3.069   7.242  0.3193  0.6754 -0.0085
 4213SOL    HW124272   0.044   3.125   7.213  0.1516 -0.5076 -1.8976
 4213SOL    HW224273   0.109   3.001   7.175  0.5564  0.0139  0.6473
 4214SOL     OW24274   3.657   2.790  10.573  0.2149  0.2113 -0.3177
 4214SOL    HW124275   3.654   2.884  10.552 -0.2404 -0.2644 -2.4143
 4214SOL    HW224276   3.706   2.803  10.654 -0.3664 -0.8485  0.2089
 4215SOL     OW24277   1.036   4.268   3.447  0.0972 -0.0791  0.3223
 4215SOL    HW124278   0.988   4.299   3.370  0.9503 -1.3871 -0.7360
 4215SOL    HW224279   0.966   4.288   3.509  0.4814  0.6990  0.5068
 4216SOL     OW24280   0.316   0.341   0.028  0.5151  0.1615 -0.0339
 4216SOL    HW124281   0.355   0.368  17.684 -0.9649 -0.1748 -0.8329
 4216SOL    HW224282   0.231   0.308  17.739  0.9580 -0.2694 -0.8767
 4217SOL     OW24283   0.309   1.121   6.693 -0.5603 -0.1589 -0.0337
 4217SOL    HW124284   0.280   1.208   6.664  0.8510  0.1769 -0.4267
 4217SOL    HW224285   0.364   1.093   6.620  1.0721  1.9409  0.3969
 4218SOL     OW24286   3.511   2.404   3.656 -0.0841  0.1353  0.0060
 4218SOL    HW124287   3.557   2.487   3.670 -0.2316 -0.4773  4.0655
 4218SOL    HW224288   3.545   2.355   3.731  1.3772 -0.6570 -1.1876
 4219SOL     OW24289   0.616   4.624   9.046 -0.2011  0.2710  0.5378
 4219SOL    HW124290   0.591   4.696   9.104 -1.8966  1.6302 -1.8736
 4219SOL    HW224291   0.590   4.560   9.112  0.5279 -1.1883 -0.5929
 4220SOL     OW24292   1.621   0.423  11.640 -0.1654 -0.0901 -0.2319
 4220SOL    HW124293   1.532   0.421  11.605  0.5683  3.8780 -2.3318
 4220SOL    HW224294   1.602   0.445  11.731  3.0164 -0.2423  0.4592
 4221SOL     OW24295   0.276   4.667  12.039  0.3008 -0.5116 -0.3724
 4221SOL    HW124296   0.275   0.024  12.066 -0.1956 -0.8948  0.9268
 4221SOL    HW224297   0.344   4.637  12.100  0.5689 -1.8509 -1.3587
 4222SOL     OW24298   1.325   0.805   7.222 -0.2945 -0.3686  0.6338
 4222SOL    HW124299   1.390   0.834   7.158 -1.4946  0.4528 -0.2197
 4222SOL    HW224300   1.307   0.893   7.255  1.0278 -0.5892  1.9236
 4223SOL     OW24301   3.107   4.025   1.638  0.6347  0.1317  0.1583
 4223SOL    HW124302   3.040   4.005   1.572  0.5619  0.2841  0.1846
 4223SOL    HW224303   3.071   4.107   1.671 -0.2724 -1.4768  3.0621
 4224SOL     OW24304   4.507   1.922   0.511 -0.3162  0.4586  0.2381
 4224SOL    HW124305   4.504   1.830   0.485 -1.7480  0.0627  1.7694
 4224SOL    HW224306   4.563   1.955   0.441 -1.0251  2.5271  0.6631
 4225SOL     OW24307   3.651   1.195   6.812  0.0366  0.1336 -0.2588
 4225SOL    HW124308   3.634   1.277   6.765 -0.7868  0.3373  0.3823
 4225SOL    HW224309   3.618   1.204   6.902  2.5249  0.4810  0.6472
 4226SOL     OW24310   1.385   0.091  16.208 -0.0124  0.1235 -0.5311
 4226SOL    HW124311   1.473   0.073  16.176  0.2651 -0.6898  0.6734
 4226SOL    HW224312   1.364   0.173  16.164  0.2049 -0.3186 -1.4555
 4227SOL     OW24313   2.527   3.193   5.537  0.2264 -0.1710 -0.4896
 4227SOL    HW124314   2.497   3.283   5.548 -1.2392 -0.7135 -0.0723
 4227SOL    HW224315   2.520   3.157   5.626  1.7959  0.7563  0.0167
 4228SOL     OW24316   2.160   4.297  12.626 -0.1406  0.2302  0.0873
 4228SOL    HW124317   2.123   4.383  12.643 -2.2287 -0.3487 -1.5409
 4228SOL    HW224318   2.253   4.307  12.606 -0.3354  0.6446 -0.6095
 4229SOL     OW24319   2.827   1.242  16.391 -0.3333  0.1458 -0.3218
 4229SOL    HW124320   2.851   1.181  16.322  0.1080 -0.1810  0.1154
 4229SOL    HW224321   2.889   1.315  16.392  1.6755 -1.5820  0.5819
 4230SOL     OW24322   2.328   1.552   0.494 -0.2802  0.1703 -0.0163
 4230SOL    HW124323   2.283   1.493   0.434 -1.9344  0.5387  0.8645
 4230SOL    HW224324   2.275   1.535   0.572 -1.1769  0.0152 -0.6704
 4231SOL     OW24325   2.367   0.995   4.345 -0.7541  0.2210 -0.5438
 4231SOL    HW124326   2.332   1.040   4.422  2.2866 -1.2710  1.6994
 4231SOL    HW224327   2.412   0.926   4.393 -1.8525 -0.2434 -0.1748
 4232SOL     OW24328   2.231   3.615   7.705  0.2869 -0.7063  0.1844
 4232SOL    HW124329   2.300   3.559   7.740  1.3130  1.2826  1.3057
 4232SOL    HW224330   2.218   3.583   7.615 -0.4980  2.2799 -0.7854
 4233SOL     OW24331   2.888   1.830   0.491 -0.4389 -0.3996 -0.8443
 4233SOL    HW124332   2.837   1.749   0.499  2.1696 -1.8293  1.6667
 4233SOL    HW224333   2.924   1.806   0.406  0.1363 -1.0267 -0.4251
 4234SOL     OW24334   1.828   3.260  10.868  0.3137 -0.3951  0.2411
 4234SOL    HW124335   1.897   3.294  10.925  2.0358 -3.1374 -0.1946
 4234SOL    HW224336   1.745   3.288  10.908  0.4780 -0.3337  0.5410
 4235SOL     OW24337   4.178   0.158   1.226 -0.3270 -0.3257  0.1828
 4235SOL    HW124338   4.091   0.127   1.250 -1.3408  3.4725  1.3167
 4235SOL    HW224339   4.172   0.247   1.261  1.1462 -0.9391  2.0226
 4236SOL     OW24340   2.788   1.571   0.495 -0.0242 -0.3091  0.7892
 4236SOL    HW124341   2.810   1.498   0.437 -0.4280  0.9965 -1.0195
 4236SOL    HW224342   2.842   1.540   0.568  0.4414  0.1307  0.6329
 4237SOL     OW24343   4.706   3.618   8.712 -0.3247 -0.0675 -0.2353
 4237SOL    HW124344   0.026   3.593   8.638  3.2418  1.7371  1.7945
 4237SOL    HW224345   4.670   3.532   8.734  1.0800 -1.0193 -1.6333
 4238SOL     OW24346   2.798   3.671  12.906 -0.4786  0.1497  0.0198
 4238SOL    HW124347   2.799   3.597  12.967  1.6718 -1.1086 -1.5464
 4238SOL    HW224348   2.784   3.627  12.821 -0.9147  1.5689 -0.6433
 4239SOL     OW24349   3.949   0.629  11.715  0.2388 -0.6218 -0.1518
 4239SOL    HW124350   3.901   0.692  11.661  1.6803 -0.5891 -1.3948
 4239SOL    HW224351   4.011   0.679  11.769  1.1921 -0.6966 -1.1577
 4240SOL     OW24352   0.385   4.133   2.530 -0.8284  0.5905 -0.1400
 4240SOL    HW124353   0.456   4.082   2.491 -0.3901  1.9106 -1.0799
 4240SOL    HW224354   0.315   4.070   2.515  0.2023 -0.4054 -0.8159
 4241SOL     OW24355   0.888   2.576  10.974  0.0348 -0.1304  0.0096
 4241SOL    HW124356   0.848   2.520  11.041 -0.9191  0.2565 -0.2403
 4241SOL    HW224357   0.896   2.519  10.897 -3.1085 -2.3924  1.3252
 4242SOL     OW24358   0.156   3.783  12.593 -0.0194 -0.4944 -0.2293
 4242SOL    HW124359   0.244   3.758  12.568 -0.0553 -1.2890  0.4548
 4242SOL    HW224360   0.154   3.868  12.548 -1.0634  0.0173  0.7726
 4243SOL     OW24361   1.743   3.599  15.703  0.3872  0.0735  0.9003
 4243SOL    HW124362   1.784   3.683  15.724 -0.2303  1.2965 -2.7455
 4243SOL    HW224363   1.651   3.621  15.712 -0.3455 -0.8656 -4.2392
 4244SOL     OW24364   4.516   1.155  11.659  0.1965  0.8453  0.3204
 4244SOL    HW124365   4.589   1.104  11.695  0.9604  0.4716 -1.7592
 4244SOL    HW224366   4.506   1.206  11.740  0.0867  0.8883  0.2803
 4245SOL     OW24367   1.172   1.113  16.338 -0.6887 -0.4940 -0.0117
 4245SOL    HW124368   1.186   1.048  16.406 -0.9124 -0.3605  0.1644
 4245SOL    HW224369   1.076   1.118  16.345 -0.4609  2.8578  0.7809
 4246SOL     OW24370   1.103   1.802   3.689  0.4585 -0.2403  0.5933
 4246SOL    HW124371   1.027   1.745   3.700  0.2664  0.4333  2.6367
 4246SOL    HW224372   1.158   1.753   3.628 -1.7862 -1.0171 -0.8145
 4247SOL     OW24373   2.701   1.441   7.826  0.9326  0.2675 -0.3083
 4247SOL    HW124374   2.738   1.475   7.744 -0.1809  0.0210 -0.9108
 4247SOL    HW224375   2.661   1.523   7.857 -2.3870 -1.3337 -0.3593
 4248SOL     OW24376   3.010   1.809   5.547  0.3117  0.2461  0.3243
 4248SOL    HW124377   3.065   1.845   5.617  1.4122  0.5429 -0.6910
 4248SOL    HW224378   2.963   1.735   5.584  1.0697 -0.1759  0.4481
 4249SOL     OW24379   0.605   1.678   4.849 -0.3312 -0.0464  0.2682
 4249SOL    HW124380   0.569   1.643   4.767  0.3358 -0.5927  0.2063
 4249SOL    HW224381   0.691   1.703   4.815 -0.4801  2.5091  1.8157
 4250SOL     OW24382   0.067   3.968   4.030  0.2942  0.3334  0.2877
 4250SOL    HW124383   4.735   4.036   4.034 -0.7566 -0.7267  0.4571
 4250SOL    HW224384   0.057   3.921   4.113  2.4052  0.8424  0.8328
 4251SOL     OW24385   4.135   3.029   6.907  0.0963 -0.1736  0.1420
 4251SOL    HW124386   4.212   3.048   6.960  0.2530  1.2411 -0.5887
 4251SOL    HW224387   4.174   2.980   6.835  1.2317 -0.4807  0.9779
 4252SOL     OW24388   3.837   3.919   1.366 -0.3039 -0.0488 -0.4820
 4252SOL    HW124389   3.757   3.952   1.408  1.9477  2.7839  1.5558
 4252SOL    HW224390   3.814   3.827   1.360 -0.4787  0.0993 -2.2098
 4253SOL     OW24391   0.009   3.506   9.566  0.7826 -0.6163  0.1079
 4253SOL    HW124392   0.011   3.465   9.480 -1.8818 -0.7938  0.1193
 4253SOL    HW224393   4.661   3.554   9.562  2.0885  1.5715 -0.0889
 4254SOL     OW24394   2.633   2.641  15.430  0.8526 -0.0387 -0.6340
 4254SOL    HW124395   2.651   2.691  15.509  0.5321 -1.8770  0.6099
 4254SOL    HW224396   2.538   2.639  15.422  0.6417  0.5878  1.6272
 4255SOL     OW24397   1.870   2.196   6.095  0.0873 -0.0476 -0.0000
 4255SOL    HW124398   1.776   2.189   6.076 -0.2208 -2.4931  2.3625
 4255SOL    HW224399   1.902   2.192   6.005  0.7663 -3.0782  0.3864
 4256SOL     OW24400   1.953   1.983  15.678 -0.0842  0.0936  0.8641
 4256SOL    HW124401   2.036   2.000  15.721 -0.3343 -0.3533  1.5339
 4256SOL    HW224402   1.969   1.956  15.588  0.5918  1.2237  0.6535
 4257SOL     OW24403   0.816   1.198   8.198  0.3914 -0.5011 -0.8083
 4257SOL    HW124404   0.792   1.255   8.271  0.4102 -0.6176 -0.7127
 4257SOL    HW224405   0.756   1.221   8.127 -0.7844  3.4696  1.4441
 4258SOL     OW24406   1.445   1.352   4.754 -0.2739  0.2810 -0.0215
 4258SOL    HW124407   1.380   1.420   4.769 -1.8242 -1.2959  0.4791
 4258SOL    HW224408   1.434   1.352   4.659  0.4990  0.1664 -0.1086
 4259SOL     OW24409   0.953   2.644  13.370 -0.1550 -0.4257 -0.2141
 4259SOL    HW124410   0.946   2.596  13.288  4.5172  2.2045 -2.1388
 4259SOL    HW224411   1.047   2.662  13.371 -0.0536 -1.0117  0.8593
 4260SOL     OW24412   4.311   0.744   6.727 -0.5061 -0.1983  0.0205
 4260SOL    HW124413   4.321   0.834   6.759  0.7148 -0.0798 -0.7017
 4260SOL    HW224414   4.216   0.740   6.716 -0.3402 -2.8219 -0.4882
 4261SOL     OW24415   2.111   3.584   4.427  0.6148 -0.5471  0.0529
 4261SOL    HW124416   2.152   3.523   4.487  1.4943  0.7456  0.7587
 4261SOL    HW224417   2.051   3.623   4.490  0.7853 -1.0969  0.5470
 4262SOL     OW24418   1.210   4.706  17.378 -0.2775 -0.2759  0.5063
 4262SOL    HW124419   1.154   0.014  17.314  1.8327  0.3516 -0.9130
 4262SOL    HW224420   1.258   0.045  17.415 -0.8528  0.8892 -1.1027
 4263SOL     OW24421   2.391   1.011   6.560 -0.1264  0.5338  0.4120
 4263SOL    HW124422   2.319   1.058   6.601 -0.9873 -1.9683  1.7673
 4263SOL    HW224423   2.357   0.924   6.578  1.9658 -0.4584 -0.4562
 4264SOL     OW24424   3.933   2.262   8.649 -0.3690 -0.2923 -0.6200
 4264SOL    HW124425   3.961   2.311   8.727  2.9522 -2.2878 -0.5674
 4264SOL    HW224426   4.009   2.204   8.645  0.8192  1.2350 -0.2692
 4265SOL     OW24427   1.339   4.473   0.301  0.0201 -0.5990  0.6672
 4265SOL    HW124428   1.309   4.504   0.216  1.5538  1.7147  0.9664
 4265SOL    HW224429   1.267   4.506   0.356 -0.4517  0.6412 -0.6964
 4266SOL     OW24430   0.704   1.748   3.066  0.1793  0.3925  0.2243
 4266SOL    HW124431   0.652   1.722   2.990  1.5873  1.6574 -1.1839
 4266SOL    HW224432   0.763   1.821   3.043  0.0371 -0.1212 -1.8042
 4267SOL     OW24433   1.113   2.846   5.517  0.4156 -0.7437  0.2777
 4267SOL    HW124434   1.207   2.859   5.507  0.3979 -0.3115  0.6639
 4267SOL    HW224435   1.106   2.776   5.581 -0.0949 -0.9793 -0.0287
 4268SOL     OW24436   4.444   0.755  14.488 -0.2206 -0.0952 -0.3751
 4268SOL    HW124437   4.396   0.775  14.407 -1.0780  0.3498  0.2454
 4268SOL    HW224438   4.515   0.692  14.471  0.3395 -0.2723  2.6872
 4269SOL     OW24439   1.001   4.310  11.692  0.3515  0.2684  0.6404
 4269SOL    HW124440   0.994   4.340  11.782  0.2394  0.8820  0.4290
 4269SOL    HW224441   1.095   4.326  11.677  0.5137 -1.8497 -0.6769
 4270SOL     OW24442   1.367   2.564   7.022  0.1697 -0.0418 -0.1620
 4270SOL    HW124443   1.312   2.489   7.001 -0.9631  0.8158 -0.2215
 4270SOL    HW224444   1.344   2.629   6.955  2.1362  0.0560 -0.7368
 4271SOL     OW24445   3.491   4.453   6.625  0.3153  0.2239 -0.2565
 4271SOL    HW124446   3.510   4.434   6.717  0.3323  0.1270 -0.2790
 4271SOL    HW224447   3.563   4.511   6.600 -0.8058  1.1924 -1.1918
 4272SOL     OW24448   1.138   3.247  16.267 -0.3965  0.0395  0.3769
 4272SOL    HW124449   1.158   3.323  16.321  1.2100 -0.2275  0.1451
 4272SOL    HW224450   1.219   3.248  16.216 -1.1449 -0.5738 -0.8194
 4273SOL     OW24451   1.251   1.541   2.405 -0.4141 -0.5726 -0.0240
 4273SOL    HW124452   1.184   1.601   2.374 -0.8745 -1.4698 -0.7562
 4273SOL    HW224453   1.211   1.501   2.483 -0.9891 -2.1927 -1.1493
 4274SOL     OW24454   2.395   1.665   8.557  0.0865  0.7958  0.0104
 4274SOL    HW124455   2.347   1.662   8.474 -0.1763  0.3862  0.1814
 4274SOL    HW224456   2.449   1.587   8.548  1.3620  1.9305 -2.4565
 4275SOL     OW24457   0.037   4.102  13.485 -0.3331 -0.0395  0.1699
 4275SOL    HW124458   0.063   4.185  13.446  0.1378 -1.6385 -2.9542
 4275SOL    HW224459   0.046   4.123  13.578  1.0641 -1.9709  0.4756
 4276SOL     OW24460   3.060   3.233   4.615 -0.2240  0.2337  0.1969
 4276SOL    HW124461   3.074   3.151   4.567  0.0425  0.3646  0.0541
 4276SOL    HW224462   3.127   3.286   4.571 -0.2537  1.2571  1.3957
 4277SOL     OW24463   2.798   1.283   5.659  0.1903 -0.1225  0.1223
 4277SOL    HW124464   2.771   1.215   5.598  0.6613  0.0655 -0.2892
 4277SOL    HW224465   2.799   1.239   5.745  0.0024 -0.5929 -0.1141
 4278SOL     OW24466   4.354   2.529   8.818  0.2107 -0.0422  0.3331
 4278SOL    HW124467   4.361   2.621   8.793  0.4152 -0.5549 -1.4983
 4278SOL    HW224468   4.444   2.506   8.842 -0.2653 -3.3253 -0.9890
 4279SOL     OW24469   2.630   4.690   4.267 -0.6104 -0.1797  0.2549
 4279SOL    HW124470   2.585   0.009   4.203 -4.0154  2.6281  5.0234
 4279SOL    HW224471   2.613   4.603   4.231 -1.1826 -0.6456  1.6586
 4280SOL     OW24472   4.290   4.592   9.170  0.4547 -0.3557  0.0047
 4280SOL    HW124473   4.370   4.590   9.221  0.5595  0.9874 -0.1114
 4280SOL    HW224474   4.311   4.579   9.077  1.7501  0.6508  0.1607
 4281SOL     OW24475   4.266   0.629   2.049  0.0787  0.0626  0.3365
 4281SOL    HW124476   4.329   0.574   2.095  0.2312  2.0994  2.5457
 4281SOL    HW224477   4.313   0.712   2.041  2.0015 -1.1032 -0.3963
 4282SOL     OW24478   2.143   0.577  10.097 -0.1420 -0.5648 -0.1859
 4282SOL    HW124479   2.089   0.538  10.165  0.3930 -1.2476 -0.1561
 4282SOL    HW224480   2.204   0.623  10.154  0.4565 -0.0143 -1.2624
 4283SOL     OW24481   3.521   4.407   9.238 -0.3427 -0.0635 -0.0676
 4283SOL    HW124482   3.505   4.342   9.170  0.5455 -1.0688  0.6878
 4283SOL    HW224483   3.500   4.489   9.193 -2.7467  0.0319  1.2069
 4284SOL     OW24484   0.978   2.783   6.215 -0.1495  0.4951 -0.7459
 4284SOL    HW124485   1.044   2.724   6.179 -2.3395 -0.4899 -3.1303
 4284SOL    HW224486   0.952   2.819   6.130  2.8223 -0.1606 -1.9432
 4285SOL     OW24487   0.354   3.338   9.073 -0.0633  0.0056  0.1455
 4285SOL    HW124488   0.336   3.285   8.995  0.6216  0.3395 -0.2332
 4285SOL    HW224489   0.330   3.275   9.141  0.2040  0.3986  0.5998
 4286SOL     OW24490   3.186   3.029   9.168  0.2664 -0.3446 -0.6988
 4286SOL    HW124491   3.144   2.954   9.128  1.5363 -1.4058 -0.0369
 4286SOL    HW224492   3.110   3.088   9.172  0.0509 -0.6180 -0.7597
 4287SOL     OW24493   2.762   1.299   8.978  0.2681 -0.2237 -0.8408
 4287SOL    HW124494   2.846   1.307   9.024 -0.5106 -2.1321  0.9502
 4287SOL    HW224495   2.705   1.280   9.053  0.7495  1.2515 -0.0935
 4288SOL     OW24496   1.962   3.596   3.415  0.6068  0.2822  0.2850
 4288SOL    HW124497   2.040   3.636   3.376  0.5779 -0.6617 -0.7391
 4288SOL    HW224498   1.933   3.668   3.471  1.4982 -0.5282  1.8163
 4289SOL     OW24499   4.686   0.793  10.831  1.0913  0.2714  0.6093
 4289SOL    HW124500   4.690   0.749  10.746 -1.4997 -0.3679  0.8047
 4289SOL    HW224501   4.592   0.783  10.850  1.1239 -0.7828  0.1942
 4290SOL     OW24502   4.038   3.651  11.024  0.2317  0.4855 -0.1147
 4290SOL    HW124503   3.988   3.684  10.950 -1.5244 -1.3897  0.2439
 4290SOL    HW224504   4.108   3.716  11.020  1.1193 -0.5305 -1.0097
 4291SOL     OW24505   1.252   4.006   5.426  0.2662 -0.8689 -0.1849
 4291SOL    HW124506   1.196   4.082   5.437  0.2099 -0.8349 -0.6933
 4291SOL    HW224507   1.197   3.938   5.466 -0.5371  0.5153  1.0603
 4292SOL     OW24508   2.723   3.545   4.596  0.3525 -0.1881 -0.0701
 4292SOL    HW124509   2.724   3.454   4.567 -0.0984 -0.7967  1.8201
 4292SOL    HW224510   2.730   3.534   4.691  0.8096  3.3927  0.3372
 4293SOL     OW24511   1.048   0.958   2.880  0.5029 -0.3219 -0.6149
 4293SOL    HW124512   1.136   0.922   2.893 -0.1255 -1.6898 -0.1960
 4293SOL    HW224513   1.001   0.881   2.846  0.0741 -0.1505 -0.4081
 4294SOL     OW24514   3.622   2.042   1.345 -0.3031 -0.3948  0.0301
 4294SOL    HW124515   3.674   2.056   1.266  0.5611  0.3083  0.7213
 4294SOL    HW224516   3.696   2.018   1.402  0.5551  0.9164 -0.5371
 4295SOL     OW24517   2.251   4.356  14.967  0.1833 -0.2116  0.0904
 4295SOL    HW124518   2.199   4.431  14.938  1.8129  0.6508 -0.5830
 4295SOL    HW224519   2.202   4.321  15.041  0.1055 -0.1271  0.0789
 4296SOL     OW24520   2.409   3.262   2.476 -0.5562  0.0824 -0.3610
 4296SOL    HW124521   2.454   3.228   2.399  0.6273  0.3359  0.2219
 4296SOL    HW224522   2.447   3.349   2.489  2.4297 -1.1784 -0.6185
 4297SOL     OW24523   3.867   2.171  10.561  0.3513 -0.7130 -0.5405
 4297SOL    HW124524   3.773   2.172  10.545  0.0298  1.0102  1.5748
 4297SOL    HW224525   3.883   2.262  10.587  1.0888 -0.9039 -0.3280
 4298SOL     OW24526   3.003   0.108   4.251 -0.3800  0.6224  0.0425
 4298SOL    HW124527   3.030   0.016   4.256 -0.4269  0.6587  0.9474
 4298SOL    HW224528   3.081   0.162   4.258  2.0823 -2.6977 -1.7021
 4299SOL     OW24529   2.210   4.528   6.843 -0.8346 -0.3174 -0.2123
 4299SOL    HW124530   2.213   4.459   6.909 -0.0105  0.7739  0.8945
 4299SOL    HW224531   2.266   4.594   6.884 -0.2650 -1.7449  1.3045
 4300SOL     OW24532   1.061   0.186   1.524  0.1967 -0.5596  0.0447
 4300SOL    HW124533   1.029   0.242   1.594  1.3887 -1.6464  1.4605
 4300SOL    HW224534   1.019   0.236   1.455 -2.1863 -1.6911  0.6905
 4301SOL     OW24535   2.914   0.163   9.218  0.5409  0.3881 -0.3401
 4301SOL    HW124536   2.972   0.184   9.291  0.2595  1.0608 -0.3153
 4301SOL    HW224537   2.833   0.203   9.251  0.0678 -1.6194  0.9870
 4302SOL     OW24538   3.881   0.467   7.329 -0.3614  0.0372  0.2326
 4302SOL    HW124539   3.833   0.540   7.290 -0.8566  0.0842  0.9383
 4302SOL    HW224540   3.803   0.424   7.364 -1.1895  1.1656 -0.2377
 4303SOL     OW24541   0.567   4.002   5.741 -0.6973 -0.0583  0.3302
 4303SOL    HW124542   0.662   4.007   5.751 -0.9060 -0.1634  2.4919
 4303SOL    HW224543   0.556   3.908   5.729 -3.3377  0.4958 -1.3830
 4304SOL     OW24544   0.505   0.143  17.464  0.2282 -0.3430  0.8750
 4304SOL    HW124545   0.419   0.128  17.424 -1.5345  3.1796  3.3546
 4304SOL    HW224546   0.559   0.073  17.426 -2.6200 -2.9846  1.6398
 4305SOL     OW24547   0.693   2.157  10.159  0.0883 -0.4954 -0.0049
 4305SOL    HW124548   0.631   2.149  10.231  1.6668 -0.0312  1.4163
 4305SOL    HW224549   0.656   2.115  10.081  0.8263 -0.3275 -0.4558
 4306SOL     OW24550   2.789   0.018   6.975 -0.1552  0.0442  0.2705
 4306SOL    HW124551   2.785   0.110   7.001 -0.7252  0.0097  0.3024
 4306SOL    HW224552   2.882   4.734   6.987 -0.4175 -2.1103 -1.1774
 4307SOL     OW24553   0.913   1.117   3.467 -0.0725  0.2968 -0.5705
 4307SOL    HW124554   0.901   1.103   3.373 -0.3901 -0.7347 -0.3728
 4307SOL    HW224555   0.821   1.143   3.480 -0.4930 -0.2768 -2.4468
 4308SOL     OW24556   0.898   4.560   0.359  0.4654  0.0201 -0.0167
 4308SOL    HW124557   0.888   4.626   0.428 -0.4930  1.2500 -1.3432
 4308SOL    HW224558   0.994   4.559   0.356  0.4586  1.2594 -0.6881
 4309SOL     OW24559   0.434   3.426   4.977  0.3512  0.2474 -0.1789
 4309SOL    HW124560   0.463   3.336   4.993 -1.2486 -0.0142  1.2646
 4309SOL    HW224561   0.497   3.455   4.910  0.1388  1.4693  0.1509
 4310SOL     OW24562   2.947   3.193   2.977  0.3465  0.4055 -0.2687
 4310SOL    HW124563   2.874   3.200   2.915  0.8368  1.4246 -0.7369
 4310SOL    HW224564   3.021   3.204   2.918  0.5502  1.6759  0.2371
 4311SOL     OW24565   1.956   1.338  13.301 -0.3465 -0.1142 -0.2517
 4311SOL    HW124566   1.956   1.393  13.379  0.1569  1.2471 -1.2077
 4311SOL    HW224567   1.904   1.264  13.333 -0.9280 -0.3121 -1.6162
 4312SOL     OW24568   3.885   0.855   6.508  0.2258  0.4420  0.1912
 4312SOL    HW124569   3.831   0.927   6.541 -0.3279  0.3263 -0.4572
 4312SOL    HW224570   3.814   0.792   6.521  2.0752 -1.0702  2.9138
 4313SOL     OW24571   2.979   2.486   6.134 -0.2468  0.5950  0.1895
 4313SOL    HW124572   2.956   2.408   6.084  0.3792  0.0265  0.7822
 4313SOL    HW224573   2.902   2.542   6.125 -0.1324  0.8536  0.7766
 4314SOL     OW24574   0.008   1.406  12.288 -0.7322  0.1500  0.0045
 4314SOL    HW124575   4.676   1.449  12.342  0.1223  1.0503  0.3504
 4314SOL    HW224576   0.068   1.365  12.350 -0.5326 -1.1540 -1.0523
 4315SOL     OW24577   1.704   2.701   6.759 -0.3106 -0.4179  0.5916
 4315SOL    HW124578   1.620   2.746   6.751 -0.9294 -1.6356  0.1928
 4315SOL    HW224579   1.706   2.673   6.851  2.6003 -1.5020  0.1974
 4316SOL     OW24580   4.592   1.160   1.925 -0.7248 -0.4549  0.3470
 4316SOL    HW124581   4.597   1.068   1.897 -0.0080 -0.3780  0.2238
 4316SOL    HW224582   4.646   1.171   2.003  0.9054 -1.4440 -0.6462
 4317SOL     OW24583   4.436   3.493  15.741  0.1847 -0.6879 -0.4676
 4317SOL    HW124584   4.393   3.432  15.801 -0.3246 -1.7540 -1.9130
 4317SOL    HW224585   4.484   3.438  15.679 -1.6906 -0.2555 -2.3333
 4318SOL     OW24586   2.209   0.131   4.224  0.1869  0.2890 -0.1191
 4318SOL    HW124587   2.288   0.109   4.175  0.7418  0.0271  0.8867
 4318SOL    HW224588   2.231   0.101   4.312 -2.2873  0.4094  0.5480
 4319SOL     OW24589   4.122   0.032  15.658 -0.0590  0.4601 -0.1550
 4319SOL    HW124590   4.213   0.052  15.678  0.4106 -1.2356 -0.6141
 4319SOL    HW224591   4.133   4.685  15.611 -1.0583 -1.0352  2.1888
 4320SOL     OW24592   3.142   1.954   8.902  0.0381  0.4542 -0.2426
 4320SOL    HW124593   3.168   2.047   8.903 -0.3095  0.5378  1.0727
 4320SOL    HW224594   3.048   1.966   8.890 -0.1076 -0.4812  0.0022
 4321SOL     OW24595   1.646   4.612   5.263  0.4641  0.3058  0.0116
 4321SOL    HW124596   1.622   4.598   5.354  2.3614 -0.2207  0.4481
 4321SOL    HW224597   1.599   4.694   5.247  3.3087  1.9401 -0.0078
 4322SOL     OW24598   3.682   1.111  13.061 -0.4571 -0.2369 -0.6528
 4322SOL    HW124599   3.661   1.196  13.100 -0.4994 -1.0998  1.2134
 4322SOL    HW224600   3.608   1.117  13.001  0.0676  1.6368 -1.0849
 4323SOL     OW24601   4.049   0.206   1.680 -0.4387 -0.6756  0.0163
 4323SOL    HW124602   3.996   0.156   1.618 -0.5536 -1.6553  0.8974
 4323SOL    HW224603   4.112   0.218   1.608  0.8327  0.3453  1.2875
 4324SOL     OW24604   4.350   2.573   0.907  0.0534 -0.0742  0.4252
 4324SOL    HW124605   4.344   2.478   0.896 -0.0262 -0.0489  0.2512
 4324SOL    HW224606   4.304   2.609   0.831 -0.6572  0.3888  1.0790
 4325SOL     OW24607   2.453   0.427   3.132 -0.2850 -0.4526 -0.6099
 4325SOL    HW124608   2.424   0.336   3.123  0.7942 -0.7935 -0.7208
 4325SOL    HW224609   2.439   0.444   3.225  0.7140 -1.0013 -0.3537
 4326SOL     OW24610   1.346   4.112   7.670  0.1661  0.1895 -0.1691
 4326SOL    HW124611   1.261   4.154   7.657 -0.5097 -1.0310  0.2983
 4326SOL    HW224612   1.410   4.170   7.630  0.4677 -0.5105 -0.6889
 4327SOL     OW24613   4.600   1.800   7.801 -0.3356  0.1198 -0.2223
 4327SOL    HW124614   4.623   1.720   7.848  0.9535 -1.5163 -3.6628
 4327SOL    HW224615   4.662   1.791   7.729 -2.0519  3.7214 -2.1935
 4328SOL     OW24616   1.105   2.129   3.457  0.3112  0.3567 -0.2239
 4328SOL    HW124617   1.126   2.222   3.449 -0.4069  0.3755 -1.9500
 4328SOL    HW224618   1.133   2.098   3.371 -0.4635 -0.2947 -0.2371
 4329SOL     OW24619   4.721   4.306  16.919  0.8518 -0.6591 -0.1890
 4329SOL    HW124620   0.037   4.386  16.907 -0.2601  0.0400 -0.2862
 4329SOL    HW224621   0.055   4.269  16.974  1.0568 -0.7226 -0.4888
 4330SOL     OW24622   3.203   4.710   5.066  0.3557  0.4070 -0.5172
 4330SOL    HW124623   3.223   0.066   5.088 -1.0843  0.2700  1.3699
 4330SOL    HW224624   3.122   4.692   5.114  1.3234 -0.6079  0.7082
 4331SOL     OW24625   0.530   2.174   4.903  0.0663  0.6618 -0.0536
 4331SOL    HW124626   0.546   2.188   4.810  1.2955  0.5986  0.1502
 4331SOL    HW224627   0.531   2.079   4.898 -2.8740  0.6942 -1.4946
 4332SOL     OW24628   1.705   0.578   7.213 -0.2211  0.0261 -0.1215
 4332SOL    HW124629   1.706   0.672   7.228  0.4844  0.0881 -0.5680
 4332SOL    HW224630   1.754   0.569   7.131 -1.9658 -2.5567 -0.8965
 4333SOL     OW24631   0.605   0.185   0.553 -0.2599 -0.2449  0.0420
 4333SOL    HW124632   0.629   0.219   0.639  1.1074  0.4057 -0.5899
 4333SOL    HW224633   0.576   0.266   0.513 -0.5459 -0.3518  0.0360
 4334SOL     OW24634   2.314   4.155  12.320 -0.0672 -0.0460 -0.6040
 4334SOL    HW124635   2.364   4.220  12.368  0.2644 -1.0082  0.3523
 4334SOL    HW224636   2.341   4.178  12.231 -0.4448 -1.8024 -1.1743
 4335SOL     OW24637   2.747   4.190   1.633  0.4563  0.7582 -0.0725
 4335SOL    HW124638   2.723   4.181   1.725  1.7455  1.3980  0.3340
 4335SOL    HW224639   2.748   4.106   1.588  0.0094  0.7556 -0.0792
 4336SOL     OW24640   1.525   1.986   5.349  0.8386 -0.4182  0.2264
 4336SOL    HW124641   1.488   2.001   5.437  2.4139  0.9470  0.6616
 4336SOL    HW224642   1.523   2.076   5.318 -0.0958 -0.8387 -0.9250
 4337SOL     OW24643   2.968   2.367   8.421  0.2171  0.0602  0.1219
 4337SOL    HW124644   2.982   2.461   8.436  2.0458 -0.7128  3.1477
 4337SOL    HW224645   3.054   2.335   8.396  1.8649  3.0521  1.8896
 4338SOL     OW24646   1.831   3.661  16.041 -0.1063  0.3621 -0.1444
 4338SOL    HW124647   1.754   3.612  16.069  0.1697  1.5513  2.7062
 4338SOL    HW224648   1.893   3.650  16.113  1.2393  1.3461 -1.1623
 4339SOL     OW24649   3.503   1.568   4.199  0.5466 -0.6203  0.1217
 4339SOL    HW124650   3.515   1.644   4.143  2.8134 -0.6964  0.5189
 4339SOL    HW224651   3.516   1.602   4.288  2.9869 -0.9137 -0.1207
 4340SOL     OW24652   4.426   3.374  16.579  0.0915 -0.1835 -0.0735
 4340SOL    HW124653   4.472   3.432  16.518  0.3657 -0.6367 -0.2988
 4340SOL    HW224654   4.381   3.439  16.633 -1.5171 -0.5110 -1.0128
 4341SOL     OW24655   3.324   4.696   2.650  0.5436 -0.0878 -0.5112
 4341SOL    HW124656   3.368   0.046   2.655  1.9558 -0.9949  2.5670
 4341SOL    HW224657   3.294   4.690   2.559  0.7275 -0.0923 -0.5715
 4342SOL     OW24658   3.624   3.877   7.535 -0.2416  0.1016  0.2399
 4342SOL    HW124659   3.653   3.905   7.622 -1.7363 -0.0364  0.7900
 4342SOL    HW224660   3.541   3.831   7.549 -2.2026  3.6389  0.1828
 4343SOL     OW24661   1.560   1.216  15.761  0.5953  0.2050  0.1555
 4343SOL    HW124662   1.572   1.310  15.747 -0.9330  0.0456 -2.3117
 4343SOL    HW224663   1.494   1.190  15.696 -0.0583  0.8716  0.5567
 4344SOL     OW24664   0.114   3.513  16.914  0.0835 -0.3996 -0.1390
 4344SOL    HW124665   0.094   3.420  16.923  1.0864 -0.8557 -2.6801
 4344SOL    HW224666   0.039   3.550  16.867 -1.9476 -2.5887  1.3373
 4345SOL     OW24667   2.262   1.076   7.623  0.1739  0.1052 -0.5127
 4345SOL    HW124668   2.211   1.098   7.701  0.5119 -1.4158  0.1363
 4345SOL    HW224669   2.239   1.148   7.564 -1.0428  0.4236  0.3476
 4346SOL     OW24670   1.028   0.837   8.218 -0.2817 -0.4493 -1.0337
 4346SOL    HW124671   1.106   0.887   8.240 -0.1172 -0.9753 -0.4188
 4346SOL    HW224672   1.069   0.798   8.141  2.0588 -0.3156  0.1480
 4347SOL     OW24673   0.081   4.400   3.709 -0.3037 -0.6615 -0.4455
 4347SOL    HW124674   0.001   4.358   3.741  1.0951 -2.3192  0.8752
 4347SOL    HW224675   0.054   4.487   3.679 -1.0369 -0.4432  0.8198
 4348SOL     OW24676   2.600   0.938   0.446  0.1795 -0.0645 -0.4707
 4348SOL    HW124677   2.506   0.932   0.466  0.0848  1.2814 -0.5273
 4348SOL    HW224678   2.627   0.846   0.450  0.6117  0.1975  2.2718
 4349SOL     OW24679   3.984   4.080  16.069 -0.1690  0.7030 -0.2630
 4349SOL    HW124680   4.044   4.128  16.127  1.8359  0.1038 -1.8276
 4349SOL    HW224681   4.043   4.029  16.014 -0.6571 -0.0403 -0.1017
 4350SOL     OW24682   2.378   3.616  16.758  0.4301 -0.3725  0.4393
 4350SOL    HW124683   2.415   3.704  16.748  0.4351 -0.4511 -0.2251
 4350SOL    HW224684   2.418   3.590  16.840  2.1075  0.4194 -0.1243
 4351SOL     OW24685   2.598   4.267  10.024 -0.3815  0.4028 -0.1018
 4351SOL    HW124686   2.586   4.172  10.026  1.8896  0.1421  1.5560
 4351SOL    HW224687   2.523   4.299   9.975  0.4815  0.7463 -1.1858
 4352SOL     OW24688   2.188   0.103  10.560 -0.4035 -0.1552  0.2058
 4352SOL    HW124689   2.178   0.115  10.465  1.0669  0.0361  0.0725
 4352SOL    HW224690   2.098   0.102  10.593 -0.3667 -0.2814  0.3011
 4353SOL     OW24691   0.507   3.748  16.533  0.1627 -0.0086 -0.1025
 4353SOL    HW124692   0.425   3.754  16.582  0.7664  1.6630  0.7094
 4353SOL    HW224693   0.489   3.701  16.451  1.3102 -1.7281  0.6231
 4354SOL     OW24694   4.643   2.190   4.651 -0.1141  0.1612 -0.7436
 4354SOL    HW124695   4.559   2.173   4.609 -1.0351  3.8477 -0.3929
 4354SOL    HW224696   4.688   2.111   4.620  0.9249  0.8647 -1.0458
 4355SOL     OW24697   2.358   4.144   6.759 -0.3173  0.0094  0.2528
 4355SOL    HW124698   2.377   4.134   6.852  1.5517  0.9168 -0.0276
 4355SOL    HW224699   2.267   4.114   6.764 -0.1533 -0.6613 -0.7386
 4356SOL     OW24700   2.696   3.923   6.142  0.3870  0.2906 -0.6975
 4356SOL    HW124701   2.659   3.974   6.214 -2.0017 -0.0628 -1.6535
 4356SOL    HW224702   2.777   3.885   6.175 -0.3208 -1.4381 -0.9382
 4357SOL     OW24703   0.743   4.228   8.125  0.3689 -0.4456  0.1916
 4357SOL    HW124704   0.729   4.147   8.076 -1.3691  0.8283 -1.4300
 4357SOL    HW224705   0.661   4.230   8.174  1.4477  0.3745  1.9311
 4358SOL     OW24706   3.601   0.996   5.087  0.4288  0.1499  0.3273
 4358SOL    HW124707   3.508   1.017   5.093  0.4179  0.0397  0.5252
 4358SOL    HW224708   3.611   0.975   5.179  1.0179  0.0491  0.2405
 4359SOL     OW24709   4.615   1.933   8.576  0.8123 -0.0886  0.0960
 4359SOL    HW124710   4.572   1.884   8.645  0.8838  2.1119  1.7243
 4359SOL    HW224711   4.657   2.005   8.624  2.3654 -0.9491  0.0402
 4360SOL     OW24712   3.443   2.262   3.434 -0.4120  0.9297  0.2391
 4360SOL    HW124713   3.467   2.323   3.503  1.8927 -0.8187  0.9794
 4360SOL    HW224714   3.435   2.172   3.465 -0.6252  0.1414 -2.0989
 4361SOL     OW24715   2.844   3.849   0.242 -0.5116 -0.1859  0.1133
 4361SOL    HW124716   2.784   3.910   0.286  0.9140  1.9699 -0.9410
 4361SOL    HW224717   2.887   3.804   0.315  2.9342  0.6383 -1.4100
 4362SOL     OW24718   0.257   2.746   9.558 -0.0199 -0.3358 -0.0396
 4362SOL    HW124719   0.286   2.811   9.621 -0.1787 -1.5158  1.2621
 4362SOL    HW224720   0.175   2.724   9.603  0.0652 -0.3029  0.1311
 4363SOL     OW24721   1.953   1.919  13.297  0.3524  0.0906  0.3082
 4363SOL    HW124722   1.935   1.825  13.297  0.1151  0.1353  0.1918
 4363SOL    HW224723   1.883   1.950  13.239  0.8810  0.1747 -0.2883
 4364SOL     OW24724   3.944   3.717   3.374 -0.2551 -0.0867 -0.5544
 4364SOL    HW124725   3.952   3.706   3.468 -0.3285 -1.7482 -0.7398
 4364SOL    HW224726   3.884   3.645   3.356 -2.6439  0.9086  3.5416
 4365SOL     OW24727   3.440   0.372  16.222  0.4560  0.1082 -0.0774
 4365SOL    HW124728   3.455   0.290  16.175 -0.9815 -0.1102 -0.1845
 4365SOL    HW224729   3.351   0.390  16.190 -0.0359 -2.3658 -0.0843
 4366SOL     OW24730   1.439   2.230   4.161 -0.3992 -0.1779  0.4842
 4366SOL    HW124731   1.419   2.315   4.122  0.9203  0.0053  0.1967
 4366SOL    HW224732   1.462   2.256   4.250 -0.1686  0.4261  0.2467
 4367SOL     OW24733   0.661   4.492   4.997  0.5537  0.2736  0.4803
 4367SOL    HW124734   0.654   4.587   4.983 -1.3736  0.0806  0.2066
 4367SOL    HW224735   0.683   4.498   5.090  0.7785 -3.3855  0.6257
 4368SOL     OW24736   2.481   0.089   5.915  0.0922  0.4044 -0.8797
 4368SOL    HW124737   2.560   0.139   5.897  0.5250  0.7714  2.0949
 4368SOL    HW224738   2.514   0.022   5.974  1.3515  1.3348 -0.5449
 4369SOL     OW24739   0.706   0.609   0.312  0.3984  0.0108 -0.0121
 4369SOL    HW124740   0.744   0.577   0.231  0.8617  3.8750 -1.3502
 4369SOL    HW224741   0.632   0.657   0.273 -0.0861  0.7231  1.7636
 4370SOL     OW24742   0.439   3.646   5.221  0.5208 -0.0974  0.2424
 4370SOL    HW124743   0.465   3.718   5.165 -3.2832 -0.2729 -1.7396
 4370SOL    HW224744   0.425   3.574   5.160 -0.8243  0.5940 -0.2585
 4371SOL     OW24745   2.347   2.108  13.319  0.4892  0.8622 -0.1383
 4371SOL    HW124746   2.406   2.033  13.314  0.0188  0.3894  1.4569
 4371SOL    HW224747   2.275   2.073  13.266  0.9087  1.8309 -1.3498
 4372SOL     OW24748   0.896   0.670  17.176  0.1382 -0.0199  0.5873
 4372SOL    HW124749   0.991   0.674  17.186  0.1249  0.8223  0.3617
 4372SOL    HW224750   0.882   0.764  17.165  0.8606 -0.2947 -2.6702
 4373SOL     OW24751   1.181   0.048   0.606 -0.1509 -0.3175  0.0364
 4373SOL    HW124752   1.200   4.695   0.639 -2.7230 -0.6631  0.5818
 4373SOL    HW224753   1.165   0.029   0.514  0.8510 -0.2104 -0.1660
 4374SOL     OW24754   2.641   2.924   7.111  0.4627 -1.0062 -0.0811
 4374SOL    HW124755   2.695   2.853   7.076  1.7688 -1.3524  2.6952
 4374SOL    HW224756   2.708   2.950   7.174  1.3101 -0.5118 -1.1950
 4375SOL     OW24757   0.321   0.528   0.241  0.2316  0.2979 -0.0479
 4375SOL    HW124758   0.256   0.542   0.310  1.5267  1.0965  1.0032
 4375SOL    HW224759   0.281   0.462   0.184 -0.0870 -0.5219  1.1054
 4376SOL     OW24760   0.224   0.282   5.090  0.3798  0.2475  0.2585
 4376SOL    HW124761   0.208   0.358   5.034  0.3137  0.5740  0.7171
 4376SOL    HW224762   0.194   0.315   5.175 -1.2892 -1.6838  0.4327
 4377SOL     OW24763   2.328   0.019  14.683  0.1817 -0.0870 -0.2435
 4377SOL    HW124764   2.354   0.090  14.742 -0.5305 -0.6649  0.7568
 4377SOL    HW224765   2.389   4.683  14.700 -0.6668 -0.3237  1.7081
 4378SOL     OW24766   0.623   2.143   4.639 -0.1252 -0.6749 -0.6582
 4378SOL    HW124767   0.595   2.129   4.549 -1.7560  2.5313 -0.6205
 4378SOL    HW224768   0.704   2.192   4.623 -0.1210 -0.1180  1.0843
 4379SOL     OW24769   1.135   3.700   1.101  0.4381  0.2812  0.7730
 4379SOL    HW124770   1.088   3.712   1.184 -0.3149  0.1674  0.3609
 4379SOL    HW224771   1.073   3.738   1.039 -0.1611  0.5866  1.5541
 4380SOL     OW24772   1.663   2.927   7.584  0.0369 -0.4144  0.4895
 4380SOL    HW124773   1.712   2.846   7.575 -0.2657 -0.7242  1.5496
 4380SOL    HW224774   1.704   2.972   7.510  0.4525 -1.1285  0.2899
 4381SOL     OW24775   3.167   4.593   8.278 -0.0963 -0.5592 -0.5334
 4381SOL    HW124776   3.105   4.520   8.284  0.6464 -1.2628 -1.4728
 4381SOL    HW224777   3.113   4.649   8.223  0.9863  0.1382 -0.8808
 4382SOL     OW24778   1.416   0.525  16.987 -0.3321  0.1823  0.3846
 4382SOL    HW124779   1.434   0.594  16.923 -2.1729 -0.4684 -0.8188
 4382SOL    HW224780   1.369   0.571  17.057  1.0842  0.0092  1.4508
 4383SOL     OW24781   4.176   1.985   2.361 -0.6953  0.2490  0.3154
 4383SOL    HW124782   4.114   2.054   2.336  0.9703  1.5092 -0.3598
 4383SOL    HW224783   4.133   1.907   2.327 -0.0860  0.1880 -0.3331
 4384SOL     OW24784   2.905   0.500   5.722 -0.2068 -0.3630 -0.3040
 4384SOL    HW124785   2.952   0.545   5.652  0.1615  0.1126  0.2512
 4384SOL    HW224786   2.887   0.580   5.772  2.6342  0.6482 -0.9362
 4385SOL     OW24787   3.535   0.001  14.753 -0.2163  0.0120 -0.2195
 4385SOL    HW124788   3.513   0.033  14.841 -0.3621 -2.1974  0.5480
 4385SOL    HW224789   3.567   0.083  14.715  1.6084 -0.3627  0.5134
 4386SOL     OW24790   0.959   2.548   8.489  0.3058 -0.0248  0.2202
 4386SOL    HW124791   0.997   2.587   8.411 -0.3624  2.5926  1.2061
 4386SOL    HW224792   0.907   2.478   8.450  1.3049 -0.6660  0.0251
 4387SOL     OW24793   3.567   2.916   6.902 -0.0407 -0.1349 -0.0267
 4387SOL    HW124794   3.550   2.911   6.996 -1.7945  3.1346 -0.1670
 4387SOL    HW224795   3.656   2.953   6.900 -1.3483  3.0593  0.7368
 4388SOL     OW24796   3.156   1.652   8.964 -0.0487 -0.5909 -0.2930
 4388SOL    HW124797   3.133   1.682   8.876 -1.6379  1.3679  0.7994
 4388SOL    HW224798   3.084   1.696   9.009  2.6436  1.4799  2.0482
 4389SOL     OW24799   2.594   4.458   7.526 -0.3277 -0.1644  0.0673
 4389SOL    HW124800   2.565   4.374   7.561  0.2520 -1.2004 -1.9439
 4389SOL    HW224801   2.537   4.463   7.449 -2.0960 -0.7997  1.3340
 4390SOL     OW24802   2.230   4.059  11.104 -0.3757 -0.6542  0.1743
 4390SOL    HW124803   2.288   4.109  11.047 -1.8869  0.2111 -0.5843
 4390SOL    HW224804   2.234   3.969  11.072  1.9662 -0.5165  0.0389
 4391SOL     OW24805   4.452   2.337  15.757 -0.3801  0.1725 -0.4566
 4391SOL    HW124806   4.449   2.275  15.684 -2.7959  0.7390 -0.8257
 4391SOL    HW224807   4.487   2.277  15.823 -0.5068 -0.8709 -1.3507
 4392SOL     OW24808   0.914   1.668   4.197  0.0031  0.3456  0.3031
 4392SOL    HW124809   0.910   1.742   4.258  0.4888  0.9469 -0.3954
 4392SOL    HW224810   0.975   1.705   4.133 -1.3296  1.3498 -0.3945
 4393SOL     OW24811   4.239   2.132   8.707 -0.0991  0.1508 -0.0012
 4393SOL    HW124812   4.192   2.080   8.642  1.6013  0.4812 -1.4873
 4393SOL    HW224813   4.202   2.099   8.789 -0.9323  0.9948 -0.0454
 4394SOL     OW24814   2.111   4.406  15.392 -0.6966 -0.6298  0.5341
 4394SOL    HW124815   2.207   4.409  15.392 -0.7674  1.4520  0.5682
 4394SOL    HW224816   2.097   4.417  15.487  1.4180 -2.5819  1.0579
 4395SOL     OW24817   3.156   0.217   6.489  0.2901 -0.4010 -0.3207
 4395SOL    HW124818   3.217   0.243   6.558 -1.5854 -0.6863  1.4603
 4395SOL    HW224819   3.071   0.211   6.532  1.5836  1.1680  2.4950
 4396SOL     OW24820   2.551   0.287  12.657  0.0331  0.1350 -0.3874
 4396SOL    HW124821   2.599   0.319  12.733 -0.8541 -0.1098  0.2681
 4396SOL    HW224822   2.622   0.254  12.602  0.0491  1.4771 -1.1988
 4397SOL     OW24823   2.465   0.368   9.979  0.1517 -0.0774  0.5852
 4397SOL    HW124824   2.447   0.454  10.017  1.6989  0.1755  0.7494
 4397SOL    HW224825   2.456   0.306  10.052  0.9374 -0.8042  0.0689
 4398SOL     OW24826   3.943   0.480   6.661 -0.1198  0.0824  0.0938
 4398SOL    HW124827   4.011   0.456   6.723 -1.2350  0.3965  1.4198
 4398SOL    HW224828   3.922   0.571   6.682  2.3334  0.9767 -1.3769
 4399SOL     OW24829   1.191   3.196  15.930 -0.0904  0.3210  0.6405
 4399SOL    HW124830   1.241   3.201  15.849  0.1255  0.1882  0.7655
 4399SOL    HW224831   1.228   3.254  15.996  0.4420  2.5562 -1.6382
 4400SOL     OW24832   4.011   2.600   7.534 -0.4131  0.0529 -0.3924
 4400SOL    HW124833   4.099   2.569   7.513 -0.6444 -1.1570  0.4354
 4400SOL    HW224834   4.028   2.694   7.524  0.2943  0.2627  2.7356
 4401SOL     OW24835   1.617   1.208  15.409  0.4767 -0.4655 -0.4404
 4401SOL    HW124836   1.657   1.292  15.433 -1.0071 -0.3855  1.7716
 4401SOL    HW224837   1.601   1.154  15.487  0.7572 -1.2980 -0.9657
 4402SOL     OW24838   2.629   0.632  12.585  0.1310  0.1994  0.1634
 4402SOL    HW124839   2.634   0.538  12.566  0.5289  0.3268 -0.3624
 4402SOL    HW224840   2.705   0.667  12.540 -0.2201 -2.9938 -2.9710
 4403SOL     OW24841   4.300   3.846   7.119  0.7429 -0.8062 -0.6354
 4403SOL    HW124842   4.291   3.900   7.197  1.7010 -0.3225 -0.8552
 4403SOL    HW224843   4.210   3.832   7.088  0.6756 -1.8436  0.0329
 4404SOL     OW24844   4.582   4.497   1.621 -0.9469  0.5477 -0.0567
 4404SOL    HW124845   4.487   4.495   1.632 -0.7728  0.5811  1.4728
 4404SOL    HW224846   4.596   4.568   1.559  1.4698 -0.3932 -0.6143
 4405SOL     OW24847   0.227   2.661   0.922 -0.0076 -0.0045  0.0173
 4405SOL    HW124848   0.295   2.679   0.987  0.3592  0.1116 -0.4006
 4405SOL    HW224849   0.171   2.735   0.946  0.9282  0.5730  0.4241
 4406SOL     OW24850   0.647   0.421  15.509  0.3834  0.1593  0.0778
 4406SOL    HW124851   0.571   0.366  15.487  0.7482 -0.2383 -0.1913
 4406SOL    HW224852   0.634   0.417  15.603  0.1023  1.9106  0.1156
 4407SOL     OW24853   1.421   3.881   4.284 -0.1958  0.0294 -0.5448
 4407SOL    HW124854   1.402   3.794   4.250 -4.1852  0.3524  0.7986
 4407SOL    HW224855   1.455   3.934   4.212  1.5414  1.5078  1.3435
 4408SOL     OW24856   1.574   3.831   5.372 -0.0876  0.3176  0.6432
 4408SOL    HW124857   1.564   3.773   5.447 -1.5743  0.4903  0.5739
 4408SOL    HW224858   1.649   3.878   5.410  0.1399  0.3415  0.1680
 4409SOL     OW24859   3.426   4.154   4.120  0.3961  0.4725 -0.3275
 4409SOL    HW124860   3.373   4.163   4.041 -0.2271 -2.3581 -0.2496
 4409SOL    HW224861   3.364   4.182   4.187 -0.2907 -0.7095 -0.4651
 4410SOL     OW24862   3.664   4.456   0.790  0.0735  0.6024  0.3328
 4410SOL    HW124863   3.584   4.411   0.816  0.2236 -1.4632 -2.8717
 4410SOL    HW224864   3.636   4.545   0.812  0.2854  1.1413 -1.5834
 4411SOL     OW24865   2.567   4.500   6.426  0.3609 -0.5504 -0.1150
 4411SOL    HW124866   2.617   4.456   6.357 -1.2716 -2.1379 -0.2953
 4411SOL    HW224867   2.540   4.425   6.479  0.5637  0.8828  1.9789
 4412SOL     OW24868   2.275   4.068   4.503 -0.1935 -0.0547 -0.0825
 4412SOL    HW124869   2.322   4.047   4.583  1.5166  0.1173 -1.0504
 4412SOL    HW224870   2.215   4.137   4.531  1.3054  1.1482  0.1256
 4413SOL     OW24871   4.039   0.175   9.020  0.6313  0.7359  0.1997
 4413SOL    HW124872   3.994   0.233   8.959  0.3499  0.9033  0.5702
 4413SOL    HW224873   4.125   0.175   8.977 -0.2174 -1.6532 -1.5366
 4414SOL     OW24874   1.868   1.844   5.628 -0.4378  0.1174  0.0678
 4414SOL    HW124875   1.839   1.764   5.585 -1.4666  0.0814  0.8140
 4414SOL    HW224876   1.957   1.824   5.655  0.0453 -0.0933 -1.6880
 4415SOL     OW24877   2.450   1.240   2.078  0.5617 -0.0870 -0.0713
 4415SOL    HW124878   2.416   1.310   2.023 -1.8145 -1.9686 -1.0201
 4415SOL    HW224879   2.382   1.174   2.068 -0.4325  0.9118  0.0891
 4416SOL     OW24880   1.349   0.672   3.899 -0.4623  0.1985 -0.4400
 4416SOL    HW124881   1.298   0.721   3.835  1.0018  3.1021  0.6514
 4416SOL    HW224882   1.431   0.646   3.857 -1.3627 -2.1362 -0.7757
 4417SOL     OW24883   3.140   0.317  10.482 -0.1690  0.1655 -0.4207
 4417SOL    HW124884   3.207   0.322  10.549 -1.1340 -2.7058  0.7399
 4417SOL    HW224885   3.118   0.224  10.486  1.2660 -0.0995  1.4256
 4418SOL     OW24886   0.849   1.285  14.230 -0.3572  0.4445 -0.0722
 4418SOL    HW124887   0.805   1.201  14.224 -0.8490  0.7619 -0.8702
 4418SOL    HW224888   0.865   1.295  14.136  1.2713 -0.9191  0.0556
 4419SOL     OW24889   3.438   0.885   0.919  0.2328  0.6007 -0.0622
 4419SOL    HW124890   3.377   0.941   0.872 -3.5548 -1.6968  2.0730
 4419SOL    HW224891   3.462   0.953   0.983  0.2413  0.6258 -0.0921
 4420SOL     OW24892   3.103   3.239   3.220  0.3794  0.2494  0.2216
 4420SOL    HW124893   3.089   3.226   3.127  3.0372 -2.0791  0.1357
 4420SOL    HW224894   3.030   3.295   3.245  1.0332  1.2876 -0.2168
 4421SOL     OW24895   3.647   2.869   3.402  0.3389  0.7875 -0.4830
 4421SOL    HW124896   3.566   2.818   3.396  0.2320  0.9480 -0.4009
 4421SOL    HW224897   3.604   2.942   3.356 -0.8572 -0.1685 -0.8953
 4422SOL     OW24898   4.383   3.371   4.850  0.0322  0.1723  0.2749
 4422SOL    HW124899   4.294   3.401   4.831  0.3516  1.2688  0.5070
 4422SOL    HW224900   4.405   3.304   4.786 -1.5682 -0.3606  0.2874
 4423SOL     OW24901   3.086   3.407   7.740  0.0494  0.1399  0.5821
 4423SOL    HW124902   3.094   3.313   7.725  0.4008  0.2562  0.0119
 4423SOL    HW224903   3.015   3.403   7.803  1.2066  0.7771  1.9448
 4424SOL     OW24904   0.710   4.272   5.706 -0.8411 -0.4928 -0.2042
 4424SOL    HW124905   0.747   4.186   5.723  1.0281 -0.0827 -2.1908
 4424SOL    HW224906   0.740   4.328   5.777 -1.0503 -1.2729  0.4962
 4425SOL     OW24907   1.874   3.063   6.784  0.5880 -0.0160  0.3175
 4425SOL    HW124908   1.817   2.992   6.756 -1.1942  0.6314  2.3247
 4425SOL    HW224909   1.956   3.017   6.805  0.7808 -0.6304 -1.7870
 4426SOL     OW24910   4.545   1.064   2.199  0.1159  0.2527  0.2298
 4426SOL    HW124911   4.639   1.076   2.182  0.2766  0.2916  1.1561
 4426SOL    HW224912   4.551   1.061   2.294  1.2763 -0.4311  0.1443
 4427SOL     OW24913   0.254   2.774  13.681 -0.3885 -0.2412  0.0395
 4427SOL    HW124914   0.201   2.697  13.660 -3.0218  0.8000  2.8659
 4427SOL    HW224915   0.195   2.849  13.681 -0.7843 -0.5503 -0.7205
 4428SOL     OW24916   2.861   0.960   0.771  0.3278  0.6268 -0.2935
 4428SOL    HW124917   2.953   0.952   0.744  0.4684 -0.2937  0.4206
 4428SOL    HW224918   2.876   0.935   0.862 -0.9374 -1.3573 -0.6194
 4429SOL     OW24919   4.583   2.055  16.852 -0.5943 -0.1295 -0.1159
 4429SOL    HW124920   4.536   2.078  16.771 -0.0806 -0.7389 -0.5865
 4429SOL    HW224921   4.589   2.144  16.887  2.1896 -0.0823 -0.6965
 4430SOL     OW24922   1.518   0.559   2.438 -0.0735  0.1690  0.5863
 4430SOL    HW124923   1.469   0.641   2.439 -0.3802  0.0313 -2.7414
 4430SOL    HW224924   1.488   0.525   2.522  2.1812  0.7981  1.6494
 4431SOL     OW24925   4.098   2.759   3.494 -0.0173 -0.4098 -0.1042
 4431SOL    HW124926   4.128   2.697   3.428  0.5027  0.2870 -0.5251
 4431SOL    HW224927   4.166   2.750   3.560  0.8316 -1.1702 -1.0810
 4432SOL     OW24928   0.342   0.554   6.256  0.0462 -0.0412  0.4189
 4432SOL    HW124929   0.428   0.519   6.232  0.5340  0.2082  1.8012
 4432SOL    HW224930   0.305   0.478   6.301  2.4441 -2.3354 -1.4631
 4433SOL     OW24931   2.463   0.858  16.285 -0.2392  0.6383  0.4480
 4433SOL    HW124932   2.386   0.875  16.338 -0.5989  0.2877  0.0350
 4433SOL    HW224933   2.532   0.877  16.349  1.8396 -0.8468 -1.3173
 4434SOL     OW24934   3.735   2.523   7.939  0.2900  0.2450  0.3092
 4434SOL    HW124935   3.792   2.508   7.863  3.2673  1.7648  2.2175
 4434SOL    HW224936   3.727   2.431   7.966 -2.2608  0.2323 -0.5234
 4435SOL     OW24937   0.015   0.841   5.987  0.3320  0.4610 -0.7162
 4435SOL    HW124938   0.016   0.787   6.066  1.3363  0.4723 -0.7246
 4435SOL    HW224939   0.041   0.917   6.039  0.1664  1.6718 -2.3919
 4436SOL     OW24940   3.539   3.220   9.653  0.4453 -0.7022 -0.1720
 4436SOL    HW124941   3.538   3.163   9.730  2.6243 -0.1599  0.2752
 4436SOL    HW224942   3.475   3.289   9.672  3.8362  2.2238  0.7982
 4437SOL     OW24943   0.162   0.142   2.287 -0.3855 -0.0220 -0.3063
 4437SOL    HW124944   0.103   0.173   2.356 -0.1330  1.7569 -0.8821
 4437SOL    HW224945   0.240   0.107   2.330  0.5664  0.4023 -1.7100
 4438SOL     OW24946   1.695   1.552   7.700 -0.7132  1.0252  0.6380
 4438SOL    HW124947   1.703   1.611   7.775  0.0781  1.0721  0.5132
 4438SOL    HW224948   1.651   1.613   7.640 -0.0506 -2.3260 -3.2844
 4439SOL     OW24949   4.659   1.312   9.034 -0.2448 -0.5880 -0.1150
 4439SOL    HW124950   4.720   1.327   9.105 -1.5015 -0.5215  0.9564
 4439SOL    HW224951   4.696   1.344   8.951 -1.4173 -1.0974 -0.8454
 4440SOL     OW24952   4.297   0.528   4.051  0.1690  0.2154 -0.7551
 4440SOL    HW124953   4.354   0.517   3.975  0.0688  2.2465 -1.1378
 4440SOL    HW224954   4.321   0.446   4.093 -0.4707 -0.8782 -2.5294
 4441SOL     OW24955   1.049   0.399  11.343  0.8476 -0.2749  0.1117
 4441SOL    HW124956   1.067   0.446  11.424 -0.4705  2.0658 -0.9363
 4441SOL    HW224957   0.966   0.356  11.365  0.9645 -0.6669 -0.2078
 4442SOL     OW24958   4.562   1.978   0.848 -0.4015  0.2060 -0.1692
 4442SOL    HW124959   4.615   2.027   0.912  1.7020 -0.4725 -1.4176
 4442SOL    HW224960   4.592   1.887   0.855  2.6414  1.3579  2.1866
 4443SOL     OW24961   1.040   4.557   2.485  0.0749 -0.6218  0.3187
 4443SOL    HW124962   0.999   4.631   2.530 -1.4120 -2.0103  1.2438
 4443SOL    HW224963   1.064   4.500   2.558  1.0509 -0.5303  0.0729
 4444SOL     OW24964   4.660   0.990  14.559 -0.4369  0.1153  0.6911
 4444SOL    HW124965   4.689   0.921  14.500  2.0320  0.7028  1.1891
 4444SOL    HW224966   0.007   1.031  14.588 -0.7176  1.6247 -0.6787
 4445SOL     OW24967   3.300   1.354   4.283 -0.3516  0.0031  0.4453
 4445SOL    HW124968   3.368   1.419   4.271 -0.4155 -0.7148 -3.7088
 4445SOL    HW224969   3.355   1.292   4.331  0.6906  1.5228  1.2099
 4446SOL     OW24970   1.059   2.783  17.244  0.3878  0.1424 -0.3123
 4446SOL    HW124971   0.968   2.778  17.214  0.2046 -0.2792  0.3285
 4446SOL    HW224972   1.092   2.716  17.184  0.3353 -1.7674  1.7882
 4447SOL     OW24973   3.553   0.417  10.597  0.5031  0.1300 -0.1452
 4447SOL    HW124974   3.583   0.408  10.506 -1.0292 -0.0323 -0.6351
 4447SOL    HW224975   3.580   0.507  10.618  0.7390  0.0215  0.0128
 4448SOL     OW24976   0.903   0.207  17.471  0.1107 -0.5921 -0.0949
 4448SOL    HW124977   0.828   0.250  17.431  0.4589 -0.9451 -1.1313
 4448SOL    HW224978   0.935   0.141  17.410  0.1721  0.1325 -0.8423
 4449SOL     OW24979   3.184   0.458   8.538  0.0029  0.7548  0.1106
 4449SOL    HW124980   3.163   0.381   8.484 -1.6167 -0.1017  1.9317
 4449SOL    HW224981   3.278   0.448   8.522 -0.0578  0.8696 -0.3267
 4450SOL     OW24982   1.726   1.023   3.361  0.2586 -0.1887 -0.0471
 4450SOL    HW124983   1.789   1.005   3.430 -0.9839 -1.0737  0.8434
 4450SOL    HW224984   1.720   0.941   3.312 -2.4937  0.8543 -1.4538
 4451SOL     OW24985   1.365   1.870   4.548  0.2991  0.0595  0.2095
 4451SOL    HW124986   1.447   1.879   4.596  0.5283 -1.9443  0.1769
 4451SOL    HW224987   1.397   1.813   4.478 -0.9341 -0.3874  0.0126
 4452SOL     OW24988   4.675   0.572   5.983  0.3067  0.1480 -0.5273
 4452SOL    HW124989   4.733   0.554   6.057  1.7215 -2.7810 -2.3379
 4452SOL    HW224990   4.682   0.667   5.975 -1.9999  0.3144 -0.6785
 4453SOL     OW24991   2.605   1.326  16.566 -0.0180  0.4185  0.4108
 4453SOL    HW124992   2.685   1.296  16.524 -0.8867 -3.2767  1.4343
 4453SOL    HW224993   2.612   1.420  16.548 -0.0983  0.2722 -0.3922
 4454SOL     OW24994   0.827   1.723   7.326 -0.2776  0.0292 -0.2132
 4454SOL    HW124995   0.873   1.640   7.313  1.9813  1.0142  1.5589
 4454SOL    HW224996   0.885   1.786   7.284  0.1477  0.3009  0.7845
 4455SOL     OW24997   3.721   1.742   4.531  0.2730  0.0862  0.0114
 4455SOL    HW124998   3.659   1.674   4.507 -1.1746  1.3856  0.0520
 4455SOL    HW224999   3.711   1.808   4.462  2.4490  1.5671  1.1335
 4456SOL     OW25000   4.176   3.384   7.613 -0.1990 -0.4221 -0.4590
 4456SOL    HW125001   4.235   3.317   7.578 -2.8479 -1.9621 -1.9925
 4456SOL    HW225002   4.129   3.339   7.684 -0.6568 -3.6600 -2.7885
 4457SOL     OW25003   2.501   1.839   3.648 -0.4114 -0.2430  0.1882
 4457SOL    HW125004   2.436   1.791   3.698  0.7409 -4.1840 -2.1013
 4457SOL    HW225005   2.528   1.769   3.588 -0.4778 -1.0736  1.1347
 4458SOL     OW25006   1.688   3.469  13.141 -0.3379 -0.8825 -0.4613
 4458SOL    HW125007   1.758   3.445  13.202  0.2468  2.2854  0.1307
 4458SOL    HW225008   1.727   3.451  13.056 -1.6767  0.6329 -1.3987
 4459SOL     OW25009   4.419   2.038   7.641  0.3399 -0.1558 -0.5399
 4459SOL    HW125010   4.382   2.110   7.690  0.2177  0.1252 -1.0423
 4459SOL    HW225011   4.511   2.062   7.651  0.9692 -1.9196 -1.8562
 4460SOL     OW25012   1.722   3.050  16.616  0.3513 -0.2234  0.1240
 4460SOL    HW125013   1.694   3.136  16.647  0.9251 -0.1515  0.4471
 4460SOL    HW225014   1.816   3.069  16.622  0.4882 -0.7619 -0.2771
 4461SOL     OW25015   2.753   3.783   3.157  0.5952  0.1365  0.4692
 4461SOL    HW125016   2.659   3.766   3.158  0.2510  1.9959  0.9978
 4461SOL    HW225017   2.744   3.875   3.133 -2.3258 -0.4362 -0.5726
 4462SOL     OW25018   1.223   2.302   5.067  0.2418 -0.3978  0.1973
 4462SOL    HW125019   1.241   2.214   5.032 -0.0387  0.0380 -1.0366
 4462SOL    HW225020   1.194   2.348   4.988  1.9410 -1.1239 -0.8681
 4463SOL     OW25021   4.626   0.531  10.293 -0.4182  0.0066 -0.1564
 4463SOL    HW125022   4.589   0.443  10.298  0.6073 -0.3075  1.9655
 4463SOL    HW225023   4.711   0.515  10.252 -0.3923 -0.0830 -0.0669
 4464SOL     OW25024   3.834   4.240   1.148 -0.5192 -0.3847 -0.2336
 4464SOL    HW125025   3.821   4.157   1.103 -1.1205  0.5714 -1.8234
 4464SOL    HW225026   3.882   4.208   1.225 -1.1518 -1.2959 -0.2089
 4465SOL     OW25027   3.828   0.160   7.660  0.5362  0.9634  0.7320
 4465SOL    HW125028   3.827   0.253   7.681  1.1653  1.0713  0.2519
 4465SOL    HW225029   3.815   0.135   7.752  0.6994 -1.9022 -0.0305
 4466SOL     OW25030   3.364   2.324   7.444 -0.2142  0.3485 -0.1305
 4466SOL    HW125031   3.413   2.398   7.481 -2.3765  0.7677  1.8955
 4466SOL    HW225032   3.395   2.261   7.509 -2.0761 -0.7796 -0.3456
 4467SOL     OW25033   4.164   3.639   9.098  0.3956 -0.6320  0.0246
 4467SOL    HW125034   4.089   3.691   9.126  0.0149  0.8486 -3.6857
 4467SOL    HW225035   4.240   3.685   9.135  0.1474 -0.4707  0.3295
 4468SOL     OW25036   3.977   1.460   6.545  0.0789 -0.3097  0.1407
 4468SOL    HW125037   4.056   1.511   6.532 -1.2069  1.3532 -1.0942
 4468SOL    HW225038   3.982   1.456   6.641 -1.4424  2.4457  0.3514
 4469SOL     OW25039   1.109   1.544  17.486 -0.2569  0.7129  0.2289
 4469SOL    HW125040   1.171   1.596  17.434 -2.6483  2.8282 -0.5357
 4469SOL    HW225041   1.171   1.472  17.498  1.1648  2.1014  1.0955
 4470SOL     OW25042   1.260   0.118   2.692 -0.3756  0.0449 -0.2040
 4470SOL    HW125043   1.347   0.085   2.711  0.0119  0.1698 -1.7820
 4470SOL    HW225044   1.274   0.188   2.628  0.1771  0.6813  0.6181
 4471SOL     OW25045   0.544   0.663   1.335 -0.2065 -0.3297  0.4190
 4471SOL    HW125046   0.536   0.690   1.243  0.2602  0.8687  0.7341
 4471SOL    HW225047   0.533   0.570   1.314 -0.6121  0.3806 -2.5542
 4472SOL     OW25048   2.749   3.539   1.884 -0.8351 -0.2798  0.2274
 4472SOL    HW125049   2.658   3.514   1.866 -0.0001 -0.4307 -3.8290
 4472SOL    HW225050   2.728   3.597   1.957 -0.8957 -1.4615  1.1388
 4473SOL     OW25051   1.580   2.185  13.436  0.2385 -0.1817  0.4095
 4473SOL    HW125052   1.569   2.179  13.341  1.0361  0.6438  0.2674
 4473SOL    HW225053   1.577   2.278  13.458 -2.3039 -0.8385  2.8725
 4474SOL     OW25054   3.161   3.695   6.140 -0.1661  0.4436 -0.1082
 4474SOL    HW125055   3.239   3.640   6.148 -1.3087 -1.1300  0.1928
 4474SOL    HW225056   3.206   3.764   6.091 -1.2480  1.8869  0.9271
 4475SOL     OW25057   1.512   0.350   8.988 -0.1103  0.0489 -0.0121
 4475SOL    HW125058   1.455   0.283   9.026 -0.9139  0.5059 -0.4017
 4475SOL    HW225059   1.593   0.329   9.034 -0.5015 -0.5400  0.4067
 4476SOL     OW25060   2.900   0.984   3.547  0.0148  0.4418 -0.2278
 4476SOL    HW125061   2.866   1.045   3.612 -0.9276  1.0311 -1.2814
 4476SOL    HW225062   2.926   0.910   3.602  1.6437  2.6582  1.9572
 4477SOL     OW25063   2.675   3.559   5.484 -0.0186 -0.6015 -0.3749
 4477SOL    HW125064   2.656   3.644   5.524  1.8734  1.0079 -2.8646
 4477SOL    HW225065   2.766   3.537   5.503  0.1587 -1.0731 -1.7287
 4478SOL     OW25066   2.084   0.957   6.578 -0.6895  0.5044 -0.2894
 4478SOL    HW125067   2.017   0.963   6.510 -2.0003  1.0207  1.0702
 4478SOL    HW225068   2.035   0.995   6.650  0.7671 -0.1594  1.0431
 4479SOL     OW25069   0.488   0.017  11.065  0.2763 -0.2519 -0.4168
 4479SOL    HW125070   0.504   0.058  10.980 -1.1409 -1.3668 -1.2187
 4479SOL    HW225071   0.429   0.083  11.104  0.4293  0.1455 -0.8540
 4480SOL     OW25072   4.625   0.962   3.245 -0.2408  0.2380 -0.3334
 4480SOL    HW125073   4.717   0.985   3.230  0.5805 -1.9287  1.4462
 4480SOL    HW225074   4.601   0.930   3.158 -2.9958 -1.0828  0.9189
 4481SOL     OW25075   2.655   3.224  13.893 -0.1974 -0.4328  0.2629
 4481SOL    HW125076   2.715   3.209  13.966 -1.0591  0.3614  1.1340
 4481SOL    HW225077   2.616   3.309  13.917  0.5964  0.0864 -0.2906
 4482SOL     OW25078   1.487   3.278   5.932  0.0424  0.2200  0.3963
 4482SOL    HW125079   1.553   3.291   5.864 -1.2395 -2.7017 -1.4484
 4482SOL    HW225080   1.513   3.187   5.951 -1.2573 -0.1108  0.5885
 4483SOL     OW25081   2.910   1.865   9.975 -0.2108  0.1087  0.3134
 4483SOL    HW125082   2.858   1.794  10.012 -1.4150 -0.1284 -1.9062
 4483SOL    HW225083   2.861   1.873   9.894  1.3931 -0.5291 -0.7244
 4484SOL     OW25084   3.762   1.235   8.238  0.0724  0.3763  0.2399
 4484SOL    HW125085   3.675   1.237   8.197 -0.3933 -1.1398  1.1634
 4484SOL    HW225086   3.789   1.147   8.212 -0.4216 -0.1052  1.3381
 4485SOL     OW25087   1.889   3.941  10.966  0.5046  0.4019 -0.4314
 4485SOL    HW125088   1.898   3.850  10.939 -0.2686  0.9446 -2.4519
 4485SOL    HW225089   1.842   3.985  10.896  0.6713 -0.3359 -1.0009
 4486SOL     OW25090   3.008   1.869  16.273 -0.6692 -0.1903  0.0154
 4486SOL    HW125091   3.016   1.817  16.192  0.1208 -2.1065  1.3226
 4486SOL    HW225092   3.009   1.958  16.238  1.4326 -0.8486 -1.6270
 4487SOL     OW25093   2.690   3.766   1.658 -0.1105 -0.4049 -0.1527
 4487SOL    HW125094   2.780   3.752   1.689 -0.0430  0.9595  0.2873
 4487SOL    HW225095   2.651   3.824   1.724  1.6939 -1.5186  1.8535
 4488SOL     OW25096   1.886   3.659   3.135  0.6799  0.1059  0.2794
 4488SOL    HW125097   1.966   3.643   3.085 -0.3251 -0.3988 -1.1967
 4488SOL    HW225098   1.911   3.614   3.216 -0.9371 -0.6120  0.3784
 4489SOL     OW25099   1.920   3.350   5.271 -0.2694 -0.4880 -0.2713
 4489SOL    HW125100   1.991   3.405   5.305  0.4344 -2.1856  1.0052
 4489SOL    HW225101   1.909   3.375   5.179 -0.7023 -0.6227 -0.2553
 4490SOL     OW25102   1.084   2.011   3.068 -0.4621 -0.2162  0.5913
 4490SOL    HW125103   0.992   1.991   3.057 -0.7448 -0.4263  3.1606
 4490SOL    HW225104   1.125   1.977   2.989 -0.5162 -3.4174  1.9708
 4491SOL     OW25105   1.743   0.021  17.103  0.4678  0.7918  0.2092
 4491SOL    HW125106   1.760   0.113  17.124  1.8029  0.2534  1.4951
 4491SOL    HW225107   1.828   4.733  17.067 -1.2686 -2.5984 -1.7241
 4492SOL     OW25108   0.992   3.727  17.157  0.5281 -0.1734 -0.0142
 4492SOL    HW125109   1.081   3.713  17.191  0.8381  0.7208 -0.4713
 4492SOL    HW225110   0.948   3.734  17.242 -0.7803  1.1425 -0.8195
 4493SOL     OW25111   2.545   3.986  10.005  0.1136 -0.2071 -0.2576
 4493SOL    HW125112   2.559   3.944   9.920  1.4787  0.5621 -0.4039
 4493SOL    HW225113   2.602   3.928  10.057 -1.0692 -1.0249  0.1336
 4494SOL     OW25114   4.356   1.078   8.486 -0.0053  0.0179 -0.1025
 4494SOL    HW125115   4.338   1.009   8.550 -0.9463 -0.5401 -0.9869
 4494SOL    HW225116   4.298   1.147   8.516 -0.5222 -0.3495 -0.2631
 4495SOL     OW25117   3.102   1.785   1.824 -0.1458  0.3459  0.5864
 4495SOL    HW125118   3.037   1.719   1.851  1.0636 -0.5302  1.3380
 4495SOL    HW225119   3.177   1.735   1.857  0.5598  0.8642 -0.2541
 4496SOL     OW25120   0.095   0.121   2.008 -0.5524  0.2598 -0.1051
 4496SOL    HW125121   0.166   0.057   2.020  0.5573  1.9156  2.2674
 4496SOL    HW225122   0.108   0.169   2.090 -2.7221 -0.2416  0.5463
 4497SOL     OW25123   2.125   3.543  15.318 -0.0134  0.3291 -0.0503
 4497SOL    HW125124   2.078   3.600  15.379 -2.1736  1.4308 -2.7357
 4497SOL    HW225125   2.139   3.467  15.375 -1.0165  0.8523  0.9020
 4498SOL     OW25126   0.570   1.351   8.266 -0.1273 -0.2328 -0.0629
 4498SOL    HW125127   0.551   1.291   8.194 -0.7289  2.1214 -1.8804
 4498SOL    HW225128   0.545   1.439   8.238  1.7887  0.0244 -0.9874
 4499SOL     OW25129   3.538   2.918   6.452  0.5751  0.1466 -0.1740
 4499SOL    HW125130   3.484   2.958   6.519 -0.4763 -1.4623 -0.0710
 4499SOL    HW225131   3.477   2.882   6.388  1.8119 -0.0491 -1.2558
 4500SOL     OW25132   2.541   4.171   2.565  0.1275 -0.5371 -0.0177
 4500SOL    HW125133   2.598   4.207   2.497 -1.5198  0.0819 -1.0527
 4500SOL    HW225134   2.579   4.092   2.604 -0.0489 -0.3877  0.4589
 4501SOL     OW25135   4.340   1.810  15.553 -0.6659  0.3856  0.0969
 4501SOL    HW125136   4.260   1.760  15.536 -0.4219 -0.7306  2.2282
 4501SOL    HW225137   4.401   1.738  15.537 -1.9041 -0.2953 -1.5656
 4502SOL     OW25138   0.689   3.344   3.359 -0.0433 -0.4631  0.2910
 4502SOL    HW125139   0.654   3.356   3.447 -1.1519 -0.6367 -0.1313
 4502SOL    HW225140   0.608   3.311   3.321  1.5496 -3.2681 -0.7227
 4503SOL     OW25141   3.119   3.016   2.614 -0.4635 -0.2207 -0.8594
 4503SOL    HW125142   3.068   2.985   2.689  0.1212  1.6041  0.3097
 4503SOL    HW225143   3.205   2.977   2.629  0.5713  2.2745 -0.3199
 4504SOL     OW25144   2.882   3.328   8.262  0.5186 -0.4710 -0.2251
 4504SOL    HW125145   2.942   3.324   8.187 -0.3541 -0.5566 -0.9139
 4504SOL    HW225146   2.809   3.278   8.224  1.1793  0.7832 -3.1303
 4505SOL     OW25147   0.809   3.659   5.078 -0.4890  0.4417 -0.1379
 4505SOL    HW125148   0.880   3.632   5.137 -0.5580  1.5295  0.4555
 4505SOL    HW225149   0.773   3.572   5.065 -1.7268  0.8668  0.4477
 4506SOL     OW25150   2.824   2.057   5.373 -0.5010  0.1217 -0.4961
 4506SOL    HW125151   2.771   1.982   5.402 -0.2660  0.3377  0.5002
 4506SOL    HW225152   2.764   2.126   5.402 -0.2788  0.2854 -0.4236
 4507SOL     OW25153   3.073   2.550  16.940 -0.0520  0.1858  0.5849
 4507SOL    HW125154   3.050   2.457  16.929 -1.4127  0.4106  1.4951
 4507SOL    HW225155   3.113   2.581  16.859 -3.0273 -1.7073 -1.6217
 4508SOL     OW25156   0.161   1.398   5.509 -0.1815  0.1758 -0.3164
 4508SOL    HW125157   0.172   1.465   5.441  0.4237 -1.7284 -2.0904
 4508SOL    HW225158   0.131   1.328   5.450  0.4711 -0.6765  0.3664
 4509SOL     OW25159   0.910   1.904   7.824 -0.8601 -0.6217  0.0723
 4509SOL    HW125160   0.910   1.914   7.729 -2.2139 -0.3327  0.1093
 4509SOL    HW225161   0.886   1.812   7.830 -3.6842  0.4122  4.7188
 4510SOL     OW25162   4.328   3.907   8.271 -0.0774  0.4519  0.3342
 4510SOL    HW125163   4.339   3.976   8.336  1.5301  1.9403 -1.4894
 4510SOL    HW225164   4.400   3.845   8.288 -0.5135 -1.2043 -3.7929
 4511SOL     OW25165   2.751   3.050  10.415  0.7968 -0.4394 -0.0296
 4511SOL    HW125166   2.762   3.090  10.501 -0.5157 -2.6857  1.1930
 4511SOL    HW225167   2.674   3.101  10.391  3.1494  3.4532  0.7161
 4512SOL     OW25168   1.971   1.633   6.399  0.2882  0.2551 -0.6640
 4512SOL    HW125169   1.981   1.705   6.337  0.4495  1.1023  0.3481
 4512SOL    HW225170   1.998   1.675   6.481 -0.5217 -0.5562  0.0226
 4513SOL     OW25171   0.766   3.457  12.948 -0.4032  0.3102  0.0743
 4513SOL    HW125172   0.746   3.364  12.940  0.7805  0.0722 -0.1620
 4513SOL    HW225173   0.856   3.466  12.916 -0.3793 -1.0483 -0.2231
 4514SOL     OW25174   1.778   1.143   6.162 -0.0184 -0.4003 -0.7542
 4514SOL    HW125175   1.782   1.212   6.228 -1.3863  0.1314 -1.2272
 4514SOL    HW225176   1.864   1.105   6.177 -0.0799 -0.0209  0.5850
 4515SOL     OW25177   1.260   0.341   0.340 -0.1682  0.2798 -0.0808
 4515SOL    HW125178   1.309   0.349   0.422  1.6033  1.3397 -1.2289
 4515SOL    HW225179   1.315   0.275   0.297 -0.0003  0.1203  0.3869
 4516SOL     OW25180   1.455   0.616   0.605 -1.1398  0.2614  0.0546
 4516SOL    HW125181   1.524   0.590   0.545 -1.0512  0.6317 -0.0075
 4516SOL    HW225182   1.430   0.698   0.562 -0.2381  0.5251  0.0286
 4517SOL     OW25183   3.836   4.662  16.061 -0.7159 -0.7694 -0.1920
 4517SOL    HW125184   3.863   4.583  16.014  0.4311  0.1792 -1.0948
 4517SOL    HW225185   3.905   4.715  16.022  0.7241 -1.4553  1.3915
 4518SOL     OW25186   1.622   3.085  15.486 -0.0279  0.3215 -0.6709
 4518SOL    HW125187   1.634   2.990  15.475  1.4464  0.4628 -0.2680
 4518SOL    HW225188   1.545   3.096  15.431 -0.8945 -0.9750  0.2817
 4519SOL     OW25189   4.315   1.067   0.053  0.2324  0.4388  0.5663
 4519SOL    HW125190   4.307   1.033  17.702  1.2750  1.4987  0.0816
 4519SOL    HW225191   4.408   1.088   0.058  0.0258  1.4603  0.0853
 4520SOL     OW25192   3.795   1.000   0.917  0.0810 -0.5698  0.2153
 4520SOL    HW125193   3.879   0.987   0.962  0.9686 -0.4486 -1.4049
 4520SOL    HW225194   3.735   1.024   0.987  2.2447  0.4072  1.7508
 4521SOL     OW25195   1.151   0.957   1.165  0.0340 -0.2410  0.3355
 4521SOL    HW125196   1.065   0.914   1.161 -0.4900  0.7979  0.3906
 4521SOL    HW225197   1.157   1.011   1.086 -0.5759  1.9889  1.8077
 4522SOL     OW25198   2.449   4.331  12.478 -0.4106 -0.1265  0.5075
 4522SOL    HW125199   2.500   4.294  12.551 -0.5708  0.9125  1.1394
 4522SOL    HW225200   2.415   4.408  12.523 -0.9560  0.8921 -1.6327
 4523SOL     OW25201   1.540   2.600   2.891  0.4633 -0.2513  0.2518
 4523SOL    HW125202   1.556   2.537   2.962 -0.3486 -1.0655 -0.2950
 4523SOL    HW225203   1.591   2.561   2.821  0.5710  1.4258 -0.6054
 4524SOL     OW25204   0.150   1.974  16.223 -0.9383 -0.0033  0.1910
 4524SOL    HW125205   0.227   2.026  16.246  1.0398 -1.8412 -2.1988
 4524SOL    HW225206   0.159   1.909  16.292 -3.3949  0.7271  1.1624
 4525SOL     OW25207   2.334   1.239  13.748  0.2301 -0.6361 -0.4461
 4525SOL    HW125208   2.360   1.252  13.839  2.1865 -1.3419 -0.9039
 4525SOL    HW225209   2.410   1.275  13.701 -0.2607  0.7100 -0.2231
 4526SOL     OW25210   3.420   1.775   0.585  0.0320  0.3345  0.0800
 4526SOL    HW125211   3.437   1.817   0.501 -0.6728 -1.0444 -0.7571
 4526SOL    HW225212   3.332   1.810   0.599  0.1672  0.2457  1.1955
 4527SOL     OW25213   4.660   0.539   5.328  0.7277 -0.1286  0.8576
 4527SOL    HW125214   4.731   0.477   5.344  0.5812 -0.5041  0.0281
 4527SOL    HW225215   4.669   0.553   5.234 -1.2508 -1.9741  0.3926
 4528SOL     OW25216   0.146   2.872   4.005  0.1904  0.0294 -0.5362
 4528SOL    HW125217   0.172   2.825   3.925 -0.2191 -0.4628 -0.3815
 4528SOL    HW225218   0.105   2.950   3.968 -0.4514  0.0182  0.1562
 4529SOL     OW25219   4.420   3.512   6.684  0.0902 -0.6515  0.0753
 4529SOL    HW125220   4.376   3.526   6.769 -0.0492  1.5243 -0.3456
 4529SOL    HW225221   4.446   3.421   6.698 -1.8466 -1.1885  0.2322
 4530SOL     OW25222   0.029   1.943   2.335  0.3803  0.3458  0.6164
 4530SOL    HW125223   0.085   1.967   2.261 -1.3469  1.0781 -0.4385
 4530SOL    HW225224   0.066   2.000   2.402 -1.3788  1.1011  0.9305
 4531SOL     OW25225   2.888   1.665  11.335  0.0736 -0.1968  0.3965
 4531SOL    HW125226   2.828   1.739  11.337 -0.0106 -0.3053  1.9033
 4531SOL    HW225227   2.882   1.638  11.244 -0.7547 -1.2219  0.7653
 4532SOL     OW25228   4.185   1.798  17.562 -0.3460 -0.1086 -0.2912
 4532SOL    HW125229   4.090   1.811  17.560  0.0017  2.6089  1.4270
 4532SOL    HW225230   4.198   1.769  17.472 -0.4118  0.2199 -0.4055
 4533SOL     OW25231   4.155   4.339  14.870  0.1693  0.5535  0.2020
 4533SOL    HW125232   4.112   4.421  14.843 -1.0647 -0.2034 -0.1381
 4533SOL    HW225233   4.211   4.316  14.796 -0.6658  1.5008 -0.7353
 4534SOL     OW25234   1.741   3.675  11.629 -0.3204  0.6938  0.1440
 4534SOL    HW125235   1.675   3.733  11.667  1.1741  1.3555  1.7479
 4534SOL    HW225236   1.751   3.719  11.545  1.8101  1.2420  0.6963
 4535SOL     OW25237   1.045   3.838   3.207 -0.2668  0.2983  0.3162
 4535SOL    HW125238   1.058   3.889   3.127 -1.5204  0.7575  0.3934
 4535SOL    HW225239   0.960   3.870   3.238 -0.7373 -0.9720  0.3473
 4536SOL     OW25240   2.325   2.064  17.448  0.2709  0.5101  0.2909
 4536SOL    HW125241   2.316   2.125  17.375 -0.9276 -0.6574 -0.5329
 4536SOL    HW225242   2.351   1.985  17.400 -2.6085  0.2356 -0.8110
 4537SOL     OW25243   3.922   3.702  10.796  0.6572 -0.2381  0.1589
 4537SOL    HW125244   3.912   3.626  10.739 -2.8411  1.4172 -1.4081
 4537SOL    HW225245   3.889   3.769  10.736 -0.4219 -0.3948  0.5731
 4538SOL     OW25246   2.738   0.775   1.230  0.5565 -0.6110  0.5619
 4538SOL    HW125247   2.683   0.845   1.193 -1.1010 -0.9959  2.2905
 4538SOL    HW225248   2.730   0.716   1.156 -2.1313 -0.4320  0.7083
 4539SOL     OW25249   0.759   0.736   7.975  0.0997  0.0603  0.1103
 4539SOL    HW125250   0.677   0.688   7.981 -0.4463  0.9803  0.0699
 4539SOL    HW225251   0.751   0.806   8.039 -0.0347  1.1613 -1.1101
 4540SOL     OW25252   1.540   0.553  17.714 -0.4843 -0.1395 -0.4655
 4540SOL    HW125253   1.451   0.526  17.734 -0.4831  0.3875  0.2344
 4540SOL    HW225254   1.558   0.485  17.648  1.4262  0.4968 -0.6034
 4541SOL     OW25255   2.426   3.865   1.222  0.1591  0.5239 -0.4690
 4541SOL    HW125256   2.515   3.830   1.218 -0.7565 -1.6471 -2.1781
 4541SOL    HW225257   2.385   3.788   1.264  2.2518 -0.4530 -0.2170
 4542SOL     OW25258   3.080   1.293   6.786 -0.1052  0.1189 -0.1717
 4542SOL    HW125259   3.044   1.381   6.772 -0.5346 -0.0001  0.1564
 4542SOL    HW225260   3.143   1.283   6.715  1.6732  1.0042  1.2915
 4543SOL     OW25261   3.504   2.883   4.457  0.2812 -0.4493  0.3807
 4543SOL    HW125262   3.435   2.884   4.390  1.4290  0.1964 -0.8016
 4543SOL    HW225263   3.469   2.805   4.499  0.9941 -0.4030  1.0557
 4544SOL     OW25264   4.625   3.763   6.356  0.0360  0.2393  0.6944
 4544SOL    HW125265   4.631   3.768   6.451 -1.2556  1.3228  0.7285
 4544SOL    HW225266   4.530   3.752   6.352 -0.0580  0.8364  1.3527
 4545SOL     OW25267   0.064   0.473   3.266  0.1971 -0.6177 -0.2835
 4545SOL    HW125268   0.115   0.393   3.256  0.0984 -0.8205  0.8163
 4545SOL    HW225269   0.100   0.514   3.345 -1.7226  1.7924 -0.6466
 4546SOL     OW25270   0.742   3.887   4.461 -0.0034  0.4041  0.5865
 4546SOL    HW125271   0.688   3.809   4.449  0.3707  0.4795 -1.5967
 4546SOL    HW225272   0.712   3.951   4.396 -1.0638 -0.3493  0.3430
 4547SOL     OW25273   1.500   4.536  10.686  0.4424 -0.3476  0.3039
 4547SOL    HW125274   1.452   4.615  10.712 -2.3972 -1.7772 -0.6238
 4547SOL    HW225275   1.521   4.490  10.767  0.4109 -1.1566 -0.1420
 4548SOL     OW25276   3.546   2.023   5.501  0.1179 -0.4169 -0.6491
 4548SOL    HW125277   3.576   1.962   5.434  0.6351  0.4690 -1.2225
 4548SOL    HW225278   3.468   2.064   5.465 -0.9182 -0.2199  1.8070
 4549SOL     OW25279   4.093   1.677   9.624  0.5435 -0.1244  0.3921
 4549SOL    HW125280   4.171   1.624   9.611  0.8230  0.6862 -1.1874
 4549SOL    HW225281   4.035   1.630   9.564  1.1782  1.2214 -1.2869
 4550SOL     OW25282   4.612   1.444   9.700  0.1613 -0.1165 -0.1216
 4550SOL    HW125283   4.547   1.470   9.766  1.2419 -0.4748  1.0726
 4550SOL    HW225284   4.653   1.528   9.679 -0.6924  0.2831 -0.1900
 4551SOL     OW25285   4.420   1.935   6.354 -0.1869 -0.2220 -0.1726
 4551SOL    HW125286   4.443   2.023   6.327  0.9103 -0.0635  1.2925
 4551SOL    HW225287   4.344   1.945   6.412 -0.0845  1.6580 -0.3792
 4552SOL     OW25288   2.906   2.426   3.470  0.0423  0.4400  0.1763
 4552SOL    HW125289   2.864   2.508   3.442  1.7488  1.2275 -0.1011
 4552SOL    HW225290   2.993   2.442   3.506  0.5587  2.4754 -1.9437
 4553SOL     OW25291   1.156   2.120   2.553 -0.7238  0.4945 -0.5236
 4553SOL    HW125292   1.173   2.189   2.617  1.0163  0.8436 -1.3517
 4553SOL    HW225293   1.062   2.138   2.548 -1.1029 -0.8630  1.6893
 4554SOL     OW25294   0.606   1.701   2.482  0.2294  0.8151 -0.3192
 4554SOL    HW125295   0.599   1.776   2.423  2.3685  1.8949  0.7974
 4554SOL    HW225296   0.695   1.705   2.517 -0.0284 -0.7219  0.5101
 4555SOL     OW25297   0.226   3.309   4.409  0.2852  0.1774 -0.1243
 4555SOL    HW125298   0.319   3.307   4.429  0.5733 -0.3761 -1.5204
 4555SOL    HW225299   0.214   3.229   4.358  1.1268 -0.1238  0.1440
 4556SOL     OW25300   2.651   2.479   8.832 -0.0265 -0.2691  0.3512
 4556SOL    HW125301   2.712   2.449   8.765  0.2649  1.8207 -0.3117
 4556SOL    HW225302   2.599   2.403   8.859  1.3170 -1.0541  0.7318
 4557SOL     OW25303   0.744   0.648   1.764  0.2204  0.3132 -0.2511
 4557SOL    HW125304   0.752   0.732   1.809 -1.5645  0.4180 -0.0944
 4557SOL    HW225305   0.763   0.590   1.837  2.6475 -0.0318 -1.1660
 4558SOL     OW25306   1.813   0.854   6.705 -0.0852 -0.0989 -0.1512
 4558SOL    HW125307   1.723   0.833   6.730 -0.3066  0.2526 -0.6605
 4558SOL    HW225308   1.806   0.868   6.611  1.2452 -1.9025 -0.5347
 4559SOL     OW25309   2.337   1.007   7.098 -0.5510 -0.0150 -0.0539
 4559SOL    HW125310   2.339   0.915   7.123  0.1974  0.0427  0.0965
 4559SOL    HW225311   2.402   1.019   7.029  0.0401 -1.9030  0.1648
 4560SOL     OW25312   1.291   4.720  13.680  0.0710  0.0186  0.0103
 4560SOL    HW125313   1.247   0.020  13.757 -0.9913 -0.1393 -0.5291
 4560SOL    HW225314   1.243   4.640  13.663  1.5833 -0.6569 -1.0809
 4561SOL     OW25315   1.585   1.735  13.343  1.0231  0.4144  0.1991
 4561SOL    HW125316   1.590   1.683  13.424  0.7994  2.4115  1.4942
 4561SOL    HW225317   1.503   1.695  13.317  1.8901 -1.6822  0.6796
 4562SOL     OW25318   1.079   3.285   7.246 -0.5299 -0.0581 -0.1390
 4562SOL    HW125319   1.140   3.306   7.317  0.3030 -0.4850 -0.7219
 4562SOL    HW225320   1.124   3.208   7.210  0.1010 -0.2320  1.0361
 4563SOL     OW25321   3.579   0.284   2.643 -0.4196  0.2068  0.2623
 4563SOL    HW125322   3.670   0.298   2.618 -0.5003 -0.5146 -0.4588
 4563SOL    HW225323   3.540   0.367   2.616 -2.0969  0.1658  2.5117
 4564SOL     OW25324   2.044   2.886   4.363 -0.0293  0.2144  0.3594
 4564SOL    HW125325   1.971   2.899   4.303  1.3351  1.8236 -0.9424
 4564SOL    HW225326   1.997   2.862   4.443 -0.8362 -0.7448 -0.4034
 4565SOL     OW25327   2.209   3.301   7.759  0.3794  0.3871 -0.5742
 4565SOL    HW125328   2.219   3.321   7.852  1.0178 -0.6458 -0.4260
 4565SOL    HW225329   2.283   3.356   7.732 -0.2535  1.2390 -0.5962
 4566SOL     OW25330   1.464   1.075   3.362 -0.2302 -0.7139 -0.3575
 4566SOL    HW125331   1.429   0.988   3.384  0.8602 -1.5401 -1.9176
 4566SOL    HW225332   1.557   1.056   3.377 -0.1668 -0.8769 -0.9972
 4567SOL     OW25333   1.261   1.462   8.509 -0.0482  0.3686  0.7140
 4567SOL    HW125334   1.279   1.537   8.453  1.8325  0.2767  1.1914
 4567SOL    HW225335   1.182   1.495   8.553 -1.2132  0.1565 -1.2062
 4568SOL     OW25336   3.064   4.292  14.989 -0.6090  0.3939  0.7445
 4568SOL    HW125337   3.145   4.318  15.034 -0.4030  0.4471  0.3477
 4568SOL    HW225338   3.033   4.225  15.050  0.7346  0.5957  1.6709
 4569SOL     OW25339   1.543   1.204  16.021  0.3823  1.0443 -0.7151
 4569SOL    HW125340   1.550   1.186  15.927  0.3244  1.8287 -0.8675
 4569SOL    HW225341   1.556   1.299  16.026  0.5579  0.9682  0.1989
 4570SOL     OW25342   3.990   2.515   3.202  0.0070 -0.0906 -0.1637
 4570SOL    HW125343   4.016   2.485   3.114 -0.9005  2.1179 -1.1761
 4570SOL    HW225344   3.907   2.560   3.190  0.7822  1.2438 -0.5221
 4571SOL     OW25345   2.026   2.235   6.820  0.7642 -0.2130  0.0187
 4571SOL    HW125346   1.985   2.183   6.751 -2.7645  0.3635  1.6811
 4571SOL    HW225347   2.024   2.322   6.780 -1.6129 -0.3415 -0.1689
 4572SOL     OW25348   0.560   0.438   0.429 -0.1555  0.4920  0.3365
 4572SOL    HW125349   0.489   0.466   0.372  0.5956  1.0334 -0.3335
 4572SOL    HW225350   0.632   0.489   0.393 -0.3097  0.5115  0.0561
 4573SOL     OW25351   2.586   2.614   4.242 -0.5258  0.3203 -0.2127
 4573SOL    HW125352   2.657   2.617   4.178  0.2185 -0.4621  0.5762
 4573SOL    HW225353   2.614   2.655   4.324  0.6042 -0.0926 -0.3966
 4574SOL     OW25354   3.728   3.281   7.835  0.0369 -0.5542  0.0775
 4574SOL    HW125355   3.655   3.237   7.878 -0.9395 -0.4297 -1.4458
 4574SOL    HW225356   3.754   3.351   7.895  1.7912 -2.6991  1.8122
 4575SOL     OW25357   0.318   3.806   5.420 -0.4089 -0.4120  0.0761
 4575SOL    HW125358   0.371   3.739   5.378 -0.7573 -1.0877  0.6961
 4575SOL    HW225359   0.277   3.744   5.481  0.9257 -1.9441 -0.6100
 4576SOL     OW25360   4.440   4.264   4.648  0.1627 -0.1953 -0.4776
 4576SOL    HW125361   4.522   4.254   4.601  0.9218 -2.0045  1.2176
 4576SOL    HW225362   4.376   4.214   4.597 -0.3369  2.4771 -2.4531
 4577SOL     OW25363   1.169   4.496  12.217 -0.1404  0.0341 -0.4954
 4577SOL    HW125364   1.242   4.440  12.192 -0.1988 -0.1461 -0.2608
 4577SOL    HW225365   1.218   4.566  12.261  1.6278 -0.6032 -1.4480
 4578SOL     OW25366   3.130   2.666   5.807 -0.1684 -0.4523  0.7717
 4578SOL    HW125367   3.039   2.689   5.792 -0.3789 -0.5063  2.0029
 4578SOL    HW225368   3.171   2.717   5.736  0.0477  1.6711  2.4110
 4579SOL     OW25369   1.947   4.353  17.406 -0.0557  0.2371 -0.5799
 4579SOL    HW125370   1.903   4.345  17.491 -3.0305 -1.1236 -2.2861
 4579SOL    HW225371   1.918   4.272  17.366 -1.2530 -0.2243  1.2157
 4580SOL     OW25372   2.067   3.316   8.998 -0.7215 -0.2218  0.6027
 4580SOL    HW125373   2.121   3.247   9.037  0.4584  0.5315  0.3221
 4580SOL    HW225374   1.982   3.282   9.023 -0.5623 -0.3551  0.9630
 4581SOL     OW25375   1.369   0.466  13.955 -0.1162 -0.4197  0.1260
 4581SOL    HW125376   1.375   0.561  13.956  2.0357 -0.5405 -0.0432
 4581SOL    HW225377   1.342   0.440  13.867  0.6747 -0.0990 -0.2127
 4582SOL     OW25378   1.506   3.108  10.131  0.4731  0.5885 -0.0554
 4582SOL    HW125379   1.491   3.082  10.040  2.0697  3.3126 -1.1047
 4582SOL    HW225380   1.601   3.104  10.144  0.5617  3.5504  0.0450
 4583SOL     OW25381   1.772   0.519  14.817  0.4543 -0.1621  0.4334
 4583SOL    HW125382   1.736   0.564  14.740 -0.9369 -0.6807  0.7949
 4583SOL    HW225383   1.866   0.538  14.811  0.9590 -2.4393  1.3861
 4584SOL     OW25384   1.937   4.669   3.884  0.6524  0.2772 -0.1785
 4584SOL    HW125385   1.960   4.601   3.947  0.3256 -0.4534 -0.8489
 4584SOL    HW225386   2.020   4.706   3.854  1.2665  0.0894  1.2867
 4585SOL     OW25387   0.720   2.376   2.402 -0.1760  0.4154  0.4763
 4585SOL    HW125388   0.725   2.457   2.351 -1.2456  0.0685 -0.1838
 4585SOL    HW225389   0.636   2.385   2.447 -1.0736  2.3296 -1.5810
 4586SOL     OW25390   4.055   4.407   4.104  0.6573 -0.4495  0.1791
 4586SOL    HW125391   3.992   4.335   4.112  1.1345 -0.8742  0.1552
 4586SOL    HW225392   4.079   4.410   4.012  0.2488  0.0056  0.0867
 4587SOL     OW25393   0.928   2.481   9.712 -0.1982 -0.0038 -0.1651
 4587SOL    HW125394   0.921   2.399   9.762  2.7327 -0.5168 -0.5983
 4587SOL    HW225395   0.860   2.517   9.769 -0.6903  0.1000 -0.8123
 4588SOL     OW25396   1.307   0.363   4.470  0.1949  0.2596 -0.5008
 4588SOL    HW125397   1.319   0.286   4.526  0.0244 -0.2797 -1.1936
 4588SOL    HW225398   1.217   0.382   4.493 -0.0583  0.1162 -1.3816
 4589SOL     OW25399   4.669   3.887   6.933  0.1842  0.8610 -0.5492
 4589SOL    HW125400   0.008   3.917   6.986 -0.1390 -0.1432  0.4848
 4589SOL    HW225401   4.621   3.967   6.911 -0.9731  0.6229  1.0801
 4590SOL     OW25402   1.669   1.160   8.122  0.0902  0.3313 -0.2370
 4590SOL    HW125403   1.729   1.086   8.117  0.1437  0.4081 -0.7236
 4590SOL    HW225404   1.641   1.146   8.213  3.3134  1.5782  0.9330
 4591SOL     OW25405   0.522   0.394   2.091  0.1066  0.1954  0.1737
 4591SOL    HW125406   0.523   0.299   2.084  3.1475  0.2734 -0.1781
 4591SOL    HW225407   0.510   0.416   2.183  0.8551 -1.5940  0.6896
 4592SOL     OW25408   2.963   1.592   9.689  0.6535 -0.1129 -0.0391
 4592SOL    HW125409   2.949   1.507   9.648  0.0439  0.2095 -0.4990
 4592SOL    HW225410   3.041   1.626   9.645  0.4397 -2.1354 -1.9791
 4593SOL     OW25411   1.709   1.879  13.037  0.0900 -0.1035  0.5766
 4593SOL    HW125412   1.662   1.817  12.982  3.3346 -0.5064 -1.7260
 4593SOL    HW225413   1.677   1.959  12.996 -0.7575  0.5025  2.4141
 4594SOL     OW25414   3.087   0.584   0.690 -0.0949 -0.5911 -0.0796
 4594SOL    HW125415   3.180   0.600   0.675 -0.1157  0.5867  1.0580
 4594SOL    HW225416   3.049   0.572   0.603 -1.6278  0.5915  0.4330
 4595SOL     OW25417   4.168   0.782  16.644 -0.1618 -0.9785  0.1723
 4595SOL    HW125418   4.151   0.859  16.590  1.6493  0.8184  2.1782
 4595SOL    HW225419   4.090   0.781  16.700  1.1702  0.3474  2.0147
 4596SOL     OW25420   0.017   4.296   2.999  0.8529  0.3197 -0.1233
 4596SOL    HW125421   0.050   4.235   2.932 -0.3724  2.1791 -2.4314
 4596SOL    HW225422   0.092   4.322   3.051 -0.0411 -2.1497  2.3909
 4597SOL     OW25423   1.387   3.716   0.936 -0.3229  0.2121 -0.1045
 4597SOL    HW125424   1.408   3.791   0.992 -1.0124  1.4586 -1.5036
 4597SOL    HW225425   1.368   3.645   0.996  0.0027  0.9826  0.9090
 4598SOL     OW25426   0.386   0.749   3.648 -0.7633  0.0235  0.1114
 4598SOL    HW125427   0.461   0.690   3.639 -0.6469 -0.1133  2.0166
 4598SOL    HW225428   0.421   0.822   3.700  0.7107 -1.6941  1.5379
 4599SOL     OW25429   0.135   0.538   7.849 -0.3842 -0.1816 -0.6120
 4599SOL    HW125430   0.216   0.516   7.803  1.3662  0.1733  2.2729
 4599SOL    HW225431   0.085   0.460   7.826 -0.6591 -0.6808  1.6143
 4600SOL     OW25432   4.421   3.714   7.738 -0.1586 -0.2688  0.0914
 4600SOL    HW125433   4.360   3.742   7.806  0.4370  2.4949 -0.5015
 4600SOL    HW225434   4.473   3.794   7.736 -0.3512 -0.1581 -0.4454
 4601SOL     OW25435   1.473   0.466  12.892  0.5457  0.1941  0.4281
 4601SOL    HW125436   1.477   0.525  12.816 -0.1000  0.3897  0.5433
 4601SOL    HW225437   1.530   0.506  12.958  2.3748 -0.4319 -0.7643
 4602SOL     OW25438   1.314   3.722   2.899  0.0410 -0.1866 -0.1661
 4602SOL    HW125439   1.383   3.754   2.841 -0.0431  2.9692  1.4571
 4602SOL    HW225440   1.288   3.807   2.935 -0.8321 -0.0328 -1.1259
 4603SOL     OW25441   1.847   3.872  15.694 -0.5746 -0.2288  0.4396
 4603SOL    HW125442   1.815   3.930  15.626 -2.1770 -0.5307  0.9373
 4603SOL    HW225443   1.871   3.930  15.766 -0.8645  0.1280  0.2504
 4604SOL     OW25444   2.978   0.494   4.025 -0.0671 -0.2116 -0.5964
 4604SOL    HW125445   2.990   0.587   4.011 -0.8153 -0.4089 -2.4943
 4604SOL    HW225446   2.885   0.482   4.006 -0.4211  2.3890 -0.4568
 4605SOL     OW25447   2.388   0.273   2.496  0.0121 -0.1188  0.0808
 4605SOL    HW125448   2.424   0.266   2.584  0.9036 -0.5259 -0.3144
 4605SOL    HW225449   2.444   0.213   2.445 -0.5747 -0.9187  0.3688
 4606SOL     OW25450   4.103   0.979  16.447  0.0663  0.0336 -0.0758
 4606SOL    HW125451   4.181   0.945  16.403 -0.5995  0.6438 -1.7403
 4606SOL    HW225452   4.030   0.970  16.386 -1.8836 -0.1068  2.2729
 4607SOL     OW25453   1.676   3.903   8.049 -0.1272 -0.6252 -0.3491
 4607SOL    HW125454   1.667   3.959   8.126  0.1645  0.4308 -1.0965
 4607SOL    HW225455   1.627   3.940   7.976 -0.0291 -2.0467 -1.1432
 4608SOL     OW25456   1.870   0.481   7.412 -0.3213  0.0010 -0.1463
 4608SOL    HW125457   1.805   0.504   7.345  0.5416 -0.7269 -1.2394
 4608SOL    HW225458   1.950   0.523   7.379  0.3229 -0.6465  0.5980
 4609SOL     OW25459   3.520   2.645   4.144  0.4811  0.0700  0.0034
 4609SOL    HW125460   3.469   2.695   4.208 -0.7308 -1.7859  0.4913
 4609SOL    HW225461   3.527   2.567   4.199  2.3367  1.0033  1.0952
 4610SOL     OW25462   0.368   3.474   1.351  0.2702  0.1319  0.1976
 4610SOL    HW125463   0.383   3.567   1.366 -1.2262  0.4171 -0.0556
 4610SOL    HW225464   0.307   3.474   1.277 -1.0093  0.3774  1.2621
 4611SOL     OW25465   2.833   0.188   7.559 -0.5468 -0.2886 -0.4520
 4611SOL    HW125466   2.777   0.111   7.566 -0.1549 -0.5526 -0.2866
 4611SOL    HW225467   2.798   0.221   7.642  1.8707  0.5123  0.2438
 4612SOL     OW25468   1.122   2.948   5.798 -0.0651 -0.3982  0.1425
 4612SOL    HW125469   1.115   2.935   5.703  1.4915  2.1218 -0.3319
 4612SOL    HW225470   1.216   2.967   5.800  0.0159 -0.7249 -0.5981
 4613SOL     OW25471   4.358   4.524   3.963 -0.1193  0.2641 -0.5615
 4613SOL    HW125472   4.358   4.435   3.999 -0.0104 -0.2791 -1.8892
 4613SOL    HW225473   4.364   4.498   3.871 -2.7047  0.8005 -0.8859
 4614SOL     OW25474   3.484   2.183  11.592 -0.7260  0.2088  0.1500
 4614SOL    HW125475   3.453   2.263  11.635 -0.5479 -0.1782  1.0029
 4614SOL    HW225476   3.409   2.178  11.532  0.1487  0.8382 -0.9853
 4615SOL     OW25477   1.471   3.555   1.305  0.2179 -0.1068  0.4857
 4615SOL    HW125478   1.404   3.580   1.241  2.2074  0.8014 -1.2529
 4615SOL    HW225479   1.473   3.462   1.282 -0.8137 -0.0179  0.0575
 4616SOL     OW25480   2.003   1.612  12.362 -0.6843  0.5932 -0.0222
 4616SOL    HW125481   2.047   1.534  12.327 -0.7683  0.4648  0.1589
 4616SOL    HW225482   2.023   1.597  12.454  1.7920  1.6731 -0.3732
 4617SOL     OW25483   3.801   3.497   4.309  0.2058 -0.1470  0.4079
 4617SOL    HW125484   3.881   3.490   4.256  0.6207  1.5132  0.8271
 4617SOL    HW225485   3.839   3.452   4.384 -2.0280 -0.9452  1.0541
 4618SOL     OW25486   0.840   4.002   2.482  0.0837  0.3742 -0.0349
 4618SOL    HW125487   0.756   3.976   2.519  0.1602  2.5038  1.6207
 4618SOL    HW225488   0.835   4.097   2.468  0.1280  0.3558 -0.1696
 4619SOL     OW25489   3.909   2.924   6.631  0.3013 -0.0542 -0.2325
 4619SOL    HW125490   3.857   2.987   6.681  3.9269  0.3545  3.0789
 4619SOL    HW225491   3.878   2.843   6.671 -0.9651  1.0788  1.0957
 4620SOL     OW25492   2.470   1.466   3.578 -0.6700 -0.2232 -0.2142
 4620SOL    HW125493   2.376   1.476   3.564 -1.0055  2.3952  3.8795
 4620SOL    HW225494   2.501   1.498   3.493  0.0267 -0.0612  0.1056
 4621SOL     OW25495   0.599   2.893   3.112 -0.1110 -0.5125 -0.2075
 4621SOL    HW125496   0.686   2.930   3.131  1.2799 -5.2952  2.6578
 4621SOL    HW225497   0.620   2.817   3.058  0.6667 -0.4546  0.0046
 4622SOL     OW25498   1.784   2.190   5.378 -0.3959 -0.1566 -0.1086
 4622SOL    HW125499   1.862   2.136   5.363 -0.0677  0.0627  0.7627
 4622SOL    HW225500   1.769   2.166   5.470  2.3588  0.7950  0.6002
 4623SOL     OW25501   2.518   4.671   3.600 -0.0300 -0.1907 -0.4897
 4623SOL    HW125502   2.457   4.701   3.533  0.4062  0.7993 -0.4352
 4623SOL    HW225503   2.506   4.576   3.591  1.8352 -0.8187  3.4982
 4624SOL     OW25504   0.958   3.898   2.026  0.3794  0.0312  0.1518
 4624SOL    HW125505   0.982   3.991   2.033  3.1781 -0.7006  0.3293
 4624SOL    HW225506   0.948   3.873   2.118  1.7895 -2.4092 -0.3432
 4625SOL     OW25507   4.102   4.179  13.301 -1.1815  0.4379 -0.0294
 4625SOL    HW125508   4.086   4.256  13.356 -0.7848 -0.1001  0.8264
 4625SOL    HW225509   4.175   4.138  13.348 -0.6217 -1.1132 -2.2406
 4626SOL     OW25510   2.508   2.876   6.264  0.5127  0.2914 -0.1959
 4626SOL    HW125511   2.516   2.815   6.190 -0.0443 -0.6468  0.5183
 4626SOL    HW225512   2.541   2.823   6.337  0.2543 -1.5217 -1.3772
 4627SOL     OW25513   3.594   3.727   2.693 -0.0141  0.1587  0.0291
 4627SOL    HW125514   3.540   3.707   2.617  1.3085  0.7813 -1.0775
 4627SOL    HW225515   3.663   3.785   2.659  0.1312 -0.0769 -0.0765
 4628SOL     OW25516   4.168   4.357   8.512  0.8938 -0.2518 -0.1848
 4628SOL    HW125517   4.117   4.423   8.465  1.7615 -0.4036 -1.3262
 4628SOL    HW225518   4.131   4.276   8.476  0.0840  1.4912 -3.2603
 4629SOL     OW25519   0.066   0.341   1.460 -0.7120  0.5699  0.0244
 4629SOL    HW125520   0.069   0.373   1.370  1.0492 -0.1810 -0.1888
 4629SOL    HW225521   0.092   0.423   1.502  1.3176  0.9873 -2.0324
 4630SOL     OW25522   1.192   0.458   2.314  0.0969 -0.4785  0.0167
 4630SOL    HW125523   1.110   0.443   2.362  1.2805 -2.6151  1.3585
 4630SOL    HW225524   1.185   0.548   2.282  2.8026  0.0852  1.0477
 4631SOL     OW25525   2.731   0.363   8.034 -0.6494  0.2283 -0.2941
 4631SOL    HW125526   2.728   0.275   8.072 -0.1029 -0.0960 -0.9920
 4631SOL    HW225527   2.660   0.412   8.076 -0.3869 -0.4946  0.9735
 4632SOL     OW25528   1.111   0.390  14.534  0.7260  0.4725 -0.5449
 4632SOL    HW125529   1.105   0.316  14.474  0.0244 -0.7326  0.9822
 4632SOL    HW225530   1.201   0.378  14.564  1.4498  2.1119 -2.0615
 4633SOL     OW25531   2.228   2.530   4.804 -0.5795 -0.2390  0.7059
 4633SOL    HW125532   2.302   2.584   4.833 -0.6906 -0.1372  0.7992
 4633SOL    HW225533   2.256   2.470   4.735 -4.4308  0.1925 -1.2162
 4634SOL     OW25534   1.266   3.462  16.377  0.2892  0.0701  0.9643
 4634SOL    HW125535   1.247   3.532  16.439  0.1517  0.1541  0.8263
 4634SOL    HW225536   1.235   3.491  16.292  3.0308 -0.2258 -0.1242
 4635SOL     OW25537   1.779   4.198   6.491 -0.5009 -0.1682  0.0923
 4635SOL    HW125538   1.805   4.247   6.570 -2.1361 -0.6242  0.9140
 4635SOL    HW225539   1.772   4.106   6.517  3.5174 -1.2628 -2.8609
 4636SOL     OW25540   3.755   2.353   6.351 -0.2279  0.2174  0.2026
 4636SOL    HW125541   3.695   2.428   6.352 -0.1188  0.3311 -1.5753
 4636SOL    HW225542   3.723   2.317   6.269 -0.1314  1.4698 -0.3990
 4637SOL     OW25543   0.021   3.506   6.344 -0.8665 -0.1022  0.9784
 4637SOL    HW125544   4.673   3.457   6.346 -1.1738  0.3845  0.0140
 4637SOL    HW225545   4.712   3.589   6.359  2.5730  2.0408 -0.9452
 4638SOL     OW25546   2.740   4.444  13.386  0.0869  0.1189 -0.3302
 4638SOL    HW125547   2.774   4.397  13.310  0.8650  0.5359 -0.2396
 4638SOL    HW225548   2.789   4.395  13.452  0.6319  0.0046 -0.8278
 4639SOL     OW25549   3.554   3.679   9.341  0.4182  0.1938  0.0197
 4639SOL    HW125550   3.642   3.669   9.380  0.9046  1.7375 -0.6860
 4639SOL    HW225551   3.572   3.637   9.257 -3.2650 -1.4372  0.0734
 4640SOL     OW25552   0.016   4.418   9.639  0.3972 -0.1936  0.1026
 4640SOL    HW125553   4.734   4.506   9.674  0.2500 -0.6438  1.1531
 4640SOL    HW225554   0.039   4.362   9.713 -0.5671 -0.7177  0.0067
 4641SOL     OW25555   3.110   1.324  12.862  0.3932 -0.3347 -0.0608
 4641SOL    HW125556   3.073   1.378  12.791 -2.0447 -2.8135 -0.6881
 4641SOL    HW225557   3.173   1.270  12.815 -0.0753 -0.4099 -0.6059
 4642SOL     OW25558   1.875   0.432   1.662 -0.2344  0.9323  0.0292
 4642SOL    HW125559   1.957   0.461   1.703  1.7059 -2.7966 -1.1936
 4642SOL    HW225560   1.907   0.427   1.572  1.5445  1.7336  0.6208
 4643SOL     OW25561   2.681   4.279   8.793  0.5924 -0.5980 -0.3507
 4643SOL    HW125562   2.750   4.345   8.799 -0.3613  0.1530  2.0181
 4643SOL    HW225563   2.670   4.243   8.881  2.1261  2.9206  1.2816
 4644SOL     OW25564   2.880   1.631   1.917  0.0076  0.2582  0.0937
 4644SOL    HW125565   2.868   1.539   1.892 -0.8230  0.2515  0.5158
 4644SOL    HW225566   2.796   1.660   1.953 -0.1720 -1.0127  0.7199
 4645SOL     OW25567   2.860   3.446  13.082  0.0689 -0.3050 -0.4544
 4645SOL    HW125568   2.953   3.421  13.084  0.7156  2.1455 -0.9033
 4645SOL    HW225569   2.822   3.408  13.161  0.4856 -0.7838 -0.4826
 4646SOL     OW25570   4.338   4.577   2.993  0.0353  0.3815 -0.2351
 4646SOL    HW125571   4.330   4.499   2.938  2.0506 -0.6605  0.9356
 4646SOL    HW225572   4.407   4.628   2.953 -1.3721  0.0291 -3.0918
 4647SOL     OW25573   0.079   2.246   5.159 -0.1498  0.5116  0.3630
 4647SOL    HW125574   0.081   2.179   5.227  3.4776 -0.5797 -0.8388
 4647SOL    HW225575   0.134   2.196   5.099 -2.6710  0.3971 -1.8442
 4648SOL     OW25576   2.363   2.201   3.940  0.1286 -0.0538 -0.4438
 4648SOL    HW125577   2.333   2.215   3.850  1.1783  0.6020 -0.6934
 4648SOL    HW225578   2.453   2.231   3.925  0.2532 -0.3467 -0.2903
 4649SOL     OW25579   3.397   1.437   7.625 -0.3400 -1.1214  0.1281
 4649SOL    HW125580   3.316   1.482   7.604 -0.5247 -1.1785  0.7189
 4649SOL    HW225581   3.405   1.445   7.720 -0.4766 -1.9982  0.2128
 4650SOL     OW25582   0.828   0.079   7.726  0.5891 -0.1400 -0.6140
 4650SOL    HW125583   0.811   0.023   7.650 -1.7930 -0.2277 -0.0206
 4650SOL    HW225584   0.875   0.150   7.682 -1.1464  1.9953  0.9774
 4651SOL     OW25585   3.399   1.658   8.606 -0.8226 -0.5706  0.0663
 4651SOL    HW125586   3.472   1.684   8.550 -1.9018  1.0131 -0.6188
 4651SOL    HW225587   3.407   1.731   8.668  2.4148  0.4703 -1.5657
 4652SOL     OW25588   1.807   3.740   2.373 -0.0872  0.5252 -0.1033
 4652SOL    HW125589   1.857   3.793   2.311  1.9841  0.5217  1.5749
 4652SOL    HW225590   1.727   3.722   2.324 -0.3674  1.4072  0.0267
 4653SOL     OW25591   0.152   1.764  11.493  0.1511  0.0467 -0.1049
 4653SOL    HW125592   0.191   1.720  11.417 -1.0968  0.2796 -0.8938
 4653SOL    HW225593   0.073   1.713  11.512  0.8523 -1.1468 -0.4030
 4654SOL     OW25594   0.797   1.593  11.559  0.0061 -0.3958  0.2062
 4654SOL    HW125595   0.820   1.501  11.577  2.0009 -0.2503 -1.6414
 4654SOL    HW225596   0.752   1.576  11.476  0.7188  0.2002 -0.2950
 4655SOL     OW25597   1.218   3.081   0.679 -0.2272 -0.4184 -0.5643
 4655SOL    HW125598   1.311   3.089   0.657  0.2636  1.9164  2.3199
 4655SOL    HW225599   1.170   3.107   0.601 -0.6213 -1.7442 -0.7630
 4656SOL     OW25600   1.776   4.721   4.552  0.5223 -0.0769 -0.0241
 4656SOL    HW125601   1.822   0.059   4.511 -1.7089 -0.2438 -2.8109
 4656SOL    HW225602   1.825   4.701   4.631  1.1429  1.4110 -0.0230
 4657SOL     OW25603   3.247   1.442   8.611  0.2219 -0.3799  0.4108
 4657SOL    HW125604   3.233   1.432   8.516  1.1291 -2.4822  0.5054
 4657SOL    HW225605   3.311   1.514   8.616 -0.3387 -0.0609  3.0549
 4658SOL     OW25606   0.720   4.728   4.174  0.1232 -0.0651  0.2054
 4658SOL    HW125607   0.758   0.069   4.129  0.6449 -0.4441  0.0152
 4658SOL    HW225608   0.633   0.024   4.202  0.2597  0.1871  0.3550
 4659SOL     OW25609   1.079   3.724  15.796 -0.5833  0.1985  0.2593
 4659SOL    HW125610   1.004   3.692  15.845  0.3504  0.9866  2.2287
 4659SOL    HW225611   1.111   3.637  15.771  1.1853  0.6958  0.8022
 4660SOL     OW25612   1.218   2.621   3.599 -0.0347 -0.6691 -0.4121
 4660SOL    HW125613   1.299   2.608   3.549 -0.4504 -1.9345 -0.7481
 4660SOL    HW225614   1.152   2.618   3.530  0.3697 -2.7944 -0.7215
 4661SOL     OW25615   0.146   4.109   1.666  0.3974  0.1263 -0.1354
 4661SOL    HW125616   0.117   4.151   1.747 -0.3549  0.6596 -0.6902
 4661SOL    HW225617   0.099   4.166   1.606 -2.5700 -0.4059  1.6936
 4662SOL     OW25618   2.703   0.807   2.481  0.8824 -0.6222  0.0537
 4662SOL    HW125619   2.621   0.757   2.476  0.3581 -0.0741  3.2436
 4662SOL    HW225620   2.722   0.824   2.389 -1.2138  0.3201 -0.2239
 4663SOL     OW25621   2.339   0.272   6.636 -0.1616  0.5080  0.3301
 4663SOL    HW125622   2.251   0.274   6.673 -0.6328 -0.7372 -0.7236
 4663SOL    HW225623   2.396   0.257   6.711 -0.1278 -0.9726  0.0036
 4664SOL     OW25624   2.520   1.444   3.840  0.4528  0.0337 -0.1858
 4664SOL    HW125625   2.444   1.502   3.850  1.9159  1.4682  2.5556
 4664SOL    HW225626   2.530   1.456   3.746 -2.6670  0.5574 -0.4712
 4665SOL     OW25627   1.263   1.971  16.147 -0.4908 -0.0232 -0.2219
 4665SOL    HW125628   1.179   1.959  16.190 -1.3957 -0.5934 -2.1274
 4665SOL    HW225629   1.254   2.064  16.125 -0.4806  0.5542  2.3154
 4666SOL     OW25630   0.907   2.533   3.887  0.0110 -0.4132  0.1372
 4666SOL    HW125631   0.898   2.628   3.898  0.2055 -0.2263 -1.3564
 4666SOL    HW225632   0.899   2.514   3.981 -1.3078  1.4377  0.4178
 4667SOL     OW25633   0.112   2.160   4.068 -0.1472  0.2108 -0.7839
 4667SOL    HW125634   0.186   2.216   4.046  0.3407  1.0754  3.0245
 4667SOL    HW225635   0.086   2.148   3.977 -0.3604  3.3672 -1.1527
 4668SOL     OW25636   2.211   1.257   6.064 -0.0883 -0.4572 -0.2404
 4668SOL    HW125637   2.292   1.209   6.048 -0.9058 -1.8396 -0.1740
 4668SOL    HW225638   2.243   1.329   6.120 -0.0893 -1.7827  1.4826
 4669SOL     OW25639   3.782   1.962  14.237 -0.0850 -0.0289  0.2225
 4669SOL    HW125640   3.870   1.928  14.254  0.1344  0.4028 -0.0495
 4669SOL    HW225641   3.726   1.914  14.298 -0.9936 -1.4036 -1.6566
 4670SOL     OW25642   1.600   3.934   0.483  0.0417  0.1531  0.2671
 4670SOL    HW125643   1.693   3.929   0.504  0.3316  1.3463 -0.7916
 4670SOL    HW225644   1.602   3.926   0.388  0.7957  0.2223  0.2795
 4671SOL     OW25645   1.317   1.324   3.101  0.8114  0.7178  0.0469
 4671SOL    HW125646   1.393   1.275   3.132 -1.3661 -1.7577  1.4737
 4671SOL    HW225647   1.247   1.267   3.132  0.8061  1.8095  2.0740
 4672SOL     OW25648   4.600   3.654  16.852 -0.0822 -0.1512 -0.3982
 4672SOL    HW125649   4.582   3.640  16.945  0.5599 -1.0754 -0.4091
 4672SOL    HW225650   4.531   3.714  16.822 -0.1758  0.4873  1.1339
 4673SOL     OW25651   1.038   1.458  10.789  0.3928  0.4086 -0.1556
 4673SOL    HW125652   1.059   1.547  10.761  0.1993  0.2833 -0.6787
 4673SOL    HW225653   1.053   1.408  10.710 -1.6407 -1.7014  0.7928
 4674SOL     OW25654   2.498   2.906   0.113 -0.3141  0.0509 -0.4556
 4674SOL    HW125655   2.410   2.943   0.116 -0.3610 -0.0328 -0.9125
 4674SOL    HW225656   2.525   2.899   0.022 -1.7337  1.9207 -1.0181
 4675SOL     OW25657   1.244   3.971  16.571 -0.5789 -0.0153  0.4711
 4675SOL    HW125658   1.188   4.005  16.641  0.0139 -1.8210  1.8343
 4675SOL    HW225659   1.329   4.006  16.598 -0.9350  0.7231  0.6437
 4676SOL     OW25660   3.578   1.581   5.348 -0.4271 -0.0891  0.5886
 4676SOL    HW125661   3.590   1.672   5.321  0.6725 -0.3996  0.0347
 4676SOL    HW225662   3.662   1.575   5.395 -0.0997  1.6120  0.2373
 4677SOL     OW25663   3.572   1.418   9.043  0.4166  0.2705 -0.1332
 4677SOL    HW125664   3.632   1.492   9.041  0.3678  0.2545 -2.1281
 4677SOL    HW225665   3.508   1.450   8.978 -1.9563 -0.0804  2.0274
 4678SOL     OW25666   4.417   0.211   2.139  0.1922  0.3641  0.2957
 4678SOL    HW125667   4.489   0.187   2.080  0.2298 -0.0231  0.4991
 4678SOL    HW225668   4.377   0.124   2.147  1.7231 -0.2888  0.7110
 4679SOL     OW25669   2.885   2.963   6.059 -0.4988 -0.6973  0.3187
 4679SOL    HW125670   2.927   3.031   6.007  0.4342 -1.5806 -0.0931
 4679SOL    HW225671   2.823   3.019   6.105  1.6964  1.1295  1.0216
 4680SOL     OW25672   3.766   0.390   4.763 -0.2343 -0.2580 -0.0066
 4680SOL    HW125673   3.790   0.481   4.746 -0.4258  0.1712  1.9573
 4680SOL    HW225674   3.722   0.367   4.681 -0.5301  0.6008 -0.0847
 4681SOL     OW25675   1.165   4.429  16.583 -0.4919  0.2587  0.1274
 4681SOL    HW125676   1.260   4.434  16.570 -0.6679  1.4973 -0.6294
 4681SOL    HW225677   1.146   4.366  16.513  1.5630  1.3980 -1.4451
 4682SOL     OW25678   1.070   4.323   4.596  0.4530  0.5491 -0.1257
 4682SOL    HW125679   0.982   4.304   4.563 -0.0538 -0.2667  1.6735
 4682SOL    HW225680   1.085   4.255   4.662  2.3903 -0.5392 -1.7116
 4683SOL     OW25681   0.491   3.589   3.100 -1.0151 -0.0525 -0.0601
 4683SOL    HW125682   0.474   3.597   3.194  0.5733 -0.1331  0.2330
 4683SOL    HW225683   0.532   3.675   3.087  2.0265 -1.4222  0.5217
 4684SOL     OW25684   4.309   2.287   1.994 -0.3918 -0.0788 -0.4015
 4684SOL    HW125685   4.255   2.365   1.977  1.3939  1.6580  1.8794
 4684SOL    HW225686   4.251   2.214   1.974 -0.2810 -0.3138  0.1394
 4685SOL     OW25687   0.771   4.017  10.368  0.0864  0.0510  0.2282
 4685SOL    HW125688   0.853   4.034  10.415  0.2514 -1.6924  0.5694
 4685SOL    HW225689   0.750   4.106  10.340 -0.0884  0.0419  0.3371
 4686SOL     OW25690   3.949   1.053   8.813 -0.1888 -0.6037  0.5618
 4686SOL    HW125691   3.889   1.127   8.803  0.9740  0.0205 -1.8392
 4686SOL    HW225692   3.889   0.978   8.807  0.7905 -1.1906 -2.0280
 4687SOL     OW25693   4.661   2.637   9.192 -0.2939  0.1597  0.1451
 4687SOL    HW125694   4.657   2.677   9.279 -3.0302  0.6678 -0.2065
 4687SOL    HW225695   4.633   2.711   9.138 -1.6765 -0.5325 -0.1000
 4688SOL     OW25696   1.129   1.609   7.325  0.3679 -0.3833  0.1585
 4688SOL    HW125697   1.124   1.698   7.288  2.5906  1.1010  3.5362
 4688SOL    HW225698   1.224   1.607   7.331  0.3298  2.5040  1.7838
 4689SOL     OW25699   4.529   2.571  11.197 -0.1704  0.1177 -0.5870
 4689SOL    HW125700   4.532   2.522  11.115 -0.2385  0.3544 -0.7314
 4689SOL    HW225701   4.589   2.644  11.181  0.1806 -0.3026 -1.2093
 4690SOL     OW25702   0.146   2.904   9.035 -0.0454 -0.3045 -0.0155
 4690SOL    HW125703   0.153   2.821   9.082 -0.7362 -1.2177 -1.4962
 4690SOL    HW225704   0.146   2.876   8.943 -0.9952  1.2372 -0.4905
 4691SOL     OW25705   3.077   1.300   4.970 -0.0089 -0.2866  0.3259
 4691SOL    HW125706   3.069   1.300   5.065 -1.9507  0.4217  0.1701
 4691SOL    HW225707   3.015   1.232   4.943 -0.1944  0.7850 -1.9303
 4692SOL     OW25708   2.371   0.436   8.603 -0.3589  0.5760  0.1640
 4692SOL    HW125709   2.373   0.532   8.601 -3.4310  0.6630  1.0584
 4692SOL    HW225710   2.460   0.421   8.633  0.0144  0.4117 -1.0222
 4693SOL     OW25711   0.767   3.003  16.408 -0.2660 -0.1110  0.0251
 4693SOL    HW125712   0.840   2.974  16.352 -0.4350 -0.0208 -0.2435
 4693SOL    HW225713   0.789   2.955  16.488 -3.0814 -2.2051 -0.4802
 4694SOL     OW25714   3.746   4.286  11.960 -0.4178 -0.9751  0.3060
 4694SOL    HW125715   3.708   4.371  11.938 -0.1150 -1.5836 -2.6430
 4694SOL    HW225716   3.755   4.283  12.055 -0.2418  1.0329  0.3587
 4695SOL     OW25717   0.657   4.657   2.630 -0.6691 -0.4885 -0.3626
 4695SOL    HW125718   0.590   4.715   2.666  1.1143  1.9964 -1.1433
 4695SOL    HW225719   0.606   4.590   2.583  1.1746 -0.5612 -2.2483
 4696SOL     OW25720   0.957   1.077  10.335 -0.0692  0.0989 -0.0847
 4696SOL    HW125721   0.978   1.169  10.345 -0.1554  0.0537  0.5547
 4696SOL    HW225722   0.862   1.085  10.323  0.2222 -1.0718 -3.1067
 4697SOL     OW25723   2.068   4.000   5.933  0.6549 -0.1924  0.0912
 4697SOL    HW125724   2.042   3.919   5.976 -0.8001  0.9809  1.4105
 4697SOL    HW225725   2.162   3.986   5.946  0.7064  1.5013  1.5721
 4698SOL     OW25726   1.226   2.234  16.070 -0.3437  0.1460  0.3006
 4698SOL    HW125727   1.287   2.308  16.066 -0.0683 -0.1602 -1.0372
 4698SOL    HW225728   1.158   2.266  16.011  0.2359  4.2818  1.9015
 4699SOL     OW25729   2.563   3.554  17.269 -0.1003 -0.0979  0.2588
 4699SOL    HW125730   2.474   3.570  17.300  0.4930  2.4069  0.6400
 4699SOL    HW225731   2.614   3.625  17.307 -0.1512  0.1997 -0.2249
 4700SOL     OW25732   4.555   3.841  14.228  0.6090 -0.4464  0.1389
 4700SOL    HW125733   4.642   3.816  14.258  0.3286 -1.3831  0.1548
 4700SOL    HW225734   4.520   3.752  14.229 -1.0549  0.2204  1.3244
 4701SOL     OW25735   3.838   1.600  11.039  0.8149  0.0937  0.2412
 4701SOL    HW125736   3.916   1.632  11.086  1.6745 -0.5672 -0.7270
 4701SOL    HW225737   3.876   1.569  10.956  0.2509  1.4227 -0.5223
 4702SOL     OW25738   0.223   0.686  11.428 -0.5632  0.8878  0.3667
 4702SOL    HW125739   0.186   0.602  11.402 -2.8522  1.6156  1.2488
 4702SOL    HW225740   0.270   0.711  11.349  2.2803 -1.3567  1.3555
 4703SOL     OW25741   1.517   4.258   0.228  0.2778 -0.7119 -0.2421
 4703SOL    HW125742   1.443   4.319   0.235  0.0834 -0.5700 -3.7314
 4703SOL    HW225743   1.519   4.228   0.319 -0.4984 -1.0176 -0.3278
 4704SOL     OW25744   1.303   3.271  17.511  0.1207  0.0606  0.2267
 4704SOL    HW125745   1.330   3.208  17.578  0.4420  1.4212  1.3729
 4704SOL    HW225746   1.348   3.234  17.435  2.0451 -0.8508  1.7928
 4705SOL     OW25747   3.101   3.188   1.239 -0.1588  0.0341 -0.6932
 4705SOL    HW125748   3.112   3.119   1.173 -2.5623  0.3775 -1.4699
 4705SOL    HW225749   3.135   3.138   1.313 -0.9235 -1.2485 -1.1971
 4706SOL     OW25750   0.047   1.865   6.855  0.1701  0.1320  0.1559
 4706SOL    HW125751   0.106   1.790   6.865 -1.6646 -1.2733  0.5367
 4706SOL    HW225752   0.057   1.887   6.763  2.7112 -2.5276 -0.2060
 4707SOL     OW25753   3.907   2.166   0.629  0.1560 -0.0566  0.3479
 4707SOL    HW125754   3.930   2.081   0.590 -1.4087  0.4852 -1.7746
 4707SOL    HW225755   3.821   2.166   0.587  1.4664 -1.5726 -2.3625
 4708SOL     OW25756   0.547   3.599   0.825 -0.2745  0.2669  0.0609
 4708SOL    HW125757   0.535   3.633   0.914  1.2163  0.8513  0.0343
 4708SOL    HW225758   0.557   3.506   0.847  1.0098  0.8229  1.8408
 4709SOL     OW25759   1.630   3.225  15.174 -0.7685 -0.0297 -0.0090
 4709SOL    HW125760   1.689   3.149  15.175  1.7277  1.9236 -0.3425
 4709SOL    HW225761   1.604   3.222  15.082 -1.7292 -0.5263  0.2810
 4710SOL     OW25762   2.425   0.799   6.746  0.3651 -0.2019  0.3559
 4710SOL    HW125763   2.380   0.745   6.810 -1.7969  0.6053 -0.5016
 4710SOL    HW225764   2.465   0.877   6.787 -1.7935  1.2731 -0.3414
 4711SOL     OW25765   2.723   4.653   1.153 -0.0600  0.0379  0.7880
 4711SOL    HW125766   2.700   4.614   1.237 -0.2299  0.7928  1.0837
 4711SOL    HW225767   2.813   4.620   1.145 -0.8017 -1.4535 -1.7085
 4712SOL     OW25768   0.326   3.099   6.895 -0.9597  0.4091  0.8315
 4712SOL    HW125769   0.256   3.163   6.900  0.9788  2.7021 -1.1996
 4712SOL    HW225770   0.330   3.071   6.803 -1.7035  0.9468  0.6362
 4713SOL     OW25771   1.161   1.517   4.121 -0.4001  0.1968 -0.5069
 4713SOL    HW125772   1.177   1.612   4.125 -2.3460  0.4857  0.3243
 4713SOL    HW225773   1.071   1.527   4.151 -0.0097  2.8945 -0.2081
 4714SOL     OW25774   1.635   0.784  16.353 -0.0568 -0.0139 -0.1490
 4714SOL    HW125775   1.638   0.855  16.290 -2.9994 -1.4623 -1.8889
 4714SOL    HW225776   1.674   0.718  16.296  1.2968 -0.6528  1.4895
 4715SOL     OW25777   1.450   2.475   5.540 -0.2401  0.9137 -0.0376
 4715SOL    HW125778   1.497   2.558   5.534  0.0072  0.4515 -4.1712
 4715SOL    HW225779   1.391   2.483   5.465 -0.0492 -0.5766 -0.3345
 4716SOL     OW25780   2.585   3.908   2.662  0.2336  0.3801 -0.1291
 4716SOL    HW125781   2.632   3.906   2.745 -0.0417 -3.8952 -0.0526
 4716SOL    HW225782   2.493   3.902   2.686  0.1385  0.8348 -0.3790
 4717SOL     OW25783   0.408   1.737   0.202  0.3970  0.1891  0.2700
 4717SOL    HW125784   0.373   1.652   0.231  0.7916 -0.0480  0.0558
 4717SOL    HW225785   0.343   1.802   0.228 -0.2302  0.1579 -1.1822
 4718SOL     OW25786   1.104   3.052   3.290 -0.0256 -0.4004  0.8131
 4718SOL    HW125787   1.049   3.108   3.345 -0.3719  0.2583 -0.2109
 4718SOL    HW225788   1.187   3.067   3.334  0.9442 -1.4838 -0.6782
 4719SOL     OW25789   3.242   4.178  15.568 -0.0876 -0.0343 -0.1414
 4719SOL    HW125790   3.237   4.249  15.504 -0.9446 -0.3343 -0.4136
 4719SOL    HW225791   3.195   4.108  15.523  1.7087 -1.0084 -0.5317
 4720SOL     OW25792   1.924   2.267  13.336 -0.1783 -0.4534 -0.0755
 4720SOL    HW125793   1.986   2.249  13.266 -0.4149  1.8003 -0.8782
 4720SOL    HW225794   1.886   2.181  13.347 -3.2889  0.4814 -3.3688
 4721SOL     OW25795   2.014   1.413   2.530 -0.1370 -0.6244 -0.2227
 4721SOL    HW125796   1.978   1.413   2.441  1.5641  2.3873 -0.8998
 4721SOL    HW225797   2.010   1.505   2.555  0.4565 -0.3656 -1.1027
 4722SOL     OW25798   3.492   1.151   8.922  0.0977 -0.1284  0.2732
 4722SOL    HW125799   3.496   1.246   8.938 -0.8363  0.3866 -2.5013
 4722SOL    HW225800   3.415   1.149   8.864  0.2806  2.6594 -0.0802
 4723SOL     OW25801   2.775   0.173   8.654 -0.3688  0.0304 -0.1820
 4723SOL    HW125802   2.748   0.082   8.654 -0.2933  0.0092 -1.9837
 4723SOL    HW225803   2.823   0.191   8.573  1.3813 -1.1769  0.5706
 4724SOL     OW25804   1.247   0.288   1.984  0.1473 -0.4188 -0.5394
 4724SOL    HW125805   1.336   0.268   2.012  0.4121 -2.3394 -2.8192
 4724SOL    HW225806   1.195   0.239   2.048  0.7129  0.3559  0.5200
 4725SOL     OW25807   1.075   3.003   9.240  0.0874  0.4377 -0.0844
 4725SOL    HW125808   1.111   2.926   9.195 -0.8225 -0.5609  0.8980
 4725SOL    HW225809   1.126   3.067   9.192 -1.1026  0.3154 -1.5075
 4726SOL     OW25810   3.516   2.619   5.475  0.0938 -0.2396  0.0743
 4726SOL    HW125811   3.483   2.709   5.477 -2.5278 -1.1687 -0.9387
 4726SOL    HW225812   3.453   2.572   5.531  0.0947 -1.5295 -0.9985
 4727SOL     OW25813   0.691   3.235   5.671  0.4592 -0.0121  0.2066
 4727SOL    HW125814   0.727   3.216   5.757  0.7878  0.4646  0.1726
 4727SOL    HW225815   0.726   3.160   5.624  0.5078  0.7704 -1.0072
 4728SOL     OW25816   1.083   1.329   7.410 -0.0663  0.0583  0.0531
 4728SOL    HW125817   1.063   1.335   7.317 -0.6528 -1.1828  0.1023
 4728SOL    HW225818   1.060   1.412   7.452 -0.5539  0.2548 -0.6064
 4729SOL     OW25819   2.629   4.506   1.355 -0.2482 -0.0434  0.1673
 4729SOL    HW125820   2.706   4.500   1.410 -1.1758  1.9929  1.6853
 4729SOL    HW225821   2.557   4.517   1.417  0.1708 -1.6045  0.9192
 4730SOL     OW25822   3.283   3.587   1.579 -0.1663  0.1158 -0.3171
 4730SOL    HW125823   3.229   3.523   1.625 -2.4840  1.1951 -1.5268
 4730SOL    HW225824   3.261   3.573   1.487 -1.3121  3.0760 -0.4689
 4731SOL     OW25825   3.659   2.978   7.642 -0.0475 -0.3059 -0.1340
 4731SOL    HW125826   3.731   3.025   7.684 -0.0489  0.7619 -1.3253
 4731SOL    HW225827   3.656   2.894   7.688  1.6539 -0.4341 -0.2494
 4732SOL     OW25828   3.930   4.459   5.410  0.2872  0.4927 -0.7007
 4732SOL    HW125829   3.927   4.551   5.384  0.2979  0.6412 -0.1783
 4732SOL    HW225830   3.946   4.453   5.505  1.5725  0.4126 -0.9176
 4733SOL     OW25831   0.508   4.121  11.162 -0.1090  0.4045 -0.1122
 4733SOL    HW125832   0.468   4.153  11.081 -2.1201 -0.1615  0.6654
 4733SOL    HW225833   0.428   4.079  11.194 -1.6237  1.8320 -2.0668
 4734SOL     OW25834   1.596   4.109  14.696 -0.0444 -0.2769  0.1788
 4734SOL    HW125835   1.618   4.018  14.716  1.0853 -0.4911 -2.0874
 4734SOL    HW225836   1.663   4.129  14.631  1.2086  1.6064  2.0292
 4735SOL     OW25837   3.546   4.685   7.319  0.2841  0.0685 -0.6952
 4735SOL    HW125838   3.579   4.669   7.231  1.8611  1.1544 -0.2995
 4735SOL    HW225839   3.592   4.616   7.367  0.2079  0.2674 -0.3374
 4736SOL     OW25840   3.566   4.225  15.041 -0.0104  0.1771  0.1565
 4736SOL    HW125841   3.639   4.251  14.985 -0.4249  0.3937 -0.2871
 4736SOL    HW225842   3.532   4.309  15.073  0.7504  0.6778 -0.3546
 4737SOL     OW25843   3.949   2.673   8.032  0.4798 -0.0736 -0.5058
 4737SOL    HW125844   4.014   2.621   7.984 -0.9504 -2.2724 -0.0786
 4737SOL    HW225845   3.868   2.622   8.031 -0.7466  1.8932 -1.3107
 4738SOL     OW25846   4.170   3.242  12.124  0.9497  0.3720 -0.3998
 4738SOL    HW125847   4.217   3.165  12.093  0.9459  1.2757 -2.5967
 4738SOL    HW225848   4.127   3.280  12.048  0.1465  0.0048 -0.1355
 4739SOL     OW25849   0.841   3.443   1.581  0.5200  0.2109  0.0230
 4739SOL    HW125850   0.787   3.521   1.594  0.1677 -0.1439  0.6966
 4739SOL    HW225851   0.780   3.396   1.525  1.1697 -1.4033  0.6526
 4740SOL     OW25852   4.042   4.269   6.262  0.0232  0.0760  0.1186
 4740SOL    HW125853   4.116   4.214   6.236 -0.7879 -1.5494  1.2905
 4740SOL    HW225854   4.007   4.277   6.174 -1.4910  0.7697  0.7819
 4741SOL     OW25855   2.961   4.074   7.995 -0.8319 -0.1350 -0.1373
 4741SOL    HW125856   3.044   4.118   7.978 -0.2903 -0.9336  0.4619
 4741SOL    HW225857   2.895   4.113   7.938  0.6386  1.0387 -1.0594
 4742SOL     OW25858   4.383   1.581   9.835 -0.0834 -0.2679  0.1001
 4742SOL    HW125859   4.396   1.670   9.868 -1.1077  0.2064 -0.7808
 4742SOL    HW225860   4.300   1.557   9.875  0.5828 -0.3781  1.4103
 4743SOL     OW25861   0.923   2.464   7.045  0.2700 -0.0341 -0.2195
 4743SOL    HW125862   0.878   2.402   7.102 -0.2241 -1.6993 -2.4207
 4743SOL    HW225863   1.002   2.422   7.009  1.8789  0.8574  2.2511
 4744SOL     OW25864   1.513   3.865  11.645 -0.1422  0.6223  0.0964
 4744SOL    HW125865   1.561   3.943  11.671  0.2614  0.0476  1.0985
 4744SOL    HW225866   1.494   3.900  11.559 -0.8982 -0.1138 -0.0353
 4745SOL     OW25867   2.611   2.261   5.389 -0.1521  0.4374 -0.5041
 4745SOL    HW125868   2.517   2.274   5.401 -0.3327 -1.5474  0.2915
 4745SOL    HW225869   2.609   2.259   5.293 -2.0869 -1.5531 -0.4416
 4746SOL     OW25870   4.514   4.484   2.167  0.2785  0.5665  0.2010
 4746SOL    HW125871   4.567   4.559   2.195 -1.9945  1.4338  2.2489
 4746SOL    HW225872   4.428   4.526   2.175 -0.7876 -1.6744  0.4833
 4747SOL     OW25873   0.671   3.528   7.445 -0.0928  0.6309 -0.0633
 4747SOL    HW125874   0.599   3.471   7.418 -0.1221  1.3516 -1.5150
 4747SOL    HW225875   0.746   3.495   7.394 -0.9370  3.1766 -2.9437
 4748SOL     OW25876   1.508   3.395   8.521 -0.0003  0.4214  0.4815
 4748SOL    HW125877   1.505   3.481   8.562  0.7798  0.7465 -0.1266
 4748SOL    HW225878   1.426   3.394   8.471 -0.5956  0.1629  1.4661
 4749SOL     OW25879   3.687   4.622   2.852  0.4042 -1.4739 -0.1974
 4749SOL    HW125880   3.761   4.614   2.911 -0.9102  0.0667  1.6428
 4749SOL    HW225881   3.676   4.717   2.856  0.6866 -1.4415 -0.2076
 4750SOL     OW25882   2.326   2.854   8.363  0.5001 -0.2733 -0.4415
 4750SOL    HW125883   2.262   2.897   8.419  0.5126 -0.2801 -0.4219
 4750SOL    HW225884   2.272   2.784   8.327 -1.0714 -0.1752  1.7270
 4751SOL     OW25885   3.661   3.649   6.853 -0.4043  0.2440 -0.0060
 4751SOL    HW125886   3.661   3.605   6.938 -0.0216 -0.5465 -0.4148
 4751SOL    HW225887   3.753   3.674   6.843 -0.7947  1.1422 -1.3627
 4752SOL     OW25888   4.144   3.111   4.213  0.0462  0.5274  0.0621
 4752SOL    HW125889   4.059   3.113   4.167 -0.6452 -0.6344  1.3109
 4752SOL    HW225890   4.132   3.057   4.291 -1.3051  1.4113  0.4867
 4753SOL     OW25891   0.153   3.688   9.747  0.3084 -0.3226 -0.5111
 4753SOL    HW125892   0.072   3.702   9.797 -0.7916 -1.0250 -2.1058
 4753SOL    HW225893   0.122   3.634   9.674  0.3725  0.9594 -1.4781
 4754SOL     OW25894   3.247   0.081   7.456 -0.3467  0.0233  0.3493
 4754SOL    HW125895   3.163   0.126   7.464 -0.5448 -0.8217  2.8364
 4754SOL    HW225896   3.285   0.121   7.377 -0.3148  0.6343  0.6737
 4755SOL     OW25897   2.243   2.277   3.684  0.2244  0.1299 -0.5168
 4755SOL    HW125898   2.202   2.198   3.648  0.0542  0.1460 -0.3564
 4755SOL    HW225899   2.243   2.346   3.618  1.1431 -0.3547 -1.0294
 4756SOL     OW25900   2.848   0.933   6.475 -0.1663  0.5466 -0.1900
 4756SOL    HW125901   2.766   0.983   6.484  1.2293  2.7771  0.1142
 4756SOL    HW225902   2.874   0.952   6.565  0.1856  0.6602 -0.3189
 4757SOL     OW25903   0.920   3.007   8.654 -0.6475 -0.6129  0.4390
 4757SOL    HW125904   0.833   2.968   8.666 -0.5533 -1.1564 -0.6883
 4757SOL    HW225905   0.976   2.938   8.689 -1.5160 -0.8013  1.4699
 4758SOL     OW25906   3.303   1.135   7.236  0.5453  0.2917 -0.0805
 4758SOL    HW125907   3.217   1.096   7.219  0.1799  0.5977  1.0592
 4758SOL    HW225908   3.355   1.101   7.163  1.3074 -0.0770  0.6381
 4759SOL     OW25909   4.255   4.495   4.901  0.0918  0.1801  0.5405
 4759SOL    HW125910   4.248   4.406   4.938  1.7910 -0.6755 -1.1852
 4759SOL    HW225911   4.202   4.538   4.967  0.1204 -1.1901  1.4651
 4760SOL     OW25912   1.078   1.233   7.769 -0.4312 -0.3183  0.0272
 4760SOL    HW125913   1.049   1.246   7.860 -0.8843  1.8502 -0.4239
 4760SOL    HW225914   1.144   1.302   7.769 -0.8802  0.1105 -0.3645
 4761SOL     OW25915   0.458   2.585   6.888 -0.0658  0.3198  0.3588
 4761SOL    HW125916   0.466   2.677   6.910  2.8668  0.1093  0.1328
 4761SOL    HW225917   0.484   2.586   6.796  0.3730  0.7958  0.4898
 4762SOL     OW25918   1.530   0.429   6.897 -0.0483  0.2232 -0.2272
 4762SOL    HW125919   1.586   0.352   6.908  0.5936  0.8109  0.6253
 4762SOL    HW225920   1.455   0.400   6.844 -0.0667 -1.7542  0.8719
 4763SOL     OW25921   2.589   0.346   8.718 -0.3645 -0.2541 -0.0543
 4763SOL    HW125922   2.658   0.300   8.669  0.5417 -1.6651  2.5710
 4763SOL    HW225923   2.623   0.324   8.804 -0.9238  1.2917  0.5507
 4764SOL     OW25924   0.563   3.678   4.491 -0.1864  0.2589  0.0515
 4764SOL    HW125925   0.501   3.694   4.421  1.4505  2.5481 -0.8877
 4764SOL    HW225926   0.581   3.585   4.474  0.6111  0.2329  1.0254
 4765SOL     OW25927   3.387   3.812   2.837 -0.4110 -0.5136  0.2313
 4765SOL    HW125928   3.379   3.893   2.786 -0.1552 -0.6831 -0.0765
 4765SOL    HW225929   3.469   3.783   2.798  0.7304  0.7455  1.6866
 4766SOL     OW25930   2.535   1.863   4.030  0.2929 -0.4541  0.2669
 4766SOL    HW125931   2.556   1.861   3.936 -1.9403 -1.8047 -0.2093
 4766SOL    HW225932   2.617   1.903   4.059 -0.8590  0.6446  2.0233
 4767SOL     OW25933   0.216   4.604   1.993  0.1106 -0.2145  0.0993
 4767SOL    HW125934   0.291   4.637   1.944 -0.1626 -0.8937 -0.7881
 4767SOL    HW225935   0.161   4.571   1.921 -0.1685  1.0586 -0.2631
 4768SOL     OW25936   4.719   2.190   8.763  0.2011  0.2242  0.4531
 4768SOL    HW125937   4.630   2.183   8.796  1.3469 -1.8042  3.0899
 4768SOL    HW225938   0.028   2.251   8.822  0.9297  2.1310 -2.0935
 4769SOL     OW25939   2.927   3.750   0.495  0.2042 -0.0506  0.0588
 4769SOL    HW125940   2.862   3.785   0.556 -0.6970 -1.8861  0.1390
 4769SOL    HW225941   2.927   3.661   0.529  0.6521  0.3564  1.1081
 4770SOL     OW25942   0.608   4.076   0.865 -0.2229 -0.3743 -0.2486
 4770SOL    HW125943   0.684   4.018   0.872  1.3041  1.5751 -0.7899
 4770SOL    HW225944   0.591   4.091   0.958  0.4794 -4.1135  0.4872
 4771SOL     OW25945   3.437   1.533   3.885  0.8081  0.0334  0.4039
 4771SOL    HW125946   3.524   1.556   3.917  0.0634  0.9332  1.7993
 4771SOL    HW225947   3.386   1.601   3.929 -0.7506 -0.7252 -0.2262
 4772SOL     OW25948   4.494   0.894  16.870  0.2103  0.2332  0.0227
 4772SOL    HW125949   4.476   0.950  16.794  0.9825  0.8342  0.2808
 4772SOL    HW225950   4.408   0.875  16.907 -0.7081  0.8769 -1.8017
 4773SOL     OW25951   4.037   2.354   6.380 -0.0788 -0.1033  0.3962
 4773SOL    HW125952   3.942   2.359   6.383 -0.0809 -0.4860  1.0983
 4773SOL    HW225953   4.046   2.263   6.351 -2.2506 -0.4180  0.7201
 4774SOL     OW25954   1.164   2.086  12.517  0.0303 -0.5168  0.1873
 4774SOL    HW125955   1.225   2.035  12.570 -1.1773  0.9594  3.0124
 4774SOL    HW225956   1.158   2.032  12.438  0.4316 -2.3026  1.4045
 4775SOL     OW25957   0.592   3.163   4.203  0.0915  0.1118 -0.0661
 4775SOL    HW125958   0.645   3.106   4.147 -1.6995 -0.4316 -1.1974
 4775SOL    HW225959   0.654   3.236   4.198  0.9967 -0.7298 -1.3334
 4776SOL     OW25960   0.444   4.176   0.222  0.3656  0.2583 -0.2452
 4776SOL    HW125961   0.368   4.117   0.219  0.6544 -0.0882 -0.6989
 4776SOL    HW225962   0.486   4.148   0.141 -0.0973  0.5442 -0.5817
 4777SOL     OW25963   1.085   4.022   3.025  0.1378 -0.2465  0.2140
 4777SOL    HW125964   1.165   4.044   2.978 -0.1031  0.1121 -0.0295
 4777SOL    HW225965   1.034   4.098   2.998 -1.5043 -1.3805  0.0983
 4778SOL     OW25966   3.238   3.274   8.848 -0.2057 -0.3051  0.5326
 4778SOL    HW125967   3.231   3.359   8.804  0.9456 -0.1153  0.7173
 4778SOL    HW225968   3.149   3.279   8.880 -0.4450 -0.3867 -0.1100
 4779SOL     OW25969   0.579   1.656   7.690  0.2833  0.1922  0.2219
 4779SOL    HW125970   0.557   1.639   7.599 -0.1195  1.2324  0.1237
 4779SOL    HW225971   0.522   1.588   7.724  0.2209  0.3896  0.5141
 4780SOL     OW25972   3.825   0.990   8.168 -0.2163 -0.0434 -0.3247
 4780SOL    HW125973   3.786   0.919   8.116  1.7905 -0.7254 -0.8885
 4780SOL    HW225974   3.905   0.949   8.201 -1.9437 -1.7577  1.7725
 4781SOL     OW25975   3.637   0.116  10.617 -0.1577  0.0042 -0.0387
 4781SOL    HW125976   3.579   0.162  10.555 -0.1463 -0.7388 -0.6036
 4781SOL    HW225977   3.719   0.159  10.594  0.1524 -0.9369 -0.7089
 4782SOL     OW25978   1.822   3.343   6.825 -0.3446 -0.6341 -0.3216
 4782SOL    HW125979   1.838   3.249   6.820  1.6499 -0.3054 -0.2107
 4782SOL    HW225980   1.881   3.371   6.755 -1.1413  0.2274 -0.6487
 4783SOL     OW25981   0.189   1.328   8.008  0.1347 -0.1615 -0.2780
 4783SOL    HW125982   0.127   1.265   8.045  0.2952 -0.1167  0.0705
 4783SOL    HW225983   0.223   1.375   8.084 -0.6257  0.3746 -0.2681
 4784SOL     OW25984   0.813   2.828  14.837 -0.4768 -0.6870  0.3323
 4784SOL    HW125985   0.882   2.895  14.838 -0.9450 -0.2138  0.8441
 4784SOL    HW225986   0.866   2.753  14.864  0.7040  0.2379  0.5972
 4785SOL     OW25987   2.415   3.454   5.529 -0.3037 -0.2096 -0.5835
 4785SOL    HW125988   2.454   3.519   5.587 -0.6916 -1.4304  1.0408
 4785SOL    HW225989   2.402   3.519   5.460  0.8154 -1.2473 -1.7633
 4786SOL     OW25990   1.119   0.984  11.536 -0.5225  0.2527  0.4172
 4786SOL    HW125991   1.056   1.020  11.473  1.1636 -0.1762 -1.5481
 4786SOL    HW225992   1.056   0.940  11.592 -0.8292  1.7596  1.2607
 4787SOL     OW25993   2.955   3.859   8.632  0.2431  0.2644 -0.5078
 4787SOL    HW125994   2.879   3.823   8.586 -0.8054  0.8679  0.7806
 4787SOL    HW225995   2.918   3.945   8.651  0.2119 -0.2199  1.5574
 4788SOL     OW25996   3.180   3.642   9.544  0.2321 -1.0331  0.0158
 4788SOL    HW125997   3.206   3.640   9.452 -0.6315  0.2402 -0.2543
 4788SOL    HW225998   3.247   3.705   9.571 -0.9252  0.4728 -0.6721
 4789SOL     OW25999   2.566   0.678   7.936 -1.0306  0.2523 -0.5573
 4789SOL    HW126000   2.596   0.764   7.964 -0.6733  0.4675 -1.5899
 4789SOL    HW226001   2.586   0.631   8.017  0.1979  0.0843 -0.9598
 4790SOL     OW26002   3.426   1.007   2.696  0.2781  0.0349  0.5088
 4790SOL    HW126003   3.339   1.036   2.725 -0.0694 -3.9260  3.5479
 4790SOL    HW226004   3.409   0.928   2.644 -0.5336 -0.5855  1.7134
 4791SOL     OW26005   3.651   2.531  16.443 -0.4550  0.0162  0.0716
 4791SOL    HW126006   3.720   2.557  16.382  0.9818  1.1336  2.1737
 4791SOL    HW226007   3.704   2.546  16.521  2.8007  0.6567 -2.2820
 4792SOL     OW26008   2.812   2.555  15.033 -0.2166  0.2808  0.6834
 4792SOL    HW126009   2.877   2.624  15.046 -0.7212  0.6809  1.0649
 4792SOL    HW226010   2.861   2.516  14.960 -1.2438  0.3552 -0.0364
 4793SOL     OW26011   3.356   3.329   3.826 -0.4200 -0.0237 -0.5105
 4793SOL    HW126012   3.266   3.363   3.833 -1.5324 -2.9914 -0.3246
 4793SOL    HW226013   3.351   3.235   3.843 -1.9473  0.4059  1.4901
 4794SOL     OW26014   1.247   1.358   3.656 -0.6275 -0.5638  0.0148
 4794SOL    HW126015   1.255   1.334   3.564 -1.9622 -1.7618  0.2049
 4794SOL    HW226016   1.326   1.410   3.670 -0.9342  0.5874 -2.4587
 4795SOL     OW26017   1.468   2.909  14.533  0.1825  0.2248  0.1706
 4795SOL    HW126018   1.408   2.954  14.473 -0.4435  0.7819  1.2186
 4795SOL    HW226019   1.470   2.818  14.506  0.4935  0.2904 -0.0334
 4796SOL     OW26020   3.467   2.694   0.893 -0.8405 -0.0538  0.4144
 4796SOL    HW126021   3.514   2.624   0.938 -0.1929 -0.6763 -1.2227
 4796SOL    HW226022   3.382   2.650   0.880 -0.4803 -0.7143  0.2697
 4797SOL     OW26023   2.807   1.819  13.115 -0.2603 -0.0749  0.2615
 4797SOL    HW126024   2.756   1.879  13.169 -1.4092 -0.8221  0.0332
 4797SOL    HW226025   2.756   1.741  13.142  2.5074 -0.0341  5.6210
 4798SOL     OW26026   0.374   1.326   0.680 -0.8703 -0.1818 -0.3290
 4798SOL    HW126027   0.355   1.420   0.678 -2.5708 -0.5006  0.8109
 4798SOL    HW226028   0.466   1.319   0.654 -0.3564  1.5583  0.9371
 4799SOL     OW26029   0.537   0.091   9.205 -0.5553  0.1190  0.6261
 4799SOL    HW126030   0.460   0.138   9.173 -3.3041 -2.4729  3.3912
 4799SOL    HW226031   0.595   0.160   9.174  1.7626 -1.6663  1.0268
 4800SOL     OW26032   2.061   3.886   3.758  0.6701 -0.2455  0.3786
 4800SOL    HW126033   2.137   3.864   3.704  1.2560 -0.1102  1.1504
 4800SOL    HW226034   2.078   3.827   3.832  0.5598 -0.2353  0.4129
 4801SOL     OW26035   0.994   1.060  10.631  0.6523  0.5284  0.1112
 4801SOL    HW126036   0.924   0.995  10.625  1.6463 -0.6772  1.4881
 4801SOL    HW226037   0.998   1.091  10.540 -0.9068  0.5700  0.0648
 4802SOL     OW26038   3.620   1.424   9.774  0.3967 -0.1960 -0.0544
 4802SOL    HW126039   3.688   1.484   9.803  0.1480 -0.7136  1.5631
 4802SOL    HW226040   3.560   1.486   9.732  1.8133  0.8486 -0.5043
 4803SOL     OW26041   3.801   2.680   5.485  0.1309 -0.4186 -0.3187
 4803SOL    HW126042   3.782   2.694   5.393 -0.8243  2.0928  0.2607
 4803SOL    HW226043   3.712   2.658   5.511  0.1801  0.2161  0.3854
 4804SOL     OW26044   3.352   4.273   2.427 -0.6940  0.6839  0.7383
 4804SOL    HW126045   3.397   4.354   2.402  1.2348 -0.5398  0.1826
 4804SOL    HW226046   3.425   4.212   2.415 -2.3751 -0.9210 -1.4479
 4805SOL     OW26047   1.914   0.947   5.698 -1.1319  0.4079 -0.3274
 4805SOL    HW126048   1.899   0.916   5.787  0.1415  1.9402  0.4252
 4805SOL    HW226049   1.974   1.017   5.727 -1.0109 -0.3371  1.1940
 4806SOL     OW26050   4.120   1.802   4.197 -0.4907  0.0219  0.5056
 4806SOL    HW126051   4.075   1.831   4.118  0.8844  0.0098 -0.2904
 4806SOL    HW226052   4.054   1.747   4.239 -0.0462 -0.7979  0.1459
 4807SOL     OW26053   1.183   0.448   3.466  0.0972  0.2558  0.1522
 4807SOL    HW126054   1.115   0.401   3.514  0.8536 -0.8872  0.1033
 4807SOL    HW226055   1.154   0.430   3.376 -2.7240 -0.6140  1.2137
 4808SOL     OW26056   4.361   3.797   6.842  0.0852  0.2412 -0.2110
 4808SOL    HW126057   4.323   3.780   6.928  1.2105 -2.9211 -0.3284
 4808SOL    HW226058   4.408   3.876   6.870 -1.4880  0.9221  0.5408
 4809SOL     OW26059   2.737   1.448  12.364 -0.7759 -0.0217 -0.3121
 4809SOL    HW126060   2.644   1.428  12.373 -0.4787 -2.1453 -1.9737
 4809SOL    HW226061   2.778   1.367  12.334 -0.5287 -0.2924  0.7632
 4810SOL     OW26062   2.211   1.204   3.444  0.0062  0.0774 -0.4213
 4810SOL    HW126063   2.293   1.173   3.406  0.3923  1.3227 -0.5961
 4810SOL    HW226064   2.154   1.205   3.367 -0.4539 -0.3517 -0.0871
 4811SOL     OW26065   4.673   2.672   6.896 -0.3082  0.5293 -0.1208
 4811SOL    HW126066   4.679   2.746   6.837 -1.5047  1.5658  1.0650
 4811SOL    HW226067   4.637   2.604   6.840  0.1293 -1.0018  1.4415
 4812SOL     OW26068   0.463   1.231   4.096  0.4036 -0.2740 -0.6994
 4812SOL    HW126069   0.554   1.238   4.123  0.0778 -1.6054  0.7860
 4812SOL    HW226070   0.427   1.307   4.141 -2.6038 -0.4878 -2.7716
 4813SOL     OW26071   1.674   0.092  16.410  0.2915 -0.3227  0.0220
 4813SOL    HW126072   1.685   0.132  16.323 -2.6507  1.8686  0.6662
 4813SOL    HW226073   1.745   0.143  16.450 -0.1748  0.7738 -0.5433
 4814SOL     OW26074   2.658   1.536   5.758  0.0506  0.8451  0.0371
 4814SOL    HW126075   2.747   1.532   5.723 -0.6345  1.7482 -1.8150
 4814SOL    HW226076   2.619   1.468   5.702  0.0986 -1.1385  2.4029
 4815SOL     OW26077   0.718   4.628   5.241 -0.2310 -0.3987  0.5236
 4815SOL    HW126078   0.695   4.652   5.331  0.0050 -0.0660  0.4951
 4815SOL    HW226079   0.718   4.710   5.192 -0.3177 -1.6040 -1.4950
 4816SOL     OW26080   3.650   3.746   4.287  0.0320 -0.5829 -0.1170
 4816SOL    HW126081   3.707   3.669   4.296 -1.4445 -2.1926 -4.3097
 4816SOL    HW226082   3.641   3.757   4.193 -0.3095  1.3575  0.1407
 4817SOL     OW26083   4.261   0.330   4.267  0.4530  0.5001 -0.0422
 4817SOL    HW126084   4.272   0.270   4.341  0.5332 -1.7197 -1.8510
 4817SOL    HW226085   4.336   0.303   4.215 -2.0309 -0.6933 -3.0141
 4818SOL     OW26086   0.602   4.660  12.801 -0.2694  0.1409  0.9736
 4818SOL    HW126087   0.647   4.594  12.748  0.5012  0.4362  1.2647
 4818SOL    HW226088   0.669   4.724  12.822  1.9760 -1.3429 -1.7238
 4819SOL     OW26089   1.729   3.151   1.603  0.0884  0.5011  0.0907
 4819SOL    HW126090   1.794   3.216   1.577 -0.8944  2.4276  2.4385
 4819SOL    HW226091   1.716   3.103   1.521  0.5289 -0.7453  0.7505
 4820SOL     OW26092   2.349   3.655   4.247  0.0170  0.0679  0.4277
 4820SOL    HW126093   2.293   3.604   4.305  0.6711 -1.7184 -0.5149
 4820SOL    HW226094   2.426   3.600   4.232  1.5324  2.9566 -2.4159
 4821SOL     OW26095   1.741   1.562   5.143  0.3704  0.1259 -0.3594
 4821SOL    HW126096   1.724   1.643   5.095  1.2340  0.8839  0.6035
 4821SOL    HW226097   1.647   1.546   5.156  0.0038 -0.8361 -4.1756
 4822SOL     OW26098   0.630   0.540   7.289 -0.0501  0.2708 -0.0940
 4822SOL    HW126099   0.581   0.471   7.244  0.4865 -0.0016 -0.2644
 4822SOL    HW226100   0.602   0.615   7.236 -0.3950  1.4456  1.7388
 4823SOL     OW26101   3.173   1.988  11.275 -0.0019 -0.0251  0.1642
 4823SOL    HW126102   3.183   1.895  11.294  1.8088 -0.1234 -1.2028
 4823SOL    HW226103   3.078   1.987  11.270  0.0361  1.5122 -0.9714
 4824SOL     OW26104   0.598   4.229   6.178  0.2265  0.2449 -0.2415
 4824SOL    HW126105   0.503   4.234   6.164  0.7311  4.6739 -2.1168
 4824SOL    HW226106   0.633   4.317   6.193  2.0272 -0.2527 -1.6211
 4825SOL     OW26107   4.575   4.180   7.323  0.3999  0.5543  0.0905
 4825SOL    HW126108   4.567   4.190   7.228  0.4556  0.4765  0.0772
 4825SOL    HW226109   4.654   4.129   7.339  0.4129  0.3102 -0.7609
 4826SOL     OW26110   3.018   2.908   2.833  0.8940  0.2047 -0.9363
 4826SOL    HW126111   3.076   2.891   2.908  0.0925  1.5930 -0.0000
 4826SOL    HW226112   2.934   2.918   2.878  1.9795  0.4941  1.0603
 4827SOL     OW26113   2.758   1.370   1.057 -0.4044  0.4665  0.4642
 4827SOL    HW126114   2.706   1.451   1.064 -0.9747  0.2034 -0.7962
 4827SOL    HW226115   2.839   1.410   1.024 -1.3830  1.9434 -0.1397
 4828SOL     OW26116   3.248   4.433   4.693  0.2201  0.0428  0.1793
 4828SOL    HW126117   3.263   4.358   4.750 -1.4260 -1.4707 -1.4078
 4828SOL    HW226118   3.171   4.474   4.733  1.3452  2.9257 -0.5747
 4829SOL     OW26119   0.804   0.466  12.296 -0.4171  0.2019  0.3770
 4829SOL    HW126120   0.722   0.491  12.253 -0.3769 -2.4411 -1.2856
 4829SOL    HW226121   0.784   0.413  12.373  0.3503  0.9893  1.1039
 4830SOL     OW26122   3.570   1.802   8.138  0.1894  0.1548 -0.2124
 4830SOL    HW126123   3.535   1.890   8.124 -0.2364 -0.2286 -1.6153
 4830SOL    HW226124   3.662   1.817   8.115  0.4132 -1.1684 -0.1954
 4831SOL     OW26125   3.043   1.461   0.323 -0.1183 -0.4401 -0.1272
 4831SOL    HW126126   3.008   1.518   0.256  1.7755  0.3320 -0.4620
 4831SOL    HW226127   3.114   1.420   0.273  1.3814 -0.1725  1.7922
 4832SOL     OW26128   0.557   4.697   3.715  0.4593 -0.0398  0.6025
 4832SOL    HW126129   0.634   4.656   3.753  0.3371 -0.6275  0.2299
 4832SOL    HW226130   0.518   0.001   3.793  0.7333 -1.3259  1.3872
 4833SOL     OW26131   2.853   4.026  11.883 -0.3847  0.5667 -0.4095
 4833SOL    HW126132   2.880   3.952  11.938 -1.4656 -0.2472 -0.9941
 4833SOL    HW226133   2.937   4.071  11.874  1.3292 -1.8883  2.9795
 4834SOL     OW26134   3.162   1.734   7.241  0.3925 -0.2733 -0.2140
 4834SOL    HW126135   3.068   1.718   7.249  0.1451 -0.3196 -3.1717
 4834SOL    HW226136   3.163   1.713   7.147 -2.3077  2.8446 -0.9539
 4835SOL     OW26137   3.121   1.065   7.937  0.0070 -0.3108  0.4082
 4835SOL    HW126138   3.142   0.987   7.886 -0.1393 -2.0975  3.0766
 4835SOL    HW226139   3.033   1.076   7.902  0.8979  0.6211 -1.5604
 4836SOL     OW26140   1.824   3.836   3.523 -0.1037 -0.2045  0.2828
 4836SOL    HW126141   1.736   3.849   3.558  0.0483 -1.2020  1.0233
 4836SOL    HW226142   1.879   3.876   3.591 -0.7370  1.1730 -0.0089
 4837SOL     OW26143   1.659   2.759   3.678  0.0039 -0.5040  0.2694
 4837SOL    HW126144   1.711   2.692   3.721 -1.6037 -0.4492  2.3181
 4837SOL    HW226145   1.609   2.797   3.751  0.4300  0.6727 -0.0421
 4838SOL     OW26146   4.197   0.839   2.619 -0.4469  0.6452  0.5825
 4838SOL    HW126147   4.149   0.765   2.657  1.0168  0.1976  1.5619
 4838SOL    HW226148   4.255   0.791   2.559  1.8618  3.1626  0.8263
 4839SOL     OW26149   1.478   4.425   4.224 -0.5200 -0.3243  0.0206
 4839SOL    HW126150   1.516   4.339   4.208 -0.7953 -0.7489  1.6088
 4839SOL    HW226151   1.387   4.402   4.242 -0.5528  0.4193  0.8034
 4840SOL     OW26152   2.238   4.430   6.553  0.2760 -0.5932  1.2248
 4840SOL    HW126153   2.193   4.401   6.633 -2.1598 -1.1547 -0.3325
 4840SOL    HW226154   2.321   4.384   6.560  1.1436  0.5499 -2.0291
 4841SOL     OW26155   2.065   4.464   8.851 -0.5008 -0.4355 -0.2701
 4841SOL    HW126156   2.081   4.371   8.835  0.1522 -0.1682 -1.1530
 4841SOL    HW226157   2.010   4.479   8.774 -1.3073 -0.1043  0.3637
 4842SOL     OW26158   3.012   1.163   4.577  0.1706  0.5051 -0.2850
 4842SOL    HW126159   3.027   1.069   4.566  1.6861  0.5019  1.8683
 4842SOL    HW226160   3.049   1.204   4.499  0.2901  1.4372  0.2578
 4843SOL     OW26161   2.627   4.274   5.800 -0.0495 -0.3767  0.1371
 4843SOL    HW126162   2.695   4.281   5.867  1.5256  1.6660 -1.6693
 4843SOL    HW226163   2.631   4.366   5.772  1.2392 -1.0066 -1.7099
 4844SOL     OW26164   4.616   2.384   4.364  0.3376  0.2233  0.0924
 4844SOL    HW126165   4.647   2.296   4.341 -4.1274 -1.1195 -0.8453
 4844SOL    HW226166   4.692   2.437   4.340 -0.1071  2.0751  2.7446
 4845SOL     OW26167   4.063   0.722   8.787  0.5709 -0.6956 -0.6650
 4845SOL    HW126168   3.985   0.727   8.731  0.5336  1.9090 -0.3769
 4845SOL    HW226169   4.028   0.696   8.873 -0.3428  0.1913 -0.7678
 4846SOL     OW26170   1.105   1.086  15.686 -0.6021  0.4305 -0.8282
 4846SOL    HW126171   1.133   1.040  15.765 -0.8680  0.9965 -0.3999
 4846SOL    HW226172   1.190   1.082  15.641 -1.3647  1.8801 -2.4019
 4847SOL     OW26173   3.518   3.727   8.502  0.4079 -0.2463 -0.4909
 4847SOL    HW126174   3.473   3.810   8.487  2.6575  0.7212 -1.8677
 4847SOL    HW226175   3.494   3.701   8.591  1.9779  0.5958  0.1742
 4848SOL     OW26176   0.989   3.321  10.703 -0.9830  0.0875  0.4988
 4848SOL    HW126177   1.008   3.268  10.626 -1.8941 -1.7317  1.5123
 4848SOL    HW226178   0.902   3.357  10.683 -1.3020 -0.0430  1.6314
 4849SOL     OW26179   3.568   4.394  15.407  0.4782  0.2001 -0.8790
 4849SOL    HW126180   3.495   4.396  15.468 -0.5312  0.4520 -2.0977
 4849SOL    HW226181   3.564   4.479  15.363 -2.2769  0.5716  0.1289
 4850SOL     OW26182   1.257   2.637  13.743 -0.3515  0.6243  0.5760
 4850SOL    HW126183   1.236   2.634  13.836  0.0107 -0.8729  0.6113
 4850SOL    HW226184   1.171   2.660  13.707 -0.2928  0.7126  0.4937
 4851SOL     OW26185   2.738   1.920   2.849 -0.2058 -0.1889  0.1691
 4851SOL    HW126186   2.729   2.012   2.871  0.3679  0.6202 -3.0452
 4851SOL    HW226187   2.678   1.886   2.915 -1.0459 -1.8404 -1.4143
 4852SOL     OW26188   4.539   4.211  12.888  0.7655 -0.3909 -0.2152
 4852SOL    HW126189   4.525   4.205  12.982 -0.4194 -3.1110 -0.5684
 4852SOL    HW226190   4.620   4.165  12.866  1.0546  0.5340 -1.0703
 4853SOL     OW26191   1.487   3.266   7.113 -0.2920 -0.3594 -0.3598
 4853SOL    HW126192   1.461   3.185   7.070  0.5573 -0.9893  0.3151
 4853SOL    HW226193   1.527   3.230   7.192  1.0400  0.3791 -0.6976
 4854SOL     OW26194   3.885   4.335  16.012 -0.1765  0.1957  0.1644
 4854SOL    HW126195   3.814   4.340  16.076 -0.4260  1.5161 -0.2135
 4854SOL    HW226196   3.910   4.244  16.002 -0.3139  0.4253 -2.4103
 4855SOL     OW26197   1.706   2.990  14.532 -0.0785 -0.5564  0.2666
 4855SOL    HW126198   1.752   2.923  14.583 -0.1351 -1.9102 -1.4784
 4855SOL    HW226199   1.619   2.955  14.515 -0.5440  0.4763  0.5144
 4856SOL     OW26200   3.437   0.402   8.132 -0.0630 -0.0405 -0.0986
 4856SOL    HW126201   3.459   0.463   8.061  0.9813  1.3803  1.4243
 4856SOL    HW226202   3.372   0.456   8.177  0.9011  1.4098 -0.4268
 4857SOL     OW26203   1.417   4.107   2.210  0.3605 -0.1930  0.3636
 4857SOL    HW126204   1.336   4.122   2.258 -0.2862 -1.6117 -0.2944
 4857SOL    HW226205   1.385   4.081   2.124  1.5813 -0.5141  0.0104
 4858SOL     OW26206   3.478   1.139  12.900  0.2762  0.4966  0.1505
 4858SOL    HW126207   3.463   1.214  12.842 -0.5796 -0.0376 -0.3232
 4858SOL    HW226208   3.414   1.076  12.868  0.1393  1.1741 -0.9098
 4859SOL     OW26209   2.969   3.192   5.409 -0.1351 -0.4444 -0.4449
 4859SOL    HW126210   3.052   3.147   5.391 -0.6513 -0.8775 -1.7294
 4859SOL    HW226211   2.926   3.177   5.325 -0.4902 -0.3989 -0.2701
 4860SOL     OW26212   3.480   3.261   6.038  0.4002 -0.7740  0.2463
 4860SOL    HW126213   3.438   3.302   5.963 -2.2205 -1.0317  1.5874
 4860SOL    HW226214   3.570   3.254   6.005 -0.0034  2.3718 -1.4608
 4861SOL     OW26215   3.213   3.599  17.589 -0.2868 -0.2704  0.5324
 4861SOL    HW126216   3.146   3.591  17.656 -1.3359  2.7342 -0.1420
 4861SOL    HW226217   3.171   3.572  17.507 -1.7495 -2.8304  2.1295
 4862SOL     OW26218   4.529   2.567  14.294 -0.0120 -0.0490  0.0460
 4862SOL    HW126219   4.581   2.646  14.285 -0.3747  0.0850 -0.8258
 4862SOL    HW226220   4.556   2.535  14.380 -1.8752  0.8455  0.9624
 4863SOL     OW26221   0.858   1.619   8.413  0.1300  0.2915 -0.3624
 4863SOL    HW126222   0.857   1.608   8.508  0.7516  1.7069 -0.1990
 4863SOL    HW226223   0.772   1.583   8.391  0.8256 -0.7905 -1.3476
 4864SOL     OW26224   1.349   2.772   8.077 -0.6607 -0.5891 -0.2547
 4864SOL    HW126225   1.381   2.792   7.989 -0.8271 -0.1271 -0.2086
 4864SOL    HW226226   1.417   2.825   8.118  0.1090 -0.1844 -2.0604
 4865SOL     OW26227   2.209   4.401  17.243  0.4917  0.0697 -0.3410
 4865SOL    HW126228   2.115   4.389  17.255  0.8147 -0.8925  1.2294
 4865SOL    HW226229   2.225   4.494  17.258 -0.9609  0.1967  0.3431
 4866SOL     OW26230   0.360   3.124   8.864  0.1746 -0.1900 -0.0224
 4866SOL    HW126231   0.401   3.109   8.778  0.2832 -1.2758  0.2288
 4866SOL    HW226232   0.414   3.066   8.917  0.9113  3.4027  3.1494
 4867SOL     OW26233   3.040   0.880   6.075  0.1808 -0.5031  0.2268
 4867SOL    HW126234   3.114   0.902   6.131 -0.3330  2.7126 -0.3933
 4867SOL    HW226235   2.981   0.954   6.090 -1.0611 -1.1412 -1.6000
 4868SOL     OW26236   3.904   0.073   1.494  0.0667  0.1711  0.5320
 4868SOL    HW126237   3.866   0.141   1.439 -0.2224  0.3454  0.9487
 4868SOL    HW226238   3.913   0.003   1.429 -0.3094  2.1521 -1.6354
 4869SOL     OW26239   1.715   3.021   7.328 -0.3722  0.1366  0.2660
 4869SOL    HW126240   1.809   3.014   7.310 -0.1451  0.4567  1.3766
 4869SOL    HW226241   1.712   3.113   7.354  0.1914  0.2459 -0.0367
 4870SOL     OW26242   0.224   3.616   3.513  0.1346  0.5304 -0.1643
 4870SOL    HW126243   0.276   3.631   3.592  2.4513  0.0177 -1.5943
 4870SOL    HW226244   0.206   3.699   3.469 -0.1672  0.0619 -0.9177
 4871SOL     OW26245   1.984   2.307   8.176  0.5529  0.1725  0.0912
 4871SOL    HW126246   1.947   2.222   8.198 -2.4200  1.5819  0.5791
 4871SOL    HW226247   2.038   2.325   8.253  0.0340 -1.3158  0.7819
 4872SOL     OW26248   1.682   0.298   8.170 -0.1643  0.3101 -0.0142
 4872SOL    HW126249   1.638   0.317   8.087 -1.6007 -1.5739  0.3389
 4872SOL    HW226250   1.760   0.354   8.168 -0.1235  0.3414  3.1239
 4873SOL     OW26251   0.075   4.386   8.467  0.6795  0.9803  0.3357
 4873SOL    HW126252   0.098   4.407   8.377 -1.1025  1.8988  0.0773
 4873SOL    HW226253   0.146   4.424   8.519 -0.1960  0.9824  1.5377
 4874SOL     OW26254   3.841   0.018   3.103 -0.4315 -0.1007  0.0482
 4874SOL    HW126255   3.922   4.710   3.075  0.2675  2.0945 -1.2636
 4874SOL    HW226256   3.852   0.024   3.197  1.5464 -0.4589 -0.1631
 4875SOL     OW26257   1.643   2.770  13.391 -0.0699  0.0069 -0.2735
 4875SOL    HW126258   1.581   2.729  13.451 -0.5331  0.0044 -0.7537
 4875SOL    HW226259   1.718   2.718  13.419 -0.1125  0.6082  0.9230
 4876SOL     OW26260   0.775   0.016   0.109  0.3967  0.3357  0.2166
 4876SOL    HW126261   0.700   0.049   0.060  0.6764 -2.0425 -1.8085
 4876SOL    HW226262   0.748   0.015   0.201 -0.2508 -1.6930  0.0133
 4877SOL     OW26263   0.819   2.407  16.052 -0.4145 -0.3092 -0.8136
 4877SOL    HW126264   0.888   2.468  16.077  1.5686 -2.2288 -1.5128
 4877SOL    HW226265   0.742   2.463  16.058  0.2203  0.5615 -0.7894
 4878SOL     OW26266   4.402   3.192   5.190  0.1864  0.2125  0.1132
 4878SOL    HW126267   4.321   3.228   5.226  0.3786 -0.7117  1.4849
 4878SOL    HW226268   4.366   3.150   5.113 -1.3191 -0.0115  0.9468
 4879SOL     OW26269   3.186   4.295   5.857  0.3754  0.0958 -0.4172
 4879SOL    HW126270   3.109   4.317   5.909  0.6887  1.3654 -0.5013
 4879SOL    HW226271   3.258   4.298   5.921 -0.9165 -1.7230  1.1524
 4880SOL     OW26272   1.142   3.174   0.435 -0.7310 -0.2468 -0.4479
 4880SOL    HW126273   1.104   3.262   0.440 -1.1496 -0.4136 -0.6680
 4880SOL    HW226274   1.195   3.183   0.356 -0.1425 -0.0004 -0.0210
 4881SOL     OW26275   3.722   0.761   8.024  0.2777 -0.3363  0.5283
 4881SOL    HW126276   3.722   0.705   8.102 -1.5177  1.0042  1.4647
 4881SOL    HW226277   3.709   0.696   7.954  1.4364  0.6191 -0.5777
 4882SOL     OW26278   2.817   0.089  14.123  0.2815  0.1029  0.9552
 4882SOL    HW126279   2.733   0.059  14.159  1.0915 -0.5932  2.2669
 4882SOL    HW226280   2.846   0.014  14.072 -0.8702  1.1740 -1.2836
 4883SOL     OW26281   0.434   1.517   2.555  0.2912  0.2077  0.1853
 4883SOL    HW126282   0.498   1.575   2.516  0.1630  1.0215  1.1998
 4883SOL    HW226283   0.485   1.436   2.565 -0.3527 -0.4704 -1.9236
 4884SOL     OW26284   4.009   4.149   8.410  0.3328  0.0194  0.4041
 4884SOL    HW126285   3.922   4.112   8.397  1.6300 -1.5438 -3.6640
 4884SOL    HW226286   4.055   4.071   8.441 -0.3788 -0.0015  1.3841
 4885SOL     OW26287   1.412   4.117   2.695 -0.4719 -0.3433 -0.1803
 4885SOL    HW126288   1.498   4.116   2.654 -1.1470 -1.6936 -1.5531
 4885SOL    HW226289   1.406   4.211   2.712 -0.6467  0.0713 -2.5662
 4886SOL     OW26290   4.330   0.886   8.696  0.1733  0.4116 -0.3212
 4886SOL    HW126291   4.246   0.843   8.712  0.4098  0.3113  0.6157
 4886SOL    HW226292   4.368   0.912   8.780 -0.0930 -0.4086  0.0535
 4887SOL     OW26293   4.254   1.277   8.780 -0.6558 -0.5729 -0.6310
 4887SOL    HW126294   4.163   1.307   8.780 -0.7979 -1.0210  0.0698
 4887SOL    HW226295   4.251   1.256   8.873  0.5844  2.3291  0.0810
 4888SOL     OW26296   2.836   0.973   8.188 -0.6369 -0.6579 -0.2265
 4888SOL    HW126297   2.748   0.991   8.152 -0.9898 -1.5553  0.1944
 4888SOL    HW226298   2.835   1.016   8.273  0.9776  0.3404 -0.7234
 4889SOL     OW26299   2.426   2.679   7.906  0.4756 -0.2591 -0.0835
 4889SOL    HW126300   2.401   2.718   7.822  1.7984  0.1447 -0.2898
 4889SOL    HW226301   2.346   2.627   7.915 -0.6876  1.4709 -0.5235
 4890SOL     OW26302   0.261   2.742   7.332 -0.1340  0.1663 -0.3592
 4890SOL    HW126303   0.221   2.726   7.246 -0.0509  0.3017 -0.4222
 4890SOL    HW226304   0.351   2.711   7.330 -0.7491 -1.5287 -1.4469
 4891SOL     OW26305   1.377   0.670   1.750 -0.3161 -0.3145  0.4386
 4891SOL    HW126306   1.472   0.665   1.761 -0.7463 -1.1683  3.8661
 4891SOL    HW226307   1.379   0.694   1.658  1.8723 -1.2928  0.2290
 4892SOL     OW26308   1.854   1.763   8.563 -0.2011 -0.4371 -0.2191
 4892SOL    HW126309   1.857   1.718   8.478 -0.3092  0.5369 -0.7434
 4892SOL    HW226310   1.782   1.826   8.555  0.1935 -0.0709 -0.8925
 4893SOL     OW26311   1.957   3.064  16.314  0.4419  0.3017 -0.1123
 4893SOL    HW126312   1.954   2.983  16.365  2.5587  0.8607  0.8776
 4893SOL    HW226313   1.931   3.040  16.225 -0.6634  2.3257 -0.3215
 4894SOL     OW26314   2.002   3.878   5.361 -0.3838  0.3945  0.2974
 4894SOL    HW126315   2.017   3.831   5.278  0.0351  1.4422 -0.2222
 4894SOL    HW226316   2.083   3.929   5.357  0.8272 -1.7279 -2.8060
 4895SOL     OW26317   0.276   1.629  11.263 -0.2995 -0.0036 -0.2531
 4895SOL    HW126318   0.326   1.557  11.225 -2.5360 -1.3875 -0.6042
 4895SOL    HW226319   0.255   1.673  11.181  3.5967  0.7540 -0.8494
 4896SOL     OW26320   4.220   1.970   9.233  0.0233 -0.1690  0.1595
 4896SOL    HW126321   4.150   1.909   9.208  0.4346 -0.7225  0.3659
 4896SOL    HW226322   4.251   1.927   9.312  1.4090 -2.7775 -1.7973
 4897SOL     OW26323   1.567   3.183   8.921 -0.2074 -0.7869  0.3994
 4897SOL    HW126324   1.518   3.265   8.934  3.0761  1.1777  0.4869
 4897SOL    HW226325   1.506   3.110   8.934  0.2289 -1.0423  0.9892
 4898SOL     OW26326   1.550   3.148   6.559 -0.2263  0.1551  0.4972
 4898SOL    HW126327   1.566   3.068   6.509  1.0428  0.9757 -0.4076
 4898SOL    HW226328   1.602   3.209   6.505  0.8109 -0.1339  1.1612
 4899SOL     OW26329   1.268   0.403   6.144  0.4667 -0.1785  0.3486
 4899SOL    HW126330   1.349   0.445   6.116 -0.1540  0.1755 -0.9029
 4899SOL    HW226331   1.283   0.364   6.231 -0.0337 -0.5078  0.2892
 4900SOL     OW26332   1.191   4.136   3.269  0.5569 -0.1062  0.7494
 4900SOL    HW126333   1.133   4.163   3.340 -0.0237  1.6071 -0.3779
 4900SOL    HW226334   1.126   4.101   3.208 -0.4887  0.5496  1.4891
 4901SOL     OW26335   2.277   3.609  14.148 -0.0053 -0.3061 -0.0981
 4901SOL    HW126336   2.214   3.673  14.114  0.3497  0.1177  0.0452
 4901SOL    HW226337   2.300   3.553  14.074 -1.3017  1.7034 -2.0282
 4902SOL     OW26338   1.813   0.187   9.373  0.0975  0.1968 -0.5962
 4902SOL    HW126339   1.887   0.127   9.386 -0.5757 -0.8833 -1.8131
 4902SOL    HW226340   1.759   0.156   9.445 -1.9741  1.8265 -1.4375
 4903SOL     OW26341   1.408   0.669   1.459  0.0654  0.0380  0.4878
 4903SOL    HW126342   1.405   0.590   1.405  1.3977  0.1430  0.2717
 4903SOL    HW226343   1.489   0.714   1.434  0.3872 -0.7450  0.1094
 4904SOL     OW26344   1.167   4.149   5.988 -0.4476 -0.2518  0.2156
 4904SOL    HW126345   1.142   4.241   5.981  1.7354  0.2976 -0.3865
 4904SOL    HW226346   1.187   4.148   6.081 -1.6914 -2.0046  0.4572
 4905SOL     OW26347   3.162   4.230  13.456  0.3386  0.0126  0.1134
 4905SOL    HW126348   3.196   4.227  13.545  1.9903  0.8433 -0.4883
 4905SOL    HW226349   3.181   4.141  13.426 -0.4171 -0.1407  0.0736
 4906SOL     OW26350   3.719   4.713  12.850 -0.1683  0.3041 -0.1886
 4906SOL    HW126351   3.662   4.717  12.773 -0.1873 -1.6536 -0.2850
 4906SOL    HW226352   3.717   4.618  12.863 -2.3489  0.3605 -0.1173
 4907SOL     OW26353   0.760   0.711   9.030  0.0261  0.0129 -0.5698
 4907SOL    HW126354   0.698   0.761   8.977 -1.6978 -0.9650  0.4984
 4907SOL    HW226355   0.803   0.652   8.969 -0.4592  0.4994 -1.3743
 4908SOL     OW26356   4.314   4.050  13.409 -0.1026  0.0770 -0.3435
 4908SOL    HW126357   4.365   4.065  13.488  2.9856  2.6348 -2.8149
 4908SOL    HW226358   4.258   3.978  13.439 -0.3658  1.0319  1.4829
 4909SOL     OW26359   0.382   1.781   8.064  0.5773  0.1249  0.1282
 4909SOL    HW126360   0.310   1.778   8.127 -2.2547  1.2802 -3.1080
 4909SOL    HW226361   0.388   1.686   8.052 -1.1502 -0.0794  0.9198
 4910SOL     OW26362   0.051   1.842   4.180 -0.5028 -0.2141  0.5515
 4910SOL    HW126363   0.145   1.846   4.163 -0.4596 -1.8745  0.4074
 4910SOL    HW226364   0.021   1.838   4.089  0.7308 -1.2757  0.2075
 4911SOL     OW26365   1.121   0.102  13.867  0.2747  0.2346  0.7945
 4911SOL    HW126366   1.110   0.188  13.908 -2.4981  0.3590 -0.2786
 4911SOL    HW226367   1.181   0.065  13.932 -0.9146  1.8123  2.7906
 4912SOL     OW26368   1.362   0.639   2.904 -0.1335 -0.2761 -0.1074
 4912SOL    HW126369   1.350   0.723   2.860  0.5960 -0.2736 -0.2899
 4912SOL    HW226370   1.451   0.653   2.934 -0.2554 -0.6613  0.4444
 4913SOL     OW26371   2.712   4.450   0.419  0.3109 -0.1970  0.2843
 4913SOL    HW126372   2.697   4.499   0.500 -0.8469 -1.2379  0.7019
 4913SOL    HW226373   2.666   4.501   0.352 -0.1713 -0.8509  0.1185
 4914SOL     OW26374   2.600   4.316  14.898  0.3013  0.5566  0.1918
 4914SOL    HW126375   2.560   4.379  14.838  0.5125  0.4304 -0.0814
 4914SOL    HW226376   2.534   4.247  14.888  1.3540 -0.7101  2.1806
 4915SOL     OW26377   2.222   3.584  14.594  0.5956  0.4945  0.2310
 4915SOL    HW126378   2.135   3.596  14.557  0.4765  0.8976  0.6408
 4915SOL    HW226379   2.193   3.617  14.679  1.6490 -0.6823  1.0580
 4916SOL     OW26380   2.911   3.726   7.656  0.0198  0.4230 -0.1532
 4916SOL    HW126381   2.955   3.703   7.574  0.6178 -0.9718  0.5549
 4916SOL    HW226382   2.826   3.684   7.640  0.0722  0.4297 -0.4519
 4917SOL     OW26383   2.379   4.157   0.421  0.1556  0.5274  0.0812
 4917SOL    HW126384   2.385   4.065   0.446 -1.4990 -0.2370 -2.3783
 4917SOL    HW226385   2.293   4.169   0.462 -0.1618 -0.0489 -0.4190
 4918SOL     OW26386   4.647   2.380   8.265 -0.2910  0.3951  0.1086
 4918SOL    HW126387   4.658   2.330   8.346  0.8309 -0.7664 -0.7622
 4918SOL    HW226388   4.733   2.383   8.223  0.0683  3.0764  1.0108
 4919SOL     OW26389   2.801   2.263  14.609 -0.2670  0.1015  0.0973
 4919SOL    HW126390   2.880   2.268  14.664 -0.6903 -0.3765  0.7559
 4919SOL    HW226391   2.846   2.249  14.526 -0.4485  0.4331 -0.0578
 4920SOL     OW26392   4.141   3.241   4.615  0.1310 -0.2730  0.4194
 4920SOL    HW126393   4.120   3.323   4.660  0.7713 -0.8896  1.8410
 4920SOL    HW226394   4.058   3.204   4.583  1.8642 -3.8526  0.0749
 4921SOL     OW26395   0.862   4.114  15.024 -0.3079  0.2933 -0.1344
 4921SOL    HW126396   0.950   4.152  15.018  0.1836 -0.6643  1.0283
 4921SOL    HW226397   0.840   4.120  15.117 -0.2100 -0.5270 -0.0607
 4922SOL     OW26398   2.013   4.173  16.430 -0.0691  0.1816  0.3220
 4922SOL    HW126399   2.061   4.139  16.505 -0.2255 -0.4666  0.1245
 4922SOL    HW226400   2.014   4.098  16.371 -0.4836 -0.5064  1.1879
 4923SOL     OW26401   4.206   0.257   3.001  0.0734  0.3848 -0.1654
 4923SOL    HW126402   4.157   0.202   2.941  1.6777 -0.4491 -0.6952
 4923SOL    HW226403   4.193   0.209   3.083 -0.6398  2.0696  0.7110
 4924SOL     OW26404   2.559   1.949   9.240 -0.7295 -0.3947 -0.2811
 4924SOL    HW126405   2.615   1.985   9.172 -0.5158  0.4977  0.3670
 4924SOL    HW226406   2.624   1.909   9.298  0.1276  2.3541  0.6319
 4925SOL     OW26407   2.983   1.561   6.728 -0.4004  0.3420  0.2138
 4925SOL    HW126408   2.929   1.609   6.791 -1.0128 -2.4500  1.8289
 4925SOL    HW226409   3.056   1.622   6.719 -0.1954  0.0184 -0.3387
 4926SOL     OW26410   3.273   2.167   9.679 -0.3884 -0.7031  0.1452
 4926SOL    HW126411   3.218   2.240   9.709 -0.6944  0.3201 -2.9155
 4926SOL    HW226412   3.205   2.102   9.663  2.2987 -3.5040  0.2504
 4927SOL     OW26413   3.927   2.896   5.578 -0.0429  0.0823 -0.1701
 4927SOL    HW126414   4.017   2.866   5.592 -0.0058 -1.2199 -3.1778
 4927SOL    HW226415   3.889   2.821   5.532  0.4755 -0.0172 -0.4399
 4928SOL     OW26416   0.663   3.617   8.412  0.0378 -0.0814  0.2737
 4928SOL    HW126417   0.662   3.550   8.344 -1.7006 -1.0259  1.2222
 4928SOL    HW226418   0.654   3.569   8.494  0.1622 -0.7148 -0.0854
 4929SOL     OW26419   2.711   3.170   3.372  0.4254  0.3011  0.7823
 4929SOL    HW126420   2.712   3.235   3.302 -0.1622  1.0848  1.5045
 4929SOL    HW226421   2.800   3.170   3.406 -0.0442  1.6530  2.0355
 4930SOL     OW26422   4.017   2.941   7.889 -0.1706  0.0911 -0.4975
 4930SOL    HW126423   3.979   2.974   7.970 -1.3591  0.4640 -1.1949
 4930SOL    HW226424   3.996   2.848   7.896  1.7145 -0.2667  0.2190
 4931SOL     OW26425   0.241   2.607   8.604 -0.0227 -0.2354 -0.2040
 4931SOL    HW126426   0.283   2.521   8.609  2.5683  0.8745 -2.9428
 4931SOL    HW226427   0.292   2.644   8.532  0.2269  0.6772  0.4393
 4932SOL     OW26428   1.812   1.915   7.087 -0.3297  0.1312  0.2415
 4932SOL    HW126429   1.860   1.833   7.086 -1.1951 -0.3833  2.9063
 4932SOL    HW226430   1.883   1.979   7.078 -1.4181  1.3655  0.5044
 4933SOL     OW26431   3.919   1.890   8.827 -0.0576 -0.2674 -0.1386
 4933SOL    HW126432   3.824   1.880   8.826 -0.3302  2.3612  0.9464
 4933SOL    HW226433   3.929   1.950   8.900  0.8571 -0.0841 -0.4103
 4934SOL     OW26434   1.596   3.068  16.061 -0.1370 -0.2321 -0.1701
 4934SOL    HW126435   1.610   2.994  16.002  0.1952 -0.1141 -0.2414
 4934SOL    HW226436   1.515   3.038  16.100 -0.6610 -1.2860 -2.0435
 4935SOL     OW26437   1.236   0.053  14.129 -0.2597 -0.1704 -0.4945
 4935SOL    HW126438   1.320   0.014  14.105  0.4627  1.9889 -1.4680
 4935SOL    HW226439   1.197   4.729  14.193 -0.9569 -0.9361 -1.6193
 4936SOL     OW26440   2.394   1.478   9.513 -0.2443 -0.2516  0.2222
 4936SOL    HW126441   2.370   1.487   9.606 -2.4586  2.2078 -0.6074
 4936SOL    HW226442   2.485   1.449   9.515 -0.4510 -0.8829  0.6749
 4937SOL     OW26443   3.140   4.284   9.099 -0.2970 -0.4786  0.0012
 4937SOL    HW126444   3.161   4.365   9.145 -1.4464  0.6371 -1.4484
 4937SOL    HW226445   3.225   4.241   9.105  0.4467  0.4893 -3.4988
 4938SOL     OW26446   0.161   0.578   0.439  0.3911  0.3586 -0.1597
 4938SOL    HW126447   0.071   0.550   0.420  0.1449 -0.4362  2.1951
 4938SOL    HW226448   0.201   0.503   0.483 -1.6181 -1.9077 -2.1746
 4939SOL     OW26449   1.175   2.620   9.340 -0.1737  0.4155  0.2096
 4939SOL    HW126450   1.252   2.603   9.395  1.2016 -1.0163 -2.1610
 4939SOL    HW226451   1.107   2.656   9.397 -0.4942  0.5679 -0.2657
 4940SOL     OW26452   4.630   2.162   6.023  0.1189  0.2223 -0.3293
 4940SOL    HW126453   4.606   2.213   5.946 -0.5892  0.2224 -0.1133
 4940SOL    HW226454   4.717   2.123   6.017 -0.8138 -1.6757 -1.7505
 4941SOL     OW26455   0.228   3.394  15.525 -0.3463 -0.3638 -0.3626
 4941SOL    HW126456   0.232   3.489  15.523 -0.5584 -0.3091  1.4973
 4941SOL    HW226457   0.242   3.375  15.618  0.0516  0.0518 -0.3391
 4942SOL     OW26458   0.848   0.037   6.155  0.0678  0.2227 -0.0321
 4942SOL    HW126459   0.786   4.703   6.176  2.1272 -1.4728  0.4456
 4942SOL    HW226460   0.839   0.094   6.231  0.6132  0.9501 -0.5035
 4943SOL     OW26461   0.678   3.399   8.231  0.1599 -0.2541 -0.3104
 4943SOL    HW126462   0.589   3.384   8.199 -0.7103  1.2253  1.3922
 4943SOL    HW226463   0.727   3.426   8.153  2.7856 -1.7432  0.8269
 4944SOL     OW26464   2.485   3.557   2.870  0.1996  0.8773  0.2912
 4944SOL    HW126465   2.580   3.550   2.860  0.1813  1.9553 -0.7293
 4944SOL    HW226466   2.481   3.619   2.942  1.1788  2.4555 -1.0050
 4945SOL     OW26467   0.036   2.551  12.462 -0.1985  0.3487 -0.6715
 4945SOL    HW126468   4.701   2.506  12.414 -1.5772  0.8768  0.8385
 4945SOL    HW226469   0.088   2.581  12.388  1.8001 -1.1022  0.1529
 4946SOL     OW26470   1.390   2.291  12.683 -0.0988 -0.2143 -0.0980
 4946SOL    HW126471   1.432   2.288  12.597  0.4828  1.5038  0.1172
 4946SOL    HW226472   1.385   2.196  12.690  2.2070 -0.5105 -2.7837
 4947SOL     OW26473   2.694   4.218   8.217 -0.0957 -0.3710 -0.3582
 4947SOL    HW126474   2.785   4.241   8.199  0.3632 -0.8815  1.2899
 4947SOL    HW226475   2.715   4.134   8.258  1.4797  0.6912  1.0175
 4948SOL     OW26476   4.241   4.575   8.036 -0.6049  0.1866  0.0141
 4948SOL    HW126477   4.192   4.635   7.979 -0.5330  0.5663  0.3481
 4948SOL    HW226478   4.231   4.619   8.121  0.4748  0.6243 -0.0946
 4949SOL     OW26479   3.850   3.082   4.768  0.1555  0.3534 -0.2425
 4949SOL    HW126480   3.801   3.023   4.712  0.1008  0.8549 -0.7258
 4949SOL    HW226481   3.812   3.056   4.851 -0.1032 -0.2909 -0.5641
 4950SOL     OW26482   2.630   4.082   1.245  0.1088 -0.0874 -0.0500
 4950SOL    HW126483   2.621   3.991   1.219 -0.1296  0.5015 -2.0683
 4950SOL    HW226484   2.633   4.070   1.340 -0.4669  2.3830  0.2946
 4951SOL     OW26485   1.387   2.597   6.315 -0.2449  0.0042  0.5636
 4951SOL    HW126486   1.369   2.549   6.396  0.4897 -1.6269 -0.2372
 4951SOL    HW226487   1.455   2.543   6.275 -0.9682 -0.4362 -0.0861
 4952SOL     OW26488   2.756   0.914   8.999  0.4537 -0.7789  0.4684
 4952SOL    HW126489   2.815   0.841   8.982  0.7304 -0.8709  1.8895
 4952SOL    HW226490   2.743   0.908   9.093 -0.2427 -0.0921  0.4118
 4953SOL     OW26491   3.779   0.885   4.473  0.1123 -0.2861 -0.1572
 4953SOL    HW126492   3.767   0.976   4.444 -2.5991 -1.9167 -4.1439
 4953SOL    HW226493   3.874   0.882   4.473  0.2109  2.5386 -1.7669
 4954SOL     OW26494   3.056   2.116   1.042  0.4469  0.0051  0.2070
 4954SOL    HW126495   3.086   2.028   1.018 -2.1978 -0.7466 -0.4315
 4954SOL    HW226496   2.963   2.102   1.062 -0.0186  2.4717 -0.2801
 4955SOL     OW26497   1.920   1.304   3.586  0.3434  0.5739 -0.3908
 4955SOL    HW126498   1.928   1.209   3.580  1.5997  0.7338 -1.2654
 4955SOL    HW226499   1.956   1.333   3.670 -1.6618 -0.6735  0.9126
 4956SOL     OW26500   0.297   1.025  17.450  0.2633  0.5806 -0.8298
 4956SOL    HW126501   0.298   0.939  17.493 -0.7145  2.1231  2.2449
 4956SOL    HW226502   0.365   1.018  17.382  0.7098  0.0592 -0.3304
 4957SOL     OW26503   2.826   1.136   8.427 -0.4368  0.3164 -0.5181
 4957SOL    HW126504   2.850   1.228   8.417  0.6112  0.0430 -0.4741
 4957SOL    HW226505   2.823   1.128   8.523 -2.8975  0.6907 -0.5578
 4958SOL     OW26506   3.377   4.237  16.774  0.6153 -0.6183  0.0865
 4958SOL    HW126507   3.442   4.171  16.796  0.5913 -0.7862 -0.3494
 4958SOL    HW226508   3.322   4.234  16.853  1.3203  1.6657  0.6712
 4959SOL     OW26509   4.026   2.612  16.954 -0.3872  0.1260  0.4569
 4959SOL    HW126510   3.999   2.682  16.895 -1.6644 -2.4325 -1.9838
 4959SOL    HW226511   4.034   2.533  16.900 -0.4499  0.5478 -0.1699
 4960SOL     OW26512   1.438   4.485   3.904 -0.3833  0.5307  0.3910
 4960SOL    HW126513   1.452   4.554   3.970  5.2451  1.1195 -1.4432
 4960SOL    HW226514   1.518   4.494   3.853  0.6743  0.5415  2.0332
 4961SOL     OW26515   3.968   1.529   7.160 -0.3857  0.0030 -0.2365
 4961SOL    HW126516   3.937   1.620   7.163 -1.7445 -0.4893  0.6378
 4961SOL    HW226517   3.893   1.484   7.198  1.2773  0.7175  3.9179
 4962SOL     OW26518   2.139   2.989   9.571 -0.2464 -0.5341  0.4145
 4962SOL    HW126519   2.075   3.045   9.616 -0.0327 -0.1017  0.1753
 4962SOL    HW226520   2.177   2.935   9.640  3.9827 -2.4791 -3.4917
 4963SOL     OW26521   4.643   4.353   4.873 -0.4338  0.0184  0.3655
 4963SOL    HW126522   4.659   4.274   4.924  1.4495  0.3808  0.3455
 4963SOL    HW226523   4.576   4.324   4.811 -1.3011 -0.2404  1.4266
 4964SOL     OW26524   2.933   3.278  12.018 -0.3935  0.0635 -0.4496
 4964SOL    HW126525   3.021   3.275  11.980  0.1086  3.6054  0.4083
 4964SOL    HW226526   2.912   3.187  12.040 -1.4432  0.5536  0.5818
 4965SOL     OW26527   4.271   2.856   4.585  0.0085  0.6545 -0.0962
 4965SOL    HW126528   4.238   2.912   4.655  1.7005 -0.2390  1.4057
 4965SOL    HW226529   4.334   2.802   4.633  0.3114  0.8926 -0.2283
 4966SOL     OW26530   2.390   2.370   3.073 -0.5560  0.3081 -0.5659
 4966SOL    HW126531   2.312   2.426   3.078 -0.2544  0.8028 -1.3135
 4966SOL    HW226532   2.370   2.316   3.149 -1.7919  1.1628 -0.2757
 4967SOL     OW26533   2.090   4.501   5.942  0.6294 -0.3519  0.3368
 4967SOL    HW126534   2.033   4.568   5.981 -3.5569 -2.7321 -1.7120
 4967SOL    HW226535   2.052   4.420   5.977  0.2482 -0.9132 -1.3622
 4968SOL     OW26536   1.233   2.991  17.311  0.1282 -0.0167  0.0497
 4968SOL    HW126537   1.278   2.997  17.226  0.6487 -0.8311  0.2687
 4968SOL    HW226538   1.174   2.919  17.288 -1.0728  1.0115 -0.0678
 4969SOL     OW26539   3.743   4.318   8.009  0.1540 -0.3878  0.2248
 4969SOL    HW126540   3.827   4.274   8.015  0.2963 -0.2463 -0.6326
 4969SOL    HW226541   3.723   4.340   8.100 -0.2806  0.1637  0.0005
 4970SOL     OW26542   2.167   4.234   2.829  0.3733 -0.1495 -0.2409
 4970SOL    HW126543   2.247   4.184   2.845  0.3952  0.1614  0.6606
 4970SOL    HW226544   2.207   4.321   2.822 -1.4601  0.9229  2.6245
 4971SOL     OW26545   1.166   2.718  15.079  0.0981 -0.4594  0.0897
 4971SOL    HW126546   1.224   2.685  15.147 -0.3970  1.2647  1.3664
 4971SOL    HW226547   1.227   2.785  15.048 -2.4040  1.6210 -0.3333
 4972SOL     OW26548   1.427   1.272   6.257  0.0936  0.0819 -0.4752
 4972SOL    HW126549   1.471   1.338   6.204 -0.2946 -0.4158 -1.4180
 4972SOL    HW226550   1.501   1.223   6.295  1.4285  1.5013 -1.2450
 4973SOL     OW26551   0.518   1.611   4.611  0.2405 -0.0328 -0.1735
 4973SOL    HW126552   0.590   1.620   4.548 -0.6154  0.4665 -1.0859
 4973SOL    HW226553   0.455   1.568   4.553  0.9675 -1.5267  0.1348
 4974SOL     OW26554   4.305   0.842   6.066  0.0296 -0.5018  0.9050
 4974SOL    HW126555   4.353   0.760   6.057 -1.6328 -1.2980 -0.7453
 4974SOL    HW226556   4.295   0.831   6.160  1.8332 -2.1033  0.9139
 4975SOL     OW26557   1.348   3.951  17.532 -0.2349  0.0676  0.0251
 4975SOL    HW126558   1.288   3.989  17.468 -1.3835 -3.1192 -0.8368
 4975SOL    HW226559   1.412   4.020  17.543 -0.1539 -0.2878  1.7434
 4976SOL     OW26560   0.907   1.154  16.421 -0.5021 -0.6067 -0.0347
 4976SOL    HW126561   0.819   1.144  16.384 -0.7398 -1.0453  0.6521
 4976SOL    HW226562   0.902   1.124  16.512  0.4027 -0.2225  0.1398
 4977SOL     OW26563   2.405   4.662   0.457  0.0476 -0.0055  0.3731
 4977SOL    HW126564   2.396   4.572   0.424  3.4656  0.3086 -1.3677
 4977SOL    HW226565   2.498   4.676   0.470 -0.1680  2.6927 -0.9785
 4978SOL     OW26566   1.359   4.246  17.072 -0.2784 -0.3013 -0.2490
 4978SOL    HW126567   1.330   4.331  17.105 -0.5004  0.2770 -1.9050
 4978SOL    HW226568   1.332   4.254  16.980  1.2634 -0.2909 -0.7113
 4979SOL     OW26569   3.971   3.268   2.778 -0.2771 -0.0447 -0.3444
 4979SOL    HW126570   3.972   3.360   2.753  0.6848  0.1738  0.4975
 4979SOL    HW226571   3.881   3.263   2.811 -0.0680  0.6263  0.3055
 4980SOL     OW26572   1.231   1.909  16.458 -0.8617  0.5059 -0.1376
 4980SOL    HW126573   1.298   1.845  16.480  1.0780  2.1308 -1.2782
 4980SOL    HW226574   1.153   1.854  16.459 -0.8091  0.4269 -1.0625
 4981SOL     OW26575   1.826   4.237  13.771 -0.1726 -0.0081  0.2126
 4981SOL    HW126576   1.896   4.278  13.721  0.5860 -2.3575 -0.6491
 4981SOL    HW226577   1.874   4.221  13.852 -3.1669  0.5908  2.1298
 4982SOL     OW26578   3.513   2.896   4.873 -0.0217 -0.1971 -0.2292
 4982SOL    HW126579   3.422   2.866   4.877 -0.7394  2.1906  1.2600
 4982SOL    HW226580   3.501   2.980   4.829  2.9314  0.8306  0.9182
 4983SOL     OW26581   1.172   3.055   7.138  0.4231  0.0352 -0.4082
 4983SOL    HW126582   1.255   3.084   7.099  0.4386  2.4560  1.3940
 4983SOL    HW226583   1.176   2.962   7.117  1.1445 -0.7420  3.1201
 4984SOL     OW26584   2.459   0.685   3.280 -0.6388 -0.0995 -0.1657
 4984SOL    HW126585   2.550   0.657   3.276 -1.0221 -1.4899  0.8116
 4984SOL    HW226586   2.447   0.745   3.206  0.0687 -2.7522 -2.4277
 4985SOL     OW26587   4.424   3.778   4.902  0.3770 -0.6099  0.3718
 4985SOL    HW126588   4.514   3.752   4.921 -0.3282 -1.0596  3.0063
 4985SOL    HW226589   4.372   3.717   4.954  1.2726  0.5642  2.6382
 4986SOL     OW26590   2.399   2.363   7.744 -0.1066  0.2114  0.3918
 4986SOL    HW126591   2.396   2.296   7.675  2.2645  1.0029 -0.4973
 4986SOL    HW226592   2.306   2.365   7.765 -0.3146 -1.0398 -0.3933
 4987SOL     OW26593   3.393   0.282   4.532  0.0860  0.4087 -0.3182
 4987SOL    HW126594   3.329   0.350   4.553 -0.2070 -0.3153  1.1400
 4987SOL    HW226595   3.474   0.324   4.561  2.7344 -3.5132 -2.1058
 4988SOL     OW26596   2.796   4.010  11.244 -0.1438  0.2161  0.3753
 4988SOL    HW126597   2.745   4.087  11.218  0.2452 -0.1366 -1.3868
 4988SOL    HW226598   2.725   3.959  11.283 -1.4091  0.7651 -1.2000
 4989SOL     OW26599   4.653   3.744  17.700 -0.0537 -0.9567 -0.3174
 4989SOL    HW126600   4.607   3.821  17.734 -0.3764 -0.8113 -1.0808
 4989SOL    HW226601   0.007   3.747  17.735 -0.3045  1.5178  0.1507
 4990SOL     OW26602   4.262   4.399   6.353  0.1437 -0.1197  0.6137
 4990SOL    HW126603   4.193   4.338   6.326  0.4642 -0.5424  0.7451
 4990SOL    HW226604   4.218   4.422   6.435 -1.6980 -2.6348  0.3579
 4991SOL     OW26605   0.014   4.014   9.996  0.4152  0.1886 -0.1072
 4991SOL    HW126606   4.730   3.948   9.929 -0.2296 -0.1863  0.4354
 4991SOL    HW226607   0.100   3.988  10.028 -1.3576 -2.9600  2.2491
 4992SOL     OW26608   4.351   1.260   2.105  0.2952  0.7671 -0.0623
 4992SOL    HW126609   4.433   1.224   2.140 -0.5884  0.3367  1.5691
 4992SOL    HW226610   4.376   1.352   2.093 -0.1720  0.7479 -1.2111
 4993SOL     OW26611   3.482   3.291  14.847 -0.1152  0.4198  0.3534
 4993SOL    HW126612   3.458   3.357  14.782  1.3769 -1.2421 -1.9089
 4993SOL    HW226613   3.397   3.250  14.864 -0.3448  0.1091 -1.5282
 4994SOL     OW26614   2.374   0.325  12.451 -0.9644  0.1798 -0.4342
 4994SOL    HW126615   2.329   0.355  12.530  0.6261  1.3684  0.0234
 4994SOL    HW226616   2.398   0.410  12.414  2.2463 -0.7724 -0.4935
 4995SOL     OW26617   0.930   1.310   1.882  0.1745  0.6129 -0.2480
 4995SOL    HW126618   0.841   1.277   1.886  1.3833 -2.4587  1.1242
 4995SOL    HW226619   0.980   1.253   1.824  2.8585  0.7901  1.8810
 4996SOL     OW26620   3.492   4.226   3.129  0.0637  0.0155  0.2911
 4996SOL    HW126621   3.440   4.292   3.174  0.8897  0.0987  1.1194
 4996SOL    HW226622   3.503   4.273   3.046  0.4707 -2.8833 -1.3186
 4997SOL     OW26623   0.512   0.222   7.837 -0.0874  0.1643  0.0914
 4997SOL    HW126624   0.580   0.155   7.830  0.7579  1.3765 -3.4483
 4997SOL    HW226625   0.433   0.171   7.818  0.8182 -1.2382  0.1470
 4998SOL     OW26626   3.174   2.232   6.082  0.5018  0.2426  0.1770
 4998SOL    HW126627   3.263   2.268   6.088  0.9283 -0.9697  1.0483
 4998SOL    HW226628   3.138   2.258   6.167 -1.6120 -0.5654 -0.4822
 4999SOL     OW26629   2.097   0.292   6.766  0.1934  0.4038 -0.0749
 4999SOL    HW126630   2.119   0.349   6.839 -0.7949 -1.6058  1.8114
 4999SOL    HW226631   2.036   0.230   6.806  0.6348 -1.1298 -1.7659
 5000SOL     OW26632   2.784   0.112   5.080 -0.5895 -0.1459 -0.1119
 5000SOL    HW126633   2.842   0.101   5.005 -2.4770  0.4442 -1.6743
 5000SOL    HW226634   2.842   0.110   5.156 -1.8119 -0.9414  0.7994
 5001SOL     OW26635   0.465   3.823   8.930 -0.3017 -0.2024  0.0570
 5001SOL    HW126636   0.555   3.808   8.902 -0.4711 -1.7335  0.3144
 5001SOL    HW226637   0.429   3.852   8.846  0.0952 -2.2913 -0.8314
 5002SOL     OW26638   4.263   0.807   7.526  0.0637 -0.0811 -0.2323
 5002SOL    HW126639   4.352   0.828   7.555 -0.4480 -0.0594  1.3251
 5002SOL    HW226640   4.219   0.866   7.587 -0.6684 -0.9171  0.0571
 5003SOL     OW26641   1.347   1.385   1.442  0.2703  0.2681 -0.0934
 5003SOL    HW126642   1.392   1.301   1.429 -2.2449 -0.5563 -3.1975
 5003SOL    HW226643   1.377   1.427   1.362 -3.2230  1.3538 -0.8168
 5004SOL     OW26644   0.485   3.586  12.333 -0.4513 -0.0664  0.3453
 5004SOL    HW126645   0.530   3.552  12.410 -0.9660  1.5046  1.3455
 5004SOL    HW226646   0.540   3.541  12.268 -1.2460  0.3057 -0.5825
 5005SOL     OW26647   2.215   3.082   8.670  0.1789 -0.1852 -0.3160
 5005SOL    HW126648   2.162   3.037   8.604  1.1093 -1.4962 -0.1563
 5005SOL    HW226649   2.253   3.001   8.703  0.8044  0.1238 -0.2755
 5006SOL     OW26650   1.721   4.072   4.487 -0.6301 -0.5019 -0.2740
 5006SOL    HW126651   1.645   4.128   4.503 -0.1945 -0.8404  2.8058
 5006SOL    HW226652   1.762   4.070   4.573  0.3434  1.9302 -0.6666
 5007SOL     OW26653   2.393   1.746   2.846 -1.1700 -0.2594  0.2070
 5007SOL    HW126654   2.395   1.696   2.765 -0.0627  0.1288 -0.0039
 5007SOL    HW226655   2.434   1.680   2.902  0.4470  0.8056  0.2925
 5008SOL     OW26656   2.626   4.631  10.794  0.1921  0.1206  0.0155
 5008SOL    HW126657   2.580   4.665  10.717  0.2111  1.1610  0.4696
 5008SOL    HW226658   2.681   4.699  10.832  1.9837 -1.0257 -0.4847
 5009SOL     OW26659   3.354   2.762   6.308 -0.0766  0.5678  0.5003
 5009SOL    HW126660   3.289   2.692   6.308 -0.2755  0.7493 -0.4510
 5009SOL    HW226661   3.307   2.815   6.243  0.1934 -2.5189 -2.2354
 5010SOL     OW26662   1.324   1.498   5.429 -0.1867  0.3035  0.4759
 5010SOL    HW126663   1.417   1.498   5.406 -0.2583  0.2722  0.1926
 5010SOL    HW226664   1.294   1.586   5.407 -1.2010 -0.6983 -2.0199
 5011SOL     OW26665   4.323   3.558   1.718  0.1660 -0.2755 -0.1229
 5011SOL    HW126666   4.265   3.489   1.750 -0.0974  0.0923  0.1923
 5011SOL    HW226667   4.367   3.512   1.647  2.9268  0.0536  1.3671
 5012SOL     OW26668   1.833   3.177   9.399  0.0285  0.1117 -0.0105
 5012SOL    HW126669   1.891   3.239   9.444  0.0192  0.1115  0.0016
 5012SOL    HW226670   1.822   3.222   9.315  2.3460 -1.8401 -1.3480
 5013SOL     OW26671   3.933   3.962   8.867  0.2833  0.5837  0.1849
 5013SOL    HW126672   4.017   4.008   8.876  1.2102 -0.7436 -1.5842
 5013SOL    HW226673   3.923   3.938   8.959  0.1457 -0.2608 -0.0433
 5014SOL     OW26674   3.006   4.537  15.697 -0.1997  0.1652 -0.0821
 5014SOL    HW126675   3.075   4.543  15.762  0.1548 -2.1004 -0.2578
 5014SOL    HW226676   2.987   4.627  15.670  0.4776  0.4314  0.3496
 5015SOL     OW26677   4.402   4.674   2.396  0.3095  0.2587  0.2789
 5015SOL    HW126678   4.466   4.715   2.455  1.9083 -1.5346 -0.2163
 5015SOL    HW226679   4.330   4.671   2.460 -1.1983  0.4612 -1.3981
 5016SOL     OW26680   0.940   2.734  11.215  0.0431  0.1576  1.1246
 5016SOL    HW126681   0.953   2.692  11.130 -1.5787  0.1751  0.8656
 5016SOL    HW226682   0.930   2.822  11.178  2.4507 -0.9259 -2.0258
 5017SOL     OW26683   3.181   3.606   4.458 -0.5243  0.7423 -0.1044
 5017SOL    HW126684   3.182   3.542   4.387  1.2471  0.1615  0.4414
 5017SOL    HW226685   3.242   3.667   4.417  0.8952 -0.5073  0.1529
 5018SOL     OW26686   2.723   3.187   4.786 -1.2579  0.2286 -0.3009
 5018SOL    HW126687   2.656   3.133   4.828 -1.3942  0.6976  0.0794
 5018SOL    HW226688   2.803   3.138   4.806 -0.3906  0.6953 -2.6604
 5019SOL     OW26689   0.587   1.576   3.913 -0.5710  0.0226  0.6742
 5019SOL    HW126690   0.516   1.574   3.850 -1.3010  0.1476  1.4936
 5019SOL    HW226691   0.644   1.527   3.854  0.2221  0.9257  0.6908
 5020SOL     OW26692   3.375   3.351   0.938 -0.5221  0.7800  0.6840
 5020SOL    HW126693   3.288   3.336   0.974 -0.4017 -1.8795 -0.1358
 5020SOL    HW226694   3.370   3.329   0.845 -0.1563 -2.2072  1.3708
 5021SOL     OW26695   1.689   4.190   2.570 -0.4211 -0.3958  0.1331
 5021SOL    HW126696   1.782   4.204   2.588 -0.0702  0.6895 -2.5769
 5021SOL    HW226697   1.680   4.265   2.510 -0.8192  0.2295  0.9614
 5022SOL     OW26698   3.567   2.908   8.999 -0.4216 -0.5941  0.2531
 5022SOL    HW126699   3.501   2.968   8.963  0.8670 -0.2497 -1.5384
 5022SOL    HW226700   3.526   2.882   9.081 -0.0378 -1.1168  0.2743
 5023SOL     OW26701   3.800   3.466  14.307  0.0785 -0.0452 -0.6425
 5023SOL    HW126702   3.886   3.424  14.299  0.0323  0.3573 -3.4439
 5023SOL    HW226703   3.825   3.556  14.289 -0.0120 -0.1882 -1.5127
 5024SOL     OW26704   1.097   1.909   4.598 -0.0564  0.6152 -0.7346
 5024SOL    HW126705   1.189   1.885   4.590 -0.3899 -0.2171 -2.0921
 5024SOL    HW226706   1.096   2.003   4.618  3.4659  0.3197  0.8147
 5025SOL     OW26707   4.606   0.843  14.143 -0.7116  0.5992 -0.3393
 5025SOL    HW126708   4.518   0.812  14.164 -0.0063 -0.6329  0.8271
 5025SOL    HW226709   4.592   0.935  14.162 -2.2195  0.6574 -1.8244
 5026SOL     OW26710   3.299   3.650   0.723  0.2518  0.0954 -0.2151
 5026SOL    HW126711   3.332   3.571   0.680 -0.0249  0.4398 -1.0622
 5026SOL    HW226712   3.320   3.710   0.652  0.3297  0.0307 -0.2473
 5027SOL     OW26713   2.616   1.723   9.643  0.4249 -0.2742 -0.1102
 5027SOL    HW126714   2.624   1.631   9.620 -1.7131 -0.4777 -0.0346
 5027SOL    HW226715   2.523   1.731   9.622  0.1139 -2.2118  0.5531
 5028SOL     OW26716   0.066   1.491   3.172 -0.5204 -0.1180 -0.4868
 5028SOL    HW126717   0.047   1.399   3.191 -0.6731  0.4688  2.2472
 5028SOL    HW226718   0.024   1.485   3.086  1.2189 -0.5644 -1.3044
 5029SOL     OW26719   0.822   4.277   6.579 -0.6655 -0.0523  0.5777
 5029SOL    HW126720   0.895   4.215   6.571 -0.9189 -0.7227  3.4779
 5029SOL    HW226721   0.759   4.217   6.617 -0.9247  0.4141  0.8846
 5030SOL     OW26722   3.462   1.317  12.672 -0.0482 -0.5781 -0.2388
 5030SOL    HW126723   3.506   1.343  12.591  0.3350 -0.7160 -0.0767
 5030SOL    HW226724   3.383   1.370  12.670  1.2682  1.4785  2.5330
 5031SOL     OW26725   2.031   1.591   4.993 -0.2703 -0.6875  0.1966
 5031SOL    HW126726   2.013   1.639   5.074 -2.4168 -0.4601 -0.3953
 5031SOL    HW226727   2.088   1.654   4.948 -0.9985 -1.1192 -1.3532
 5032SOL     OW26728   3.694   0.169   7.400  0.3339 -0.1653  0.0691
 5032SOL    HW126729   3.707   0.161   7.495 -1.2245 -0.0137  0.2795
 5032SOL    HW226730   3.653   0.084   7.383 -1.0264  0.4282  0.4009
 5033SOL     OW26731   0.335   2.025   3.304 -0.0622  0.0845  0.5612
 5033SOL    HW126732   0.395   1.957   3.273 -1.6181  0.0633 -2.4203
 5033SOL    HW226733   0.398   2.078   3.353 -0.2188 -0.1283  0.9905
 5034SOL     OW26734   2.330   0.223   8.014  0.3087 -0.1729 -0.4981
 5034SOL    HW126735   2.341   0.165   8.090 -0.8437 -0.0350 -0.2196
 5034SOL    HW226736   2.418   0.223   7.977 -0.3299  2.1818 -1.9348
 5035SOL     OW26737   2.861   1.299   1.697 -0.0661  0.2915 -0.3585
 5035SOL    HW126738   2.880   1.292   1.791 -3.2238 -1.6081  0.1873
 5035SOL    HW226739   2.913   1.224   1.667 -1.0110 -0.5008 -0.0569
 5036SOL     OW26740   1.948   2.341   2.523  0.1585 -0.0338  0.3054
 5036SOL    HW126741   2.027   2.322   2.473  0.7318 -1.2832  1.6750
 5036SOL    HW226742   1.878   2.339   2.458  0.3579  0.2628  0.0840
 5037SOL     OW26743   1.155   4.671   8.865  0.2357  0.7462  0.1429
 5037SOL    HW126744   1.075   4.712   8.831 -0.3365  0.3498  1.0209
 5037SOL    HW226745   1.111   4.621   8.933  0.3686 -2.0141 -1.7942
 5038SOL     OW26746   0.186   3.950   5.901  0.0289  0.2262  0.4956
 5038SOL    HW126747   0.132   3.911   5.833  0.7189  0.5756 -0.2541
 5038SOL    HW226748   0.227   4.022   5.853 -2.7427  2.2298  1.1035
 5039SOL     OW26749   2.274   3.916   1.528 -0.2865 -0.1039 -0.0933
 5039SOL    HW126750   2.275   3.821   1.546  1.4429  0.3232  2.0803
 5039SOL    HW226751   2.240   3.952   1.610 -2.0281 -0.9256 -0.4596
 5040SOL     OW26752   4.201   3.762   0.365 -0.0127 -0.2115  0.3935
 5040SOL    HW126753   4.210   3.782   0.272  2.2290 -0.7521  0.4904
 5040SOL    HW226754   4.277   3.705   0.374 -0.8527 -1.3704  0.2571
 5041SOL     OW26755   2.681   1.858  15.729  0.0988 -0.4501  0.2857
 5041SOL    HW126756   2.762   1.833  15.685  0.7910 -1.3659  2.0587
 5041SOL    HW226757   2.715   1.878  15.817  1.5269 -0.3098 -0.2906
 5042SOL     OW26758   4.529   0.832   6.355  0.3324 -0.0334  0.2060
 5042SOL    HW126759   4.572   0.915   6.332  1.0005 -0.8445 -1.4753
 5042SOL    HW226760   4.581   0.786   6.421  1.3785 -0.8009 -1.1586
 5043SOL     OW26761   1.303   1.656   4.837 -0.4706 -0.0894  0.0222
 5043SOL    HW126762   1.227   1.692   4.884 -1.4756  0.3717 -1.9333
 5043SOL    HW226763   1.259   1.650   4.752  0.6432  1.5094 -0.6835
 5044SOL     OW26764   1.971   4.452   6.419  0.1952 -0.0436 -0.1884
 5044SOL    HW126765   1.930   4.407   6.493 -2.8072  1.7822 -0.7150
 5044SOL    HW226766   2.057   4.478   6.452  0.8397  0.2348 -2.0966
 5045SOL     OW26767   2.606   2.078  12.693  0.0178 -0.0001 -0.1085
 5045SOL    HW126768   2.549   2.001  12.703  0.1185 -0.5295 -3.7384
 5045SOL    HW226769   2.686   2.026  12.681  0.0261  0.2448 -1.0753
 5046SOL     OW26770   1.869   1.117   5.442 -0.2762 -0.5810 -0.3763
 5046SOL    HW126771   1.792   1.069   5.414 -1.4043  1.0884 -0.1189
 5046SOL    HW226772   1.904   1.147   5.358 -1.4623  1.1000 -0.2729
 5047SOL     OW26773   2.423   3.438   3.945  0.2869  0.5105  0.0067
 5047SOL    HW126774   2.426   3.423   4.040 -0.4124 -0.0074 -0.0501
 5047SOL    HW226775   2.516   3.429   3.924  0.1923  1.5806 -0.8512
 5048SOL     OW26776   2.929   3.464   3.193 -0.7792  0.0782  0.1390
 5048SOL    HW126777   2.839   3.431   3.199  0.1436 -2.2445  1.0577
 5048SOL    HW226778   2.925   3.521   3.116  0.4201  1.2056  0.8992
 5049SOL     OW26779   2.804   2.735   6.986  0.5615  0.2643  0.4538
 5049SOL    HW126780   2.852   2.659   7.020 -0.0894  0.7984  2.5964
 5049SOL    HW226781   2.784   2.718   6.894  2.1029 -0.4421  0.2476
 5050SOL     OW26782   1.922   0.621   9.325  0.1438 -0.7684  0.4445
 5050SOL    HW126783   1.904   0.647   9.235  0.4492 -0.2422  0.5350
 5050SOL    HW226784   1.991   0.558   9.303  1.9199  1.7463 -1.0882
 5051SOL     OW26785   1.836   4.621  17.381  0.1254 -0.0179  0.6158
 5051SOL    HW126786   1.882   4.539  17.401 -0.6435 -0.3153  1.1334
 5051SOL    HW226787   1.798   4.602  17.295  0.2305 -2.2384  1.0611
 5052SOL     OW26788   3.295   2.709  15.871  0.0234 -0.1775  0.7230
 5052SOL    HW126789   3.204   2.739  15.861 -0.0080 -0.3037  0.6343
 5052SOL    HW226790   3.328   2.748  15.791 -1.3443 -0.8639 -0.1828
 5053SOL     OW26791   3.904   0.680   9.008  0.6643 -0.1664  0.1455
 5053SOL    HW126792   3.809   0.673   9.004  0.5849  1.0001 -0.1681
 5053SOL    HW226793   3.918   0.752   9.070 -1.7259 -0.9035  1.5352
 5054SOL     OW26794   1.385   4.406   5.525  0.7036 -0.5943  0.3758
 5054SOL    HW126795   1.466   4.445   5.558 -0.8938  1.2859  2.0823
 5054SOL    HW226796   1.389   4.449   5.439 -1.1666  0.3100  0.7308
 5055SOL     OW26797   1.658   0.901   3.802  0.2952 -0.3406 -0.1496
 5055SOL    HW126798   1.743   0.910   3.845  0.2330  3.5077 -0.7667
 5055SOL    HW226799   1.661   0.816   3.758  1.4172  0.2247 -1.1581
 5056SOL     OW26800   0.985   3.170   8.071  0.3610  0.3772  0.5806
 5056SOL    HW126801   0.995   3.148   8.164  0.2745 -0.4430  0.3978
 5056SOL    HW226802   1.069   3.136   8.040 -0.5618 -1.1694 -0.1769
 5057SOL     OW26803   1.095   2.023   3.996 -0.2020  0.1594  0.5484
 5057SOL    HW126804   1.160   2.054   3.933 -0.3408  0.1725  0.4131
 5057SOL    HW226805   1.007   2.044   3.966 -0.2726 -1.4184 -0.3158
 5058SOL     OW26806   2.310   3.984   4.756 -0.5944 -0.2320 -0.0632
 5058SOL    HW126807   2.394   3.976   4.801 -0.0357  1.3915 -0.8018
 5058SOL    HW226808   2.249   3.950   4.821 -1.1066 -1.6318 -1.2628
 5059SOL     OW26809   1.953   2.237   9.171 -0.1989  0.4408 -0.2104
 5059SOL    HW126810   1.931   2.264   9.260  2.1725  1.1063  0.1600
 5059SOL    HW226811   1.942   2.142   9.169  0.8312  0.3347 -0.8265
 5060SOL     OW26812   0.059   0.439  17.242 -0.0858 -0.3891 -0.1718
 5060SOL    HW126813   0.135   0.386  17.216  2.3397  3.1302 -0.2172
 5060SOL    HW226814   4.725   0.373  17.253  0.7107 -1.2897 -0.6226
 5061SOL     OW26815   3.848   2.556  11.769  0.9195  0.3353  0.3653
 5061SOL    HW126816   3.815   2.579  11.856 -0.5565 -1.5190  0.3000
 5061SOL    HW226817   3.814   2.467  11.768 -1.2908  1.1754  0.3407
 5062SOL     OW26818   3.275   1.391   7.136  0.0303  0.1659  0.2136
 5062SOL    HW126819   3.276   1.313   7.191 -0.5588  0.5407  0.7584
 5062SOL    HW226820   3.367   1.415   7.134 -0.6244  2.6905  0.2114
 5063SOL     OW26821   1.760   1.498   3.477 -0.5713  0.0998 -0.0970
 5063SOL    HW126822   1.721   1.460   3.397  0.8400  0.2385 -0.8498
 5063SOL    HW226823   1.805   1.424   3.516  1.3749  2.5716  2.3335
 5064SOL     OW26824   0.831   0.245   4.088 -0.2219  0.0808 -0.4437
 5064SOL    HW126825   0.926   0.253   4.094 -0.4068  1.1194  1.0316
 5064SOL    HW226826   0.813   0.312   4.021 -1.1138 -1.0122 -1.2912
 5065SOL     OW26827   4.674   2.726   7.628  0.2203  0.0749 -0.6072
 5065SOL    HW126828   4.632   2.775   7.557 -0.8601 -0.1930 -0.1598
 5065SOL    HW226829   0.025   2.767   7.626  0.6279 -0.7387  0.2220
 5066SOL     OW26830   2.158   3.430  10.271 -0.2740 -0.1757  0.3066
 5066SOL    HW126831   2.240   3.451  10.225  1.0405  1.0659  3.1728
 5066SOL    HW226832   2.170   3.494  10.341 -0.0335  0.5084 -0.3561
 5067SOL     OW26833   3.181   2.210   8.903  0.3022  0.2214 -0.2963
 5067SOL    HW126834   3.244   2.283   8.903  1.1021 -0.4614  1.2339
 5067SOL    HW226835   3.123   2.247   8.969  0.5425 -0.9271  0.5612
 5068SOL     OW26836   1.907   0.706   4.995  0.1398  0.0012 -0.3644
 5068SOL    HW126837   1.824   0.739   4.960  0.1833  0.6381  0.1357
 5068SOL    HW226838   1.942   0.779   5.045  0.7605 -0.4514 -0.1328
 5069SOL     OW26839   0.818   2.200   8.706 -0.3038 -0.1577  0.3115
 5069SOL    HW126840   0.876   2.125   8.715  0.2843  0.2115 -0.3881
 5069SOL    HW226841   0.748   2.186   8.770 -0.7189 -0.2860 -0.1605
 5070SOL     OW26842   0.617   3.846  12.654  0.6098 -0.0309  0.1325
 5070SOL    HW126843   0.669   3.811  12.582 -0.3248 -1.0287 -0.0413
 5070SOL    HW226844   0.533   3.802  12.656  0.4879  0.1567 -1.1788
 5071SOL     OW26845   2.091   1.415   4.125  0.0507  0.8508  0.0851
 5071SOL    HW126846   2.079   1.360   4.202  3.1751  1.0290  0.6979
 5071SOL    HW226847   2.047   1.491   4.163 -0.5267  0.5370  0.0528
 5072SOL     OW26848   1.738   3.475   4.170  0.2644 -0.2582 -0.0518
 5072SOL    HW126849   1.821   3.523   4.175  0.1925  0.2937 -4.0448
 5072SOL    HW226850   1.778   3.390   4.151 -1.6035 -0.7081 -1.9465
 5073SOL     OW26851   3.704   0.782   0.648 -0.3523 -0.3127  0.0852
 5073SOL    HW126852   3.714   0.876   0.664 -0.1594 -0.6472  1.9138
 5073SOL    HW226853   3.637   0.785   0.579 -2.2094 -1.5807  1.8082
 5074SOL     OW26854   2.787   4.398  15.060  0.4183  0.0295  0.5151
 5074SOL    HW126855   2.867   4.373  15.014  0.4275 -3.7344  2.5804
 5074SOL    HW226856   2.719   4.350  15.014  1.3830  0.6327 -1.5167
 5075SOL     OW26857   3.377   2.178   4.081 -0.0508 -0.6574  0.6318
 5075SOL    HW126858   3.291   2.217   4.069  0.4966  0.4596  0.3719
 5075SOL    HW226859   3.397   2.205   4.171  0.3611 -1.5193  0.8047
 5076SOL     OW26860   1.624   2.685   7.033  0.1903 -0.0287  0.4532
 5076SOL    HW126861   1.539   2.644   7.049  0.0989 -0.1767 -0.4238
 5076SOL    HW226862   1.685   2.626   7.077 -0.8015 -0.9212  0.6413
 5077SOL     OW26863   0.690   2.770   6.058 -0.0298 -0.4991  0.0534
 5077SOL    HW126864   0.774   2.788   6.016 -0.3182 -2.0998 -1.2114
 5077SOL    HW226865   0.659   2.857   6.081  1.0575 -0.1909  0.3460
 5078SOL     OW26866   2.323   0.635   2.940  0.0128  0.0092  0.6172
 5078SOL    HW126867   2.323   0.541   2.957  0.4501 -0.0556  0.2433
 5078SOL    HW226868   2.228   0.645   2.943  0.0595  0.2004  1.3610
 5079SOL     OW26869   4.526   2.887   1.606 -0.7749  0.1418 -0.2462
 5079SOL    HW126870   4.535   2.811   1.548 -1.0531 -0.0883  0.0161
 5079SOL    HW226871   4.568   2.846   1.681  2.8114  2.4514 -0.9657
 5080SOL     OW26872   3.907   2.314   4.648  0.4271  0.4374  0.6986
 5080SOL    HW126873   3.974   2.266   4.600 -0.1743 -0.2599  0.5611
 5080SOL    HW226874   3.969   2.362   4.703  0.7265  2.1631 -1.1469
 5081SOL     OW26875   2.554   3.579   6.738 -0.2705 -0.6328  0.1722
 5081SOL    HW126876   2.544   3.615   6.826 -0.6318  3.3861 -1.4819
 5081SOL    HW226877   2.624   3.518   6.760  0.1573  0.0323  0.6606
 5082SOL     OW26878   1.528   4.135   4.952  0.3268 -0.0310 -0.1147
 5082SOL    HW126879   1.519   4.109   5.043  1.5308  0.7895  0.2425
 5082SOL    HW226880   1.435   4.142   4.932  0.2048 -0.4902  0.2982
 5083SOL     OW26881   2.045   1.650   6.799 -0.7323  0.7402 -0.1067
 5083SOL    HW126882   2.109   1.719   6.782  0.7357  0.1333  2.9113
 5083SOL    HW226883   2.092   1.567   6.802 -1.7708  0.2136  1.5612
 5084SOL     OW26884   0.903   1.637   6.077  0.4077 -0.2599  0.1227
 5084SOL    HW126885   0.924   1.613   5.987 -1.2324 -0.5362 -0.2000
 5084SOL    HW226886   0.885   1.550   6.114 -1.3125  0.2842  0.5598
 5085SOL     OW26887   4.362   1.056   4.927  0.2932  0.0162 -0.0448
 5085SOL    HW126888   4.267   1.066   4.924  0.4060  0.8728 -0.6637
 5085SOL    HW226889   4.394   1.135   4.884 -1.5042  2.2644  2.7429
 5086SOL     OW26890   1.574   1.364   5.709  0.1398  0.2611 -0.0791
 5086SOL    HW126891   1.660   1.327   5.688 -0.4705 -1.0175 -0.2786
 5086SOL    HW226892   1.530   1.314   5.641  1.0883  0.2623 -0.6931
 5087SOL     OW26893   1.019   0.662  15.268 -0.8514 -0.1724  0.1948
 5087SOL    HW126894   1.010   0.570  15.290  0.6052 -0.4608 -0.4178
 5087SOL    HW226895   0.945   0.677  15.209  1.1112  2.7265 -1.5936
 5088SOL     OW26896   4.316   1.700  14.999  0.4976 -0.4341 -0.6722
 5088SOL    HW126897   4.241   1.648  15.031  0.3401  0.7717  0.9562
 5088SOL    HW226898   4.285   1.790  15.006 -0.2572 -0.5888 -1.9882
 5089SOL     OW26899   4.626   1.259   6.300  0.1704  0.7681  0.0333
 5089SOL    HW126900   4.702   1.216   6.260 -0.6649  0.4881 -1.2412
 5089SOL    HW226901   4.599   1.192   6.362 -0.4241  0.7162 -0.2835
 5090SOL     OW26902   2.115   3.095   5.162 -0.0250 -0.1301  0.4414
 5090SOL    HW126903   2.082   3.013   5.199  0.4788 -0.4059  0.2762
 5090SOL    HW226904   2.081   3.155   5.227 -4.3869 -3.1391  0.9706
 5091SOL     OW26905   0.294   3.994   1.458  0.0217 -0.2983 -0.1256
 5091SOL    HW126906   0.200   3.993   1.478 -0.1833  1.3559 -0.9892
 5091SOL    HW226907   0.344   4.043   1.524 -0.2261 -0.9834  0.5717
 5092SOL     OW26908   1.044   2.787  13.624  0.9113 -0.4692 -0.3531
 5092SOL    HW126909   1.062   2.881  13.631 -0.9842 -0.2586  1.4627
 5092SOL    HW226910   0.980   2.792  13.553  1.0130  0.2710 -0.3927
 5093SOL     OW26911   0.895   3.165   4.984  0.1695  0.0690 -0.1336
 5093SOL    HW126912   0.951   3.180   4.907 -1.3933  1.4833 -1.0074
 5093SOL    HW226913   0.815   3.126   4.948  0.5707 -2.3510  1.6089
 5094SOL     OW26914   3.427   3.270  16.542  0.1855 -0.3181  0.4024
 5094SOL    HW126915   3.439   3.314  16.458 -0.5882 -0.3695  0.2714
 5094SOL    HW226916   3.507   3.295  16.590  0.4957 -1.5021  0.5103
 5095SOL     OW26917   1.270   2.810   3.155 -0.0147  0.2764  0.0183
 5095SOL    HW126918   1.277   2.876   3.087 -0.1864  0.9273  0.6349
 5095SOL    HW226919   1.278   2.862   3.235  0.9033 -0.5163  0.4474
 5096SOL     OW26920   1.200   4.111  11.494 -0.0352 -0.6476  0.0611
 5096SOL    HW126921   1.113   4.137  11.462 -0.2617 -0.1454  1.0759
 5096SOL    HW226922   1.188   4.075  11.582  1.9489 -3.1588 -0.7030
 5097SOL     OW26923   1.070   0.986  13.921 -0.6268  0.2356  0.0668
 5097SOL    HW126924   1.011   0.922  13.881 -1.1607 -0.3485  1.7724
 5097SOL    HW226925   1.138   1.001  13.856 -0.8103  0.3149 -0.1052
 5098SOL     OW26926   0.846   2.185  10.472 -0.1628  0.0507  0.1164
 5098SOL    HW126927   0.756   2.217  10.477 -0.5286 -1.1811  1.2726
 5098SOL    HW226928   0.833   2.120  10.403 -0.2167 -0.5219  0.6696
 5099SOL     OW26929   4.166   3.561   6.823 -0.8599  0.0048 -0.1601
 5099SOL    HW126930   4.151   3.470   6.798  2.6181 -0.1526 -1.7293
 5099SOL    HW226931   4.151   3.549   6.917  2.1605 -1.1389  0.1675
 5100SOL     OW26932   1.744   2.122   2.607  0.3248 -0.1599 -0.8699
 5100SOL    HW126933   1.681   2.178   2.653  1.1282  1.1189 -1.3491
 5100SOL    HW226934   1.814   2.184   2.586  0.4344  0.4425  1.2762
 5101SOL     OW26935   4.033   2.098   7.870  0.2753  0.2305 -0.0970
 5101SOL    HW126936   4.040   2.141   7.955 -0.0993 -0.0052  0.0519
 5101SOL    HW226937   4.114   2.048   7.866 -0.0630 -0.4699  2.0519
 5102SOL     OW26938   0.965   2.376  11.424 -0.4175  0.1416 -0.0241
 5102SOL    HW126939   0.870   2.386  11.437 -0.2405  2.8636 -0.7288
 5102SOL    HW226940   0.966   2.291  11.381 -0.9480 -0.0881  0.4171
 5103SOL     OW26941   1.094   0.370  13.980 -0.0191 -0.3630  0.0704
 5103SOL    HW126942   1.180   0.369  13.939  0.3485  0.9676  0.7888
 5103SOL    HW226943   1.089   0.456  14.022  1.2979  0.3236 -1.1775
 5104SOL     OW26944   2.136   1.999  14.301 -0.5176 -0.4332 -0.0287
 5104SOL    HW126945   2.083   2.072  14.268  0.0444 -0.5250 -1.1388
 5104SOL    HW226946   2.067   1.933  14.296  0.0015 -0.8590 -1.5309
 5105SOL     OW26947   2.866   1.331   7.634  0.0139  0.0489  0.2811
 5105SOL    HW126948   2.855   1.266   7.565  1.0267  1.3658 -1.1224
 5105SOL    HW226949   2.892   1.282   7.712  0.0310  1.0242  0.8926
 5106SOL     OW26950   4.494   0.923   7.672  0.2920 -0.1348 -0.8875
 5106SOL    HW126951   4.522   0.975   7.596  2.5604  1.4105  1.0335
 5106SOL    HW226952   4.534   0.838   7.654 -0.8951 -1.0392  0.8041
 5107SOL     OW26953   2.120   4.205   8.783 -0.2251 -0.3684  0.3461
 5107SOL    HW126954   2.211   4.180   8.765 -0.7211  0.1513 -2.8644
 5107SOL    HW226955   2.081   4.178   8.700 -2.0201  0.5494  0.8984
 5108SOL     OW26956   2.823   0.616   5.322  0.0331 -0.1710 -0.1565
 5108SOL    HW126957   2.734   0.622   5.357  0.3094  0.5456  0.4369
 5108SOL    HW226958   2.859   0.678   5.385  1.5010 -0.5053 -0.6855
 5109SOL     OW26959   1.504   3.251   4.678 -0.2023  0.4112  0.2739
 5109SOL    HW126960   1.490   3.245   4.584  3.2857  1.4280 -0.3222
 5109SOL    HW226961   1.500   3.161   4.711  1.7598 -0.6160 -2.3534
 5110SOL     OW26962   0.412   0.673  17.262  0.7719  0.6645 -0.8564
 5110SOL    HW126963   0.426   0.765  17.283 -0.2775  0.7367 -0.4423
 5110SOL    HW226964   0.343   0.654  17.325  1.7307  0.1213  0.0039
 5111SOL     OW26965   4.148   4.130   2.597 -0.8086 -0.1667 -0.5947
 5111SOL    HW126966   4.093   4.163   2.526 -2.4994  2.7915  2.1260
 5111SOL    HW226967   4.230   4.103   2.555  1.1671  1.8677  1.9546
 5112SOL     OW26968   0.260   1.599   2.120 -0.2881  0.4854  0.3099
 5112SOL    HW126969   0.355   1.589   2.126 -0.4544  0.5252  3.0619
 5112SOL    HW226970   0.237   1.559   2.205 -0.3805  0.6066  0.3411
 5113SOL     OW26971   4.230   1.247   1.577 -0.0650 -0.3666  0.7562
 5113SOL    HW126972   4.224   1.157   1.545  0.1414  0.0424 -0.4343
 5113SOL    HW226973   4.325   1.256   1.571  0.0421 -1.8083  0.3473
 5114SOL     OW26974   3.608   1.430   2.322  0.3132  0.9081 -0.4930
 5114SOL    HW126975   3.650   1.370   2.384  1.1965 -0.0285 -1.9707
 5114SOL    HW226976   3.545   1.466   2.384  0.3243 -0.1211  0.1227
 5115SOL     OW26977   4.702   3.585  16.594  0.4315  0.3844  0.0431
 5115SOL    HW126978   4.639   3.584  16.522  0.2403 -0.4519  0.2248
 5115SOL    HW226979   4.652   3.609  16.672 -0.5395 -1.5919  0.0181
 5116SOL     OW26980   2.888   0.375  15.821  0.1990 -0.6137  0.0994
 5116SOL    HW126981   2.806   0.392  15.867  0.1722 -1.5206  0.3794
 5116SOL    HW226982   2.909   0.297  15.873  0.8333  0.3991  1.3394
 5117SOL     OW26983   2.231   1.662  16.891 -0.0392  0.2327  0.8417
 5117SOL    HW126984   2.239   1.667  16.986 -0.7384  0.3190  0.8952
 5117SOL    HW226985   2.175   1.585  16.892  0.0373  0.1943  1.5598
 5118SOL     OW26986   2.983   2.538   7.014  0.0623 -0.1451  0.0394
 5118SOL    HW126987   3.027   2.473   7.068 -1.0187 -1.4686 -0.6600
 5118SOL    HW226988   2.961   2.486   6.937 -3.2782 -0.3269  1.1042
 5119SOL     OW26989   1.665   1.358  14.565 -0.0346  0.2390  0.4845
 5119SOL    HW126990   1.656   1.377  14.472 -0.3051 -2.6139 -0.0858
 5119SOL    HW226991   1.644   1.264  14.570  0.3160  0.0719 -1.0625
 5120SOL     OW26992   4.508   0.599   3.397 -0.6419  0.0549 -0.3420
 5120SOL    HW126993   4.577   0.614   3.462  0.8655 -1.2456 -1.6618
 5120SOL    HW226994   4.469   0.687   3.397 -2.6542 -0.8322 -1.1926
 5121SOL     OW26995   4.439   2.189   3.026 -0.0802  0.0267 -0.1925
 5121SOL    HW126996   4.526   2.149   3.029  0.3599  1.1239  1.7063
 5121SOL    HW226997   4.459   2.248   2.953 -0.8302 -0.8333 -1.0903
 5122SOL     OW26998   1.811   1.759   3.424  0.3047  0.3919  0.2696
 5122SOL    HW126999   1.722   1.793   3.431 -0.0753 -0.4039 -0.7479
 5122SOL    HW227000   1.793   1.665   3.430  0.7665  0.4576  2.7171
 5123SOL     OW27001   3.202   0.596  13.632 -0.5445 -0.2665 -0.3088
 5123SOL    HW127002   3.254   0.614  13.710 -0.8216  0.9831 -0.4182
 5123SOL    HW227003   3.223   0.669  13.574  0.1374  0.5354  0.9590
 5124SOL     OW27004   0.161   2.316  17.105  0.7456 -0.2059 -0.0093
 5124SOL    HW127005   0.183   2.402  17.071  0.1162 -1.1665 -2.8550
 5124SOL    HW227006   0.229   2.289  17.167  0.5680 -1.0158 -0.1658
 5125SOL     OW27007   1.550   3.765   7.418 -0.1708  0.1897  0.2322
 5125SOL    HW127008   1.520   3.765   7.508  1.6902 -0.6300  0.8475
 5125SOL    HW227009   1.591   3.851   7.409 -2.5512  1.4200  1.1804
 5126SOL     OW27010   2.460   4.488   8.868  0.0733  0.3371 -0.0644
 5126SOL    HW127011   2.534   4.536   8.907 -0.1606  1.1300 -0.5961
 5126SOL    HW227012   2.499   4.407   8.837  1.9883  0.7188  1.3865
 5127SOL     OW27013   1.662   2.899   1.435  0.0011 -0.0793  0.3202
 5127SOL    HW127014   1.631   2.850   1.511  3.0014 -0.5544  1.2559
 5127SOL    HW227015   1.639   2.833   1.370  0.5710  1.2799 -1.2932
 5128SOL     OW27016   3.420   4.206   1.762 -0.4115  0.9037  0.1917
 5128SOL    HW127017   3.505   4.235   1.730 -0.2133  0.9271  0.7533
 5128SOL    HW227018   3.387   4.171   1.679  0.9335 -2.2494  0.9965
 5129SOL     OW27019   3.176   3.326  16.219  0.0600  0.5348  0.1146
 5129SOL    HW127020   3.114   3.399  16.220  0.0711  0.5406  0.3679
 5129SOL    HW227021   3.124   3.245  16.213 -0.3991  0.8244  0.1810
 5130SOL     OW27022   2.814   3.253  14.199 -0.1425  0.9053 -0.0143
 5130SOL    HW127023   2.818   3.345  14.225 -0.9757  1.0602 -0.4320
 5130SOL    HW227024   2.800   3.220  14.289 -0.8196  0.0163 -0.4382
 5131SOL     OW27025   2.928   1.113   6.257  0.2844 -0.1035  0.3139
 5131SOL    HW127026   2.883   1.064   6.326 -0.5525 -0.4253 -0.4613
 5131SOL    HW227027   2.982   1.177   6.303 -0.2137 -0.2091  1.0618
 5132SOL     OW27028   1.780   3.945   8.540  0.6898  0.1659  0.4233
 5132SOL    HW127029   1.824   3.937   8.455 -0.3535 -1.6047  0.0381
 5132SOL    HW227030   1.749   4.035   8.535  3.4528  1.2630  4.0620
 5133SOL     OW27031   0.471   3.173   4.432 -0.2064  0.0102 -0.4368
 5133SOL    HW127032   0.440   3.083   4.424 -0.0318 -0.0971  0.1144
 5133SOL    HW227033   0.527   3.171   4.355  1.8846 -3.3233  1.1599
 5134SOL     OW27034   4.444   3.800   9.157 -0.4163 -0.2340  0.2047
 5134SOL    HW127035   4.521   3.820   9.212 -0.2763 -0.1955 -0.0066
 5134SOL    HW227036   4.416   3.891   9.141  0.8470  0.0413 -0.3945
 5135SOL     OW27037   0.036   1.459   1.891 -0.2110  0.1171 -0.0729
 5135SOL    HW127038   4.693   1.488   1.844 -0.9942 -1.1753  0.4236
 5135SOL    HW227039   0.005   1.447   1.981  0.8238  0.3165  0.3125
 5136SOL     OW27040   1.382   3.156   8.210 -0.4825 -0.0667  0.7524
 5136SOL    HW127041   1.458   3.098   8.204 -0.8617 -0.5369  0.4812
 5136SOL    HW227042   1.321   3.083   8.212 -1.0251  0.4420  2.2675
 5137SOL     OW27043   3.486   4.143   4.562 -0.3753 -0.3228  0.2775
 5137SOL    HW127044   3.531   4.222   4.531 -0.6803 -0.3751 -0.3114
 5137SOL    HW227045   3.461   4.096   4.482  1.5343  1.1190 -1.1655
 5138SOL     OW27046   3.928   4.588   6.279 -0.0763 -0.1086 -0.5775
 5138SOL    HW127047   3.834   4.605   6.288 -0.2519 -1.2167 -0.3752
 5138SOL    HW227048   3.954   4.627   6.362  2.2754 -0.0589 -1.3509
 5139SOL     OW27049   2.307   4.077   7.027 -0.1938  0.3520  0.5673
 5139SOL    HW127050   2.371   4.021   7.071  1.1565  0.0480 -1.7766
 5139SOL    HW227051   2.237   4.012   7.026  0.4744 -0.3622 -0.2041
 5140SOL     OW27052   3.549   0.071   8.709 -0.3107 -0.2481  0.6198
 5140SOL    HW127053   3.624   0.068   8.769  0.7546  1.8072 -0.6090
 5140SOL    HW227054   3.487   4.734   8.720 -0.6156 -0.4129 -2.2970
 5141SOL     OW27055   3.714   0.253   3.504  1.0863  0.2359 -0.0765
 5141SOL    HW127056   3.699   0.280   3.595  0.6361 -0.7914  0.1536
 5141SOL    HW227057   3.800   0.293   3.494  0.9781  0.4166 -0.3066
 5142SOL     OW27058   3.316   4.137   6.280  0.1213 -0.0084 -0.1898
 5142SOL    HW127059   3.237   4.087   6.257 -1.4998  1.8476  1.3321
 5142SOL    HW227060   3.319   4.201   6.210  0.7041  0.7701  0.5544
 5143SOL     OW27061   4.661   1.285   4.631  0.2153 -0.1031 -0.1933
 5143SOL    HW127062   4.730   1.218   4.623  0.5320 -0.0980  2.5113
 5143SOL    HW227063   4.579   1.236   4.633  0.7350 -0.8944  2.0868
 5144SOL     OW27064   4.400   4.646  10.971  0.0360  0.1431  0.1955
 5144SOL    HW127065   4.393   4.554  10.946  0.1376  0.6430 -1.6636
 5144SOL    HW227066   4.308   4.672  10.962  0.9024  3.3375  0.9028
 5145SOL     OW27067   1.623   3.809   4.512  0.3571  0.4084 -1.0985
 5145SOL    HW127068   1.635   3.870   4.440  2.1700 -0.4767 -1.5428
 5145SOL    HW227069   1.555   3.858   4.559 -0.1294  0.0258 -1.4031
 5146SOL     OW27070   4.586   2.031   5.255  0.3239 -0.1172  0.3326
 5146SOL    HW127071   4.595   2.100   5.321 -0.6525  0.8468 -0.5614
 5146SOL    HW227072   4.499   1.999   5.279  0.1976  1.3971  1.9089
 5147SOL     OW27073   3.457   3.417   5.803  0.1651 -0.3280 -0.7676
 5147SOL    HW127074   3.400   3.375   5.738 -2.5214  3.1295 -0.6161
 5147SOL    HW227075   3.532   3.452   5.754 -2.0893  3.7969 -1.2716
 5148SOL     OW27076   1.969   0.417   5.818  0.1644 -0.0142 -0.7691
 5148SOL    HW127077   1.880   0.418   5.783 -0.6668  0.8235  1.3904
 5148SOL    HW227078   1.958   0.454   5.905  1.0998 -0.0628 -0.6316
 5149SOL     OW27079   3.150   3.245  15.533 -0.6018  0.1503 -0.1655
 5149SOL    HW127080   3.237   3.237  15.573 -0.4369  1.2770 -0.3191
 5149SOL    HW227081   3.163   3.297  15.454  1.9692 -1.8584 -1.0885
 5150SOL     OW27082   2.836   2.841  16.974 -0.7151 -0.1722 -0.4444
 5150SOL    HW127083   2.805   2.780  17.041  1.6175  0.4610  1.2145
 5150SOL    HW227084   2.928   2.817  16.963 -0.4061  0.4606  0.7166
 5151SOL     OW27085   2.361   2.201  16.510  0.0124 -0.2693 -0.1454
 5151SOL    HW127086   2.448   2.161  16.515 -0.1420 -0.5280  0.4778
 5151SOL    HW227087   2.313   2.125  16.543  1.6019 -0.2989  2.1033
 5152SOL     OW27088   3.596   1.419   8.665  0.3737  0.2792  0.3414
 5152SOL    HW127089   3.526   1.382   8.611  1.7241 -0.0038 -1.2170
 5152SOL    HW227090   3.657   1.444   8.596 -0.9077 -1.3024 -1.3703
 5153SOL     OW27091   1.793   3.995  11.242  0.2235  0.0189  0.6357
 5153SOL    HW127092   1.823   3.935  11.174 -0.1349 -0.3774  0.8181
 5153SOL    HW227093   1.711   4.019  11.199  1.2485 -0.2382 -1.4435
 5154SOL     OW27094   2.587   3.452  12.849 -0.0917 -0.0367 -0.0849
 5154SOL    HW127095   2.677   3.431  12.822 -0.5246 -0.1340 -1.4781
 5154SOL    HW227096   2.536   3.460  12.768 -1.1715  1.1534  0.7155
 5155SOL     OW27097   0.743   0.860   3.344  0.0346  0.2741 -0.0429
 5155SOL    HW127098   0.817   0.801   3.359  0.8745  1.5893  1.0995
 5155SOL    HW227099   0.739   0.903   3.430  1.0553  0.8383 -0.2716
 5156SOL     OW27100   0.491   3.150   2.340  0.6243  0.5926  0.2521
 5156SOL    HW127101   0.531   3.219   2.394 -0.4579  0.0117  1.7871
 5156SOL    HW227102   0.512   3.189   2.255 -0.1337  2.1528  0.7865
 5157SOL     OW27103   0.377   1.023   5.610  0.4318  0.6880 -0.5053
 5157SOL    HW127104   0.412   0.935   5.625  0.8102  0.4560 -2.7564
 5157SOL    HW227105   0.408   1.042   5.521  0.5543 -0.3255 -0.6891
 5158SOL     OW27106   4.566   4.341   6.327 -0.1594  0.2045  0.1814
 5158SOL    HW127107   4.480   4.374   6.303 -0.3984 -0.6053 -0.0581
 5158SOL    HW227108   4.548   4.257   6.368 -0.0120  0.6579  1.1926
 5159SOL     OW27109   4.519   4.437   2.628  0.2429 -0.2511 -0.0282
 5159SOL    HW127110   4.465   4.366   2.661 -0.4514  1.0498  1.6661
 5159SOL    HW227111   4.459   4.507   2.602  0.2060 -0.6678 -1.0543
 5160SOL     OW27112   1.505   0.118   3.496 -0.4993 -0.8958 -0.0050
 5160SOL    HW127113   1.489   0.188   3.560  1.7499 -3.5187  3.4219
 5160SOL    HW227114   1.455   0.050   3.540  0.5025 -2.3858 -1.1856
 5161SOL     OW27115   0.404   0.103   7.298 -0.0641  0.0032  0.5756
 5161SOL    HW127116   0.454   0.024   7.278 -0.1652  0.5944 -2.0568
 5161SOL    HW227117   0.315   0.071   7.285 -0.3185  1.0166 -0.1886
 5162SOL     OW27118   1.622   0.168  12.822 -0.1086 -0.0620 -0.0985
 5162SOL    HW127119   1.590   0.192  12.910 -0.6251 -0.7665 -0.0939
 5162SOL    HW227120   1.683   0.102  12.855 -0.0478 -0.6356 -1.3935
 5163SOL     OW27121   0.399   4.432   2.957 -0.8513  0.7086  0.4134
 5163SOL    HW127122   0.477   4.486   2.947  0.6035 -1.0953  2.0642
 5163SOL    HW227123   0.393   4.393   2.870 -0.5325  0.1669  0.6315
 5164SOL     OW27124   3.108   2.151   6.743 -0.1567 -0.0095  0.4922
 5164SOL    HW127125   3.078   2.126   6.830 -0.8161 -1.1244 -0.0600
 5164SOL    HW227126   3.190   2.102   6.742  0.8050  1.5755  0.7470
 5165SOL     OW27127   3.429   3.361   9.180  0.2145  1.0186  0.0073
 5165SOL    HW127128   3.472   3.301   9.240 -0.6740 -0.8344 -1.1976
 5165SOL    HW227129   3.434   3.294   9.111 -1.8563 -0.5989  1.4677
 5166SOL     OW27130   0.280   3.180  13.599  0.0020  0.9684 -0.4097
 5166SOL    HW127131   0.334   3.106  13.573  1.1467  1.7106 -0.1057
 5166SOL    HW227132   0.308   3.252  13.543 -0.4049  0.4930 -1.2323
 5167SOL     OW27133   4.363   4.117   2.347 -0.3884 -0.1225  0.1346
 5167SOL    HW127134   4.387   4.069   2.427 -2.3070  0.5568  1.1246
 5167SOL    HW227135   4.440   4.175   2.344 -1.1997  0.9167 -0.3530
 5168SOL     OW27136   2.158   3.914   1.787  0.6969 -0.5693  0.0867
 5168SOL    HW127137   2.089   3.858   1.823  1.9074 -1.6207  0.8167
 5168SOL    HW227138   2.222   3.882   1.851  2.8879  2.2402 -0.7128
 5169SOL     OW27139   0.887   3.800   2.315  0.1442 -0.0595  0.5882
 5169SOL    HW127140   0.795   3.775   2.320  0.4726 -0.7520  3.0699
 5169SOL    HW227141   0.902   3.876   2.371  0.4830 -1.0131  1.7717
 5170SOL     OW27142   0.541   1.587   2.170 -0.0070  0.2725 -0.2859
 5170SOL    HW127143   0.616   1.586   2.110  0.3381 -2.3183  0.1851
 5170SOL    HW227144   0.551   1.507   2.221 -1.2543 -0.0987 -0.6173
 5171SOL     OW27145   4.416   3.577   0.254 -0.5590 -0.3111  0.0482
 5171SOL    HW127146   4.510   3.593   0.257 -0.5136 -0.4105 -0.7737
 5171SOL    HW227147   4.404   3.529   0.336  2.6092  0.7748  1.1400
 5172SOL     OW27148   2.960   4.348   0.375 -0.2176  0.2089 -0.0366
 5172SOL    HW127149   2.955   4.376   0.284 -1.2885 -0.7922 -0.2767
 5172SOL    HW227150   2.880   4.393   0.402 -0.9111 -0.2668 -1.3031
 5173SOL     OW27151   3.424   0.620   7.909  0.1852 -0.3294 -0.1939
 5173SOL    HW127152   3.342   0.664   7.932  1.3450  1.2897  0.7731
 5173SOL    HW227153   3.404   0.611   7.815  0.1717 -0.2339 -0.2001
 5174SOL     OW27154   4.115   0.239   8.630 -0.0620 -0.0160 -0.1245
 5174SOL    HW127155   4.135   0.163   8.686 -0.1790  0.4263  0.5221
 5174SOL    HW227156   4.148   0.201   8.549 -0.0610  0.4777 -0.3546
 5175SOL     OW27157   0.820   0.579   5.870 -0.3726  0.0723 -0.1043
 5175SOL    HW127158   0.895   0.612   5.920 -1.8751  1.7708  0.9754
 5175SOL    HW227159   0.804   0.637   5.796  0.1838  1.4141  0.8231
 5176SOL     OW27160   4.054   1.168   6.529 -0.4678 -0.8947  0.4332
 5176SOL    HW127161   4.063   1.244   6.471 -2.0218  0.5992  2.1609
 5176SOL    HW227162   3.962   1.162   6.554 -0.6566 -2.7891 -0.6423
 5177SOL     OW27163   2.937   3.710   4.570  0.5610  0.1467  0.1402
 5177SOL    HW127164   2.880   3.633   4.578  1.7936 -1.0731 -3.0483
 5177SOL    HW227165   3.013   3.667   4.530  1.3611  2.6248 -0.9738
 5178SOL     OW27166   4.512   2.273  14.678  0.2240  0.1710 -0.3555
 5178SOL    HW127167   4.604   2.249  14.678  0.0509 -0.5069 -1.6724
 5178SOL    HW227168   4.462   2.195  14.652  0.1836 -0.0642  0.4352
 5179SOL     OW27169   4.246   0.904  11.297 -0.0129  0.0675  0.0442
 5179SOL    HW127170   4.250   0.938  11.386 -1.1360  0.1140  0.0835
 5179SOL    HW227171   4.168   0.949  11.261  1.8075  0.4017 -3.4992
 5180SOL     OW27172   4.709   2.108   9.121  0.5056  0.2602  0.4611
 5180SOL    HW127173   4.680   2.088   9.032 -0.4992  1.1551  0.5828
 5180SOL    HW227174   4.681   2.199   9.129 -0.3415  0.0153  0.3489
 5181SOL     OW27175   2.593   0.180  16.201 -0.4265 -0.6483  0.3019
 5181SOL    HW127176   2.676   0.147  16.236 -0.8511 -1.7629  0.2813
 5181SOL    HW227177   2.570   0.106  16.144 -1.7719  0.5989 -0.7592
 5182SOL     OW27178   0.659   2.634  16.097 -0.3654 -0.3037 -0.1260
 5182SOL    HW127179   0.672   2.612  16.189  2.2470 -0.2024 -0.4754
 5182SOL    HW227180   0.671   2.729  16.097 -0.6815 -0.2662 -2.2881
 5183SOL     OW27181   4.406   0.782  12.204 -0.1268 -0.1298 -0.0675
 5183SOL    HW127182   4.438   0.797  12.115 -0.5179 -1.6695 -0.4700
 5183SOL    HW227183   4.478   0.832  12.243  0.9263 -3.0597  1.7793
 5184SOL     OW27184   3.503   2.039   8.907 -0.0828 -0.2012  0.5788
 5184SOL    HW127185   3.562   2.065   8.836  2.6462 -0.2211  2.8476
 5184SOL    HW227186   3.515   2.115   8.963  0.2456  0.1808 -0.0043
 5185SOL     OW27187   2.120   3.980   6.746 -0.7043 -0.0725 -0.0807
 5185SOL    HW127188   2.102   3.923   6.821 -1.0759  2.5307  1.8161
 5185SOL    HW227189   2.147   3.921   6.675  0.2898 -1.5195  1.5097
 5186SOL     OW27190   3.943   2.461   5.530  0.0985  0.0655 -0.3573
 5186SOL    HW127191   4.003   2.517   5.579 -1.3309  0.6769  0.6876
 5186SOL    HW227192   3.868   2.520   5.535 -0.0899 -0.1823 -0.2401
 5187SOL     OW27193   4.577   1.221   5.104  0.0151  0.9132  0.1101
 5187SOL    HW127194   4.586   1.289   5.037  0.4737  0.4708 -0.2806
 5187SOL    HW227195   4.490   1.242   5.136 -0.0831  0.3585  0.2093
 5188SOL     OW27196   2.425   4.655  11.817 -0.2491 -0.2306 -0.1669
 5188SOL    HW127197   2.511   4.615  11.803 -1.1206 -1.5702 -1.6451
 5188SOL    HW227198   2.401   4.619  11.902 -2.1495  0.4112 -0.4214
 5189SOL     OW27199   1.608   0.030   8.269 -0.6280  0.0805  0.5057
 5189SOL    HW127200   1.682   0.078   8.231 -0.7201 -1.0269 -1.0453
 5189SOL    HW227201   1.547   0.032   8.196 -0.1086 -2.4837  0.0232
 5190SOL     OW27202   0.406   2.327   7.303  0.7005 -0.2674  0.1871
 5190SOL    HW127203   0.422   2.416   7.335 -1.7411  0.1374  0.2774
 5190SOL    HW227204   0.392   2.279   7.384  2.4040 -1.4818 -0.2297
 5191SOL     OW27205   3.676   2.315   8.821 -0.5705 -0.0217  0.8492
 5191SOL    HW127206   3.665   2.381   8.752  0.2041  0.0717  0.8176
 5191SOL    HW227207   3.749   2.264   8.786  0.7284  0.8881  2.2535
 5192SOL     OW27208   2.192   4.343   7.029  0.2963  0.7263 -0.3341
 5192SOL    HW127209   2.117   4.345   7.087  2.1391 -1.1881  2.0785
 5192SOL    HW227210   2.213   4.250   7.025  1.0346  0.9519 -1.8040
 5193SOL     OW27211   0.969   2.152   5.307 -0.0812  0.2965 -0.4793
 5193SOL    HW127212   0.936   2.240   5.287  2.5550  0.8572 -2.2612
 5193SOL    HW227213   1.045   2.154   5.250 -1.0368  2.1973 -1.6746
 5194SOL     OW27214   0.266   3.112   9.194  0.4779  0.3130 -0.3090
 5194SOL    HW127215   0.286   3.071   9.278 -0.6733  3.0148  1.2893
 5194SOL    HW227216   0.219   3.045   9.145 -2.3810  1.4837  0.8071
 5195SOL     OW27217   1.945   1.562   8.740 -0.2051  0.2427 -0.8083
 5195SOL    HW127218   2.021   1.617   8.758  0.9807 -2.0518  1.1521
 5195SOL    HW227219   1.887   1.626   8.697 -2.3948 -2.3595 -1.7631
 5196SOL     OW27220   1.970   1.328   6.522 -0.2198 -0.3016 -0.4046
 5196SOL    HW127221   1.936   1.239   6.530 -1.4445  0.0361 -1.9029
 5196SOL    HW227222   1.928   1.375   6.594  1.7155  0.3410  0.3131
 5197SOL     OW27223   3.437   3.013  14.879 -0.1361  0.2346  0.2137
 5197SOL    HW127224   3.486   3.020  14.797  1.2771 -0.5621  0.9993
 5197SOL    HW227225   3.500   3.070  14.923 -0.8372 -1.1448  3.0154
 5198SOL     OW27226   3.445   2.090   0.758 -0.4642 -0.4946  0.1154
 5198SOL    HW127227   3.353   2.072   0.739 -0.7166  1.0456 -0.1357
 5198SOL    HW227228   3.453   2.120   0.848  0.6049  0.2237 -0.2043
 5199SOL     OW27229   2.921   3.699   8.844  0.8698 -0.0204 -0.4498
 5199SOL    HW127230   2.949   3.769   8.786  0.2034  0.0741 -0.6504
 5199SOL    HW227231   2.845   3.662   8.799  0.6622  0.6020 -0.5975
 5200SOL     OW27232   2.901   2.667  16.601  0.7556 -0.2180  0.4093
 5200SOL    HW127233   2.881   2.755  16.632  0.9760 -0.5110  1.3634
 5200SOL    HW227234   2.980   2.653  16.653 -0.1207  0.0710  1.7997
 5201SOL     OW27235   4.579   0.148   1.925  0.6143  0.5034 -0.0819
 5201SOL    HW127236   4.668   0.125   1.955  0.3513 -1.1839 -0.6067
 5201SOL    HW227237   4.604   0.166   1.835 -2.7100 -0.4744 -1.1935
 5202SOL     OW27238   1.879   0.160   7.827  0.2960 -0.4134 -0.3840
 5202SOL    HW127239   1.875   0.104   7.904  2.3078 -1.2733 -0.9227
 5202SOL    HW227240   1.952   0.220   7.843  0.3399  0.0807 -2.3782
 5203SOL     OW27241   0.065   0.210  10.291 -0.1487 -0.2990  0.3620
 5203SOL    HW127242   0.044   0.116  10.292 -0.5038 -0.2321 -1.4782
 5203SOL    HW227243   4.709   0.239  10.286  0.1147  0.2449 -1.4009
 5204SOL     OW27244   3.714   2.862   9.459  0.4497  0.1600  0.2233
 5204SOL    HW127245   3.623   2.852   9.433  0.0088  0.7671  1.5371
 5204SOL    HW227246   3.764   2.813   9.394 -1.0801 -1.0191 -0.0444
 5205SOL     OW27247   4.282   0.544   8.828 -0.3856 -0.3763  0.7146
 5205SOL    HW127248   4.315   0.578   8.911  1.0531 -1.7000  0.6842
 5205SOL    HW227249   4.196   0.586   8.822 -0.6902 -1.1292 -0.2553
 5206SOL     OW27250   4.061   3.979   4.804  0.1101  0.0427  0.0133
 5206SOL    HW127251   4.064   4.069   4.772 -1.2481  0.1646  0.2340
 5206SOL    HW227252   4.053   3.996   4.898  0.3111 -1.9668  0.3821
 5207SOL     OW27253   0.959   2.946   5.108  0.1231 -0.1984  0.0825
 5207SOL    HW127254   1.013   2.998   5.167  0.5594  0.9469 -1.3071
 5207SOL    HW227255   0.936   3.011   5.041 -1.1294  0.0561  0.7603
 5208SOL     OW27256   0.909   4.481   5.333 -0.2016 -0.2234 -0.1810
 5208SOL    HW127257   0.835   4.522   5.289 -0.6660  0.1104  0.9363
 5208SOL    HW227258   0.872   4.410   5.386 -0.0906 -0.2892 -0.1901
 5209SOL     OW27259   3.724   2.727   6.716  0.1811 -0.3000  0.1817
 5209SOL    HW127260   3.665   2.794   6.750 -1.4715 -0.2639 -2.7832
 5209SOL    HW227261   3.678   2.643   6.717 -1.9204  0.8603  0.7501
 5210SOL     OW27262   3.341   2.099   7.176  0.5269  0.7804 -0.2712
 5210SOL    HW127263   3.429   2.086   7.140  0.1947  1.7464 -1.4539
 5210SOL    HW227264   3.333   2.193   7.194 -0.6817  0.2252  2.0182
 5211SOL     OW27265   4.277   3.412   3.403  0.3490  0.3262 -0.3044
 5211SOL    HW127266   4.283   3.458   3.319  0.4940  1.6793  0.4413
 5211SOL    HW227267   4.369   3.399   3.427 -0.0379 -0.9135  0.4946
 5212SOL     OW27268   4.362   1.186   6.181  0.3787  0.0721 -0.0694
 5212SOL    HW127269   4.349   1.197   6.087 -0.5547  0.2097  0.0728
 5212SOL    HW227270   4.458   1.187   6.181  0.3709  0.5846  0.7070
 5213SOL     OW27271   2.119   3.360   1.669  0.1492  0.0349 -0.8530
 5213SOL    HW127272   2.127   3.287   1.608 -0.2974 -0.4859 -0.2868
 5213SOL    HW227273   2.138   3.318   1.753  1.5673 -0.9385 -1.6454
 5214SOL     OW27274   1.158   2.691   6.585  0.3808 -0.2938 -0.1819
 5214SOL    HW127275   1.065   2.685   6.603 -0.0430  0.9396 -1.9342
 5214SOL    HW227276   1.157   2.782   6.556  2.9924 -0.1481  0.1327
 5215SOL     OW27277   0.398   1.635   3.385 -0.6369  0.1405  0.0620
 5215SOL    HW127278   0.373   1.546   3.364 -0.0551 -0.5228  2.2021
 5215SOL    HW227279   0.332   1.665   3.447  0.9895  1.6948  1.0637
 5216SOL     OW27280   1.906   4.677   4.775  0.0516 -0.2271 -0.2907
 5216SOL    HW127281   1.911   4.600   4.832  0.2944 -2.2450 -2.9992
 5216SOL    HW227282   1.988   4.719   4.800 -0.8089  0.1344  1.9248
 5217SOL     OW27283   2.189   3.464   7.453 -0.5270  0.5629 -0.1170
 5217SOL    HW127284   2.255   3.429   7.394 -1.9328 -0.2118 -1.2218
 5217SOL    HW227285   2.111   3.409   7.447  0.3964 -0.7228 -0.2377
 5218SOL     OW27286   3.126   2.456   0.055 -0.0899  0.2547  0.8125
 5218SOL    HW127287   3.114   2.382   0.115  0.2150 -1.3252 -1.0983
 5218SOL    HW227288   3.117   2.534   0.110  1.0096  0.6058  0.4834
 5219SOL     OW27289   2.002   3.773   2.570  0.0252 -0.3999 -0.8794
 5219SOL    HW127290   1.925   3.760   2.514 -2.2229 -1.1085  2.3299
 5219SOL    HW227291   1.967   3.760   2.658  1.5233  0.5783 -0.1347
 5220SOL     OW27292   1.675   2.088  12.615 -0.0365  0.6298  0.0471
 5220SOL    HW127293   1.628   2.160  12.573  0.5992 -0.6849 -2.9203
 5220SOL    HW227294   1.725   2.050  12.543  2.0387  1.0107  1.2838
 5221SOL     OW27295   1.638   0.625   3.233  0.2885 -0.1678  0.0311
 5221SOL    HW127296   1.726   0.590   3.221  0.4379 -0.4252  1.8740
 5221SOL    HW227297   1.587   0.547   3.256 -3.1638  1.4506 -2.0560
 5222SOL     OW27298   1.852   1.839  11.681  0.0788  0.4268 -0.6127
 5222SOL    HW127299   1.845   1.933  11.696 -0.4712  0.3209 -0.2026
 5222SOL    HW227300   1.769   1.807  11.716  0.8038 -2.5517 -1.5557
 5223SOL     OW27301   2.954   2.600   5.368  0.6681  0.1207 -0.1234
 5223SOL    HW127302   2.970   2.521   5.317  1.2464  0.6978 -0.8361
 5223SOL    HW227303   2.900   2.569   5.441  0.1845  2.4405  0.4946
 5224SOL     OW27304   3.187   2.477   4.273 -0.0365 -0.5575 -0.1440
 5224SOL    HW127305   3.170   2.411   4.206 -0.4126 -0.2081 -0.3942
 5224SOL    HW227306   3.105   2.526   4.275  0.9402  1.0463  1.3834
 5225SOL     OW27307   0.746   3.764   8.801 -0.1161 -0.1732 -0.0083
 5225SOL    HW127308   0.780   3.714   8.875  1.5114  0.5667 -0.2442
 5225SOL    HW227309   0.815   3.828   8.783  0.7103 -0.8779  0.6660
 5226SOL     OW27310   1.856   0.282  17.676  0.5535  0.0934  0.3581
 5226SOL    HW127311   1.798   0.284   0.012  1.0957  0.1616  0.7752
 5226SOL    HW227312   1.837   0.207  17.619  1.0341 -0.6624  1.1824
 5227SOL     OW27313   4.184   0.723  17.256  0.0308 -0.1788  0.7388
 5227SOL    HW127314   4.259   0.736  17.314 -1.5877  0.5184  2.6592
 5227SOL    HW227315   4.188   0.627  17.250  0.3309  0.0046 -2.0715
 5228SOL     OW27316   1.308   0.723  14.719  0.2229  0.0854  0.2157
 5228SOL    HW127317   1.296   0.629  14.706 -2.6462  0.3286  1.2132
 5228SOL    HW227318   1.401   0.728  14.697  0.0278  1.3317 -0.3086
 5229SOL     OW27319   4.520   4.283  13.789  0.0708  0.1012 -0.1837
 5229SOL    HW127320   4.503   4.362  13.840  1.2291 -1.0950  2.0462
 5229SOL    HW227321   4.613   4.270  13.806  0.2763  0.0032 -1.3875
 5230SOL     OW27322   1.379   3.036   6.951 -0.1823 -0.5628  0.1666
 5230SOL    HW127323   1.345   3.051   6.862 -1.1510 -1.3053  0.4111
 5230SOL    HW227324   1.466   2.998   6.942  0.6661  1.2821  0.6011
 5231SOL     OW27325   4.132   3.964  16.727  0.3541  0.0665 -0.0405
 5231SOL    HW127326   4.131   3.942  16.821  2.4821  1.1666  0.2371
 5231SOL    HW227327   4.043   3.938  16.702  1.6695 -3.2961 -1.1473
 5232SOL     OW27328   2.339   2.287   3.328  0.5713 -0.4585 -0.8504
 5232SOL    HW127329   2.283   2.216   3.357 -0.2665 -0.3290 -2.1280
 5232SOL    HW227330   2.271   2.340   3.284  0.3736  0.5401  0.6490
 5233SOL     OW27331   3.415   3.030  11.212 -0.4261  0.1454 -0.5824
 5233SOL    HW127332   3.369   3.011  11.294  0.9916 -1.0704 -0.0671
 5233SOL    HW227333   3.380   2.964  11.153  0.6302 -0.2886 -0.7212
 5234SOL     OW27334   0.592   3.809   7.449  0.4743  0.0713 -0.7054
 5234SOL    HW127335   0.641   3.831   7.528  1.3190 -0.5917 -1.0362
 5234SOL    HW227336   0.601   3.714   7.440  0.6555  0.0463 -0.2510
 5235SOL     OW27337   3.489   0.624   0.204 -0.4388  0.1547 -0.7857
 5235SOL    HW127338   3.446   0.554   0.253  1.0025  0.9007  1.5539
 5235SOL    HW227339   3.569   0.586   0.167 -1.5372 -1.2332 -1.7346
 5236SOL     OW27340   1.064   0.136  15.886  0.9338  0.0572 -0.5550
 5236SOL    HW127341   1.108   0.115  15.804 -0.5275  0.8551 -1.5474
 5236SOL    HW227342   1.010   0.211  15.865 -0.0772 -0.7366 -0.8071
 5237SOL     OW27343   3.304   0.007   4.653  0.4777  0.5240 -0.2713
 5237SOL    HW127344   3.343   0.093   4.643  2.4144 -0.2396  0.6347
 5237SOL    HW227345   3.217   0.007   4.612  0.8284 -0.5653 -1.0504
 5238SOL     OW27346   4.684   2.412   3.251  0.0010 -0.0977  0.0071
 5238SOL    HW127347   4.688   2.318   3.264  1.5743  0.0369  0.5575
 5238SOL    HW227348   4.594   2.422   3.221  0.5371 -0.1993 -1.6422
 5239SOL     OW27349   2.115   4.001   4.269  0.6089  0.0818  0.1229
 5239SOL    HW127350   2.171   4.017   4.346 -1.9280 -0.1603  2.0326
 5239SOL    HW227351   2.076   3.916   4.289 -0.9988  0.3670 -1.8557
 5240SOL     OW27352   1.499   2.968   4.663 -0.7842  0.2362  0.5031
 5240SOL    HW127353   1.585   2.969   4.705 -0.0039 -2.2943 -1.0210
 5240SOL    HW227354   1.454   2.922   4.733 -1.2659  0.4553  0.3379
 5241SOL     OW27355   3.479   4.310   5.729  0.0705  0.3417  0.2176
 5241SOL    HW127356   3.448   4.225   5.757 -1.1370  1.2191  1.5028
 5241SOL    HW227357   3.573   4.296   5.741  0.0067  1.5089  2.0760
 5242SOL     OW27358   0.790   1.444   7.051  0.0988 -0.2970  0.2089
 5242SOL    HW127359   0.791   1.494   6.970 -1.0513 -0.0990  0.3171
 5242SOL    HW227360   0.695   1.429   7.058  0.1300 -1.0741 -1.2239
 5243SOL     OW27361   3.838   1.672   3.794  0.1445 -0.5344  0.2127
 5243SOL    HW127362   3.900   1.733   3.834  0.8499 -1.6791  0.8611
 5243SOL    HW227363   3.778   1.726   3.743 -0.8102  0.1492  2.0624
 5244SOL     OW27364   1.900   0.318  10.123 -0.5983  0.0487  0.0331
 5244SOL    HW127365   1.971   0.279  10.072  0.8022  0.1784  1.8996
 5244SOL    HW227366   1.953   0.367  10.185 -0.1317 -1.5539  0.9077
 5245SOL     OW27367   2.020   0.969  17.210 -0.0963 -0.3651 -0.0473
 5245SOL    HW127368   2.113   0.992  17.200 -0.4996  0.3132 -2.3391
 5245SOL    HW227369   1.971   1.040  17.170 -0.8476 -1.1046 -0.4320
 5246SOL     OW27370   3.291   3.489   7.029  0.1903 -0.7987  0.3531
 5246SOL    HW127371   3.351   3.426   6.991  1.5254 -0.2280  1.4978
 5246SOL    HW227372   3.298   3.563   6.968  2.7464 -2.0884 -0.8723
 5247SOL     OW27373   3.983   3.674  15.171  0.1359  0.4772  0.1827
 5247SOL    HW127374   3.939   3.648  15.091  2.8211 -2.5952 -0.3068
 5247SOL    HW227375   3.957   3.765  15.184  0.3548  1.0044 -3.1702
 5248SOL     OW27376   4.140   0.263   3.749  0.4705 -0.5611 -0.0881
 5248SOL    HW127377   4.103   0.326   3.688  0.6259 -0.1175  0.2733
 5248SOL    HW227378   4.069   0.199   3.756  0.7103 -0.9109 -0.8514
 5249SOL     OW27379   3.733   4.577   5.135  0.4351 -0.4455  0.6007
 5249SOL    HW127380   3.762   4.639   5.202 -1.5720 -2.2274  3.1160
 5249SOL    HW227381   3.722   4.496   5.185 -1.6693 -0.0698  0.7296
 5250SOL     OW27382   1.805   4.715   9.119 -0.2650 -0.1029  0.2330
 5250SOL    HW127383   1.776   0.056   9.068  0.0345  0.9834  1.6899
 5250SOL    HW227384   1.859   0.026   9.183 -1.1645 -2.2661  2.5296
 5251SOL     OW27385   3.233   3.898   1.844 -0.3593 -0.0986  0.4602
 5251SOL    HW127386   3.290   3.821   1.842 -1.2694 -0.7154 -1.6964
 5251SOL    HW227387   3.218   3.921   1.752  0.1290  0.9621  0.6511
 5252SOL     OW27388   3.774   3.774   5.482  0.2714  0.4267 -0.4261
 5252SOL    HW127389   3.840   3.735   5.539  0.1441  0.6182 -0.1434
 5252SOL    HW227390   3.812   3.784   5.395 -1.8768  1.0274 -1.2966
 5253SOL     OW27391   0.040   3.261  15.877  0.4908 -0.5398  0.2809
 5253SOL    HW127392   0.059   3.273  15.970  1.6103 -0.4612  0.0404
 5253SOL    HW227393   0.126   3.273  15.837  1.3304 -1.7542  1.7284
 5254SOL     OW27394   2.880   3.284   7.193  0.2257  0.0561 -0.4671
 5254SOL    HW127395   2.901   3.216   7.257  0.6420  1.2235  0.6446
 5254SOL    HW227396   2.821   3.333   7.250  1.1305 -2.5978  2.7585
 5255SOL     OW27397   1.985   0.097  11.526  0.5069 -0.1601 -0.7476
 5255SOL    HW127398   1.986   0.119  11.432 -1.4058 -2.5374 -1.3135
 5255SOL    HW227399   2.075   0.066  11.538  1.2259  1.6827 -1.3435
 5256SOL     OW27400   2.466   1.295  17.283 -0.2515 -0.2023  0.0916
 5256SOL    HW127401   2.494   1.228  17.220 -3.8132 -1.6697  0.0381
 5256SOL    HW227402   2.447   1.233  17.354 -0.3630  1.2162  1.3000
 5257SOL     OW27403   0.544   4.324   2.075  0.2689  0.1716  0.1345
 5257SOL    HW127404   0.467   4.268   2.090 -0.3837  1.1488  0.4024
 5257SOL    HW227405   0.607   4.282   2.133  1.7879  0.6292 -1.1884
 5258SOL     OW27406   4.069   2.777   9.131  0.3096 -0.7402 -0.3168
 5258SOL    HW127407   4.095   2.858   9.087  2.1757 -1.0384  0.2332
 5258SOL    HW227408   4.152   2.741   9.161 -0.3751 -0.4736  1.8749
 5259SOL     OW27409   0.075   3.020   1.598  0.0745  0.5542  0.1788
 5259SOL    HW127410   0.099   3.006   1.690  1.0188  0.6167 -0.0522
 5259SOL    HW227411   4.724   2.979   1.605  0.9411 -1.4316 -0.8206
 5260SOL     OW27412   0.859   0.982   0.455  0.1849 -0.2112  0.3139
 5260SOL    HW127413   0.905   0.926   0.394 -2.3621 -2.5636  0.5628
 5260SOL    HW227414   0.932   1.021   0.505  0.7247 -1.3697  0.4203
 5261SOL     OW27415   3.613   3.439   4.891 -0.4593 -0.0007 -0.4315
 5261SOL    HW127416   3.663   3.447   4.810  1.1548 -1.0356  0.4604
 5261SOL    HW227417   3.681   3.415   4.954  0.8129 -0.4482 -1.9598
 5262SOL     OW27418   2.592   2.504  13.456 -0.2596 -0.1435  0.7414
 5262SOL    HW127419   2.614   2.537  13.543 -0.6268  0.0357  0.7707
 5262SOL    HW227420   2.550   2.420  13.473 -1.6447  0.2503 -0.6729
 5263SOL     OW27421   2.539   3.355   2.103  0.1004 -0.0012 -0.4502
 5263SOL    HW127422   2.604   3.330   2.168  0.4378 -0.3255 -0.9059
 5263SOL    HW227423   2.453   3.352   2.145  0.4640  2.3399  0.4184
 5264SOL     OW27424   3.316   4.136   3.863 -0.1811 -0.2902  0.1170
 5264SOL    HW127425   3.300   4.194   3.788  1.7619 -1.5168 -1.2685
 5264SOL    HW227426   3.355   4.065   3.812  0.6546 -0.0902  0.4743
 5265SOL     OW27427   4.280   2.557   4.547  0.3529  0.5974  0.1358
 5265SOL    HW127428   4.362   2.586   4.587  1.5685 -0.6251 -1.5184
 5265SOL    HW227429   4.244   2.638   4.510 -0.8338 -0.1387 -0.3217
 5266SOL     OW27430   2.033   4.416   2.192 -0.3273 -0.3764  1.0499
 5266SOL    HW127431   1.951   4.436   2.147  0.5740  0.2606 -0.3376
 5266SOL    HW227432   2.054   4.329   2.159  1.2480  0.5849 -0.5007
 5267SOL     OW27433   0.715   4.507  17.125  0.5963  0.0782 -0.0540
 5267SOL    HW127434   0.727   4.555  17.042 -1.1353 -0.4291 -0.5966
 5267SOL    HW227435   0.803   4.471  17.139  1.0010  1.9965  2.2199
 5268SOL     OW27436   0.769   3.952  14.447  1.0497 -0.1973  0.2115
 5268SOL    HW127437   0.776   3.929  14.540  3.2790 -1.0624 -0.1708
 5268SOL    HW227438   0.673   3.950  14.448  1.0546 -0.4940  0.3770
 5269SOL     OW27439   1.842   0.214  14.756 -0.6786 -0.4585 -0.6823
 5269SOL    HW127440   1.861   0.197  14.849  1.4706  2.7945 -0.5178
 5269SOL    HW227441   1.770   0.277  14.763  0.0871  0.3745 -0.2303
 5270SOL     OW27442   3.571   0.979   4.192 -0.1598  0.2235  0.3440
 5270SOL    HW127443   3.535   0.895   4.165  0.9212 -0.0247 -0.3150
 5270SOL    HW227444   3.666   0.977   4.187 -0.1240  0.0889  1.0395
 5271SOL     OW27445   3.352   0.541   5.761 -0.4688  0.4199  0.2280
 5271SOL    HW127446   3.390   0.580   5.682  2.4469  1.3155  2.0722
 5271SOL    HW227447   3.346   0.620   5.815  1.6295 -0.8613  2.3004
 5272SOL     OW27448   1.372   4.322   8.653  0.3082 -0.1913 -0.6752
 5272SOL    HW127449   1.277   4.325   8.644  0.0781  1.1402  2.3146
 5272SOL    HW227450   1.396   4.238   8.614 -0.3135 -0.5938 -0.1805
 5273SOL     OW27451   1.785   1.387   3.051 -0.5760 -0.1224  0.4570
 5273SOL    HW127452   1.803   1.328   2.978 -3.4034 -1.3069  0.6995
 5273SOL    HW227453   1.821   1.462   3.005 -0.4039 -0.9714 -0.7926
 5274SOL     OW27454   1.450   2.809   6.500  0.0847 -0.7587  0.5966
 5274SOL    HW127455   1.409   2.737   6.453 -1.7143  1.3530 -1.1092
 5274SOL    HW227456   1.517   2.855   6.450  1.1751 -2.6722  0.3277
 5275SOL     OW27457   0.612   1.530  14.443  0.1949  0.5655  0.3216
 5275SOL    HW127458   0.587   1.577  14.523  0.1434  0.5284  0.3270
 5275SOL    HW227459   0.534   1.535  14.389 -2.8790  0.9088  4.7312
 5276SOL     OW27460   4.237   0.168   4.539  0.2450  0.7411 -0.6635
 5276SOL    HW127461   4.147   0.193   4.561 -0.5919 -2.7727  0.0003
 5276SOL    HW227462   4.223   0.075   4.519 -2.5262  1.1877 -0.7209
 5277SOL     OW27463   1.844   0.564   6.294 -0.1300  0.1089  0.1362
 5277SOL    HW127464   1.748   0.560   6.290 -0.1252 -0.0004  0.1282
 5277SOL    HW227465   1.864   0.648   6.336  2.1461  0.0882 -0.9506
 5278SOL     OW27466   1.913   2.687   2.688 -0.5778 -0.4402 -0.0968
 5278SOL    HW127467   1.867   2.745   2.749 -0.1015  0.0960 -0.2527
 5278SOL    HW227468   1.912   2.735   2.606  2.5317 -0.4813 -0.1461
 5279SOL     OW27469   0.702   1.301   6.736  0.4926 -0.7422 -0.7111
 5279SOL    HW127470   0.715   1.243   6.660 -0.1804  0.4447 -1.7333
 5279SOL    HW227471   0.787   1.308   6.779  1.7996 -0.0789 -3.3728
 5280SOL     OW27472   1.350   3.015   6.672 -0.1763  0.1915 -0.4284
 5280SOL    HW127473   1.413   3.084   6.651  0.2117  0.3434  1.2709
 5280SOL    HW227474   1.392   2.947   6.619 -3.5266 -0.3067 -2.4767
 5281SOL     OW27475   1.297   0.398  13.280  0.4321 -0.6739 -0.8110
 5281SOL    HW127476   1.339   0.327  13.328 -0.5765 -1.0063 -0.4090
 5281SOL    HW227477   1.292   0.361  13.192  0.3673 -2.7276  0.0625
 5282SOL     OW27478   1.762   4.409   5.117 -0.1555  0.6645 -0.0782
 5282SOL    HW127479   1.728   4.482   5.167 -0.8727  0.2726  0.0085
 5282SOL    HW227480   1.770   4.341   5.183  0.2775 -0.3635 -1.1842
 5283SOL     OW27481   1.176   4.171   2.331  0.1229 -0.2124 -0.2454
 5283SOL    HW127482   1.176   4.111   2.405  0.8671  2.4013  1.8598
 5283SOL    HW227483   1.158   4.252   2.377  1.9934 -1.4436  2.6736
 5284SOL     OW27484   3.822   1.405  17.616  0.6073 -0.3228 -0.5737
 5284SOL    HW127485   3.886   1.407  17.687  0.7999  1.2776 -0.8027
 5284SOL    HW227486   3.743   1.403  17.670  1.3724  0.3725  0.5724
 5285SOL     OW27487   4.298   3.435  15.464  0.2807 -0.2495 -0.6072
 5285SOL    HW127488   4.258   3.468  15.544  1.2510 -0.9077  0.1397
 5285SOL    HW227489   4.300   3.340  15.477  1.8173 -0.4117 -2.0483
 5286SOL     OW27490   2.531   0.271   9.731 -0.2961  0.4758 -0.3129
 5286SOL    HW127491   2.505   0.304   9.817 -1.3270 -0.4644 -0.2641
 5286SOL    HW227492   2.626   0.274   9.737 -0.1438 -1.1840 -1.9387
 5287SOL     OW27493   1.503   3.477  17.505 -0.0814 -1.1073 -0.6527
 5287SOL    HW127494   1.511   3.453  17.413 -1.2668 -0.2112 -1.0026
 5287SOL    HW227495   1.423   3.429  17.527 -0.8846  1.4782  2.1318
 5288SOL     OW27496   0.891   0.133  12.276 -0.1378  0.0791  0.2534
 5288SOL    HW127497   0.873   0.041  12.257  0.8423  0.5595 -2.9954
 5288SOL    HW227498   0.855   0.183  12.203 -0.7844 -0.8113 -0.0337
 5289SOL     OW27499   2.392   1.564  14.839 -0.4929 -0.5630 -0.0793
 5289SOL    HW127500   2.332   1.627  14.879 -0.1592 -0.4068  0.1789
 5289SOL    HW227501   2.340   1.512  14.779  0.6964 -1.7131 -0.1236
 5290SOL     OW27502   0.578   3.401   4.556 -0.0910  0.7473  0.5884
 5290SOL    HW127503   0.652   3.356   4.517  0.0522  3.2982 -2.0666
 5290SOL    HW227504   0.518   3.326   4.567 -1.7510  1.9962  0.0145
 5291SOL     OW27505   3.972   3.296   3.278  0.0880 -0.2326 -0.0281
 5291SOL    HW127506   4.051   3.329   3.235  0.1448 -0.1978  0.1037
 5291SOL    HW227507   3.995   3.207   3.304  1.0546  0.1932  0.5899
 5292SOL     OW27508   3.300   3.588   9.309 -0.2786 -0.2514 -0.3930
 5292SOL    HW127509   3.321   3.502   9.272  2.5067 -0.0224  0.6445
 5292SOL    HW227510   3.378   3.644   9.307  0.4054 -1.1787  0.7491
 5293SOL     OW27511   3.165   1.444   2.951 -0.6645  0.0611 -0.2233
 5293SOL    HW127512   3.183   1.408   3.038 -3.0249  1.1658  0.7032
 5293SOL    HW227513   3.180   1.538   2.959  0.6302  0.1393 -3.3946
 5294SOL     OW27514   3.655   1.624   1.278  0.1110 -0.5875 -0.5151
 5294SOL    HW127515   3.677   1.671   1.358 -1.9908 -0.9275  0.2569
 5294SOL    HW227516   3.574   1.672   1.258  1.5080  0.8232 -2.8046
 5295SOL     OW27517   0.268   2.095   1.349 -0.5036 -0.8534  0.0735
 5295SOL    HW127518   0.351   2.137   1.372  0.0503 -1.7347 -0.3316
 5295SOL    HW227519   0.236   2.065   1.434 -1.1411  1.7451  0.7449
 5296SOL     OW27520   3.915   3.498  13.582  0.1556 -0.7661  0.7887
 5296SOL    HW127521   3.837   3.449  13.607 -0.9367 -0.1743 -1.3728
 5296SOL    HW227522   3.877   3.566  13.526 -0.3543 -1.4306  0.3295
 5297SOL     OW27523   4.512   2.601  15.063 -0.1394 -0.6568 -0.3644
 5297SOL    HW127524   4.513   2.677  15.004  3.1910  0.3038  0.9335
 5297SOL    HW227525   4.475   2.540  15.000  0.3702 -1.2647 -0.0684
 5298SOL     OW27526   1.244   2.570   4.229  0.2879 -0.0906  0.8167
 5298SOL    HW127527   1.252   2.529   4.315 -1.4646  0.7261  1.3697
 5298SOL    HW227528   1.158   2.531   4.212 -0.5517  2.5637 -0.9230
 5299SOL     OW27529   0.540   0.442   4.228  0.1189 -0.7186  0.4262
 5299SOL    HW127530   0.597   0.389   4.284  1.0521 -1.0567 -0.8447
 5299SOL    HW227531   0.617   0.494   4.204  0.1704 -1.0127 -0.0454
 5300SOL     OW27532   0.847   1.675   8.726  0.1505 -1.0442 -0.1749
 5300SOL    HW127533   0.759   1.689   8.760 -0.4355 -1.0992 -1.6448
 5300SOL    HW227534   0.866   1.594   8.773 -1.5161 -0.7681  0.9870
 5301SOL     OW27535   4.665   2.287   8.514 -0.1330 -0.5330  0.0913
 5301SOL    HW127536   4.576   2.321   8.512 -0.4941 -1.2877  2.3743
 5301SOL    HW227537   4.689   2.276   8.606 -0.2459  0.6693  0.2541
 5302SOL     OW27538   3.899   3.019   6.173  0.5836 -0.0951 -0.2609
 5302SOL    HW127539   3.910   3.105   6.213  0.6389  0.8271 -2.2614
 5302SOL    HW227540   3.829   2.984   6.228  0.7112 -1.5677 -1.0508
 5303SOL     OW27541   2.400   0.743   8.635 -0.4631  0.5633 -0.7448
 5303SOL    HW127542   2.343   0.811   8.598 -0.5141  2.0264  2.0502
 5303SOL    HW227543   2.456   0.789   8.697 -2.8092  0.6450  1.3006
 5304SOL     OW27544   1.249   3.873  14.104 -0.2318  0.2195 -0.4286
 5304SOL    HW127545   1.233   3.959  14.141  2.1404  0.0831  0.9168
 5304SOL    HW227546   1.264   3.899  14.013  0.5088  2.7030  0.4115
 5305SOL     OW27547   3.400   4.720   5.327  0.0410 -0.1109  0.5462
 5305SOL    HW127548   3.452   0.062   5.301  1.6948 -1.8526 -1.3173
 5305SOL    HW227549   3.458   4.651   5.356 -0.7029 -1.4552 -1.1551
 5306SOL     OW27550   0.628   2.040   2.588  0.0160  0.0344 -0.1348
 5306SOL    HW127551   0.627   2.128   2.552 -1.9295  0.1872  0.2715
 5306SOL    HW227552   0.717   2.013   2.611  0.3281 -0.3145 -1.7765
 5307SOL     OW27553   4.710   4.500   7.288 -0.5000  0.0339 -0.5468
 5307SOL    HW127554   4.661   4.423   7.317  2.5774 -0.4415  3.2844
 5307SOL    HW227555   0.030   4.511   7.365  1.1509  2.1808 -2.0510
 5308SOL     OW27556   0.680   0.483   2.545 -0.5766  0.2981 -0.2334
 5308SOL    HW127557   0.678   0.577   2.564  1.1797  0.2926 -0.0155
 5308SOL    HW227558   0.669   0.444   2.632 -1.5010 -0.7744 -0.8479
 5309SOL     OW27559   4.584   4.402   9.965  0.6718 -0.0873 -0.3355
 5309SOL    HW127560   4.498   4.434   9.990  0.3123  1.2406 -3.2417
 5309SOL    HW227561   4.633   4.463  10.020  1.7049 -1.9525  0.8369
 5310SOL     OW27562   4.550   1.400  12.480 -0.1817 -0.0079  0.3393
 5310SOL    HW127563   4.461   1.434  12.488  0.0209  0.8557 -1.1007
 5310SOL    HW227564   4.547   1.317  12.528  0.5802  1.6544  3.2923
 5311SOL     OW27565   3.949   2.503  17.203 -0.0207  0.5603 -0.0262
 5311SOL    HW127566   3.972   2.520  17.111 -1.9895 -0.7360 -0.7713
 5311SOL    HW227567   3.861   2.466  17.194 -0.8449  2.1729  1.5070
 5312SOL     OW27568   4.311   0.151   8.941  0.5488  0.0503 -0.4620
 5312SOL    HW127569   4.383   0.210   8.918  2.6716 -1.2695  2.8928
 5312SOL    HW227570   4.360   0.070   8.946  1.4236  0.5993 -0.1167
 5313SOL     OW27571   0.183   0.105   2.980  0.1267 -0.2414 -0.1723
 5313SOL    HW127572   0.094   0.139   2.991  0.6628  1.1105 -0.0891
 5313SOL    HW227573   0.179   0.074   2.889  0.3949 -1.3949  0.2046
 5314SOL     OW27574   4.281   4.325   3.333  0.0221 -0.0545 -0.2684
 5314SOL    HW127575   4.303   4.418   3.333 -0.8784  0.1533 -0.7171
 5314SOL    HW227576   4.192   4.332   3.299  0.0250  0.3532 -0.1926
 5315SOL     OW27577   0.652   4.390  17.642 -0.1847 -0.4584  0.3043
 5315SOL    HW127578   0.702   4.350  17.571  1.5881 -0.5016  1.5715
 5315SOL    HW227579   0.696   4.368  17.724 -2.7804 -0.8129  1.5903
 5316SOL     OW27580   1.460   3.605  14.742  0.3524 -0.0345  0.2481
 5316SOL    HW127581   1.548   3.600  14.706 -0.2805  0.4581 -1.3459
 5316SOL    HW227582   1.450   3.698  14.763 -0.7503  0.1092 -0.9176
 5317SOL     OW27583   2.929   4.230  17.404  0.2339 -0.7557  0.6898
 5317SOL    HW127584   2.872   4.176  17.349 -0.0399 -0.5189  0.7419
 5317SOL    HW227585   2.950   4.306  17.350  0.5409 -0.9854  0.4834
 5318SOL     OW27586   1.512   3.789  14.164  0.1059 -0.1503  0.3235
 5318SOL    HW127587   1.553   3.706  14.141  1.1633  0.3149  0.5238
 5318SOL    HW227588   1.435   3.787  14.107  0.5117 -2.9340 -0.1427
 5319SOL     OW27589   3.575   1.725   8.408  0.7734 -0.4075  0.4985
 5319SOL    HW127590   3.644   1.659   8.409  2.1470  1.0482  0.5638
 5319SOL    HW227591   3.569   1.745   8.314 -0.2113  2.0349  1.0693
 5320SOL     OW27592   3.992   1.532   5.637  0.3123 -0.1896  0.1665
 5320SOL    HW127593   3.943   1.522   5.718 -0.0747 -0.7140 -0.1352
 5320SOL    HW227594   4.000   1.627   5.630  0.6257 -0.2216  0.0709
 5321SOL     OW27595   2.692   2.400   3.103 -0.1420  0.1659 -0.3025
 5321SOL    HW127596   2.622   2.389   3.038  0.8273 -0.0772 -1.3120
 5321SOL    HW227597   2.734   2.477   3.066  0.4337 -0.3647 -0.7611
 5322SOL     OW27598   1.480   0.408   3.363 -1.0572 -0.1545 -0.2294
 5322SOL    HW127599   1.464   0.317   3.391 -2.9256  0.1363 -0.4175
 5322SOL    HW227600   1.398   0.444   3.395 -0.0151  2.4004 -0.4818
 5323SOL     OW27601   3.997   3.022   3.321  0.1659  0.1583 -0.0652
 5323SOL    HW127602   4.017   2.931   3.342 -1.1173  0.3150  1.8371
 5323SOL    HW227603   3.926   3.012   3.258 -0.8150 -1.7093  1.3426
 5324SOL     OW27604   3.543   3.533   6.519  0.0688 -0.5544  0.0796
 5324SOL    HW127605   3.623   3.585   6.522  0.8085 -1.6324 -1.0561
 5324SOL    HW227606   3.477   3.595   6.551 -1.4202 -2.0572 -0.0694
 5325SOL     OW27607   0.972   1.082  15.442 -0.7401  0.3355  0.1357
 5325SOL    HW127608   0.890   1.072  15.490 -0.3640  1.5913  1.0492
 5325SOL    HW227609   1.033   1.121  15.505 -0.5704  0.3421 -0.0337
 5326SOL     OW27610   4.706   0.816  11.284  0.3269  0.0707 -0.0134
 5326SOL    HW127611   4.725   0.793  11.375 -1.8744 -0.1628  0.3959
 5326SOL    HW227612   4.645   0.744  11.266 -0.8853  1.1755 -0.3258
 5327SOL     OW27613   3.770   1.662  14.459 -0.1096 -0.3161  0.8515
 5327SOL    HW127614   3.855   1.698  14.433 -1.1408  1.1573 -0.4602
 5327SOL    HW227615   3.715   1.740  14.456 -0.0049 -0.2988 -0.5200
 5328SOL     OW27616   1.685   3.070   3.560  0.0227  0.1554 -0.0388
 5328SOL    HW127617   1.661   3.029   3.642  0.3342 -1.8085 -0.9297
 5328SOL    HW227618   1.731   3.148   3.590 -0.8083  0.5911  0.1048
 5329SOL     OW27619   2.005   1.541  12.835  0.3076 -0.3635 -0.0491
 5329SOL    HW127620   2.009   1.456  12.879  1.2660 -1.2565 -1.8268
 5329SOL    HW227621   1.980   1.602  12.904  1.7951  0.0772  0.0990
 5330SOL     OW27622   3.435   3.743  16.244 -0.7744 -0.6650  0.6496
 5330SOL    HW127623   3.461   3.778  16.329 -0.5753 -0.4517  0.5023
 5330SOL    HW227624   3.349   3.781  16.231 -0.7944 -0.2669  1.9251
 5331SOL     OW27625   2.255   1.799   6.725 -0.1521  0.3190  0.4735
 5331SOL    HW127626   2.309   1.873   6.755  0.7897 -0.2037  0.0466
 5331SOL    HW227627   2.216   1.841   6.648  1.8968 -1.5064 -1.5584
 5332SOL     OW27628   3.051   3.016  16.595 -0.2667  0.5808  0.1659
 5332SOL    HW127629   3.108   3.058  16.530 -0.1901 -0.0465 -0.1671
 5332SOL    HW227630   2.994   2.956  16.547  1.1307  0.0899 -0.8757
 5333SOL     OW27631   0.171   2.151   5.440 -0.2069 -0.4212 -0.1065
 5333SOL    HW127632   0.230   2.197   5.499  0.9585 -0.5817 -1.1484
 5333SOL    HW227633   0.200   2.063   5.465 -2.1995 -1.5185 -1.6940
 5334SOL     OW27634   4.138   3.647   6.197  0.5488  0.0410 -0.1057
 5334SOL    HW127635   4.156   3.568   6.146  1.3419 -0.1493  0.4705
 5334SOL    HW227636   4.113   3.714   6.134 -0.4859 -1.0886 -0.8966
 5335SOL     OW27637   2.265   1.110   6.332  0.5138 -0.1451  0.3434
 5335SOL    HW127638   2.307   1.086   6.415 -0.0438  0.2156  0.7270
 5335SOL    HW227639   2.298   1.043   6.273 -0.3535 -0.3644  0.1097
 5336SOL     OW27640   1.562   0.558   8.125 -0.3415  0.2785 -0.1020
 5336SOL    HW127641   1.604   0.638   8.158 -0.0037  0.0935 -0.0788
 5336SOL    HW227642   1.503   0.538   8.197  0.2198 -1.9174 -0.2549
 5337SOL     OW27643   0.860   2.360   3.681 -0.3754  0.4257 -0.2375
 5337SOL    HW127644   0.881   2.406   3.762  1.0922 -1.4325  0.4430
 5337SOL    HW227645   0.877   2.268   3.699 -2.2004  0.2883  0.7436
 5338SOL     OW27646   2.055   2.962   7.546 -0.1192  1.0236  0.2339
 5338SOL    HW127647   2.030   3.011   7.467  0.3483 -1.0954 -1.2403
 5338SOL    HW227648   2.135   3.005   7.574  0.8752 -0.6900  0.0531
 5339SOL     OW27649   4.090   3.631   7.641 -0.0771 -0.4517 -0.0146
 5339SOL    HW127650   3.997   3.610   7.629 -0.0572  0.0188 -1.0123
 5339SOL    HW227651   4.117   3.544   7.615  0.9445  0.2967 -1.4469
 5340SOL     OW27652   4.677   0.006  11.218  0.1809 -0.0243 -0.5010
 5340SOL    HW127653   0.021   4.704  11.255 -1.4475 -1.2586  1.7692
 5340SOL    HW227654   4.648   0.069  11.284 -1.9935 -1.7064  0.1663
 5341SOL     OW27655   1.071   0.141   2.144  0.1649 -0.0543  0.0500
 5341SOL    HW127656   1.118   0.094   2.213  0.5329  0.0740 -0.1123
 5341SOL    HW227657   1.011   0.077   2.104  1.7471 -0.2641 -1.9700
 5342SOL     OW27658   0.188   1.011   6.392  0.6511 -0.3276  0.1998
 5342SOL    HW127659   0.256   0.948   6.370  0.7502 -0.3694  0.6290
 5342SOL    HW227660   0.239   1.090   6.412 -0.1805  0.0344  0.9181
 5343SOL     OW27661   2.783   4.728   7.992  0.3063 -0.1144  0.2672
 5343SOL    HW127662   2.718   0.046   7.946  0.8243  0.8839  0.7092
 5343SOL    HW227663   2.737   4.644   7.982  1.2903 -0.3535 -2.1765
 5344SOL     OW27664   1.083   3.517  16.148  0.2374 -0.0403 -0.2786
 5344SOL    HW127665   1.060   3.457  16.077 -0.6832 -0.4055  0.3239
 5344SOL    HW227666   1.011   3.576  16.126  0.4286 -0.2768 -1.4871
 5345SOL     OW27667   0.851   4.284  17.461 -0.5736 -0.1435 -0.2382
 5345SOL    HW127668   0.901   4.203  17.474 -0.2872  0.3495  1.6530
 5345SOL    HW227669   0.918   4.352  17.463 -0.6618 -0.0799  0.7507
 5346SOL     OW27670   0.485   2.250   3.705  0.2938 -0.1763 -0.2396
 5346SOL    HW127671   0.569   2.290   3.684  0.3120  0.4122  0.9165
 5346SOL    HW227672   0.417   2.300   3.659 -0.6894  0.2451  1.6274
 5347SOL     OW27673   1.682   1.390   8.005  0.0975 -0.1711 -0.7129
 5347SOL    HW127674   1.656   1.306   8.043  1.8289 -0.2653  0.2658
 5347SOL    HW227675   1.636   1.447   8.067  1.2781  0.2264 -0.1949
 5348SOL     OW27676   0.383   1.092   4.811  0.1396  0.5873 -0.1008
 5348SOL    HW127677   0.322   1.161   4.837 -2.7680 -1.2975 -1.9749
 5348SOL    HW227678   0.456   1.118   4.868 -0.3027  0.8320  0.3586
 5349SOL     OW27679   2.322   4.115   3.996 -1.0436  0.4762  0.0992
 5349SOL    HW127680   2.244   4.065   3.969 -1.1426  0.6038  0.1502
 5349SOL    HW227681   2.341   4.076   4.081 -1.3144  0.4816  0.1642
 5350SOL     OW27682   1.924   1.002  14.192  0.1267  0.0246  0.2421
 5350SOL    HW127683   1.917   0.978  14.100 -0.3578 -0.8146  0.4981
 5350SOL    HW227684   2.006   1.050  14.185 -1.4876  2.5621 -1.3723
 5351SOL     OW27685   2.458   0.063  12.490 -0.5220  0.0484  0.2493
 5351SOL    HW127686   2.526   0.099  12.547 -0.1969  0.4305 -0.3775
 5351SOL    HW227687   2.408   0.144  12.484 -2.2245 -1.0784 -0.9680
 5352SOL     OW27688   3.256   2.049   2.070 -0.0155  0.0067 -0.0631
 5352SOL    HW127689   3.161   2.053   2.079 -0.0420  2.5056 -1.4651
 5352SOL    HW227690   3.266   1.974   2.012  2.7338 -2.4711  3.6624
 5353SOL     OW27691   3.364   2.592   6.841 -0.4003 -0.1526 -0.0277
 5353SOL    HW127692   3.325   2.585   6.754 -1.6247  0.4936  0.4771
 5353SOL    HW227693   3.374   2.502   6.871  2.2477  0.0840 -0.1905
 5354SOL     OW27694   2.160   4.212   0.574 -0.2143 -0.6836  0.0013
 5354SOL    HW127695   2.136   4.305   0.579  0.1640 -0.6730  1.5798
 5354SOL    HW227696   2.166   4.193   0.668  1.4367 -0.9499 -0.1613
 5355SOL     OW27697   1.251   2.661   1.998  0.4467  0.0351  0.0265
 5355SOL    HW127698   1.235   2.647   1.905 -1.3722  1.2044  0.1556
 5355SOL    HW227699   1.269   2.572   2.029  0.4261 -0.4057 -1.2526
 5356SOL     OW27700   2.018   1.581   9.056  0.3582 -0.3110  0.4738
 5356SOL    HW127701   1.972   1.539   9.128  3.1035 -0.2024  2.2947
 5356SOL    HW227702   2.064   1.508   9.015 -2.3686 -1.0467 -1.2938
 5357SOL     OW27703   3.482   2.245   8.476 -0.1416 -0.1094 -0.1572
 5357SOL    HW127704   3.443   2.250   8.389 -0.4563  0.3448  0.0093
 5357SOL    HW227705   3.422   2.302   8.524 -2.3719 -1.0636 -1.8483
 5358SOL     OW27706   3.280   0.587   3.608 -0.2414 -0.1683 -0.3519
 5358SOL    HW127707   3.233   0.634   3.677 -0.6396  0.1318 -0.8239
 5358SOL    HW227708   3.289   0.501   3.649  0.1830 -0.5062 -1.1504
 5359SOL     OW27709   1.138   0.391   9.903  0.5387 -0.1384  0.3579
 5359SOL    HW127710   1.087   0.315   9.875  0.3576  0.8252 -1.9293
 5359SOL    HW227711   1.148   0.358   9.993  0.9420 -0.2743  0.2631
 5360SOL     OW27712   4.604   3.681   3.322 -0.5192  0.3877 -0.2437
 5360SOL    HW127713   4.628   3.759   3.271  0.2138  1.3713  1.6069
 5360SOL    HW227714   4.565   3.620   3.259  2.8286 -0.6067 -1.3438
 5361SOL     OW27715   3.329   0.400  15.685 -0.3316  0.2678 -0.0975
 5361SOL    HW127716   3.364   0.477  15.640 -2.1143  0.7159 -0.7407
 5361SOL    HW227717   3.244   0.433  15.716 -0.1052  0.2548  0.5328
 5362SOL     OW27718   3.521   0.811   0.438 -0.1540 -0.1328  0.1737
 5362SOL    HW127719   3.520   0.767   0.354 -0.6515 -1.7170  1.0061
 5362SOL    HW227720   3.532   0.901   0.409  3.4818 -0.4404  0.6447
 5363SOL     OW27721   1.562   2.186  10.672  0.5560  0.2690  0.3530
 5363SOL    HW127722   1.469   2.201  10.689  0.3863 -0.6831  0.2262
 5363SOL    HW227723   1.590   2.263  10.622  2.4253 -1.6065 -1.5003
 5364SOL     OW27724   1.099   0.603   1.538 -0.1252 -0.0085  0.5326
 5364SOL    HW127725   1.166   0.560   1.591 -0.2832 -0.8564  0.0528
 5364SOL    HW227726   1.123   0.573   1.450 -2.9716 -1.2319  0.1665
 5365SOL     OW27727   3.153   3.528   2.468  0.6107 -0.3108 -0.3056
 5365SOL    HW127728   3.064   3.499   2.488  0.4610 -0.2475 -0.8872
 5365SOL    HW227729   3.201   3.447   2.458  0.1215 -0.7613  0.8991
 5366SOL     OW27730   4.638   3.675  12.626  0.2213 -0.9198 -0.1073
 5366SOL    HW127731   4.661   3.650  12.715  0.0647  0.0526  0.1983
 5366SOL    HW227732   4.730   3.682  12.599 -0.0833  0.1829 -0.8807
 5367SOL     OW27733   4.574   4.054   6.182  0.0445 -0.6521  0.0848
 5367SOL    HW127734   4.664   4.075   6.159  0.2165  0.9702  2.2215
 5367SOL    HW227735   4.561   3.961   6.161  2.4023 -1.4220  1.9423
 5368SOL     OW27736   4.332   0.603   0.802 -0.2714 -0.0571 -0.0952
 5368SOL    HW127737   4.316   0.695   0.778  0.5111  0.6115  1.9614
 5368SOL    HW227738   4.269   0.592   0.873 -0.3627  0.1239 -0.1474
 5369SOL     OW27739   2.727   3.783  10.056 -0.2200  0.6568  0.4541
 5369SOL    HW127740   2.785   3.816   9.988  1.6509 -1.3150  1.0917
 5369SOL    HW227741   2.783   3.718  10.098 -0.1914 -0.0777 -0.7049
 5370SOL     OW27742   3.151   3.201   6.228 -0.1758  0.6295  0.1657
 5370SOL    HW127743   3.208   3.271   6.259  0.3245  0.2111  0.1947
 5370SOL    HW227744   3.086   3.239   6.169 -0.9436 -2.7912 -1.2039
 5371SOL     OW27745   0.113   3.506   2.516 -0.3788  0.0304  0.5046
 5371SOL    HW127746   0.193   3.465   2.548 -0.0487  1.7446  1.8359
 5371SOL    HW227747   0.138   3.567   2.447  0.2095  0.3835  1.0372
 5372SOL     OW27748   0.674   3.273   7.585  0.2108 -0.1170 -0.2475
 5372SOL    HW127749   0.588   3.299   7.551 -0.3795 -0.4379  0.9864
 5372SOL    HW227750   0.737   3.272   7.514  1.9142  2.0281  1.2425
 5373SOL     OW27751   4.493   2.192   6.254 -0.0049  0.4399  0.1016
 5373SOL    HW127752   4.561   2.244   6.298 -0.6847  2.7078 -1.5154
 5373SOL    HW227753   4.540   2.157   6.179  0.0978 -1.0043  0.8475
 5374SOL     OW27754   1.652   2.743   2.476 -0.0721 -0.2087 -0.2695
 5374SOL    HW127755   1.608   2.818   2.517  0.3256  0.6179 -1.3428
 5374SOL    HW227756   1.741   2.769   2.453  1.0855 -2.9160  1.2097
 5375SOL     OW27757   0.740   2.355   0.415  0.2741 -0.3737  0.2256
 5375SOL    HW127758   0.668   2.366   0.477  0.3094  0.9367  0.0380
 5375SOL    HW227759   0.798   2.421   0.453 -0.2487  0.2890 -0.1473
 5376SOL     OW27760   2.879   2.766   8.140 -0.0890  0.1309  0.3288
 5376SOL    HW127761   2.844   2.787   8.053 -0.9925  0.9722  0.9038
 5376SOL    HW227762   2.860   2.674   8.159 -0.2318  0.0699 -0.1009
 5377SOL     OW27763   3.977   0.460   4.511 -0.0676 -0.1671  0.3358
 5377SOL    HW127764   3.926   0.537   4.535 -1.0781 -0.7113 -0.0859
 5377SOL    HW227765   4.064   0.498   4.526  1.2340 -3.1299  0.3741
 5378SOL     OW27766   2.244   0.437   5.739 -0.6514  0.2128  0.8659
 5378SOL    HW127767   2.247   0.344   5.761  3.5087 -0.1553 -1.2141
 5378SOL    HW227768   2.148   0.439   5.744 -0.7957 -0.7573 -1.3056
 5379SOL     OW27769   1.195   0.498   1.817  0.0362 -0.1900  0.4381
 5379SOL    HW127770   1.224   0.446   1.892  2.8526 -2.2673 -2.0719
 5379SOL    HW227771   1.261   0.566   1.815 -1.0936  0.8418 -1.6732
 5380SOL     OW27772   2.308   2.185  10.613  0.4359 -0.3780 -0.3925
 5380SOL    HW127773   2.248   2.172  10.687 -0.8691 -3.1623 -1.9326
 5380SOL    HW227774   2.255   2.181  10.533  0.5837  4.4376 -0.6859
 5381SOL     OW27775   0.389   1.449   9.190  0.4033 -0.3973 -0.1290
 5381SOL    HW127776   0.409   1.472   9.281  2.8947 -2.5562 -0.1424
 5381SOL    HW227777   0.425   1.362   9.176 -2.1396 -1.9151  2.9310
 5382SOL     OW27778   3.418   3.776  11.521  0.0303 -0.2260  0.9429
 5382SOL    HW127779   3.331   3.737  11.524 -0.7353  1.4935  1.2003
 5382SOL    HW227780   3.473   3.709  11.561  0.6017  0.8849  2.0320
 5383SOL     OW27781   3.982   2.973   5.902 -0.3241 -0.7427 -0.3790
 5383SOL    HW127782   3.947   2.968   5.991  0.2018  0.0075 -0.1267
 5383SOL    HW227783   3.901   2.992   5.854 -0.6072  2.2880  1.2945
 5384SOL     OW27784   4.605   1.762   6.563  0.2435  0.5681  0.3631
 5384SOL    HW127785   4.562   1.746   6.479 -2.3414  1.3889  1.5376
 5384SOL    HW227786   4.650   1.681   6.589  0.4117  0.7300  0.5705
 5385SOL     OW27787   4.552   0.666   5.050  0.1460  0.1673 -0.0860
 5385SOL    HW127788   4.579   0.754   5.074 -0.2865  0.9739 -2.6107
 5385SOL    HW227789   4.459   0.681   5.069  0.0911 -3.1424  2.3957
 5386SOL     OW27790   0.944   0.631   3.641  0.4253  0.0961  0.3555
 5386SOL    HW127791   0.985   0.633   3.555  0.1062  1.1356  0.2247
 5386SOL    HW227792   0.873   0.695   3.633  1.0851  0.6879 -0.7434
 5387SOL     OW27793   2.535   0.806   3.004 -0.2333  0.1481 -0.1713
 5387SOL    HW127794   2.524   0.901   3.014  2.3543  0.5251 -1.0600
 5387SOL    HW227795   2.443   0.779   2.995 -0.3467  0.5204 -0.1607
 5388SOL     OW27796   2.172   2.387   4.037 -0.5097  0.4298 -0.2631
 5388SOL    HW127797   2.238   2.456   4.050  0.5527 -0.6715  0.1970
 5388SOL    HW227798   2.235   2.316   4.025 -1.3326 -0.3459  0.0280
 5389SOL     OW27799   0.230   1.875   1.150 -0.0910  0.2481  0.0873
 5389SOL    HW127800   0.298   1.925   1.196 -0.3838  0.8175 -0.0974
 5389SOL    HW227801   0.250   1.908   1.062 -2.4293 -2.3662 -1.4478
 5390SOL     OW27802   0.838   1.427  15.095 -0.1457  0.0670 -0.5579
 5390SOL    HW127803   0.801   1.371  15.026 -1.5515  1.0587 -0.6143
 5390SOL    HW227804   0.824   1.371  15.172 -2.6236  1.1126 -0.2541
 5391SOL     OW27805   3.761   3.115  16.822 -0.0978  0.0739  0.0503
 5391SOL    HW127806   3.849   3.106  16.858  0.1303 -1.6080 -0.9151
 5391SOL    HW227807   3.715   3.161  16.892 -1.4214  0.3460 -1.0019
 5392SOL     OW27808   2.462   4.502   4.467  0.4128  0.4305  0.1739
 5392SOL    HW127809   2.522   4.471   4.400  0.9331  0.1264  0.7872
 5392SOL    HW227810   2.500   4.455   4.541 -0.5902 -2.1624 -0.9681
 5393SOL     OW27811   1.610   1.628  14.618 -0.5530  0.1696  0.3744
 5393SOL    HW127812   1.613   1.533  14.622 -1.0154  0.2071  1.9928
 5393SOL    HW227813   1.590   1.640  14.711 -1.8281 -2.4336  0.4374
 5394SOL     OW27814   1.685   3.019   2.331  0.5947 -0.1617  0.4216
 5394SOL    HW127815   1.734   3.101   2.342 -0.2718  0.7411 -2.4172
 5394SOL    HW227816   1.748   2.950   2.312  1.1357  0.1162  1.2291
 5395SOL     OW27817   2.288   2.309   9.315  0.4179  0.2381 -0.5843
 5395SOL    HW127818   2.253   2.302   9.226 -1.6749 -3.4448  0.5474
 5395SOL    HW227819   2.240   2.385   9.348  0.6289  0.6606 -1.2320
 5396SOL     OW27820   4.383   0.972  12.639 -0.4536  0.3646  0.1678
 5396SOL    HW127821   4.325   0.951  12.712 -2.0253  1.8437 -0.6512
 5396SOL    HW227822   4.429   0.890  12.656 -2.6429 -0.6481  1.2984
 5397SOL     OW27823   2.228   0.900   5.303 -0.4182 -0.4549  0.4560
 5397SOL    HW127824   2.252   0.814   5.269  1.0977  0.2931 -0.3431
 5397SOL    HW227825   2.152   0.872   5.354 -0.4595 -1.0030  0.0950
 5398SOL     OW27826   1.220   1.048   6.103 -0.0255  0.1682 -0.2758
 5398SOL    HW127827   1.215   1.078   6.012 -1.1412  1.0763  0.0841
 5398SOL    HW227828   1.175   0.963   6.096 -3.2888  1.8233  0.4147
 5399SOL     OW27829   1.383   3.051   3.294  0.0675  0.4333 -0.2121
 5399SOL    HW127830   1.410   3.134   3.334  0.7084 -0.5343  1.3360
 5399SOL    HW227831   1.409   2.986   3.359 -0.6776  2.2153  1.8536
 5400SOL     OW27832   3.514   1.564   4.476  0.0476 -0.1520  0.5266
 5400SOL    HW127833   3.450   1.624   4.516  1.1142  0.1678  1.7367
 5400SOL    HW227834   3.490   1.486   4.525  0.3876 -0.6365 -0.0837
 5401SOL     OW27835   0.854   0.443   0.514  0.4723  0.3187  0.0041
 5401SOL    HW127836   0.909   0.504   0.466 -0.0530  1.5206  0.9364
 5401SOL    HW227837   0.915   0.402   0.576  0.3485  0.3536  0.1500
 5402SOL     OW27838   1.459   1.697  14.068 -0.3752 -0.0409  0.8168
 5402SOL    HW127839   1.553   1.715  14.064 -0.3733 -0.2363  0.0158
 5402SOL    HW227840   1.431   1.770  14.012  0.3980  1.3277  2.2058
 5403SOL     OW27841   1.598   2.185  17.004 -0.0133 -0.2523 -0.5675
 5403SOL    HW127842   1.595   2.123  16.931 -1.5341  0.1967 -0.8756
 5403SOL    HW227843   1.599   2.265  16.953  1.1728 -1.6241 -2.6809
 5404SOL     OW27844   4.422   4.227   8.867  0.1879  0.1744 -0.2397
 5404SOL    HW127845   4.374   4.310   8.868  3.2417  1.9314 -1.5884
 5404SOL    HW227846   4.495   4.244   8.927  0.1143 -0.3971  0.0082
 5405SOL     OW27847   0.333   0.603   8.361 -0.2014 -0.3450 -0.1137
 5405SOL    HW127848   0.356   0.535   8.297  2.2241  0.6500 -0.2926
 5405SOL    HW227849   0.400   0.671   8.356 -0.5624 -0.0550 -1.1778
 5406SOL     OW27850   3.104   2.797  17.026 -0.0147 -0.2475 -0.2722
 5406SOL    HW127851   3.096   2.794  17.122 -0.7971 -0.1234 -0.3347
 5406SOL    HW227852   3.093   2.703  17.010 -2.6524  0.9624 -5.2698
 5407SOL     OW27853   4.213   3.824   2.336 -0.4812  0.0647  0.0790
 5407SOL    HW127854   4.251   3.905   2.370  1.0051 -0.4288 -0.3915
 5407SOL    HW227855   4.249   3.763   2.400 -1.8696 -0.4119  0.4075
 5408SOL     OW27856   4.211   1.349   5.610  0.1338  0.0717  0.5878
 5408SOL    HW127857   4.153   1.281   5.643  1.7063 -1.2867  0.5515
 5408SOL    HW227858   4.156   1.427   5.618  0.5463  0.3307  0.8975
 5409SOL     OW27859   0.503   1.834  16.989  0.5879  0.0908  0.3544
 5409SOL    HW127860   0.535   1.853  17.078  1.1223 -1.9684  0.6026
 5409SOL    HW227861   0.504   1.739  16.994  2.2270  0.1784  1.5620
 5410SOL     OW27862   4.482   1.539   8.883  0.2932 -0.3205 -0.3806
 5410SOL    HW127863   4.547   1.490   8.833  1.6308 -1.0340  2.1058
 5410SOL    HW227864   4.454   1.464   8.936  1.1788 -0.4997 -0.1769
 5411SOL     OW27865   0.358   0.596   3.950  0.0975  0.4562 -0.2448
 5411SOL    HW127866   0.320   0.605   4.037 -0.3275  1.1011 -0.5012
 5411SOL    HW227867   0.287   0.622   3.891  2.2127  0.8941 -2.5901
 5412SOL     OW27868   2.661   1.596  13.439 -0.4740  0.1774  0.2239
 5412SOL    HW127869   2.728   1.586  13.371 -0.6668  3.1011 -0.4037
 5412SOL    HW227870   2.653   1.692  13.441  1.0136  0.2935  1.0408
 5413SOL     OW27871   0.767   1.901  11.470  0.3125 -0.2036  0.3572
 5413SOL    HW127872   0.787   1.819  11.515 -1.8700 -1.9702 -1.9291
 5413SOL    HW227873   0.856   1.934  11.484 -0.4011  2.1758 -0.6945
 5414SOL     OW27874   1.859   0.828   6.430 -0.2190 -0.8781  0.4593
 5414SOL    HW127875   1.914   0.867   6.363  1.0956 -3.0067  0.2781
 5414SOL    HW227876   1.772   0.860   6.411  0.0580 -0.5970 -0.3155
 5415SOL     OW27877   2.654   2.915   3.360  0.0297 -0.4199  0.3664
 5415SOL    HW127878   2.723   2.868   3.313 -0.6079 -1.6710  0.6795
 5415SOL    HW227879   2.675   3.008   3.359  0.6172 -0.5484  0.7354
 5416SOL     OW27880   2.019   0.603  14.818  0.2413 -0.0285 -0.3428
 5416SOL    HW127881   2.033   0.667  14.748  0.4398  1.9137  1.4554
 5416SOL    HW227882   2.103   0.558  14.819  0.7955  1.0365  2.7981
 5417SOL     OW27883   0.866   1.733   8.175  0.0795 -0.3784  0.5265
 5417SOL    HW127884   0.777   1.702   8.159  0.3130 -0.1366 -1.2425
 5417SOL    HW227885   0.865   1.731   8.271  1.8758 -0.1604  0.5606
 5418SOL     OW27886   4.511   3.142   9.543 -0.0266 -0.2478 -0.1693
 5418SOL    HW127887   4.582   3.150   9.480  1.5214  1.1373  1.7184
 5418SOL    HW227888   4.435   3.121   9.489 -1.5321  3.0014  0.7177
 5419SOL     OW27889   1.625   4.468  12.096 -0.4393  0.1606 -0.0378
 5419SOL    HW127890   1.540   4.477  12.052  0.0099 -2.7187 -1.5174
 5419SOL    HW227891   1.604   4.409  12.168  0.0413  0.0241 -0.0062
 5420SOL     OW27892   4.017   1.266   5.256 -0.0048 -0.0481  0.5249
 5420SOL    HW127893   4.073   1.214   5.314  0.2927 -1.1173 -0.7178
 5420SOL    HW227894   3.960   1.204   5.211 -0.1314 -0.7406  1.6438
 5421SOL     OW27895   0.802   4.349   6.958  0.0649  0.2064 -0.1064
 5421SOL    HW127896   0.709   4.333   6.972 -0.1558  1.7739  0.2572
 5421SOL    HW227897   0.810   4.422   7.020  0.4493 -0.0130  0.1052
 5422SOL     OW27898   2.113   1.423   8.582  0.3304  0.5511  0.3084
 5422SOL    HW127899   2.040   1.475   8.617 -1.4999 -1.3089 -0.7233
 5422SOL    HW227900   2.068   1.342   8.557  1.8556  0.0677 -0.8455
 5423SOL     OW27901   1.064   3.839   4.082 -0.3970 -0.1157  0.4724
 5423SOL    HW127902   1.033   3.878   4.163  0.7566  1.5590  0.1026
 5423SOL    HW227903   0.985   3.859   4.031 -0.2584  0.8098  0.6228
 5424SOL     OW27904   3.682   0.367   6.786 -0.5075 -0.9030  0.0412
 5424SOL    HW127905   3.694   0.309   6.711 -1.7521 -0.9940 -0.0756
 5424SOL    HW227906   3.766   0.412   6.777 -2.0687  1.2635 -3.4157
 5425SOL     OW27907   3.186   1.610   7.874  0.0869  0.0974  0.1805
 5425SOL    HW127908   3.145   1.641   7.955 -1.1165 -1.5291  0.2147
 5425SOL    HW227909   3.231   1.530   7.901  2.4109  0.9394 -1.2281
 5426SOL     OW27910   0.446   0.557   4.499 -0.2433 -0.3465 -0.6880
 5426SOL    HW127911   0.526   0.587   4.455  2.4533 -0.2995  4.1919
 5426SOL    HW227912   0.399   0.638   4.517  1.0921 -0.6998  4.4139
 5427SOL     OW27913   2.889   3.343   1.278 -0.1380  0.3984 -0.1942
 5427SOL    HW127914   2.955   3.284   1.243  0.7592 -0.3026  2.7240
 5427SOL    HW227915   2.840   3.366   1.199  0.7177 -0.8695 -1.0791
 5428SOL     OW27916   0.719   4.271  11.176  0.3146 -0.0715  0.0699
 5428SOL    HW127917   0.637   4.223  11.185  2.1288 -3.3349 -0.6010
 5428SOL    HW227918   0.723   4.285  11.270 -1.2266  1.7695 -0.1325
 5429SOL     OW27919   3.149   0.509   1.409 -0.1789 -0.2909 -0.0726
 5429SOL    HW127920   3.078   0.555   1.364 -0.9318 -1.1824  0.2091
 5429SOL    HW227921   3.218   0.540   1.349  1.0629 -0.9241  1.0158
 5430SOL     OW27922   0.573   3.267   6.882 -0.3879 -0.3406 -0.2026
 5430SOL    HW127923   0.548   3.276   6.791 -2.6502  1.6769  0.6254
 5430SOL    HW227924   0.484   3.251   6.914 -0.8342  1.1977 -0.7098
 5431SOL     OW27925   4.472   4.058   9.429  0.0760  0.1281 -0.1297
 5431SOL    HW127926   4.555   4.011   9.426  0.9042  1.6497 -0.7712
 5431SOL    HW227927   4.402   3.993   9.437 -0.5863  0.9322  0.5233
 5432SOL     OW27928   1.120   0.562   0.998  0.2630  0.2876 -0.1699
 5432SOL    HW127929   1.055   0.630   0.981 -0.0896  0.0751  0.3469
 5432SOL    HW227930   1.148   0.543   0.908 -2.4283 -0.4210 -0.8516
 5433SOL     OW27931   0.041   3.328   3.059 -0.2227 -0.3951  0.0215
 5433SOL    HW127932   4.707   3.382   3.020  1.7011  1.7617 -0.4019
 5433SOL    HW227933   0.109   3.336   2.993  0.5826 -1.2084  0.7623
 5434SOL     OW27934   2.994   4.368   8.197  0.3480  0.3064 -0.0192
 5434SOL    HW127935   3.052   4.294   8.216 -1.8588 -1.3671  0.2043
 5434SOL    HW227936   3.020   4.382   8.106 -0.3150  2.7100  0.1540
 5435SOL     OW27937   1.585   3.770   2.764  0.5150  0.5248 -0.6076
 5435SOL    HW127938   1.624   3.711   2.700  1.4184  0.5603 -0.0935
 5435SOL    HW227939   1.584   3.846   2.705 -0.4027  1.5275  0.6896
 5436SOL     OW27940   4.278   4.388  13.151 -0.6482 -0.2096  0.0987
 5436SOL    HW127941   4.210   4.329  13.182 -1.7576  1.4334  0.7909
 5436SOL    HW227942   4.344   4.320  13.153  2.6963  3.0499  0.8467
 5437SOL     OW27943   3.771   0.585  14.545 -0.0189 -0.1103  0.8091
 5437SOL    HW127944   3.864   0.606  14.545  0.3166 -1.6217 -4.4698
 5437SOL    HW227945   3.784   0.521  14.476  1.7345 -1.1032  2.0771
 5438SOL     OW27946   3.993   3.945  15.325 -0.2139  0.4823 -0.0190
 5438SOL    HW127947   3.994   4.036  15.296 -1.6540  0.2050 -0.9286
 5438SOL    HW227948   4.073   3.928  15.376 -0.1189  2.5302  0.5244
 5439SOL     OW27949   3.409   2.008   3.517 -0.1718 -0.5722  0.3976
 5439SOL    HW127950   3.485   1.960   3.484 -0.8929  0.1986 -2.4471
 5439SOL    HW227951   3.367   1.944   3.573  1.6211 -2.3058 -0.2416
 5440SOL     OW27952   0.508   0.311   7.137  0.3194  0.3707 -0.4248
 5440SOL    HW127953   0.465   0.248   7.194 -0.1552  0.3213 -0.8414
 5440SOL    HW227954   0.559   0.253   7.080  1.6457 -0.8423  2.0120
 5441SOL     OW27955   3.106   2.796   3.446 -0.1663 -0.2613  0.2391
 5441SOL    HW127956   3.186   2.773   3.493 -0.8793 -1.6901  0.7186
 5441SOL    HW227957   3.142   2.878   3.410  1.3589 -0.1726  1.9981
 5442SOL     OW27958   3.906   2.043   9.075 -0.5469 -0.2527  0.1269
 5442SOL    HW127959   3.907   2.126   9.123 -0.4473 -0.2557  0.1304
 5442SOL    HW227960   3.910   1.974   9.141 -0.1610 -1.3251 -1.0206
 5443SOL     OW27961   0.887   3.950   1.123  0.2672 -0.3014 -0.3009
 5443SOL    HW127962   0.805   3.915   1.158 -0.3119  0.1295 -1.2372
 5443SOL    HW227963   0.951   3.905   1.178  2.0366  0.5206 -1.6809
 5444SOL     OW27964   4.631   2.653   8.605 -0.6049 -0.2914  0.5650
 5444SOL    HW127965   4.540   2.664   8.578 -1.1039 -2.4944  1.4234
 5444SOL    HW227966   4.691   2.700   8.546 -0.2058 -2.4298 -0.7086
 5445SOL     OW27967   4.399   4.598   3.399  0.5147  0.5524  0.2133
 5445SOL    HW127968   4.470   4.576   3.338 -0.7924 -2.8897 -0.0227
 5445SOL    HW227969   4.377   4.683   3.360 -2.0312 -1.0318 -1.7061
 5446SOL     OW27970   3.845   4.521  13.849  0.2692  0.7708 -0.2585
 5446SOL    HW127971   3.938   4.540  13.836  0.5941 -0.0032  0.9241
 5446SOL    HW227972   3.808   4.519  13.761 -1.0632  1.1083  0.3018
 5447SOL     OW27973   0.403   4.341   4.495 -0.7398  0.0703 -0.1953
 5447SOL    HW127974   0.356   4.384   4.566 -0.0348 -0.7540  0.7740
 5447SOL    HW227975   0.440   4.269   4.546  0.4945  0.3871 -0.6686
 5448SOL     OW27976   0.810   4.559   3.173 -0.0257  0.6680  0.0455
 5448SOL    HW127977   0.872   4.630   3.190 -0.5585  0.7694  1.6430
 5448SOL    HW227978   0.744   4.576   3.241  0.7128 -0.9656  1.1756
 5449SOL     OW27979   3.008   2.899   7.750 -0.6491  0.2688 -0.1479
 5449SOL    HW127980   3.081   2.875   7.807 -0.5398 -0.6134 -0.6597
 5449SOL    HW227981   2.999   2.814   7.708  0.1716 -0.0745  0.3706
 5450SOL     OW27982   2.031   0.647   8.619 -0.3410  0.2963  0.2377
 5450SOL    HW127983   1.947   0.620   8.582 -0.3347  0.2775  0.2371
 5450SOL    HW227984   2.054   0.558   8.647  1.3871  0.3535 -0.9204
 5451SOL     OW27985   0.484   2.873   6.866 -0.1488 -0.3889 -0.5725
 5451SOL    HW127986   0.416   2.936   6.890  2.3642  1.0517  2.6485
 5451SOL    HW227987   0.562   2.920   6.893  1.3544 -2.6977 -0.8344
 5452SOL     OW27988   0.779   4.338   4.818  0.3161  0.2885  0.1179
 5452SOL    HW127989   0.712   4.370   4.878 -0.9338 -2.0103 -0.0744
 5452SOL    HW227990   0.853   4.327   4.879  0.0652 -0.1628  0.3418
 5453SOL     OW27991   4.334   4.242   4.074  0.4421 -0.3492  0.0297
 5453SOL    HW127992   4.247   4.209   4.054  0.0039 -0.0771  1.4687
 5453SOL    HW227993   4.390   4.165   4.083  0.1319 -0.4262  1.3638
 5454SOL     OW27994   2.791   4.650   3.521  0.4491 -0.2245 -0.0244
 5454SOL    HW127995   2.746   4.631   3.439  0.0172 -2.9743  0.8557
 5454SOL    HW227996   2.715   4.675   3.573  0.5595  1.8801 -0.8575
 5455SOL     OW27997   4.481   0.608   6.179  0.3347  0.3386 -0.0333
 5455SOL    HW127998   4.490   0.671   6.251 -0.9018 -0.7487  1.0802
 5455SOL    HW227999   4.557   0.623   6.123  0.4799 -0.0884  0.0474
 5456SOL     OW28000   3.064   4.196   4.561 -0.3557 -0.2668 -0.2241
 5456SOL    HW128001   3.097   4.163   4.644 -3.3611 -0.1362  1.0402
 5456SOL    HW228002   3.039   4.283   4.591  2.5886  0.6609 -0.5340
 5457SOL     OW28003   3.002   0.046   4.888  0.1937 -0.1002 -0.1952
 5457SOL    HW128004   3.005   4.692   4.921 -1.0645 -0.2601 -0.5310
 5457SOL    HW228005   3.090   0.077   4.910 -0.2102 -0.4433  1.8610
 5458SOL     OW28006   1.556   3.350   6.748  0.0846 -0.4927  0.1955
 5458SOL    HW128007   1.642   3.341   6.789 -0.6595  0.5571  1.9918
 5458SOL    HW228008   1.557   3.280   6.682 -0.0275  0.3362 -0.6879
 5459SOL     OW28009   0.539   2.404  13.834 -0.2858 -0.0504  0.7350
 5459SOL    HW128010   0.507   2.492  13.854 -2.9709 -0.4863 -1.4836
 5459SOL    HW228011   0.581   2.376  13.915 -0.9486 -2.4761  0.2700
 5460SOL     OW28012   3.294   0.073   3.499 -0.6605 -0.8248 -0.3352
 5460SOL    HW128013   3.202   0.055   3.480 -0.2974  1.2532 -4.0613
 5460SOL    HW228014   3.313   0.139   3.433 -0.5666  2.4442  2.9442
 5461SOL     OW28015   1.997   0.143   7.338 -0.3906 -0.1608 -0.2885
 5461SOL    HW128016   2.032   0.200   7.407  0.3316  1.9962 -2.4328
 5461SOL    HW228017   1.908   0.122   7.367 -1.8117  0.7734 -4.0280
 5462SOL     OW28018   4.189   0.315  13.546 -0.0108  0.2998  0.6455
 5462SOL    HW128019   4.134   0.377  13.594 -0.4114  0.6397 -0.2665
 5462SOL    HW228020   4.209   0.352  13.461 -1.3022 -1.4948 -0.4447
 5463SOL     OW28021   3.171   0.675   4.675 -0.2397 -0.6413 -0.0208
 5463SOL    HW128022   3.266   0.665   4.671 -0.2116 -0.6698  0.7789
 5463SOL    HW228023   3.151   0.681   4.769 -1.7887 -0.2298 -0.3739
 5464SOL     OW28024   3.832   2.090   9.872  0.3085 -0.6110  0.0405
 5464SOL    HW128025   3.860   2.005   9.838 -0.7337 -1.1916  0.6585
 5464SOL    HW228026   3.889   2.096   9.948  0.9083 -1.5873 -0.3298
 5465SOL     OW28027   0.493   2.614   0.245 -0.3232  1.0909 -0.0239
 5465SOL    HW128028   0.571   2.614   0.301 -1.5121 -0.6032  1.6184
 5465SOL    HW228029   0.514   2.687   0.186  1.5887 -2.0530 -3.1712
 5466SOL     OW28030   4.525   1.152   7.827  0.0265  0.3727 -0.3141
 5466SOL    HW128031   4.561   1.095   7.895 -1.9267  0.3777  0.7247
 5466SOL    HW228032   4.498   1.093   7.757 -0.3731 -0.0839  0.2192
 5467SOL     OW28033   3.255   2.305   4.853 -0.6044 -0.3778 -0.2501
 5467SOL    HW128034   3.295   2.385   4.821  0.4994  0.0078  2.0523
 5467SOL    HW228035   3.319   2.235   4.839  0.6793  0.9760 -1.0909
 5468SOL     OW28036   4.413   3.678   8.066 -0.0390 -0.0190  0.1546
 5468SOL    HW128037   4.457   3.739   8.125  2.2940  0.8546 -2.5134
 5468SOL    HW228038   4.325   3.680   8.104 -0.3244  2.4723 -0.6434
 5469SOL     OW28039   2.983   2.103  15.568  0.1962 -0.0766 -0.5892
 5469SOL    HW128040   2.954   2.028  15.517  1.5233  0.5863 -2.3106
 5469SOL    HW228041   3.046   2.149  15.512  1.1159 -1.0249 -0.3335
 5470SOL     OW28042   1.411   0.018   6.190  0.1437  0.0536  0.0224
 5470SOL    HW128043   1.465   0.076   6.243 -1.4848  0.3486  1.3731
 5470SOL    HW228044   1.328   0.022   6.237  0.3467 -0.5430  0.4215
 5471SOL     OW28045   4.311   4.086   7.331 -0.5968  0.0948  0.1842
 5471SOL    HW128046   4.312   4.078   7.426 -2.1637  0.8387  0.2681
 5471SOL    HW228047   4.400   4.118   7.317 -0.3720 -0.0901  1.2385
 5472SOL     OW28048   4.424   0.236   7.948  0.3368 -0.1982 -0.0316
 5472SOL    HW128049   4.466   0.321   7.950 -2.1678  1.0596 -1.2552
 5472SOL    HW228050   4.354   0.248   7.884  0.2790 -2.0075 -0.3142
 5473SOL     OW28051   3.839   1.193  14.464 -0.4028 -0.3344  0.8768
 5473SOL    HW128052   3.807   1.276  14.499 -0.0430 -0.1798  0.8285
 5473SOL    HW228053   3.892   1.225  14.392 -0.6389 -0.9144  0.4452
 5474SOL     OW28054   0.488   0.207   3.281 -0.8912 -0.5129 -0.1815
 5474SOL    HW128055   0.472   0.165   3.196  1.1515  2.7397 -2.1920
 5474SOL    HW228056   0.557   0.154   3.321 -0.3554  0.6551  0.4732
 5475SOL     OW28057   4.558   3.250  11.558 -0.0505 -0.4469 -0.5963
 5475SOL    HW128058   4.543   3.289  11.644  0.7824  1.8740 -1.5127
 5475SOL    HW228059   4.599   3.167  11.585 -0.2069 -0.6738 -1.0585
 5476SOL     OW28060   0.476   0.149  10.124  0.3880 -0.3512  0.0947
 5476SOL    HW128061   0.426   0.193  10.193  0.5456  1.7302 -1.1136
 5476SOL    HW228062   0.562   0.187  10.142  0.4969 -0.5077 -0.0996
 5477SOL     OW28063   3.596   4.295   6.221  0.6740 -0.4120  0.0262
 5477SOL    HW128064   3.558   4.213   6.252 -0.1094  0.8890  2.5209
 5477SOL    HW228065   3.680   4.261   6.191 -0.0020 -1.7847 -0.3371
 5478SOL     OW28066   2.402   1.799  11.746 -0.6259 -0.2952 -0.5175
 5478SOL    HW128067   2.307   1.807  11.746 -0.4764  1.4906 -1.4599
 5478SOL    HW228068   2.425   1.839  11.830  3.3656  1.5676 -2.5006
 5479SOL     OW28069   3.335   0.318   5.880 -0.3764  0.0501 -0.2573
 5479SOL    HW128070   3.332   0.399   5.829  1.3873 -0.7803 -1.6499
 5479SOL    HW228071   3.251   0.332   5.923  0.9601  1.6800  1.8352
 5480SOL     OW28072   1.143   1.169   3.216  0.1884 -0.1831 -0.0675
 5480SOL    HW128073   1.055   1.173   3.177 -0.3371 -2.2526  0.8783
 5480SOL    HW228074   1.153   1.076   3.236  0.4910 -0.4648 -1.5865
 5481SOL     OW28075   1.689   1.666   6.524  0.2240  0.0900 -0.3708
 5481SOL    HW128076   1.744   1.743   6.541 -0.9970  0.7415  0.6382
 5481SOL    HW228077   1.659   1.677   6.434 -0.4318 -0.7616 -0.2551
 5482SOL     OW28078   1.554   0.725   6.644  0.0841  0.2279  0.1641
 5482SOL    HW128079   1.545   0.798   6.583 -0.0095  0.4265  0.4177
 5482SOL    HW228080   1.565   0.650   6.584  0.8110  2.2538 -2.2187
 5483SOL     OW28081   2.395   1.835   4.440  0.3760  0.4938  0.4086
 5483SOL    HW128082   2.333   1.829   4.368 -0.8069  0.7413  1.4069
 5483SOL    HW228083   2.479   1.839   4.395  0.3589  0.6013  0.3857
 5484SOL     OW28084   2.922   1.351   3.440 -0.2423 -0.4061  0.0538
 5484SOL    HW128085   2.869   1.384   3.513 -0.7317  0.5270 -0.7178
 5484SOL    HW228086   3.006   1.374   3.480 -0.3556 -1.1366  0.7070
 5485SOL     OW28087   2.412   1.723  16.668  0.0421 -0.0712  0.7849
 5485SOL    HW128088   2.339   1.687  16.718 -0.5802  1.8586  1.2830
 5485SOL    HW228089   2.403   1.672  16.588  2.0542  1.2662 -0.2874
 5486SOL     OW28090   1.680   1.335  16.274  0.2557 -0.4595 -0.0362
 5486SOL    HW128091   1.602   1.280  16.271  0.1621 -0.4707  2.2346
 5486SOL    HW228092   1.644   1.415  16.313  0.2585 -0.4083 -0.1408
 5487SOL     OW28093   4.418   0.983   4.419 -0.4364  0.3900  0.0727
 5487SOL    HW128094   4.411   1.074   4.449  0.4560  1.3244 -2.6502
 5487SOL    HW228095   4.428   1.007   4.327 -2.1164  0.6143 -0.0570
 5488SOL     OW28096   3.703   2.881   4.651  0.1108 -0.5618 -0.0846
 5488SOL    HW128097   3.635   2.891   4.584  0.2052 -0.0597 -0.1016
 5488SOL    HW228098   3.646   2.855   4.724 -2.2736  1.8261 -1.1233
 5489SOL     OW28099   1.410   4.177   1.732 -0.0828  0.7011  0.5324
 5489SOL    HW128100   1.419   4.084   1.751 -1.2230  0.4893  0.0256
 5489SOL    HW228101   1.364   4.188   1.649 -0.9735  0.5311  1.0074
 5490SOL     OW28102   4.666   3.557   4.694 -0.8280  0.1170 -0.3518
 5490SOL    HW128103   4.674   3.476   4.644  2.0177 -1.1692  2.1837
 5490SOL    HW228104   4.677   3.523   4.783 -2.8611 -0.4731 -0.3273
 5491SOL     OW28105   1.146   0.655   5.713 -0.0668 -0.0165  0.5255
 5491SOL    HW128106   1.217   0.694   5.765 -1.6382  1.7220  1.3536
 5491SOL    HW228107   1.144   0.564   5.743  1.4434 -0.3410 -0.3609
 5492SOL     OW28108   3.593   0.881   6.086  0.0326  0.7127 -0.0081
 5492SOL    HW128109   3.567   0.806   6.138  0.8674  1.5559  1.6131
 5492SOL    HW228110   3.668   0.851   6.035 -0.3257 -0.9676  0.4473
 5493SOL     OW28111   3.286   0.114   8.634 -0.1247 -0.0600 -0.5716
 5493SOL    HW128112   3.368   0.157   8.608 -0.0630  1.2280  1.8315
 5493SOL    HW228113   3.308   0.051   8.701  2.1734  1.8257  0.4523
 5494SOL     OW28114   0.100   4.616  13.484 -0.4904 -0.3536  0.2104
 5494SOL    HW128115   0.130   4.603  13.575  0.4332  1.5610  0.1851
 5494SOL    HW228116   0.016   4.662  13.492 -0.1303  0.2718  0.4207
 5495SOL     OW28117   2.740   2.069   9.091  0.7031  0.3728  0.0967
 5495SOL    HW128118   2.705   2.097   9.007  1.2270  1.1632  0.1445
 5495SOL    HW228119   2.772   2.148   9.135 -1.4430  1.2471  0.0796
 5496SOL     OW28120   2.062   2.534   3.003  0.3703 -0.0198 -0.1488
 5496SOL    HW128121   2.040   2.493   2.919  0.2043 -0.7537  0.2452
 5496SOL    HW228122   1.982   2.582   3.022  1.4187  0.6312  2.5060
 5497SOL     OW28123   3.931   1.195  10.868  0.5946  0.1203  0.8040
 5497SOL    HW128124   3.966   1.284  10.875  1.3654 -0.1319  0.2373
 5497SOL    HW228125   3.874   1.191  10.945 -0.7526  0.6107 -0.1671
 5498SOL     OW28126   1.238   0.801  11.375  0.2007  0.6442  0.1718
 5498SOL    HW128127   1.306   0.763  11.431  1.8946 -0.7590 -2.8176
 5498SOL    HW228128   1.202   0.869  11.431 -0.5749  0.2289  0.1815
 5499SOL     OW28129   1.454   4.043  12.672  0.0890 -0.1908  0.3754
 5499SOL    HW128130   1.417   4.117  12.720 -1.3745  0.4687 -1.7569
 5499SOL    HW228131   1.539   4.075  12.643  0.4967 -0.6862  1.0103
 5500SOL     OW28132   2.389   0.966   5.543  0.1870  0.6919 -0.2574
 5500SOL    HW128133   2.297   0.973   5.515 -0.1699 -0.6077  0.5917
 5500SOL    HW228134   2.428   0.919   5.469 -1.1402 -0.1762 -0.4243
 5501SOL     OW28135   0.096   0.503   5.538 -0.3866  0.6388 -0.3155
 5501SOL    HW128136   0.152   0.489   5.614  0.6198  0.3577 -1.1176
 5501SOL    HW228137   0.012   0.534   5.573 -1.1891 -1.8016 -0.0461
 5502SOL     OW28138   3.887   3.591   1.602 -0.3910 -0.2796  0.9968
 5502SOL    HW128139   3.892   3.561   1.693 -0.3349 -1.4323  0.6203
 5502SOL    HW228140   3.795   3.582   1.579 -0.8112  0.6506  2.3188
 5503SOL     OW28141   1.278   0.458  13.692 -0.0502 -0.5422  0.4134
 5503SOL    HW128142   1.316   0.512  13.622 -1.3854  0.7727  0.7075
 5503SOL    HW228143   1.257   0.372  13.656 -0.0148  0.6609 -2.5093
 5504SOL     OW28144   0.234   2.445   8.262  0.3652 -0.4729 -0.0435
 5504SOL    HW128145   0.228   2.539   8.247  1.3879 -0.5977 -1.2545
 5504SOL    HW228146   0.255   2.449   8.355  0.4780 -1.4290 -0.0249
 5505SOL     OW28147   2.983   0.135  15.929  0.3198 -0.3556 -0.3769
 5505SOL    HW128148   2.968   0.069  15.997  2.2765 -0.6053 -0.1874
 5505SOL    HW228149   3.044   0.090  15.870  0.2778  0.2554 -0.8813
 5506SOL     OW28150   1.883   3.021   2.035  0.2035  0.5147  0.4931
 5506SOL    HW128151   1.810   3.035   1.974 -0.8938 -0.8451  1.4758
 5506SOL    HW228152   1.848   2.955   2.095  0.3530 -0.8216 -0.8933
 5507SOL     OW28153   1.599   0.545   6.398  0.3552 -0.7548 -0.1766
 5507SOL    HW128154   1.534   0.476   6.414  1.5452 -1.7482  0.3931
 5507SOL    HW228155   1.547   0.613   6.357  0.8018 -1.0159 -1.1799
 5508SOL     OW28156   1.193   4.701  10.643  0.1115 -0.4155 -0.1638
 5508SOL    HW128157   1.120   4.644  10.618 -0.4535  0.5104 -0.6550
 5508SOL    HW228158   1.224   4.663  10.725  0.7339  1.2301  0.3696
 5509SOL     OW28159   1.717   2.298   4.203 -0.0766  0.3190  0.1332
 5509SOL    HW128160   1.647   2.261   4.150 -0.8699  2.0487 -0.0205
 5509SOL    HW228161   1.752   2.220   4.246 -1.2393 -0.5040 -0.4154
 5510SOL     OW28162   0.721   2.293  14.060  0.7382  0.2964  0.4858
 5510SOL    HW128163   0.759   2.357  14.120  2.1929  0.1165 -0.2271
 5510SOL    HW228164   0.778   2.222  14.088 -0.1814 -1.2589 -1.5999
 5511SOL     OW28165   4.192   1.132   8.111 -0.0095  0.0246  0.6068
 5511SOL    HW128166   4.265   1.179   8.151 -0.4560 -0.9537  2.5721
 5511SOL    HW228167   4.212   1.166   8.024 -0.7123 -1.6583 -0.2000
 5512SOL     OW28168   0.454   0.392  17.505 -0.1656 -0.2893 -0.3731
 5512SOL    HW128169   0.481   0.301  17.498  0.5118 -0.0735 -0.5474
 5512SOL    HW228170   0.492   0.426  17.424 -0.3201  0.0748 -0.2928
 5513SOL     OW28171   3.127   1.076   2.763 -0.3201 -0.0941  0.7263
 5513SOL    HW128172   3.097   1.167   2.772  1.7804  0.5161  1.5753
 5513SOL    HW228173   3.043   1.029   2.760 -1.3312  1.8446 -0.8506
 5514SOL     OW28174   2.414   2.762  12.633 -0.2823 -0.2258  0.3299
 5514SOL    HW128175   2.461   2.684  12.604 -0.9688 -0.4902 -0.0713
 5514SOL    HW228176   2.442   2.771  12.724  0.4771 -1.2588  0.1984
 5515SOL     OW28177   0.602   0.488   6.244 -0.6668  0.1285 -0.0785
 5515SOL    HW128178   0.598   0.395   6.221 -0.1788  0.5532 -1.9374
 5515SOL    HW228179   0.619   0.467   6.335  0.5754 -2.6267 -0.9459
 5516SOL     OW28180   0.007   2.283   2.805 -0.0652 -0.0478 -0.1064
 5516SOL    HW128181   0.081   2.225   2.784  0.5069  0.5455  0.2527
 5516SOL    HW228182   4.728   2.231   2.885  1.5809 -1.9172 -1.0193
 5517SOL     OW28183   0.409   0.029   7.587  0.4230  0.4807  0.2054
 5517SOL    HW128184   0.457   0.069   7.515 -0.1793  1.9031  0.6050
 5517SOL    HW228185   0.448   4.676   7.591  1.3046  0.7865 -1.4952
 5518SOL     OW28186   0.086   0.063  16.417 -0.0954 -0.2395  0.0517
 5518SOL    HW128187   0.048   0.072  16.330  0.2850  3.1469  0.2659
 5518SOL    HW228188   0.176   0.081  16.393  0.1532 -0.9377  0.4577
 5519SOL     OW28189   3.845   0.213  14.639 -0.0042 -0.1578  0.3629
 5519SOL    HW128190   3.790   0.267  14.696 -0.1444  0.5134 -0.4131
 5519SOL    HW228191   3.925   0.206  14.692  1.5102 -2.0025 -2.1836
 5520SOL     OW28192   0.637   3.973   1.379 -0.2223  0.0533  0.2896
 5520SOL    HW128193   0.716   3.955   1.430  0.4305  1.0093 -0.3879
 5520SOL    HW228194   0.583   4.004   1.452 -2.3119  1.8263 -1.9984
 5521SOL     OW28195   0.605   4.079   1.134  0.7067  0.0683 -0.1196
 5521SOL    HW128196   0.648   4.064   1.218 -0.2546  0.5104  0.4644
 5521SOL    HW228197   0.519   4.043   1.156  0.0085  0.4395 -2.2510
 5522SOL     OW28198   0.745   3.089   9.995  0.3287 -0.0433  0.1606
 5522SOL    HW128199   0.786   3.120  10.076  3.0312 -1.5278 -0.6367
 5522SOL    HW228200   0.810   3.034   9.952  0.1236  0.7910 -1.2176
 5523SOL     OW28201   1.167   4.048  17.340 -0.1267 -0.3448  0.3174
 5523SOL    HW128202   1.168   4.115  17.271  2.5467 -1.6033 -0.8361
 5523SOL    HW228203   1.122   4.103  17.404 -0.0940 -1.1708  1.0483
 5524SOL     OW28204   3.661   1.202   7.113 -0.1574 -0.3712  0.0346
 5524SOL    HW128205   3.700   1.136   7.171 -0.3690  0.2431  0.8605
 5524SOL    HW228206   3.685   1.277   7.166 -0.6391 -0.0021 -0.2694
 5525SOL     OW28207   3.417   2.678   4.578  0.0547  0.0974  0.3789
 5525SOL    HW128208   3.393   2.628   4.656 -0.7335  0.9225  0.6690
 5525SOL    HW228209   3.327   2.707   4.559 -0.2030  0.2949  1.8643
 5526SOL     OW28210   0.110   1.771   8.143  0.0309 -0.1005 -0.2897
 5526SOL    HW128211   0.063   1.688   8.158  0.7676 -0.4260  0.2030
 5526SOL    HW228212   0.098   1.783   8.049  2.5243  0.3078 -0.5538
 5527SOL     OW28213   1.721   3.868  14.708 -0.3741  0.1324 -0.3884
 5527SOL    HW128214   1.762   3.787  14.740 -1.8111 -0.0872  0.8737
 5527SOL    HW228215   1.785   3.878  14.637  0.3353  0.8313  0.3535
 5528SOL     OW28216   2.205   4.473   4.581  0.2673 -0.0610  0.0306
 5528SOL    HW128217   2.284   4.495   4.531  0.6296 -2.8943 -0.6790
 5528SOL    HW228218   2.203   4.550   4.637  0.6151  0.8316 -1.1822
 5529SOL     OW28219   4.514   1.676   9.224  0.2528 -0.0638  0.1940
 5529SOL    HW128220   4.442   1.708   9.169  0.2180 -1.8386 -0.8290
 5529SOL    HW228221   4.478   1.593   9.255  2.4133 -1.8082 -1.9300
 5530SOL     OW28222   0.643   1.097   5.287 -0.4723 -0.5857 -0.3895
 5530SOL    HW128223   0.556   1.083   5.250 -0.4001  0.3409 -0.9037
 5530SOL    HW228224   0.636   1.187   5.316 -1.9662 -0.8721  0.1162
 5531SOL     OW28225   3.181   1.888   0.527  0.0506  0.1138  0.3067
 5531SOL    HW128226   3.130   1.916   0.451 -0.5507  3.6008  1.9344
 5531SOL    HW228227   3.146   1.958   0.584 -0.2755 -0.2366  0.5413
 5532SOL     OW28228   4.000   3.300   8.890 -0.1120  0.0561 -0.7815
 5532SOL    HW128229   3.908   3.280   8.874  0.1719 -0.9930 -1.1101
 5532SOL    HW228230   4.021   3.341   8.806  1.6555 -1.0773 -0.9012
 5533SOL     OW28231   3.412   4.536  16.946 -0.3268  0.5068 -0.7061
 5533SOL    HW128232   3.423   4.630  16.960 -1.1246  0.3101  1.2223
 5533SOL    HW228233   3.471   4.508  17.016 -1.4581 -0.2034 -0.0568
 5534SOL     OW28234   1.777   2.491   1.369 -0.2165 -0.6642 -0.0606
 5534SOL    HW128235   1.719   2.419   1.344 -2.5903  0.6179  1.7170
 5534SOL    HW228236   1.857   2.462   1.324 -0.4890  0.3564 -1.2091
 5535SOL     OW28237   0.890   2.925   7.916 -0.4098  0.0236 -0.4042
 5535SOL    HW128238   0.943   3.001   7.941  2.6687 -1.1142 -3.5981
 5535SOL    HW228239   0.949   2.876   7.859 -3.0785 -4.5657  0.8128
 5536SOL     OW28240   2.944   2.215   0.792 -0.3458 -0.0869 -0.1910
 5536SOL    HW128241   2.930   2.200   0.885  0.4674  0.2350 -0.0111
 5536SOL    HW228242   2.854   2.216   0.760 -1.7322  1.2890  3.7559
 5537SOL     OW28243   2.570   0.809   5.679 -0.2319  0.4250  0.5624
 5537SOL    HW128244   2.542   0.733   5.731 -0.7404 -0.8504 -1.5334
 5537SOL    HW228245   2.531   0.883   5.725 -0.5926  0.2016  0.6213
 5538SOL     OW28246   3.263   4.636   6.621  0.1371  0.1352  0.1101
 5538SOL    HW128247   3.335   4.590   6.579  1.0029  0.6533  1.0041
 5538SOL    HW228248   3.302   4.662   6.705 -1.2684 -1.2147  1.1882
 5539SOL     OW28249   3.220   2.337   8.626 -0.5708  0.0427  0.0839
 5539SOL    HW128250   3.251   2.317   8.715 -1.9335 -0.3516  0.4741
 5539SOL    HW228251   3.244   2.429   8.618 -0.0214 -0.0687  0.4392
 5540SOL     OW28252   1.165   1.970  10.751  0.7445  0.2281 -0.4645
 5540SOL    HW128253   1.182   1.876  10.743 -2.1729 -0.4242  0.6492
 5540SOL    HW228254   1.072   1.975  10.725  0.9155 -0.7193 -1.2571
 5541SOL     OW28255   4.386   1.782   8.136  0.2654  0.3454 -0.0957
 5541SOL    HW128256   4.369   1.688   8.128  0.3537  0.3793 -0.7461
 5541SOL    HW228257   4.464   1.792   8.190  1.8882 -1.0750 -2.1607
 5542SOL     OW28258   1.983   3.964   4.707  0.4422  0.0477  0.6842
 5542SOL    HW128259   2.074   3.995   4.714 -0.4471  3.2216 -2.1507
 5542SOL    HW228260   1.925   4.022   4.756 -0.7929 -0.6877  0.0722
 5543SOL     OW28261   2.873   1.714   3.712 -0.3020  0.5611  0.0022
 5543SOL    HW128262   2.931   1.767   3.657 -1.5273 -0.1688 -1.9976
 5543SOL    HW228263   2.794   1.732   3.662 -0.9336  1.4272  1.3336
 5544SOL     OW28264   4.621   0.653   7.210  0.5372  0.4702  0.2946
 5544SOL    HW128265   4.563   0.607   7.150 -0.0229  2.7381 -0.8946
 5544SOL    HW228266   4.702   0.603   7.197  1.0640  1.4829 -0.3617
 5545SOL     OW28267   1.447   2.343  17.201 -0.2507 -0.0033  0.2692
 5545SOL    HW128268   1.531   2.389  17.204  0.0491 -0.4357 -1.1394
 5545SOL    HW228269   1.488   2.268  17.156 -0.1489  0.7318 -0.8679
 5546SOL     OW28270   4.506   3.844   5.421 -0.1187 -0.0335  0.5946
 5546SOL    HW128271   4.417   3.813   5.409 -0.3140  0.1631  1.5263
 5546SOL    HW228272   4.492   3.913   5.487 -2.6783 -1.3337  1.3967
 5547SOL     OW28273   3.941   2.371   3.940  0.6097 -0.4354  0.2643
 5547SOL    HW128274   3.912   2.462   3.941  1.3974 -0.1768 -0.2078
 5547SOL    HW228275   3.950   2.365   4.035 -0.5879  0.3210  0.4129
 5548SOL     OW28276   0.643   3.502   4.807 -0.1737 -0.0403  0.1644
 5548SOL    HW128277   0.736   3.479   4.808 -0.1655 -0.2091 -3.1575
 5548SOL    HW228278   0.622   3.467   4.720  0.6257  1.3750 -0.6065
 5549SOL     OW28279   3.821   0.075   5.952 -0.3938 -0.5878  0.3729
 5549SOL    HW128280   3.765   0.075   5.874  0.9413  0.3151 -0.5836
 5549SOL    HW228281   3.764   0.108   6.021  0.4180  1.0880  0.2497
 5550SOL     OW28282   2.088   0.790   6.158 -0.3065 -0.0842 -0.5482
 5550SOL    HW128283   2.129   0.713   6.198 -1.2290  0.4090  1.3404
 5550SOL    HW228284   2.150   0.814   6.088 -0.2874 -1.0092 -0.8501
 5551SOL     OW28285   3.865   4.187   2.962  0.7661  0.3292 -0.5913
 5551SOL    HW128286   3.809   4.142   3.025 -1.0090  1.2434 -1.5437
 5551SOL    HW228287   3.926   4.229   3.023 -0.1209  0.7953 -0.0429
 5552SOL     OW28288   0.283   0.752   0.077  0.5066  0.1334 -0.2563
 5552SOL    HW128289   0.261   0.671   0.123  1.9672 -0.6351 -0.8998
 5552SOL    HW228290   0.368   0.767   0.119  1.1789  0.8634 -1.8616
 5553SOL     OW28291   0.318   0.315   3.825 -0.3473  0.1880  0.1809
 5553SOL    HW128292   0.361   0.391   3.864  0.4399 -0.8792  1.4057
 5553SOL    HW228293   0.334   0.319   3.731 -1.4830  0.7396  0.0033
 5554SOL     OW28294   0.997   4.141   6.312 -0.5974  0.1859  0.2311
 5554SOL    HW128295   1.022   4.119   6.402  0.7041 -0.6136 -0.3191
 5554SOL    HW228296   1.076   4.191   6.289 -1.4013  1.1363 -0.4451
 5555SOL     OW28297   1.101   3.611   2.672 -0.2628 -0.0002 -0.0827
 5555SOL    HW128298   1.090   3.705   2.657  1.8996  0.3356  0.4714
 5555SOL    HW228299   1.117   3.605   2.766 -0.8791  1.2623  0.1017
 5556SOL     OW28300   1.121   0.336  17.179 -0.4207  0.7216 -0.3375
 5556SOL    HW128301   1.092   0.246  17.198  3.3275 -0.9694 -2.5331
 5556SOL    HW228302   1.056   0.379  17.124 -1.5235  1.0807  1.2713
 5557SOL     OW28303   2.264   4.575   8.352  0.3241 -0.1986 -0.8174
 5557SOL    HW128304   2.200   4.516   8.311 -1.6224  0.5163  1.1728
 5557SOL    HW228305   2.325   4.517   8.397 -0.2599  0.0096  0.2569
 5558SOL     OW28306   0.602   0.457   3.172  0.1914 -0.0929  0.1663
 5558SOL    HW128307   0.595   0.505   3.254  1.8574 -0.6240  0.6089
 5558SOL    HW228308   0.564   0.371   3.194 -1.5248  0.5203 -0.3908
 5559SOL     OW28309   3.672   0.944   3.721  0.1857 -0.1296 -0.2071
 5559SOL    HW128310   3.600   0.923   3.662  0.0512  0.8175 -0.3781
 5559SOL    HW228311   3.637   1.025   3.756 -0.0018  0.5417 -1.9476
 5560SOL     OW28312   3.394   3.396   5.071  0.0712 -0.0256  0.3755
 5560SOL    HW128313   3.477   3.425   5.034  0.0578  1.0188  1.1826
 5560SOL    HW228314   3.352   3.474   5.107  0.2899  0.1126  0.3322
 5561SOL     OW28315   0.117   3.563   8.441  0.4351  0.6219 -0.6978
 5561SOL    HW128316   0.030   3.550   8.401 -0.7511  1.7636  1.5615
 5561SOL    HW228317   0.152   3.475   8.451  1.6960  0.9937 -1.8212
 5562SOL     OW28318   3.332   3.624   3.170 -0.5835 -0.0321 -0.0867
 5562SOL    HW128319   3.279   3.687   3.218  0.1454  1.0002 -0.6295
 5562SOL    HW228320   3.333   3.553   3.234 -0.2982  0.4407  0.4357
 5563SOL     OW28321   3.376   1.717   9.152 -0.3884 -0.1425  0.3093
 5563SOL    HW128322   3.390   1.630   9.187 -0.1785 -0.7093 -1.1611
 5563SOL    HW228323   3.333   1.697   9.069 -0.7684 -3.7353  1.3679
 5564SOL     OW28324   2.974   1.609   5.945  0.0464 -0.1761 -0.1554
 5564SOL    HW128325   3.008   1.533   5.992 -1.7297  0.4808  2.1580
 5564SOL    HW228326   3.056   1.656   5.925 -0.5218  0.3299 -1.2922
 5565SOL     OW28327   3.528   4.689   0.807 -0.1070  0.0535 -0.8945
 5565SOL    HW128328   3.484   4.710   0.724 -2.9572  1.0532  0.8956
 5565SOL    HW228329   3.532   0.040   0.849  1.2641 -0.7289  0.5697
 5566SOL     OW28330   0.366   0.992   5.332  0.1848 -0.1403 -0.3164
 5566SOL    HW128331   0.326   1.032   5.255 -0.7506  0.9504  0.7334
 5566SOL    HW228332   0.299   0.929   5.358  0.1836  0.3014  0.7444
 5567SOL     OW28333   2.832   1.499   0.160  0.0266 -0.5932 -0.0120
 5567SOL    HW128334   2.753   1.472   0.206 -0.7530  1.2754 -0.2544
 5567SOL    HW228335   2.822   1.458   0.074  0.2866  1.5173 -1.0617
 5568SOL     OW28336   3.013   2.283  16.918 -0.2789 -0.0706 -0.3015
 5568SOL    HW128337   2.983   2.206  16.869  0.4389  0.4381 -1.5359
 5568SOL    HW228338   2.992   2.265  17.009  0.2152 -0.1610 -0.2086
 5569SOL     OW28339   4.401   2.305  12.338 -0.0490 -0.1753 -0.1115
 5569SOL    HW128340   4.342   2.299  12.413 -0.2346 -0.5750 -0.2890
 5569SOL    HW228341   4.340   2.342  12.273  0.1949 -1.6105 -1.1463
 5570SOL     OW28342   3.151   0.258   1.498  0.5744  0.1445  0.1339
 5570SOL    HW128343   3.144   0.349   1.471  0.3427  0.7033  2.0561
 5570SOL    HW228344   3.077   0.218   1.452 -0.1989 -1.4918  2.7785
 5571SOL     OW28345   3.570   2.157  11.968  0.1838 -0.3269  0.7994
 5571SOL    HW128346   3.643   2.098  11.950 -0.8496 -1.4786  0.4382
 5571SOL    HW228347   3.599   2.247  11.984  0.8962 -0.6210  1.1887
 5572SOL     OW28348   0.395   2.005   7.076 -0.0565 -0.2149 -1.0105
 5572SOL    HW128349   0.322   2.046   7.029 -1.9070 -1.1549  1.0217
 5572SOL    HW228350   0.436   1.956   7.005 -0.8117 -1.5929 -0.4901
 5573SOL     OW28351   2.524   2.553  15.914 -0.0233 -0.1149 -0.2669
 5573SOL    HW128352   2.601   2.594  15.876 -1.3793  3.3704  0.6665
 5573SOL    HW228353   2.564   2.488  15.972  2.4609  1.4595 -0.2007
 5574SOL     OW28354   3.723   1.782  17.729 -0.0009 -0.1702  1.0001
 5574SOL    HW128355   3.697   1.870   0.017  1.6398  0.6030  0.0623
 5574SOL    HW228356   3.645   1.737   0.020  0.6206 -1.0442  1.3082
 5575SOL     OW28357   0.812   3.223   6.241 -0.0438  0.1071 -0.4934
 5575SOL    HW128358   0.839   3.279   6.313 -2.6987  1.0533 -0.2325
 5575SOL    HW228359   0.780   3.147   6.290 -0.4258 -0.9766 -2.4424
 5576SOL     OW28360   4.587   2.453   7.691  0.1942 -0.1703 -0.1240
 5576SOL    HW128361   4.531   2.460   7.768 -2.0122  1.4678 -1.8830
 5576SOL    HW228362   4.611   2.545   7.686  0.3929 -0.3590 -2.6848
 5577SOL     OW28363   3.471   2.661   3.367 -0.5357 -1.0088 -0.1734
 5577SOL    HW128364   3.520   2.580   3.382  2.8595  0.5709 -2.8150
 5577SOL    HW228365   3.410   2.633   3.299  1.0050 -1.0852 -1.5053
 5578SOL     OW28366   4.359   3.102   7.891  0.2222  0.0985 -0.0014
 5578SOL    HW128367   4.360   3.065   7.979  0.0918 -0.6507 -0.3133
 5578SOL    HW228368   4.420   3.175   7.901  0.3516 -0.0081 -0.0146
 5579SOL     OW28369   4.194   2.610  14.272  0.1720 -0.0563 -0.4265
 5579SOL    HW128370   4.194   2.515  14.263 -4.7257 -0.0659 -0.4799
 5579SOL    HW228371   4.285   2.635  14.287  0.4449 -2.0161  1.1971
 5580SOL     OW28372   0.976   2.115  10.175 -0.0817  0.0741  0.0390
 5580SOL    HW128373   0.899   2.169  10.157  0.1359  0.4946  0.3681
 5580SOL    HW228374   0.928   2.034  10.189 -2.3734  1.6910  1.4336
 5581SOL     OW28375   3.347   0.502   2.481  0.3906 -0.1203  0.2353
 5581SOL    HW128376   3.388   0.436   2.425  0.4582 -1.4849  1.8649
 5581SOL    HW228377   3.261   0.465   2.504 -0.3522  2.2134  1.1598
 5582SOL     OW28378   4.694   2.798   1.808  0.2989 -0.6799 -0.3050
 5582SOL    HW128379   0.054   2.801   1.821  0.3011 -0.4219 -0.3771
 5582SOL    HW228380   4.665   2.747   1.884  0.0768 -1.5776 -0.9931
 5583SOL     OW28381   2.112   3.597  16.850 -0.5050  0.2204  0.1597
 5583SOL    HW128382   2.198   3.640  16.847 -0.8734  1.0565  1.6774
 5583SOL    HW228383   2.082   3.626  16.936 -0.2111 -0.7354  0.5820
 5584SOL     OW28384   1.630   4.525   8.783  0.2834 -0.0712 -0.2129
 5584SOL    HW128385   1.669   4.477   8.710  0.2486 -1.5163  0.7183
 5584SOL    HW228386   1.712   4.553   8.823 -0.2681  1.8285 -0.4146
 5585SOL     OW28387   0.183   4.541   2.254  0.0843  0.1872 -0.0641
 5585SOL    HW128388   0.200   4.586   2.172 -1.6053 -0.2922 -0.6736
 5585SOL    HW228389   0.090   4.560   2.257  0.1226  0.1676  1.1782
 5586SOL     OW28390   4.354   0.701  13.441 -0.2999  0.3840  0.3446
 5586SOL    HW128391   4.370   0.674  13.531  4.1300  1.0261 -0.2366
 5586SOL    HW228392   4.313   0.787  13.447  1.2542  1.1635 -0.0835
 5587SOL     OW28393   3.180   1.715   0.090 -0.0489  0.2230 -0.0613
 5587SOL    HW128394   3.108   1.723   0.152 -1.0134  2.6386 -1.4765
 5587SOL    HW228395   3.144   1.663   0.019  0.7862 -1.0550  0.4516
 5588SOL     OW28396   4.321   3.588   2.822  0.5285 -0.3744 -0.3792
 5588SOL    HW128397   4.238   3.630   2.845  1.5399  3.0099 -2.9586
 5588SOL    HW228398   4.310   3.495   2.840 -0.7473 -0.0132  0.6694
 5589SOL     OW28399   4.007   3.437   8.366 -0.1976  0.0024 -0.0329
 5589SOL    HW128400   4.001   3.381   8.289 -2.2407  2.1098 -1.3936
 5589SOL    HW228401   4.089   3.482   8.346 -1.2891  1.9274 -0.1776
 5590SOL     OW28402   2.004   2.032   5.355  0.0976  1.2476 -0.4677
 5590SOL    HW128403   1.999   2.015   5.260  0.8634  3.2203 -0.8623
 5590SOL    HW228404   2.096   2.016   5.375 -0.0401  0.2026 -0.6475
 5591SOL     OW28405   3.449   0.993   3.002  0.1346  0.1504  0.4368
 5591SOL    HW128406   3.392   0.932   2.955  1.0893  0.3196 -0.9161
 5591SOL    HW228407   3.415   0.976   3.090 -1.3920  1.0825  0.0217
 5592SOL     OW28408   0.769   1.666  12.559  0.5530  0.2819  0.1493
 5592SOL    HW128409   0.841   1.605  12.544  0.3318 -0.6888  2.9224
 5592SOL    HW228410   0.767   1.661  12.655  0.1139 -0.5576  0.0979
 5593SOL     OW28411   2.357   4.097   8.815 -0.4803 -0.1997 -0.3791
 5593SOL    HW128412   2.322   4.081   8.903 -1.0093 -1.5643 -0.8391
 5593SOL    HW228413   2.437   4.045   8.805  0.3533  0.6040  2.0871
 5594SOL     OW28414   2.651   1.770   6.172 -0.3594 -0.0424 -0.4751
 5594SOL    HW128415   2.618   1.859   6.158  1.2827  0.9710  2.2297
 5594SOL    HW228416   2.744   1.787   6.154 -0.1214 -0.3880  0.4327
 5595SOL     OW28417   3.454   3.438   7.758 -0.1928 -0.3878  0.0153
 5595SOL    HW128418   3.395   3.496   7.709 -1.2228 -1.8709 -0.5204
 5595SOL    HW228419   3.471   3.500   7.829 -0.7990  0.7976 -0.8707
 5596SOL     OW28420   1.957   3.316   4.046 -0.3658 -0.1019 -0.4064
 5596SOL    HW128421   2.049   3.289   4.046 -0.8174 -1.6795 -0.4768
 5596SOL    HW228422   1.909   3.242   4.007  0.1465  0.3346 -1.8647
 5597SOL     OW28423   2.047   0.196   4.699 -0.3544 -0.4938  0.4995
 5597SOL    HW128424   1.989   0.188   4.624  0.1706  0.5525 -0.0061
 5597SOL    HW228425   2.091   0.277   4.674 -0.0088 -0.9344 -0.3009
 5598SOL     OW28426   1.967   2.524  14.762 -0.1846  0.4951 -0.6392
 5598SOL    HW128427   1.963   2.591  14.694  0.2898  0.6072 -0.5554
 5598SOL    HW228428   1.877   2.496  14.744  0.6759 -0.8002 -2.8687
 5599SOL     OW28429   0.417   1.722   6.532  0.2412 -0.4954  0.3459
 5599SOL    HW128430   0.376   1.787   6.475  0.9906 -4.0344 -4.1315
 5599SOL    HW228431   0.466   1.785   6.586  1.5050 -3.2793  2.4125
 5600SOL     OW28432   2.113   0.883   1.254 -0.6285 -0.4151  0.6020
 5600SOL    HW128433   2.123   0.873   1.349  0.2853  0.8613  0.6440
 5600SOL    HW228434   2.095   0.795   1.222 -0.4563 -0.7960  1.5633
 5601SOL     OW28435   2.735   4.527   4.785  0.8150 -0.3657  0.0884
 5601SOL    HW128436   2.746   4.614   4.747 -1.3771 -1.0052 -2.0319
 5601SOL    HW228437   2.752   4.550   4.876  1.3553 -2.1004  0.4212
 5602SOL     OW28438   3.856   0.263   5.201 -0.2753  0.5384 -0.4290
 5602SOL    HW128439   3.900   0.259   5.116  0.6471 -0.3340  0.0905
 5602SOL    HW228440   3.877   0.355   5.217  2.8120 -0.2187 -0.1451
 5603SOL     OW28441   0.063   4.158  13.752  0.3142  0.3315  0.0991
 5603SOL    HW128442   0.117   4.105  13.811  1.1493  1.9662  0.8200
 5603SOL    HW228443   0.131   4.224  13.736 -2.3426  2.9501 -0.3725
 5604SOL     OW28444   0.349   2.267  17.308  0.2515  0.3591 -0.0129
 5604SOL    HW128445   0.411   2.306  17.369 -0.6226 -0.2816  1.2798
 5604SOL    HW228446   0.381   2.178  17.296 -1.2311  0.1137 -2.2389
 5605SOL     OW28447   3.634   0.162   6.983  0.6687 -0.3532  0.1041
 5605SOL    HW128448   3.571   0.221   7.024  0.0599  0.1581 -1.5777
 5605SOL    HW228449   3.668   0.221   6.915  2.3866 -1.0574  0.3582
 5606SOL     OW28450   2.923   1.534   6.459  0.1028 -0.0059  0.0149
 5606SOL    HW128451   2.875   1.616   6.458  1.8363  0.9630 -2.3247
 5606SOL    HW228452   2.930   1.526   6.555  0.5428  0.6184  0.0334
 5607SOL     OW28453   4.034   3.643   5.521 -0.1683  0.1429  0.6390
 5607SOL    HW128454   4.024   3.597   5.604 -0.8389  0.2103  0.5968
 5607SOL    HW228455   4.122   3.679   5.516 -0.5210  0.8287 -0.6235
 5608SOL     OW28456   0.100   0.851   2.319 -0.5607 -0.2492 -0.2004
 5608SOL    HW128457   0.187   0.844   2.281  0.6112  2.6699  1.9104
 5608SOL    HW228458   0.103   0.922   2.384  1.4290  0.8222 -1.4608
 5609SOL     OW28459   1.160   0.090   4.043  0.2100  0.0991 -0.2515
 5609SOL    HW128460   1.155   0.015   4.102 -0.2410  0.6477  0.4084
 5609SOL    HW228461   1.176   0.167   4.097 -0.2734  1.1454 -1.5847
 5610SOL     OW28462   1.369   2.199   5.538 -0.1268  0.0659  0.3673
 5610SOL    HW128463   1.438   2.265   5.546  1.5385 -1.5368 -0.7843
 5610SOL    HW228464   1.322   2.229   5.460  0.1353 -1.2380 -0.2929
 5611SOL     OW28465   3.534   4.653  16.511  0.4836  0.7586  0.4970
 5611SOL    HW128466   3.543   4.590  16.583  2.4491  0.6944  0.2153
 5611SOL    HW228467   3.626   4.680  16.507  1.0611 -1.1228  1.0502
 5612SOL     OW28468   2.141   4.330   5.422  0.0536  0.1281 -0.1146
 5612SOL    HW128469   2.165   4.238   5.432  1.3955  0.5424  0.5022
 5612SOL    HW228470   2.109   4.347   5.510 -0.3297  2.1112 -0.6406
 5613SOL     OW28471   4.707   0.884   4.005 -0.1685  0.0858  0.4490
 5613SOL    HW128472   0.055   0.900   3.959 -0.2069  1.0405  0.7249
 5613SOL    HW228473   4.717   0.789   4.010 -1.9136 -0.1415 -0.5572
 5614SOL     OW28474   4.041   4.571   2.860 -0.3386  0.1113 -0.2075
 5614SOL    HW128475   4.028   4.489   2.812  1.3804  0.2749 -0.9362
 5614SOL    HW228476   4.116   4.556   2.917 -0.6943 -0.5087  0.0898
 5615SOL     OW28477   0.989   1.888   5.380 -0.3974 -0.7168  0.1376
 5615SOL    HW128478   0.973   1.898   5.474  0.3571 -1.6870  0.3623
 5615SOL    HW228479   0.973   1.979   5.353  0.8907 -0.0716  1.5261
 5616SOL     OW28480   1.936   3.928   2.195 -0.1497  0.3041 -0.7117
 5616SOL    HW128481   1.945   3.957   2.104 -0.5567  0.7322 -0.6125
 5616SOL    HW228482   1.870   3.993   2.221 -0.0523 -1.0676  2.8964
 5617SOL     OW28483   2.677   1.846  11.306 -0.1916  0.1113 -0.1772
 5617SOL    HW128484   2.616   1.802  11.365  2.9037  1.1148  3.8643
 5617SOL    HW228485   2.618   1.876  11.237 -1.8073  2.0966  2.0591
 5618SOL     OW28486   4.658   3.257   9.064 -0.1456 -0.1941 -0.0137
 5618SOL    HW128487   4.571   3.289   9.039  0.8561  1.0619 -1.9639
 5618SOL    HW228488   4.683   3.213   8.983  1.7710  1.4115 -0.2924
 5619SOL     OW28489   0.614   1.285   4.339 -0.0714  0.4028 -0.2335
 5619SOL    HW128490   0.598   1.375   4.368 -2.6884 -0.1643  0.0943
 5619SOL    HW228491   0.663   1.304   4.259 -2.0007  1.2326 -1.2177
 5620SOL     OW28492   4.182   1.911   3.121  0.2057  0.2770 -0.5312
 5620SOL    HW128493   4.108   1.965   3.092  1.1386  2.0346  0.3294
 5620SOL    HW228494   4.222   1.870   3.045  0.3110 -0.4552 -0.0833
 5621SOL     OW28495   0.554   0.862   4.057 -0.5850  0.0510  0.1524
 5621SOL    HW128496   0.581   0.771   4.070  0.5381  0.4688  0.6679
 5621SOL    HW228497   0.608   0.918   4.113  0.5380  0.4629 -1.3665
 5622SOL     OW28498   4.298   2.808  11.082  0.6048 -0.5159  0.4338
 5622SOL    HW128499   4.386   2.789  11.050  0.2412  0.7558 -1.3257
 5622SOL    HW228500   4.315   2.882  11.141 -0.1195  0.3829 -0.4714
 5623SOL     OW28501   0.095   0.463  11.302 -0.1240 -0.2103 -0.0062
 5623SOL    HW128502   0.001   0.475  11.286 -0.0926 -0.7952 -0.6471
 5623SOL    HW228503   0.119   0.389  11.245  1.5949 -0.4415  1.0240
 5624SOL     OW28504   4.499   2.884   9.166 -0.0148 -0.3898 -0.7729
 5624SOL    HW128505   4.564   2.947   9.199  0.5013 -1.2027 -0.2348
 5624SOL    HW228506   4.448   2.919   9.093 -2.3314 -1.0224  0.5285
 5625SOL     OW28507   2.789   1.405  11.435 -0.2721 -0.2549 -0.6322
 5625SOL    HW128508   2.752   1.479  11.388 -0.4167 -1.1839 -1.9594
 5625SOL    HW228509   2.869   1.447  11.468 -0.8934  0.6427 -0.2481
 5626SOL     OW28510   0.045   0.953   3.644  0.1049  0.4982 -0.8012
 5626SOL    HW128511   0.093   0.987   3.569  1.2226  0.0598 -0.2894
 5626SOL    HW228512   0.114   0.956   3.710  0.0325  0.0209 -0.6973
 5627SOL     OW28513   3.473   3.732   4.670  0.2915  0.0392 -0.5002
 5627SOL    HW128514   3.452   3.773   4.586  0.7277  3.6782  1.1663
 5627SOL    HW228515   3.412   3.784   4.723 -0.6714 -1.2195 -0.3763
 5628SOL     OW28516   0.719   3.030   3.479 -0.2450  0.1057  0.3261
 5628SOL    HW128517   0.745   3.030   3.387  0.2389 -1.2665  0.4645
 5628SOL    HW228518   0.802   3.022   3.527  0.0491  1.9307  0.1234
 5629SOL     OW28519   0.735   3.636   4.113  0.2726 -0.0670 -0.0290
 5629SOL    HW128520   0.698   3.551   4.092  1.3513 -1.0581  2.1083
 5629SOL    HW228521   0.812   3.620   4.167 -0.0589 -1.3822  0.0521
 5630SOL     OW28522   1.676   4.261   0.590  0.3467  0.5851  0.0751
 5630SOL    HW128523   1.720   4.177   0.577 -0.6074 -0.1961  1.9106
 5630SOL    HW228524   1.745   4.325   0.606  1.1713 -0.1681 -0.4498
 5631SOL     OW28525   3.498   4.045   5.877 -0.3312 -0.2634  0.1091
 5631SOL    HW128526   3.534   3.967   5.920 -0.4835  1.0780  2.6771
 5631SOL    HW228527   3.493   4.009   5.788  0.3303 -0.3776  0.1155
 5632SOL     OW28528   4.675   3.149   7.482  0.2074 -0.3709  0.3512
 5632SOL    HW128529   4.648   3.233   7.446 -1.1066 -0.8360  0.2522
 5632SOL    HW228530   0.029   3.163   7.515  0.8031 -0.6379 -1.1826
 5633SOL     OW28531   2.013   4.673   5.343  0.2991  0.2821  0.2294
 5633SOL    HW128532   1.936   4.617   5.355  0.8683 -0.8399 -1.3453
 5633SOL    HW228533   1.970   0.019   5.320  0.7639  0.2795 -0.6419
 5634SOL     OW28534   0.312   0.842   0.519 -0.0343 -0.1419  0.2793
 5634SOL    HW128535   0.406   0.836   0.506  0.0029  1.6961 -0.2628
 5634SOL    HW228536   0.281   0.753   0.500 -1.5552  0.8258 -1.7398
 5635SOL     OW28537   0.425   4.380   2.682 -0.6795 -0.3865 -0.3736
 5635SOL    HW128538   0.398   4.307   2.626  1.3229  0.1961 -2.1193
 5635SOL    HW228539   0.379   4.455   2.642 -0.3393  0.3260  0.5726
 5636SOL     OW28540   3.565   3.376  13.388 -0.2949 -0.2006  0.1094
 5636SOL    HW128541   3.622   3.428  13.331 -1.6733 -1.4305 -2.3528
 5636SOL    HW228542   3.615   3.349  13.466 -0.5221  1.0781  0.7016
 5637SOL     OW28543   0.894   4.674   8.281 -0.5651 -0.4142 -0.1071
 5637SOL    HW128544   0.925   4.684   8.191  1.0273 -2.8177  0.1865
 5637SOL    HW228545   0.901   4.580   8.298  2.9682 -0.2990 -0.8401
 5638SOL     OW28546   2.728   2.120   7.937  0.5007  0.6660  0.1454
 5638SOL    HW128547   2.753   2.030   7.958 -1.5174  0.3608  1.2895
 5638SOL    HW228548   2.709   2.152   8.025  0.5441  1.0123  0.0261
 5639SOL     OW28549   1.107   1.118   3.676 -0.6723  0.5470 -0.2640
 5639SOL    HW128550   1.176   1.151   3.618  1.0636 -1.0782  0.8953
 5639SOL    HW228551   1.026   1.116   3.624 -2.2459  0.6296  2.2112
 5640SOL     OW28552   1.996   2.838   6.071  0.4703  0.1121  0.0292
 5640SOL    HW128553   2.019   2.931   6.075 -1.8600  0.9073 -4.9678
 5640SOL    HW228554   1.999   2.814   6.164  1.2703 -3.4591 -0.9264
 5641SOL     OW28555   1.151   3.683   3.690 -0.0851 -0.2211 -0.5199
 5641SOL    HW128556   1.075   3.742   3.694  1.8652  2.2079  0.1154
 5641SOL    HW228557   1.166   3.687   3.595  2.2015 -1.8535 -0.2235
 5642SOL     OW28558   0.220   3.808   3.286  0.2754 -0.5279 -0.2232
 5642SOL    HW128559   0.217   3.856   3.204  2.2077 -0.6635 -0.3766
 5642SOL    HW228560   0.212   3.718   3.257 -0.0825 -0.3423 -0.7013
 5643SOL     OW28561   0.219   1.239   9.014 -0.1561 -0.1396  0.0885
 5643SOL    HW128562   0.202   1.325   8.974 -1.7960 -1.0624 -1.1888
 5643SOL    HW228563   0.293   1.212   8.959 -0.1925  3.1737 -1.6334
 5644SOL     OW28564   2.888   4.035   5.949  0.4950  1.0220  0.5320
 5644SOL    HW128565   2.899   4.031   5.854  1.0064 -1.6943  0.7178
 5644SOL    HW228566   2.809   3.983   5.962  0.5610  0.3188 -1.7885
 5645SOL     OW28567   4.730   0.734   8.494 -0.3164 -0.0840 -0.3113
 5645SOL    HW128568   4.715   0.688   8.412 -0.4510  1.9808 -1.4249
 5645SOL    HW228569   4.649   0.711   8.539  1.1597 -3.3936  0.6611
 5646SOL     OW28570   1.381   4.019   5.904 -0.1929  0.2498  0.0907
 5646SOL    HW128571   1.297   4.062   5.920  0.0283  0.4603  0.6925
 5646SOL    HW228572   1.418   4.080   5.840 -2.2771  1.5509  0.1093
 5647SOL     OW28573   1.896   3.480   5.040  0.4256 -0.3201  0.3134
 5647SOL    HW128574   1.898   3.529   4.959 -0.7530 -0.4841  0.1833
 5647SOL    HW228575   1.825   3.519   5.090 -0.4524 -1.0301 -0.3713
 5648SOL     OW28576   4.023   4.649   3.503 -0.3814  0.2378  0.3425
 5648SOL    HW128577   4.002   4.637   3.596  3.2645  0.0432  1.1419
 5648SOL    HW228578   4.085   4.721   3.506 -1.4004  1.1642 -1.1475
 5649SOL     OW28579   2.128   2.445   6.498 -0.0479 -0.5183  0.1856
 5649SOL    HW128580   2.075   2.463   6.575  0.4348  1.1886  0.1404
 5649SOL    HW228581   2.069   2.396   6.441  2.8353  1.1304 -4.2371
 5650SOL     OW28582   4.354   4.534   0.723 -0.4819  0.7730 -0.0737
 5650SOL    HW128583   4.262   4.553   0.702 -0.8247 -1.5731 -0.7399
 5650SOL    HW228584   4.393   4.607   0.676  2.1537  0.2458  1.3212
 5651SOL     OW28585   0.719   0.090   6.392 -0.7120 -0.1363 -0.6056
 5651SOL    HW128586   0.634   0.046   6.389 -0.1626 -1.5656  4.3275
 5651SOL    HW228587   0.702   0.169   6.341  2.7572  0.1469 -1.2928
 5652SOL     OW28588   1.752   2.451  13.226  0.6043 -0.0368 -0.0184
 5652SOL    HW128589   1.812   2.386  13.263  2.8662  1.6950 -0.6682
 5652SOL    HW228590   1.808   2.498  13.164 -1.6149  1.9488 -0.4807
 5653SOL     OW28591   2.829   2.131   7.657 -0.0674  0.0132 -0.4151
 5653SOL    HW128592   2.852   2.040   7.678  1.1603 -0.0670 -2.1199
 5653SOL    HW228593   2.768   2.151   7.728  2.8787 -0.1424  2.1997
 5654SOL     OW28594   1.765   4.035  15.488 -0.0194  1.0167 -0.0199
 5654SOL    HW128595   1.718   4.045  15.405 -0.2166 -0.1480 -0.0569
 5654SOL    HW228596   1.856   4.063  15.476 -0.5101  2.0885 -1.1479
 5655SOL     OW28597   3.862   1.758   3.295  0.7241  0.5532 -0.5725
 5655SOL    HW128598   3.865   1.685   3.357 -0.5067  1.6358  0.7615
 5655SOL    HW228599   3.898   1.720   3.215 -1.0896 -0.0041 -1.1335
 5656SOL     OW28600   4.446   0.274   4.081 -0.3882 -0.2469  0.5361
 5656SOL    HW128601   4.440   0.301   3.990  1.2006  1.1154  0.8259
 5656SOL    HW228602   4.469   0.183   4.065 -0.5530 -0.1230 -0.3630
 5657SOL     OW28603   2.935   2.016   4.293 -0.0379 -0.4897  0.3262
 5657SOL    HW128604   2.935   1.921   4.308 -0.3970 -0.8993 -2.1808
 5657SOL    HW228605   2.842   2.040   4.286  0.3383  1.5979  2.5046
 5658SOL     OW28606   1.091   0.323   7.201 -0.3992  0.5827  0.1874
 5658SOL    HW128607   1.164   0.375   7.168 -0.1465 -1.3394 -2.3029
 5658SOL    HW228608   1.047   0.372   7.270 -0.1235 -0.8334  1.3537
 5659SOL     OW28609   2.180   2.987  10.221  0.0985 -0.7683  0.1532
 5659SOL    HW128610   2.195   2.911  10.279  2.1097 -1.2261 -0.9632
 5659SOL    HW228611   2.100   2.958  10.178 -1.4350  0.5092  2.1725
 5660SOL     OW28612   4.032   0.068   6.126  0.1882  0.2751 -0.4370
 5660SOL    HW128613   3.974   0.076   6.050  2.0282 -1.0347 -1.9960
 5660SOL    HW228614   3.972   0.012   6.175  0.7605  0.3112  0.3079
 5661SOL     OW28615   3.762   3.987   8.459  0.0873  0.2008  0.6436
 5661SOL    HW128616   3.799   3.901   8.476 -1.5094 -0.5391  0.3159
 5661SOL    HW228617   3.698   3.961   8.393  2.2603  2.3493 -2.3128
 5662SOL     OW28618   3.412   3.624  12.907 -0.0848  0.1973  0.0140
 5662SOL    HW128619   3.472   3.636  12.981 -1.7508  1.4439  1.1832
 5662SOL    HW228620   3.464   3.628  12.827  1.0840 -3.6823  0.6024
 5663SOL     OW28621   0.053   2.485   5.416 -0.0406 -0.3840  0.2797
 5663SOL    HW128622   0.051   2.410   5.357 -1.7713 -0.0758 -0.0580
 5663SOL    HW228623   0.086   2.552   5.356  0.3798  0.4899  1.4843
 5664SOL     OW28624   1.253   3.862   8.817  0.2043  0.5321  0.3528
 5664SOL    HW128625   1.209   3.820   8.891 -1.2803  0.9630 -0.2839
 5664SOL    HW228626   1.243   3.951   8.851  0.2354  0.2828  1.0272
 5665SOL     OW28627   0.665   2.971   8.340  0.5061 -0.1815  0.5261
 5665SOL    HW128628   0.753   2.933   8.335  0.6556 -0.0862  2.4336
 5665SOL    HW228629   0.683   3.054   8.384  0.1795  1.5301 -2.5039
 5666SOL     OW28630   2.875   3.878   7.049 -0.7728 -0.5131  0.5760
 5666SOL    HW128631   2.969   3.862   7.037 -0.3558  2.9614 -0.8292
 5666SOL    HW228632   2.878   3.965   7.088 -0.6620  0.2602 -1.1211
 5667SOL     OW28633   3.251   0.795   9.113 -0.4530 -0.2289  0.0988
 5667SOL    HW128634   3.297   0.872   9.146 -1.7068  1.2868 -1.6744
 5667SOL    HW228635   3.308   0.736   9.161  0.9520  1.2550  0.2719
 5668SOL     OW28636   1.516   2.267  17.719 -0.3029 -0.1008  0.2128
 5668SOL    HW128637   1.499   2.326  17.646 -0.4381  0.6717  0.8674
 5668SOL    HW228638   1.424   2.247  17.739 -0.2118  0.3849  1.1128
 5669SOL     OW28639   2.036   0.271   3.106  0.3944  0.4083 -0.2791
 5669SOL    HW128640   2.086   0.239   3.182  1.2677 -1.9210 -1.8550
 5669SOL    HW228641   2.105   0.294   3.044  0.7358  0.1024 -0.0158
 5670SOL     OW28642   0.333   0.345   8.538  0.2718  0.3226  0.6418
 5670SOL    HW128643   0.415   0.313   8.501 -0.0692  1.9457 -1.5160
 5670SOL    HW228644   0.333   0.439   8.517 -1.4060 -0.0987 -1.2787
 5671SOL     OW28645   1.802   1.599   3.985  0.7996 -0.1238  0.7676
 5671SOL    HW128646   1.820   1.505   3.988  1.3587 -0.0090  0.9959
 5671SOL    HW228647   1.769   1.607   3.896  0.9888 -1.2068  0.6092
 5672SOL     OW28648   3.857   3.448  17.296  0.0844  0.2357 -0.3322
 5672SOL    HW128649   3.856   3.463  17.390  1.0275 -0.5662 -0.1897
 5672SOL    HW228650   3.815   3.363  17.288 -0.6723  0.4491  1.4801
 5673SOL     OW28651   0.309   4.487   1.345 -0.1764 -0.2164 -0.2597
 5673SOL    HW128652   0.300   4.518   1.255  1.6004  0.0599 -0.3487
 5673SOL    HW228653   0.401   4.461   1.338  0.4279  1.6795  1.0069
 5674SOL     OW28654   3.129   1.842   9.470 -0.3036 -0.2225  0.6363
 5674SOL    HW128655   3.161   1.897   9.399 -0.9294  0.0240  0.5491
 5674SOL    HW228656   3.084   1.909   9.521 -2.2342 -1.9243  1.1687
 5675SOL     OW28657   3.914   0.010   6.501 -0.2240 -0.2897 -0.1308
 5675SOL    HW128658   3.913   0.105   6.514 -0.4222 -0.3941  0.6621
 5675SOL    HW228659   3.986   4.725   6.561  0.8168 -0.3615 -1.4045
 5676SOL     OW28660   1.681   0.118  16.130  0.4350 -0.2881  0.8076
 5676SOL    HW128661   1.687   0.022  16.130  0.1599 -0.2996 -2.0118
 5676SOL    HW228662   1.747   0.143  16.065  2.2716 -2.1334  1.9657
 5677SOL     OW28663   2.488   3.908  16.506 -0.4575  0.1050 -0.0558
 5677SOL    HW128664   2.537   3.885  16.427  0.3420  0.9408  0.1975
 5677SOL    HW228665   2.538   3.880  16.583 -1.5759 -1.2744  0.1654
 5678SOL     OW28666   0.429   2.274   9.461  0.1439 -0.1927  0.7128
 5678SOL    HW128667   0.402   2.245   9.548 -1.7646 -1.1715 -0.2244
 5678SOL    HW228668   0.520   2.300   9.477  0.1284 -0.8227  1.8437
 5679SOL     OW28669   4.517   4.082   6.881  0.5856  0.2492  0.1630
 5679SOL    HW128670   4.498   4.158   6.935  0.1665  0.3109 -0.0669
 5679SOL    HW228671   4.584   4.107   6.818  0.4618 -1.4365 -0.6469
 5680SOL     OW28672   1.333   0.136   5.424 -0.4857  0.2436  0.2979
 5680SOL    HW128673   1.265   0.075   5.395  0.3517 -1.9017  2.8494
 5680SOL    HW228674   1.286   0.217   5.408 -0.6499 -0.4073 -2.5316
 5681SOL     OW28675   2.790   1.917   2.239  0.3275  0.3305 -0.6095
 5681SOL    HW128676   2.705   1.951   2.212  0.0201 -0.9319 -1.2263
 5681SOL    HW228677   2.818   1.991   2.292  0.8109  0.8241 -1.5448
 5682SOL     OW28678   2.963   4.704  13.248  0.1120  0.6568  0.4369
 5682SOL    HW128679   3.008   4.703  13.163 -1.9099  1.5440 -0.6464
 5682SOL    HW228680   2.969   4.611  13.270  2.1096  1.5188  3.4773
 5683SOL     OW28681   1.446   2.151   5.132  0.5692  0.4431  0.2487
 5683SOL    HW128682   1.387   2.224   5.118  0.6548  0.2946 -0.8771
 5683SOL    HW228683   1.528   2.201   5.131  0.5890  0.4249  0.8799
 5684SOL     OW28684   4.450   1.026   7.229 -0.5131 -0.3054  0.4580
 5684SOL    HW128685   4.506   1.054   7.157 -1.3338  1.2978  0.4349
 5684SOL    HW228686   4.498   0.954   7.269 -1.3950 -2.4949 -2.4269
 5685SOL     OW28687   2.260   0.296   9.477 -0.2182  0.2644 -0.5567
 5685SOL    HW128688   2.171   0.272   9.502  0.2823  1.6112  2.4967
 5685SOL    HW228689   2.316   0.264   9.548  1.1144 -0.6955 -2.0350
 5686SOL     OW28690   3.338   2.274   9.183  0.1804 -0.3373  0.3987
 5686SOL    HW128691   3.334   2.179   9.192 -3.4530 -0.2998 -0.6499
 5686SOL    HW228692   3.421   2.297   9.143 -0.4102 -1.6765 -1.5801
 5687SOL     OW28693   2.117   3.605   2.387 -0.1323 -0.0116 -0.3348
 5687SOL    HW128694   2.113   3.543   2.459  0.2352 -4.1590 -3.8663
 5687SOL    HW228695   2.024   3.623   2.402 -0.2411 -0.4789 -0.4315
 5688SOL     OW28696   0.887   3.863   3.889 -0.1096  0.3668  0.0692
 5688SOL    HW128697   0.798   3.838   3.914 -0.6280  1.7489 -0.3806
 5688SOL    HW228698   0.879   3.893   3.799 -1.0551 -0.6756 -0.2000
 5689SOL     OW28699   4.262   3.600   8.843  0.2455  0.0702  0.1095
 5689SOL    HW128700   4.352   3.583   8.871 -0.1526 -1.5524  0.3641
 5689SOL    HW228701   4.211   3.588   8.923 -1.1923  0.8032 -0.6910
 5690SOL     OW28702   1.901   3.742   4.547  0.6364  0.4223  0.2708
 5690SOL    HW128703   1.809   3.767   4.559  0.6218 -0.2451  1.4830
 5690SOL    HW228704   1.934   3.818   4.596  0.8999 -0.6877  1.8208
 5691SOL     OW28705   1.696   1.359   2.451  0.1242 -0.3682  0.2573
 5691SOL    HW128706   1.666   1.447   2.473  0.2398 -0.0744 -0.7298
 5691SOL    HW228707   1.774   1.381   2.400  0.5187 -0.0690  0.9902
 5692SOL     OW28708   2.336   3.520   8.547 -0.0890 -0.1348 -0.1204
 5692SOL    HW128709   2.304   3.466   8.619  0.7382  0.5647  0.7825
 5692SOL    HW228710   2.313   3.606   8.580 -1.1636  0.1136 -1.5334
 5693SOL     OW28711   3.382   1.773   7.818  0.1295 -0.1210  0.5110
 5693SOL    HW128712   3.305   1.717   7.832  0.2094 -0.6149 -1.0481
 5693SOL    HW228713   3.450   1.742   7.878 -0.8344 -1.9148  0.6720
 5694SOL     OW28714   3.304   2.584   8.538  0.1373 -0.3426 -0.4113
 5694SOL    HW128715   3.265   2.585   8.451 -1.0235  1.6286  0.1322
 5694SOL    HW228716   3.392   2.556   8.515  0.1915  0.5891 -1.3096
 5695SOL     OW28717   4.136   4.655   5.865  0.7117  0.1459 -0.0565
 5695SOL    HW128718   4.103   4.590   5.926 -3.3975  1.1986 -1.1954
 5695SOL    HW228719   4.205   4.700   5.915  2.4456 -1.2134 -1.2066
 5696SOL     OW28720   1.862   1.886   6.550 -0.6406 -0.4681 -0.3665
 5696SOL    HW128721   1.833   1.894   6.641 -1.3829  0.5401 -0.6833
 5696SOL    HW228722   1.953   1.916   6.545 -1.0813  0.8966 -0.2378
 5697SOL     OW28723   3.281   4.707   2.164 -0.1906  0.2379  0.1959
 5697SOL    HW128724   3.367   0.003   2.190  0.0359 -0.1947 -0.0326
 5697SOL    HW228725   3.280   0.003   2.074  0.2720 -2.0711 -0.6118
 5698SOL     OW28726   0.216   1.575  10.588  0.4845  0.3389 -0.1028
 5698SOL    HW128727   0.191   1.646  10.528  2.3045  3.0564  2.3627
 5698SOL    HW228728   0.309   1.568  10.564 -0.4132 -3.1410 -2.5459
 5699SOL     OW28729   1.797   4.576  16.077  0.2081 -0.6406 -0.6788
 5699SOL    HW128730   1.843   4.498  16.108 -2.0106 -1.0437  1.6894
 5699SOL    HW228731   1.705   4.561  16.101  0.1165  3.0469  1.2560
 5700SOL     OW28732   2.954   3.243   7.484  0.1257  0.1130 -0.4147
 5700SOL    HW128733   2.994   3.179   7.542 -1.0092  0.5186  0.7945
 5700SOL    HW228734   3.035   3.291   7.462  0.0807  1.2019  1.8032
 5701SOL     OW28735   1.264   3.644  12.163  0.5819 -0.4746 -0.0926
 5701SOL    HW128736   1.273   3.549  12.171  0.3990 -0.8001 -3.7649
 5701SOL    HW228737   1.203   3.668  12.233  1.6116  2.4642 -0.2146
 5702SOL     OW28738   0.673   2.157   8.948  0.5184  0.4104  0.5552
 5702SOL    HW128739   0.587   2.179   8.913  0.8770  0.8940 -0.0408
 5702SOL    HW228740   0.654   2.142   9.040 -1.7333 -2.3376 -0.3681
 5703SOL     OW28741   4.285   2.914   2.571  0.3127 -0.4408  0.3149
 5703SOL    HW128742   4.313   2.966   2.646  0.4557  1.7180 -1.2260
 5703SOL    HW228743   4.196   2.891   2.598  0.3844  0.5933  1.4014
 5704SOL     OW28744   0.323   2.609  11.850  0.7233  0.0780 -0.3344
 5704SOL    HW128745   0.304   2.522  11.884  0.6461 -0.1289 -0.9044
 5704SOL    HW228746   0.398   2.601  11.791 -1.2199  0.0751 -2.8383
 5705SOL     OW28747   0.808   2.463  12.375 -0.1542  0.0509  0.0421
 5705SOL    HW128748   0.864   2.391  12.404  1.1454  0.1703 -2.2043
 5705SOL    HW228749   0.815   2.474  12.280  1.7895  0.7772  0.2819
 5706SOL     OW28750   3.697   4.343  10.953 -0.0200  0.6296 -0.2178
 5706SOL    HW128751   3.733   4.292  11.025 -0.2041  0.7226 -0.0590
 5706SOL    HW228752   3.661   4.420  10.999 -0.1618  0.4183  0.0296
 5707SOL     OW28753   3.948   4.649   4.729  0.4336 -0.0961  0.0186
 5707SOL    HW128754   3.888   4.591   4.776  0.5956  0.8389  1.3911
 5707SOL    HW228755   4.004   4.591   4.679 -0.4137 -0.3718 -0.6043
 5708SOL     OW28756   4.113   1.622   7.570  0.5253 -0.5856 -0.3878
 5708SOL    HW128757   4.148   1.534   7.551  0.9731 -0.1994 -1.3565
 5708SOL    HW228758   4.191   1.676   7.580 -0.0674  0.3198 -0.7057
 5709SOL     OW28759   2.978   4.074   0.508  0.3176  0.5719  0.2380
 5709SOL    HW128760   2.978   4.133   0.583  0.5949 -0.0644  0.7386
 5709SOL    HW228761   2.893   4.087   0.467  0.7149 -1.8340 -1.3801
 5710SOL     OW28762   4.609   1.640   7.148  0.4413  0.0042  0.4084
 5710SOL    HW128763   4.539   1.592   7.193 -0.7160  1.0440 -0.2730
 5710SOL    HW228764   4.568   1.689   7.077  0.6502  2.0880  1.7439
 5711SOL     OW28765   4.492   2.772  10.026 -0.1077  0.3500  0.4685
 5711SOL    HW128766   4.506   2.709   9.955 -4.3943  0.9831 -0.9517
 5711SOL    HW228767   4.584   2.795  10.034 -0.7312  2.8049  0.6210
 5712SOL     OW28768   0.038   3.352  13.564 -0.0374 -0.1792 -0.2324
 5712SOL    HW128769   4.701   3.326  13.506  1.5239 -1.4839 -1.5792
 5712SOL    HW228770   0.099   3.281  13.543  0.5175  0.1917  0.1284
 5713SOL     OW28771   3.511   0.258   6.478 -0.4323 -0.3531  0.4609
 5713SOL    HW128772   3.562   0.339   6.480  0.5508 -1.0271  3.1323
 5713SOL    HW228773   3.496   0.256   6.383  0.4366 -2.6089  0.3649
 5714SOL     OW28774   2.046   2.221   4.270  0.5248  0.1406 -0.2730
 5714SOL    HW128775   1.993   2.153   4.228  0.0199  0.2068  0.2505
 5714SOL    HW228776   2.093   2.260   4.196  2.1117 -0.0668  0.6357
 5715SOL     OW28777   1.656   3.334   6.387 -0.3881  0.0851 -0.4489
 5715SOL    HW128778   1.577   3.367   6.343 -0.4621  0.5514  0.0331
 5715SOL    HW228779   1.712   3.412   6.388 -1.1042  0.5860  1.2083
 5716SOL     OW28780   1.297   0.580   7.395 -0.2409  0.4504  0.7746
 5716SOL    HW128781   1.316   0.623   7.479  2.6521  0.8835 -0.0888
 5716SOL    HW228782   1.263   0.648   7.337  0.5251 -0.4169 -0.7057
 5717SOL     OW28783   4.314   4.688   2.141 -0.2959  0.0978 -0.2179
 5717SOL    HW128784   4.361   4.690   2.225 -1.8244 -0.5586  0.6449
 5717SOL    HW228785   4.226   4.710   2.169 -1.0995 -0.0012 -2.7226
 5718SOL     OW28786   3.771   1.195   7.444  0.1654  0.2504 -0.3472
 5718SOL    HW128787   3.836   1.147   7.393  1.5081  0.1180  1.4828
 5718SOL    HW228788   3.719   1.126   7.485 -1.1387  1.9906  0.9056
 5719SOL     OW28789   2.736   2.884   9.418  0.6016 -0.2171  0.3915
 5719SOL    HW128790   2.709   2.816   9.356  1.8441  0.4739 -0.9074
 5719SOL    HW228791   2.700   2.967   9.386  2.2571 -0.1572 -1.3391
 5720SOL     OW28792   3.601   1.230   3.543 -0.5488 -0.0661 -0.5348
 5720SOL    HW128793   3.551   1.153   3.517  1.1876 -0.8698 -1.5143
 5720SOL    HW228794   3.527   1.275   3.584 -0.0364  0.4472 -0.1612
 5721SOL     OW28795   1.645   2.959   6.929 -0.2057  0.6123 -0.1812
 5721SOL    HW128796   1.676   2.886   6.983  0.0155  1.6729  1.1358
 5721SOL    HW228797   1.733   2.996   6.917 -0.2581  0.6873 -0.3372
 5722SOL     OW28798   3.528   1.346  11.498 -0.5855 -0.0468  0.4023
 5722SOL    HW128799   3.527   1.294  11.578  2.7224  2.0734  1.8288
 5722SOL    HW228800   3.619   1.373  11.489 -0.7515  0.3160 -0.1775
 5723SOL     OW28801   4.618   2.780   5.335 -0.9852 -0.1538 -0.4579
 5723SOL    HW128802   4.573   2.722   5.274 -1.0824  0.1739 -0.6964
 5723SOL    HW228803   4.547   2.841   5.353 -2.9485 -2.2840 -1.0930
 5724SOL     OW28804   3.565   1.543  13.763  0.0411  0.4680  0.0636
 5724SOL    HW128805   3.653   1.510  13.745  0.1849  0.4513  0.8101
 5724SOL    HW228806   3.570   1.603  13.689 -1.7166  0.5813  0.0193
 5725SOL     OW28807   0.006   1.388   1.232 -0.6963  0.0517 -0.5251
 5725SOL    HW128808   4.732   1.459   1.296 -0.3533 -0.5576  0.2068
 5725SOL    HW228809   4.680   1.432   1.173 -0.2257 -0.8664 -1.6778
 5726SOL     OW28810   3.077   3.774   6.416  0.4552  0.1284 -0.2598
 5726SOL    HW128811   2.986   3.749   6.400  1.0113 -2.7531  0.9563
 5726SOL    HW228812   3.123   3.714   6.356  2.4407  3.0678 -1.6786
 5727SOL     OW28813   2.522   1.730   0.572 -0.0382 -0.5318 -0.4018
 5727SOL    HW128814   2.449   1.668   0.568 -0.7806  0.4404 -2.0734
 5727SOL    HW228815   2.594   1.673   0.547 -0.2689 -0.8096 -0.4250
 5728SOL     OW28816   0.865   2.254   9.857 -0.0574 -0.1266 -0.1160
 5728SOL    HW128817   0.775   2.284   9.841  0.0276 -1.1301 -2.4212
 5728SOL    HW228818   0.846   2.167   9.890  0.2650 -0.6211 -1.2480
 5729SOL     OW28819   3.828   2.038   5.634  0.0953  0.2369  0.4384
 5729SOL    HW128820   3.740   2.017   5.601  0.3585 -0.6993  0.3389
 5729SOL    HW228821   3.799   2.077   5.716  0.6568 -1.1779  1.2884
 5730SOL     OW28822   3.708   0.965   2.790  0.7071  0.4307 -0.6685
 5730SOL    HW128823   3.617   0.983   2.814  0.7723  1.3518 -1.0936
 5730SOL    HW228824   3.722   0.900   2.859  2.1197  0.5494 -0.8446
 5731SOL     OW28825   3.831   2.672   7.188 -0.1562 -0.6117 -0.3128
 5731SOL    HW128826   3.901   2.728   7.221 -1.1003 -1.5569  3.3019
 5731SOL    HW228827   3.860   2.658   7.098  4.0802 -1.9572  1.2642
 5732SOL     OW28828   1.984   4.246   2.593  0.2404  0.3306 -0.4984
 5732SOL    HW128829   1.992   4.339   2.568 -0.4982  1.1137  2.2173
 5732SOL    HW228830   2.058   4.232   2.652  2.3530  1.5751 -2.8530
 5733SOL     OW28831   3.995   3.439   5.729  0.9771  0.1381 -0.1768
 5733SOL    HW128832   3.980   3.403   5.816 -1.5285 -0.8218 -1.0062
 5733SOL    HW228833   4.068   3.386   5.696  0.7576 -0.8135  0.8656
 5734SOL     OW28834   1.519   1.753   8.394 -0.0281  0.4064 -0.2334
 5734SOL    HW128835   1.449   1.802   8.351 -1.2269 -0.3991  0.8002
 5734SOL    HW228836   1.544   1.814   8.463  0.0445  0.1609 -0.0407
 5735SOL     OW28837   3.946   1.833   9.823 -0.1395 -0.0560  0.2468
 5735SOL    HW128838   3.995   1.806   9.900  0.1681 -0.1914  0.0014
 5735SOL    HW228839   3.995   1.795   9.751 -1.8601  0.2818 -1.1152
 5736SOL     OW28840   1.142   3.668   3.397 -0.1530 -0.0924 -0.3516
 5736SOL    HW128841   1.219   3.724   3.390  0.3278 -0.9903 -2.2394
 5736SOL    HW228842   1.081   3.727   3.352  1.4022  1.7407 -0.0395
 5737SOL     OW28843   2.596   1.420   6.015 -0.3346  0.4314  0.4157
 5737SOL    HW128844   2.672   1.392   6.065 -0.1109  0.8865  0.3303
 5737SOL    HW228845   2.636   1.433   5.929  0.2169 -0.8987  0.4764
 5738SOL     OW28846   3.329   1.045   5.951  0.2973  0.3045  0.5208
 5738SOL    HW128847   3.305   0.954   5.935  1.0340  0.0639  0.8132
 5738SOL    HW228848   3.416   1.054   5.912 -0.0613 -3.0191 -1.0438
 5739SOL     OW28849   0.242   3.282   8.063  0.4263 -0.2103  0.4722
 5739SOL    HW128850   0.198   3.368   8.060  0.1348 -0.4662 -3.0538
 5739SOL    HW228851   0.255   3.264   8.156  0.5114  2.2340  0.9345
 5740SOL     OW28852   3.730   0.660   2.481 -0.5103 -0.1991 -0.1809
 5740SOL    HW128853   3.709   0.752   2.464  0.5480  0.5549  2.5087
 5740SOL    HW228854   3.793   0.671   2.553 -1.8972  1.6357  0.7835
 5741SOL     OW28855   3.166   1.685   6.385 -0.0338  0.4120 -0.1617
 5741SOL    HW128856   3.134   1.770   6.355 -1.5057 -0.3222 -0.6684
 5741SOL    HW228857   3.087   1.648   6.425 -0.4305 -2.0102 -3.1535
 5742SOL     OW28858   0.810   3.226   7.355 -0.1410 -0.0029 -0.1401
 5742SOL    HW128859   0.902   3.241   7.331  0.1886 -0.9054  0.5370
 5742SOL    HW228860   0.761   3.257   7.279  0.1566  1.2122  0.1677
 5743SOL     OW28861   0.572   3.581   8.676  0.2000 -0.1576  0.2281
 5743SOL    HW128862   0.595   3.522   8.747 -3.9192  1.2345  2.7185
 5743SOL    HW228863   0.619   3.662   8.695  0.1221  0.8562 -3.8403
 5744SOL     OW28864   0.973   1.059   7.598 -0.0265 -0.4501 -0.0648
 5744SOL    HW128865   0.976   1.099   7.511  0.0955 -1.4250 -0.5109
 5744SOL    HW228866   1.012   1.125   7.655  0.3869 -1.4862  0.8600
 5745SOL     OW28867   1.451   1.268  16.569  0.7192  0.5463  0.3790
 5745SOL    HW128868   1.505   1.270  16.648 -0.9564  1.2080  1.5114
 5745SOL    HW228869   1.377   1.323  16.596  0.3505 -0.7653  2.0217
 5746SOL     OW28870   3.322   1.596   5.824 -0.3687 -0.2013  0.3986
 5746SOL    HW128871   3.344   1.684   5.795 -0.2361 -0.3712 -0.0198
 5746SOL    HW228872   3.315   1.607   5.919  0.6499 -1.6034  0.6334
 5747SOL     OW28873   1.671   1.671   8.792  0.4392  0.1946 -0.4160
 5747SOL    HW128874   1.671   1.682   8.697  1.0092 -1.8152 -0.6572
 5747SOL    HW228875   1.593   1.614   8.797  0.3625  0.2779 -0.6539
 5748SOL     OW28876   3.070   4.093   2.078 -0.1072 -0.6297 -0.5613
 5748SOL    HW128877   3.161   4.092   2.109 -0.3937  1.9327  0.3537
 5748SOL    HW228878   3.065   4.168   2.019 -4.8543  1.0652  1.9816
 5749SOL     OW28879   0.048   3.566  10.021 -0.7903 -0.6050  0.6866
 5749SOL    HW128880   0.071   3.497   9.958  2.5923 -0.3119  1.6519
 5749SOL    HW228881   4.698   3.585   9.981 -0.2867  2.3241  1.0211
 5750SOL     OW28882   4.492   4.181   1.730 -0.2128 -0.1402 -0.4327
 5750SOL    HW128883   4.526   4.233   1.803 -0.8040 -1.7185  0.9502
 5750SOL    HW228884   4.470   4.103   1.781  2.1586  1.9562  3.8060
 5751SOL     OW28885   2.774   0.564  12.101  0.0967 -0.8326 -0.3403
 5751SOL    HW128886   2.806   0.498  12.163  0.8048 -0.3899 -0.2331
 5751SOL    HW228887   2.724   0.622  12.158  0.7418 -0.1577 -0.4589
 5752SOL     OW28888   0.287   1.711  14.871  0.2424  0.0780 -0.1700
 5752SOL    HW128889   0.337   1.773  14.924  0.6822 -0.5220  0.1228
 5752SOL    HW228890   0.215   1.690  14.929  0.3950  0.3986  0.1326
 5753SOL     OW28891   4.607   1.436   7.486  0.0128 -0.1854 -0.1354
 5753SOL    HW128892   4.621   1.341   7.485  1.7489  0.0647 -0.7869
 5753SOL    HW228893   4.680   1.464   7.430 -0.1483  1.3783  0.4414
 5754SOL     OW28894   0.738   2.240   5.057  0.1809  0.3265 -0.6649
 5754SOL    HW128895   0.676   2.211   4.989 -1.0206  2.5032 -0.5069
 5754SOL    HW228896   0.671   2.237   5.126 -1.9238 -0.5887 -2.7229
 5755SOL     OW28897   2.739   4.351   6.295 -0.0041 -0.2110 -0.4831
 5755SOL    HW128898   2.800   4.296   6.246  1.2212  1.3334 -0.6933
 5755SOL    HW228899   2.801   4.409   6.340  0.6602  0.4912 -2.2989
 5756SOL     OW28900   0.051   0.151   5.607 -0.2090 -0.5431 -0.0530
 5756SOL    HW128901   0.020   0.067   5.639  3.1229 -1.8263 -0.1803
 5756SOL    HW228902   4.720   0.172   5.541 -0.7323  0.5660  0.8121
 5757SOL     OW28903   3.843   2.355   2.983  0.0192  0.0636 -0.2751
 5757SOL    HW128904   3.775   2.379   2.921 -0.1635  1.2496  0.3653
 5757SOL    HW228905   3.783   2.306   3.039  1.7954 -2.4911 -0.5969
 5758SOL     OW28906   0.948   0.763   5.145  0.1391 -0.6365 -0.3252
 5758SOL    HW128907   0.874   0.785   5.202 -0.0481 -0.3367 -0.6821
 5758SOL    HW228908   0.917   0.673   5.136 -0.6785 -0.6545  2.7886
 5759SOL     OW28909   4.603   4.503   6.704  0.1432  0.1875 -0.1254
 5759SOL    HW128910   4.558   4.554   6.771 -4.0189  1.8135 -4.1248
 5759SOL    HW228911   4.548   4.428   6.680  0.1658 -0.5471  2.1160
 5760SOL     OW28912   2.611   4.537   7.884 -0.0712  0.2584 -0.4006
 5760SOL    HW128913   2.609   4.514   7.977  1.2587 -0.3901 -0.5230
 5760SOL    HW228914   2.519   4.521   7.864  0.1812 -0.2316 -1.1665
 5761SOL     OW28915   1.541   2.270   2.710  0.5987 -0.0887  0.0318
 5761SOL    HW128916   1.590   2.353   2.709  2.2278 -1.0518  1.3069
 5761SOL    HW228917   1.460   2.298   2.666  0.5341  0.5641  0.5599
 5762SOL     OW28918   2.239   0.835   2.303  0.2208 -0.5102  0.2131
 5762SOL    HW128919   2.170   0.773   2.326 -0.0893 -0.6174 -0.9936
 5762SOL    HW228920   2.243   0.881   2.386 -0.9953  0.6623 -0.3762
 5763SOL     OW28921   4.485   2.731  16.115 -0.2362  0.2599 -0.0117
 5763SOL    HW128922   4.438   2.754  16.035 -2.3742 -0.7118  0.9781
 5763SOL    HW228923   4.431   2.781  16.176 -2.0443 -0.5663 -0.9329
 5764SOL     OW28924   4.021   2.306   6.051  0.5530 -0.1046  0.0285
 5764SOL    HW128925   4.114   2.301   6.073  0.4177  1.0021  0.8176
 5764SOL    HW228926   3.994   2.389   6.089  3.2395 -0.1355  2.0377
 5765SOL     OW28927   2.144   1.453   3.060 -0.5738  0.1079 -0.0065
 5765SOL    HW128928   2.130   1.485   3.149  0.3538 -1.5310  0.7086
 5765SOL    HW228929   2.063   1.488   3.021 -0.0819  0.8273 -0.3906
 5766SOL     OW28930   3.533   2.186   9.517  0.2188  0.7182  0.5414
 5766SOL    HW128931   3.459   2.201   9.576 -0.4431  0.7469 -0.3092
 5766SOL    HW228932   3.592   2.140   9.577 -0.7605 -0.0602  0.9053
 5767SOL     OW28933   4.421   2.404   3.197 -0.0903 -0.2414 -0.1390
 5767SOL    HW128934   4.357   2.377   3.262  0.8376 -1.6028  0.1863
 5767SOL    HW228935   4.423   2.326   3.142 -1.2367  0.2979 -0.9518
 5768SOL     OW28936   0.657   3.106   8.059 -0.7462 -0.2838 -0.1442
 5768SOL    HW128937   0.669   3.062   8.143 -0.3760 -1.3164 -0.7419
 5768SOL    HW228938   0.740   3.076   8.022  0.1269  0.1459  1.4716
 5769SOL     OW28939   1.867   3.652   5.482  0.1611 -0.3026 -0.1707
 5769SOL    HW128940   1.801   3.721   5.490  0.6897  0.3882 -1.8540
 5769SOL    HW228941   1.941   3.705   5.453  0.5108 -0.4122  0.5041
 5770SOL     OW28942   4.480   3.593  14.205  0.0481 -0.2117 -0.3506
 5770SOL    HW128943   4.389   3.621  14.205  0.5495  1.4189 -2.1914
 5770SOL    HW228944   4.474   3.512  14.154  0.7031  1.1366 -2.5962
 5771SOL     OW28945   2.760   4.318   5.041 -0.2219 -0.5520 -0.1731
 5771SOL    HW128946   2.697   4.276   4.982 -1.0509  0.2849  0.1155
 5771SOL    HW228947   2.728   4.309   5.131 -1.4735 -1.1554 -0.6668
 5772SOL     OW28948   3.679   3.536  16.482 -0.0618  0.0002 -0.0394
 5772SOL    HW128949   3.741   3.467  16.506  1.3213  1.4534  0.6313
 5772SOL    HW228950   3.624   3.486  16.422 -2.6803  2.4409  0.3806
 5773SOL     OW28951   1.311   3.674   5.350 -0.2625  0.0737 -0.1508
 5773SOL    HW128952   1.359   3.751   5.379 -1.8762  0.8354  0.4748
 5773SOL    HW228953   1.318   3.606   5.417 -1.6201  1.0490  0.9649
 5774SOL     OW28954   0.287   4.289   6.124  0.3335  0.2539  0.3391
 5774SOL    HW128955   0.193   4.307   6.132 -0.0589 -1.7599  0.2719
 5774SOL    HW228956   0.287   4.241   6.041  1.2297  0.0973  0.4348
 5775SOL     OW28957   4.614   1.043   9.455 -0.4407 -0.0422 -0.4001
 5775SOL    HW128958   4.549   0.980   9.487 -0.5074  1.3906  2.2796
 5775SOL    HW228959   4.668   0.988   9.398 -2.8754 -3.2684  0.4346
 5776SOL     OW28960   0.443   1.133  11.409 -0.1103  0.2676 -0.3255
 5776SOL    HW128961   0.409   1.219  11.431 -0.9320  0.1209 -1.0197
 5776SOL    HW228962   0.394   1.119  11.327 -0.8056  2.8962 -0.3380
 5777SOL     OW28963   2.404   3.175   4.178 -0.4459  0.5075  0.3176
 5777SOL    HW128964   2.364   3.187   4.264 -0.8616  1.2804  0.0109
 5777SOL    HW228965   2.470   3.113   4.211 -0.1999 -0.7813 -2.5986
 5778SOL     OW28966   4.499   0.813   4.624  0.8444  0.1609 -0.1748
 5778SOL    HW128967   4.594   0.819   4.634  0.6676  2.1276  0.3498
 5778SOL    HW228968   4.486   0.875   4.553 -2.5819  0.9869  1.2010
 5779SOL     OW28969   2.232   1.577   1.681 -0.2631  0.2046 -0.0073
 5779SOL    HW128970   2.185   1.660   1.691 -1.6423 -0.7375  1.2691
 5779SOL    HW228971   2.301   1.599   1.743 -0.4323 -2.2530  1.0258
 5780SOL     OW28972   1.912   3.401  15.746  0.7582 -0.1893  0.1279
 5780SOL    HW128973   1.858   3.480  15.738 -1.9236 -2.1524 -1.3865
 5780SOL    HW228974   1.909   3.381  15.839 -0.7234 -1.4599 -0.1765
 5781SOL     OW28975   2.690   0.621   7.698  0.3167 -0.0503  0.3003
 5781SOL    HW128976   2.677   0.652   7.788  0.0465 -1.1474  0.6366
 5781SOL    HW228977   2.600   0.614   7.666  1.4745 -0.3780 -2.8101
 5782SOL     OW28978   3.127   0.404   3.204 -0.1388 -0.2874  0.1695
 5782SOL    HW128979   3.149   0.444   3.289 -0.3316  1.1121 -0.4423
 5782SOL    HW228980   3.195   0.425   3.140  0.6463  0.8190  1.3568
 5783SOL     OW28981   2.265   1.020   8.910  0.2021  0.2140  0.4080
 5783SOL    HW128982   2.275   1.108   8.946 -1.1053 -0.1856  1.7937
 5783SOL    HW228983   2.357   1.000   8.897  0.3153 -0.4514  2.1673
 5784SOL     OW28984   3.949   2.844   8.489 -0.0336  0.1804 -0.0740
 5784SOL    HW128985   4.032   2.826   8.534 -0.7802  1.8506  1.9548
 5784SOL    HW228986   3.895   2.781   8.537  0.8555 -0.1365  0.5232
 5785SOL     OW28987   2.979   2.476  14.788 -0.0023 -0.1412 -0.0821
 5785SOL    HW128988   2.990   2.521  14.704 -0.1100 -0.9084 -0.5110
 5785SOL    HW228989   3.046   2.409  14.778  1.6053  1.8079 -2.4163
 5786SOL     OW28990   1.118   3.302   3.937  0.0498 -0.1178  0.1899
 5786SOL    HW128991   1.104   3.393   3.961  3.2808  0.4296 -0.1239
 5786SOL    HW228992   1.063   3.296   3.859 -0.2627 -2.6253  0.5966
 5787SOL     OW28993   1.009   4.109   4.794  0.1087 -0.0661  0.3753
 5787SOL    HW128994   0.996   4.065   4.878 -2.0407  1.6818  0.9613
 5787SOL    HW228995   0.976   4.040   4.736 -0.9793  0.3536  0.5127
 5788SOL     OW28996   3.085   4.484  17.364 -0.0427  0.5085 -0.5991
 5788SOL    HW128997   3.102   4.526  17.448  0.3137  0.3223 -0.5759
 5788SOL    HW228998   3.169   4.442  17.347  0.9478  1.7313  1.2916
 5789SOL     OW28999   2.602   4.437   4.180  0.5707 -0.6091  0.6114
 5789SOL    HW129000   2.561   4.365   4.229 -0.2072 -0.9151 -0.5007
 5789SOL    HW229001   2.581   4.410   4.091  3.1726 -0.5067 -0.0307
 5790SOL     OW29002   4.537   1.529   6.368  0.2829 -0.3005 -0.4822
 5790SOL    HW129003   4.592   1.505   6.442 -0.0974 -0.6967 -0.3226
 5790SOL    HW229004   4.553   1.452   6.314 -0.5363  0.4610 -1.7971
 5791SOL     OW29005   0.057   3.149  10.443 -0.0217 -0.3496  0.4979
 5791SOL    HW129006   0.145   3.152  10.482 -0.2642 -1.6062  1.1515
 5791SOL    HW229007   0.065   3.208  10.368 -0.7557 -1.2665 -0.3105
 5792SOL     OW29008   2.751   0.687   6.786 -0.5719  0.0684 -0.4351
 5792SOL    HW129009   2.784   0.613   6.735 -2.0377 -0.2819 -0.8473
 5792SOL    HW229010   2.686   0.730   6.730 -1.1730 -0.0544  0.1693
 5793SOL     OW29011   4.585   0.299   2.693  0.1348  0.1462 -0.1969
 5793SOL    HW129012   4.616   0.390   2.689  0.5407  0.0517  0.7580
 5793SOL    HW229013   4.512   0.306   2.632 -0.3037 -2.0889  0.0883
 5794SOL     OW29014   3.935   1.568   8.241 -0.2803 -0.5205 -0.0042
 5794SOL    HW129015   3.899   1.540   8.156  0.3696 -1.0023 -0.1214
 5794SOL    HW229016   4.027   1.574   8.216 -1.0265 -1.4253 -2.9510
 5795SOL     OW29017   1.801   2.781   5.649 -0.5940 -0.6110  0.1018
 5795SOL    HW129018   1.789   2.756   5.741 -0.6844 -1.0214 -0.0238
 5795SOL    HW229019   1.839   2.866   5.671  1.8510 -1.6108 -0.2236
 5796SOL     OW29020   2.571   0.012  13.350  0.1691  0.6140  0.2602
 5796SOL    HW129021   2.659   4.727  13.319  0.0738 -3.0388  2.2636
 5796SOL    HW229022   2.590   0.002  13.444 -0.2249  0.5454  0.3313
 5797SOL     OW29023   0.490   1.510  13.387 -0.0099  0.0775  0.2498
 5797SOL    HW129024   0.395   1.521  13.395 -0.1635 -0.0136 -1.4255
 5797SOL    HW229025   0.524   1.592  13.422  2.7940 -0.4807 -1.1835
 5798SOL     OW29026   0.954   0.491   7.400 -0.4533 -0.1033  0.1171
 5798SOL    HW129027   0.862   0.489   7.372 -0.1399  0.0251 -0.9213
 5798SOL    HW229028   0.969   0.583   7.420  0.0824 -0.0106 -0.7090
 5799SOL     OW29029   0.282   4.496   8.304  0.2301 -0.1721 -0.0423
 5799SOL    HW129030   0.339   4.567   8.333  0.0996  0.6995 -1.9615
 5799SOL    HW229031   0.338   4.420   8.323  0.1592 -0.3451 -0.5319
 5800SOL     OW29032   4.078   0.901   0.108  0.0961 -0.2614 -0.4718
 5800SOL    HW129033   4.079   0.814   0.148 -0.7640 -0.2304 -0.3834
 5800SOL    HW229034   4.172   0.912   0.095 -0.0529  0.8684 -0.6323
 5801SOL     OW29035   3.050   1.329   6.345  0.3169 -0.4172 -0.2821
 5801SOL    HW129036   3.112   1.304   6.413  0.4378 -3.5263 -1.5426
 5801SOL    HW229037   3.007   1.404   6.386 -2.3500 -3.3019  2.1569
 5802SOL     OW29038   1.694   1.389   8.430  0.6162 -0.3802  0.2959
 5802SOL    HW129039   1.777   1.343   8.419  1.4199  0.5021  2.7335
 5802SOL    HW229040   1.657   1.365   8.515 -1.5951 -2.4653 -1.2423
 5803SOL     OW29041   0.602   3.826   3.807 -0.1356 -0.0963  0.0171
 5803SOL    HW129042   0.624   3.765   3.736 -1.0400 -0.9207  0.4493
 5803SOL    HW229043   0.563   3.891   3.748  1.5910  0.8754 -0.0501
 5804SOL     OW29044   3.950   0.839  11.336 -0.0196  0.4708  0.2741
 5804SOL    HW129045   3.969   0.918  11.286  1.6283 -0.7038 -0.9581
 5804SOL    HW229046   4.007   0.776  11.291  0.2864  0.5176  0.5970
 5805SOL     OW29047   1.894   2.815   5.042  0.1788  0.2724 -0.3495
 5805SOL    HW129048   1.935   2.807   5.128  0.3365 -2.8184 -0.7401
 5805SOL    HW229049   1.805   2.797   5.073 -0.0167  0.8977 -0.5282
 5806SOL     OW29050   3.253   1.301   3.186  0.4580  0.3049  0.3070
 5806SOL    HW129051   3.232   1.210   3.167  0.3534  0.4399 -0.2107
 5806SOL    HW229052   3.292   1.296   3.274 -1.9758 -0.3379  1.3372
 5807SOL     OW29053   0.604   0.727  16.301  0.0206 -0.0516 -0.4682
 5807SOL    HW129054   0.630   0.640  16.333  2.7954  1.7345  2.0963
 5807SOL    HW229055   0.688   0.768  16.280  0.1068  0.3423  0.6527
 5808SOL     OW29056   3.242   1.481   2.444  0.7509 -0.2258 -0.4181
 5808SOL    HW129057   3.197   1.409   2.399 -1.7245  0.8822  0.2720
 5808SOL    HW229058   3.173   1.537   2.480  1.0017  0.6150 -1.2329
 5809SOL     OW29059   3.291   2.211  11.388  0.1707 -0.3919  0.0189
 5809SOL    HW129060   3.282   2.251  11.302 -3.4803  1.1839  1.1484
 5809SOL    HW229061   3.263   2.124  11.360 -1.5609  1.0718 -2.8157
 5810SOL     OW29062   2.491   0.610  16.096 -0.6500  0.0522  0.0417
 5810SOL    HW129063   2.472   0.680  16.033 -2.4676 -0.3227  0.1505
 5810SOL    HW229064   2.491   0.666  16.173  0.0374  1.3859 -0.9435
 5811SOL     OW29065   1.676   0.108   6.231  0.4141  0.9209  0.0204
 5811SOL    HW129066   1.668   0.080   6.323  1.1021 -1.5281 -0.6625
 5811SOL    HW229067   1.729   0.186   6.247  0.3186  0.8398  0.7453
 5812SOL     OW29068   0.656   0.286   4.855  0.2711  0.1559  0.2291
 5812SOL    HW129069   0.611   0.369   4.869 -0.0448  0.5165 -3.1085
 5812SOL    HW229070   0.744   0.303   4.888 -1.4380  2.5881  3.5843
 5813SOL     OW29071   0.695   1.160   3.801 -0.4749 -0.1694  0.3614
 5813SOL    HW129072   0.745   1.241   3.794 -1.1257  0.1659 -0.5002
 5813SOL    HW229073   0.763   1.110   3.845 -0.2891 -0.7893 -0.6485
 5814SOL     OW29074   1.911   2.073   5.055  0.3124  0.4432  0.3988
 5814SOL    HW129075   1.868   2.156   5.034 -0.9836 -0.6481 -1.3234
 5814SOL    HW229076   1.996   2.112   5.076  0.2950  0.6068  0.1677
 5815SOL     OW29077   1.659   0.189   0.429 -0.0183  0.1943 -0.5475
 5815SOL    HW129078   1.651   0.094   0.416  1.1647 -0.2046  1.7907
 5815SOL    HW229079   1.656   0.193   0.524  0.5108  1.7595 -0.6006
 5816SOL     OW29080   0.744   0.977   4.652 -0.1665 -0.3217 -0.0658
 5816SOL    HW129081   0.664   0.925   4.657 -0.9476  0.9221  0.0379
 5816SOL    HW229082   0.725   1.006   4.563  1.8326  0.0069 -0.3963
 5817SOL     OW29083   1.020   0.932   0.145 -0.0636  0.1510  0.2685
 5817SOL    HW129084   1.101   0.934   0.095 -0.3614  1.2733 -0.1733
 5817SOL    HW229085   1.034   0.919   0.239  0.5355  1.6051  0.3722
 5818SOL     OW29086   2.618   4.267  15.845 -0.5495 -0.2858  1.4361
 5818SOL    HW129087   2.597   4.191  15.791  1.1950 -0.2524  0.6781
 5818SOL    HW229088   2.711   4.290  15.833 -1.5934  2.8800 -0.4668
 5819SOL     OW29089   3.382   3.829   4.377 -0.0033 -0.1016 -0.4752
 5819SOL    HW129090   3.466   3.807   4.337  1.3892  1.2276  1.7226
 5819SOL    HW229091   3.329   3.862   4.304 -0.7613 -0.8420 -0.2550
 5820SOL     OW29092   1.637   3.596   5.896  0.2728 -0.4129 -0.2076
 5820SOL    HW129093   1.606   3.506   5.893  0.6434 -0.5432 -0.2173
 5820SOL    HW229094   1.556   3.645   5.885 -0.4183 -1.5078  0.0695
 5821SOL     OW29095   3.275   1.369   6.568  0.4038  0.4562  0.3306
 5821SOL    HW129096   3.303   1.420   6.644  0.8359  0.9746 -0.1762
 5821SOL    HW229097   3.323   1.401   6.491  0.8350 -1.5300 -0.2157
 5822SOL     OW29098   2.646   0.142  12.031  0.0731 -0.0806 -0.3426
 5822SOL    HW129099   2.555   0.142  12.063  0.7004  0.2369  1.4704
 5822SOL    HW229100   2.624   0.183  11.948  1.2097  0.1185 -0.5396
 5823SOL     OW29101   2.028   1.434   7.066 -0.1840 -0.4071  0.3410
 5823SOL    HW129102   2.087   1.371   7.107 -2.3477 -1.3386  2.0121
 5823SOL    HW229103   1.960   1.381   7.024 -1.3929  1.1967  0.2857
 5824SOL     OW29104   1.737   2.647   6.500 -0.0086  0.6568  0.2015
 5824SOL    HW129105   1.732   2.668   6.594  0.4159  1.4513  0.0492
 5824SOL    HW229106   1.776   2.731   6.474  1.0025 -0.2103 -1.0434
 5825SOL     OW29107   4.222   2.772   5.286 -0.4961  0.2407  0.3563
 5825SOL    HW129108   4.147   2.719   5.256 -1.0218  1.6332 -0.8008
 5825SOL    HW229109   4.294   2.729   5.240  0.9568  0.1051  2.7955
 5826SOL     OW29110   2.230   1.770  11.449  0.1143  0.4411  0.7875
 5826SOL    HW129111   2.180   1.692  11.473 -0.8225  0.7774 -0.1062
 5826SOL    HW229112   2.222   1.816  11.533 -1.0468  0.7432  0.5042
 5827SOL     OW29113   0.642   1.299   3.057  0.2829 -0.5117  0.2488
 5827SOL    HW129114   0.596   1.371   3.014  0.3023 -0.1590  0.8278
 5827SOL    HW229115   0.618   1.321   3.147  0.0037  1.4117 -0.2921
 5828SOL     OW29116   3.012   3.476  11.640 -0.0499  0.1835 -0.3901
 5828SOL    HW129117   3.065   3.534  11.586  3.0193 -3.4322 -1.3129
 5828SOL    HW229118   2.964   3.540  11.692 -0.7104  0.9510 -1.9693
 5829SOL     OW29119   3.393   4.159   9.088 -0.3960  0.1675 -0.8679
 5829SOL    HW129120   3.413   4.084   9.143 -0.7602 -0.5022 -1.6523
 5829SOL    HW229121   3.468   4.173   9.030  1.6540  1.5930  2.1398
 5830SOL     OW29122   1.725   3.690   8.877  0.1181  0.2451  0.4574
 5830SOL    HW129123   1.632   3.671   8.884  0.1810  0.1294  0.9553
 5830SOL    HW229124   1.724   3.780   8.844  0.6769  0.1666  0.2231
 5831SOL     OW29125   2.818   1.695  12.440  0.2534 -0.5734  0.2924
 5831SOL    HW129126   2.739   1.712  12.491  0.0458 -1.7580  0.3791
 5831SOL    HW229127   2.806   1.601  12.426 -2.3575 -0.4350  1.7000
 5832SOL     OW29128   3.228   3.026   3.359 -0.1491  0.1040  0.6825
 5832SOL    HW129129   3.192   3.110   3.330 -1.4332 -0.7271 -0.1260
 5832SOL    HW229130   3.320   3.020   3.335 -0.1384 -3.6368  1.6654
 5833SOL     OW29131   1.434   0.155   0.239  0.2627  0.3624  0.6103
 5833SOL    HW129132   1.380   0.155   0.160 -1.1881  1.8885  1.6054
 5833SOL    HW229133   1.456   0.064   0.255  2.1985  0.2648 -2.4258
 5834SOL     OW29134   3.446   4.423   8.493  0.2078 -0.1738  0.9203
 5834SOL    HW129135   3.412   4.493   8.438 -0.0196 -0.8374  0.2276
 5834SOL    HW229136   3.506   4.456   8.561 -0.2325  1.2539  0.6284
 5835SOL     OW29137   0.634   2.284   1.999  0.6414  0.2788 -0.1263
 5835SOL    HW129138   0.616   2.378   1.992  2.2252  0.5278 -0.8261
 5835SOL    HW229139   0.593   2.262   2.083 -0.7242 -0.3373 -0.9514
 5836SOL     OW29140   3.909   3.102  12.383  0.4351 -0.3260  0.1747
 5836SOL    HW129141   3.889   3.071  12.294 -1.3669 -0.0295  0.4919
 5836SOL    HW229142   3.838   3.062  12.432 -0.2226 -0.1106 -0.6074
 5837SOL     OW29143   2.137   1.821  11.714  0.3890 -0.1994 -0.2460
 5837SOL    HW129144   2.119   1.727  11.718  2.2597 -0.4681  1.1820
 5837SOL    HW229145   2.048   1.856  11.719  1.2491  1.9022  0.4167
 5838SOL     OW29146   2.027   0.919   9.006  0.0991 -0.4640 -0.5505
 5838SOL    HW129147   2.048   0.955   9.092 -1.1864  0.9715 -0.8369
 5838SOL    HW229148   2.110   0.940   8.963  0.3550 -1.4494 -0.5435
 5839SOL     OW29149   0.621   0.253  12.161  0.3242 -0.3722 -0.3548
 5839SOL    HW129150   0.552   0.264  12.226  2.1759  0.2081  1.4781
 5839SOL    HW229151   0.613   0.342  12.128  2.6640  0.0714  0.3221
 5840SOL     OW29152   4.201   2.137   9.762  0.4154  0.0328  0.4079
 5840SOL    HW129153   4.145   2.084   9.705 -0.5534  1.1500  0.3178
 5840SOL    HW229154   4.150   2.218   9.759  1.3518  0.5846 -0.3997
 5841SOL     OW29155   4.542   1.497   2.105  0.3931  0.0155 -0.2755
 5841SOL    HW129156   4.605   1.464   2.168  1.4208  0.7371 -0.9318
 5841SOL    HW229157   4.559   1.588   2.130  1.5517 -0.1507 -0.4952
 5842SOL     OW29158   0.664   3.741   1.179  0.3407 -0.0047  0.3790
 5842SOL    HW129159   0.621   3.810   1.230 -2.3621  0.3416 -2.4013
 5842SOL    HW229160   0.585   3.710   1.135 -1.1063  1.3711  2.0193
 5843SOL     OW29161   1.232   0.737   5.273 -0.6156 -0.0531  0.4634
 5843SOL    HW129162   1.274   0.668   5.222  1.4302  1.8341 -0.4212
 5843SOL    HW229163   1.146   0.745   5.231 -0.1843 -1.7565 -0.7253
 5844SOL     OW29164   2.628   4.466   9.230 -0.3785  0.4850 -0.5241
 5844SOL    HW129165   2.713   4.423   9.226 -0.0657  1.1319 -0.8945
 5844SOL    HW229166   2.644   4.528   9.301 -1.2081 -0.7706  0.7528
 5845SOL     OW29167   1.530   2.691   7.365 -0.5194  0.2635  0.3616
 5845SOL    HW129168   1.616   2.732   7.374 -1.1126  2.2133 -2.6717
 5845SOL    HW229169   1.543   2.597   7.362  0.4144  0.4670 -1.8502
 5846SOL     OW29170   1.099   3.163   4.557 -0.1348  0.5080 -0.1533
 5846SOL    HW129171   1.153   3.230   4.601 -1.0967  1.2286 -0.0707
 5846SOL    HW229172   1.037   3.138   4.626  1.3493 -2.1029  0.2287
 5847SOL     OW29173   1.394   1.537   1.202  0.2180  0.1946  0.2543
 5847SOL    HW129174   1.301   1.549   1.182  0.1360 -1.4925 -0.4011
 5847SOL    HW229175   1.426   1.470   1.142  1.9562 -0.6414  2.1116
 5848SOL     OW29176   3.505   0.639  15.939 -0.0825  0.1766  0.4446
 5848SOL    HW129177   3.547   0.562  15.902 -1.1596 -0.1785 -0.0204
 5848SOL    HW229178   3.425   0.641  15.887  0.9178  0.2122 -1.0929
 5849SOL     OW29179   2.714   1.538  15.768  0.5714 -0.3702  0.3661
 5849SOL    HW129180   2.775   1.609  15.747  0.7628 -0.6674 -0.0968
 5849SOL    HW229181   2.664   1.548  15.687  2.2797 -2.3592 -0.9606
 5850SOL     OW29182   3.822   1.122   3.392  0.0834  0.2433 -0.2309
 5850SOL    HW129183   3.762   1.171   3.449 -0.1533  0.4998 -0.7070
 5850SOL    HW229184   3.769   1.047   3.367  0.2357  0.2168 -0.4735
 5851SOL     OW29185   1.330   2.997  16.158 -0.1047  0.4038  0.3805
 5851SOL    HW129186   1.292   2.913  16.133 -2.6432  1.5529  0.4309
 5851SOL    HW229187   1.292   2.993  16.246 -0.6873  0.8961  0.1481
 5852SOL     OW29188   4.223   2.411   9.028  0.1445  0.2152  0.1774
 5852SOL    HW129189   4.286   2.345   9.057 -0.0136  0.5989  1.4000
 5852SOL    HW229190   4.274   2.459   8.963  1.2976 -0.8888  0.2599
 5853SOL     OW29191   0.078   0.996   9.044  0.2917  0.3473 -0.3746
 5853SOL    HW129192   0.036   0.987   8.958  1.7545 -1.1892 -0.9281
 5853SOL    HW229193   0.110   1.085   9.028 -0.9644  1.7832  5.0151
 5854SOL     OW29194   3.651   3.397   7.565 -0.3240 -0.0010 -0.2803
 5854SOL    HW129195   3.565   3.379   7.602 -0.4197 -0.7396 -0.8580
 5854SOL    HW229196   3.692   3.338   7.628  1.1226 -0.5119 -1.6699
 5855SOL     OW29197   0.194   3.801   6.526  0.8624  0.0392 -0.1631
 5855SOL    HW129198   0.227   3.845   6.605 -1.7033  0.5084  0.6373
 5855SOL    HW229199   0.109   3.778   6.562  1.2560  0.2956  0.9345
 5856SOL     OW29200   4.493   3.623  15.968  0.4001 -0.2144 -0.1594
 5856SOL    HW129201   4.532   3.555  16.024 -1.5759 -1.4091 -0.2269
 5856SOL    HW229202   4.480   3.591  15.878 -0.4811  0.4083 -0.2555
 5857SOL     OW29203   3.719   1.403  14.542 -0.4245  0.2537  0.3291
 5857SOL    HW129204   3.628   1.398  14.571 -0.7712  1.8025 -0.4707
 5857SOL    HW229205   3.715   1.487  14.497 -3.7248 -0.4632 -0.6828
 5858SOL     OW29206   4.378   4.684   7.695  0.0496 -0.2533 -0.2778
 5858SOL    HW129207   4.413   0.038   7.686  0.8290 -0.5919 -0.6492
 5858SOL    HW229208   4.294   4.712   7.729 -0.1028 -1.2788  0.1745
 5859SOL     OW29209   3.229   0.768   5.911 -0.3302  0.0652 -0.2385
 5859SOL    HW129210   3.223   0.693   5.970  0.0812  1.1711  1.2210
 5859SOL    HW229211   3.156   0.823   5.940 -0.3854 -0.2553  0.2312
 5860SOL     OW29212   0.200   3.159   2.582  0.1943  0.4805 -0.7758
 5860SOL    HW129213   0.261   3.233   2.575 -1.3556  1.8744  0.5064
 5860SOL    HW229214   0.216   3.137   2.674 -1.5109 -2.8215 -1.2665
 5861SOL     OW29215   0.326   3.726   2.762 -0.5919  0.1422 -0.8610
 5861SOL    HW129216   0.389   3.796   2.779  1.9220 -2.3247 -0.2277
 5861SOL    HW229217   0.245   3.777   2.756 -0.7267  0.0483  0.1875
 5862SOL     OW29218   1.761   1.214  16.534  0.3327 -0.0566  0.8067
 5862SOL    HW129219   1.836   1.174  16.491  0.7275  1.3341  0.2111
 5862SOL    HW229220   1.721   1.253  16.456  3.0781  1.4910  0.1686
 5863SOL     OW29221   3.343   1.703  14.402 -0.2656 -0.0737  0.0044
 5863SOL    HW129222   3.346   1.615  14.439 -3.2311 -0.3037 -0.2583
 5863SOL    HW229223   3.265   1.703  14.347  0.7923  0.9591 -1.4818
 5864SOL     OW29224   4.437   3.226   7.317  0.0221 -0.3256 -0.3619
 5864SOL    HW129225   4.397   3.313   7.309 -1.4204 -0.7884  1.6790
 5864SOL    HW229226   4.423   3.212   7.411 -2.0784  0.5375 -0.5335
 5865SOL     OW29227   2.967   0.624   2.358 -0.3238 -0.0305  0.0024
 5865SOL    HW129228   3.045   0.672   2.330  2.0129 -2.5280  2.2018
 5865SOL    HW229229   2.903   0.658   2.296 -1.3291  1.3718  1.8112
 5866SOL     OW29230   0.690   1.875   4.648 -0.5961  0.0847  0.5327
 5866SOL    HW129231   0.674   1.959   4.691  2.3405 -0.0413  1.8218
 5866SOL    HW229232   0.601   1.856   4.616  0.4625 -0.9481 -1.8160
 5867SOL     OW29233   1.570   3.968   1.486  0.5753 -0.0352 -0.3096
 5867SOL    HW129234   1.598   3.876   1.488  0.1361 -0.1428  1.0536
 5867SOL    HW229235   1.633   3.997   1.420  0.4581  0.4278 -0.2184
 5868SOL     OW29236   1.674   3.073   6.112  0.0732  0.0227 -0.1928
 5868SOL    HW129237   1.694   3.002   6.051  0.8941  0.4236 -0.3899
 5868SOL    HW229238   1.711   3.147   6.064  1.0614  0.5757  1.4147
 5869SOL     OW29239   3.844   4.449   1.417 -0.1180 -0.2206  0.0563
 5869SOL    HW129240   3.902   4.489   1.352  0.3181 -0.2988  0.3954
 5869SOL    HW229241   3.874   4.358   1.415  0.5823 -0.0076  1.2417
 5870SOL     OW29242   2.973   2.761   6.360 -0.4586  0.2580  0.6007
 5870SOL    HW129243   2.976   2.810   6.278  0.5806  1.6261  1.4575
 5870SOL    HW229244   3.059   2.722   6.343 -0.4850  0.1158  0.7979
 5871SOL     OW29245   0.267   0.386   2.548 -0.2116 -0.7234  0.4366
 5871SOL    HW129246   0.249   0.479   2.533  0.9924 -0.7579 -1.2788
 5871SOL    HW229247   0.278   0.385   2.643 -0.1742 -3.5787  0.4053
 5872SOL     OW29248   0.979   2.447   4.144 -0.4050 -0.1582 -0.6187
 5872SOL    HW129249   1.057   2.392   4.143  0.8337  1.6015 -0.4707
 5872SOL    HW229250   0.916   2.396   4.195 -0.8575  1.5144  0.4985
 5873SOL     OW29251   4.612   3.558   5.535 -0.1250  0.0754  0.2716
 5873SOL    HW129252   4.624   3.653   5.545  1.3867 -0.0530 -0.2391
 5873SOL    HW229253   4.676   3.529   5.601 -2.2345 -1.6597  1.5427
 5874SOL     OW29254   1.122   4.631   2.780 -0.1592  0.0434  0.0948
 5874SOL    HW129255   1.180   4.688   2.730  0.5315  0.4913  1.3975
 5874SOL    HW229256   1.185   4.612   2.850  0.6875 -0.3468 -0.7694
 5875SOL     OW29257   4.499   0.681   8.619 -0.2160  0.0483 -0.4843
 5875SOL    HW129258   4.442   0.610   8.649  0.1353  0.7028  1.6797
 5875SOL    HW229259   4.450   0.756   8.652 -1.5268  0.0900 -2.5060
 5876SOL     OW29260   1.672   4.630   1.642  0.2270  0.1448  0.0245
 5876SOL    HW129261   1.711   4.694   1.702  1.2613  0.2007 -0.7142
 5876SOL    HW229262   1.651   4.685   1.567  2.0736  1.1487  0.2544
 5877SOL     OW29263   4.076   4.350   8.880 -0.1054 -0.3760 -0.2198
 5877SOL    HW129264   4.117   4.366   8.965 -2.3901  1.4464  0.5481
 5877SOL    HW229265   4.105   4.260   8.866  1.1943 -0.2838  1.8870
 5878SOL     OW29266   0.504   1.913   4.959  0.4630 -0.2097 -0.2602
 5878SOL    HW129267   0.555   1.877   5.032  1.4307  2.3264  0.3251
 5878SOL    HW229268   0.524   1.852   4.888 -0.0134 -3.3404  2.3354
 5879SOL     OW29269   0.319   1.492  16.149 -0.1259 -0.3788  0.4133
 5879SOL    HW129270   0.327   1.530  16.062  1.6335 -0.7182  0.4199
 5879SOL    HW229271   0.241   1.436  16.154  0.1357 -1.0165 -2.6104
 5880SOL     OW29272   0.079   0.324  12.935 -0.1842 -0.2725  0.1423
 5880SOL    HW129273   0.107   0.293  12.849 -1.1622 -0.9238  0.0564
 5880SOL    HW229274   4.729   0.367  12.925  0.8938  1.3600 -1.9734
 5881SOL     OW29275   2.402   3.220   4.459 -0.8526  0.0876  0.0390
 5881SOL    HW129276   2.494   3.217   4.483 -1.1604  1.6452  1.4285
 5881SOL    HW229277   2.359   3.211   4.545 -1.2198 -0.1004 -0.1653
 5882SOL     OW29278   4.219   0.432   8.118 -0.2320 -0.3566  0.1637
 5882SOL    HW129279   4.297   0.478   8.150  0.4899 -0.8649 -0.8819
 5882SOL    HW229280   4.157   0.505   8.118  1.2923  0.9229 -1.0014
 5883SOL     OW29281   1.280   3.546   4.462  0.6364 -0.2819 -0.2063
 5883SOL    HW129282   1.375   3.533   4.461  0.9081  1.7656 -0.9649
 5883SOL    HW229283   1.256   3.545   4.369 -1.1176  0.2338  0.2420
 5884SOL     OW29284   4.563   1.656   4.112 -0.8579  0.5542 -0.0692
 5884SOL    HW129285   4.475   1.620   4.123 -0.6796  0.7347  1.9544
 5884SOL    HW229286   4.542   1.730   4.056 -4.0797 -0.1960  0.1114
 5885SOL     OW29287   4.114   1.380  12.344 -0.2887 -0.0596 -0.5048
 5885SOL    HW129288   4.074   1.459  12.382 -1.5103 -1.5375  1.2491
 5885SOL    HW229289   4.031   1.333  12.353 -0.8047  1.0482  0.5497
 5886SOL     OW29290   4.532   1.027   1.541 -0.1767  0.2277 -0.2626
 5886SOL    HW129291   4.476   0.997   1.612  0.4373  0.6436  0.3991
 5886SOL    HW229292   4.583   0.950   1.518  1.6176  0.9241  1.3858
 5887SOL     OW29293   2.795   4.506   3.022 -0.5906 -0.4737 -0.0587
 5887SOL    HW129294   2.833   4.571   2.964  0.4854 -1.8320 -0.8710
 5887SOL    HW229295   2.776   4.553   3.104 -2.3756 -0.4680 -0.4639
 5888SOL     OW29296   0.446   1.540   3.693 -0.1213 -0.0333 -0.6588
 5888SOL    HW129297   0.440   1.446   3.712  0.5748  0.2994  1.1880
 5888SOL    HW229298   0.533   1.546   3.653 -0.4093  3.3180 -0.7687
 5889SOL     OW29299   1.558   3.398   2.642  0.1934  0.0647 -0.5277
 5889SOL    HW129300   1.624   3.467   2.651 -0.8414  1.1878 -1.6023
 5889SOL    HW229301   1.537   3.411   2.550 -1.1014 -0.0900 -0.2515
 5890SOL     OW29302   0.591   3.427   2.417  0.6356  0.0345 -0.2107
 5890SOL    HW129303   0.667   3.474   2.453  0.3218  0.8496 -0.6245
 5890SOL    HW229304   0.590   3.466   2.330 -0.0803  2.4735  0.8851
 5891SOL     OW29305   4.599   3.514  17.541 -0.4362 -0.2602  0.7130
 5891SOL    HW129306   4.628   3.598  17.577 -1.0703 -0.2288  1.1576
 5891SOL    HW229307   4.505   3.522  17.527 -0.5948 -1.3426  1.1730
 5892SOL     OW29308   3.845   3.056   2.622  0.0707  0.1434  0.0367
 5892SOL    HW129309   3.864   3.143   2.656  1.4600  0.8886 -2.6357
 5892SOL    HW229310   3.811   3.070   2.533  2.1174  1.9465 -0.4754
 5893SOL     OW29311   1.059   3.305   5.792  0.0038  0.0453  0.4915
 5893SOL    HW129312   0.999   3.365   5.746 -0.4265 -0.3723  0.5132
 5893SOL    HW229313   1.043   3.214   5.766  0.5224 -0.3794  1.6769
 5894SOL     OW29314   4.339   3.598  10.396  1.0842 -0.3347 -0.1123
 5894SOL    HW129315   4.408   3.642  10.347 -0.5334  1.8501 -0.4282
 5894SOL    HW229316   4.348   3.508  10.365 -0.5053 -1.0065  1.3614
 5895SOL     OW29317   4.256   2.197   4.755  0.0731 -0.5407 -0.3161
 5895SOL    HW129318   4.303   2.212   4.837  1.5457 -1.4617 -1.0073
 5895SOL    HW229319   4.324   2.163   4.698  0.0227  1.4389 -1.5582
 5896SOL     OW29320   0.294   1.835   7.548  0.0865  0.5303 -0.3095
 5896SOL    HW129321   0.331   1.755   7.510  1.6353  0.8864  0.4632
 5896SOL    HW229322   0.276   1.888   7.470 -0.5463  0.6330 -0.0929
 5897SOL     OW29323   0.995   0.860   4.575 -0.0958 -0.1592  0.4150
 5897SOL    HW129324   0.902   0.877   4.595  0.4843  0.3859  2.6301
 5897SOL    HW229325   0.983   0.769   4.548  0.8578 -0.2037  0.1416
 5898SOL     OW29326   0.550   1.768   5.439  0.2408 -0.1477 -0.0535
 5898SOL    HW129327   0.624   1.713   5.416  0.0758 -0.9599  1.3435
 5898SOL    HW229328   0.529   1.735   5.526 -0.1403 -2.4177 -1.0229
 5899SOL     OW29329   1.891   2.727   9.280 -0.0340  0.9332 -0.1974
 5899SOL    HW129330   1.808   2.740   9.325  0.2076  0.4742  0.3868
 5899SOL    HW229331   1.869   2.684   9.198  0.9554  1.7016 -0.8622
 5900SOL     OW29332   3.973   4.181   8.009 -0.3457  0.1303 -0.2966
 5900SOL    HW129333   3.984   4.101   7.956  0.0807  0.0040 -0.0173
 5900SOL    HW229334   3.988   4.156   8.100 -0.9408 -0.5090 -0.3676
 5901SOL     OW29335   2.866   4.504   8.397  0.0886 -0.4932  0.2077
 5901SOL    HW129336   2.876   4.416   8.432 -1.5495 -1.1883 -1.0422
 5901SOL    HW229337   2.918   4.478   8.320 -1.1777 -1.1400 -0.4342
 5902SOL     OW29338   3.820   1.310   0.560  0.3082 -0.2442 -0.0808
 5902SOL    HW129339   3.909   1.335   0.587  1.5039 -3.8046 -0.7695
 5902SOL    HW229340   3.786   1.395   0.588  1.0120  0.6182 -1.8524
 5903SOL     OW29341   0.469   1.335   5.365 -0.0344 -0.1215  0.3573
 5903SOL    HW129342   0.435   1.361   5.279 -0.0312 -0.5588  0.2219
 5903SOL    HW229343   0.387   1.331   5.414  0.9139 -1.5961  1.8242
 5904SOL     OW29344   1.819   2.900   3.224 -0.2289  0.3465  0.0974
 5904SOL    HW129345   1.802   2.990   3.200  0.2808  0.2890 -0.4654
 5904SOL    HW229346   1.867   2.906   3.307  1.5075 -0.0943 -0.8907
 5905SOL     OW29347   4.299   2.670   9.201  0.0744  0.0675  0.1393
 5905SOL    HW129348   4.380   2.718   9.184 -0.1378  0.6301  0.7149
 5905SOL    HW229349   4.324   2.601   9.264 -0.8975  0.1829  0.6515
 5906SOL     OW29350   1.207   2.027   4.945  0.5550 -0.5347  0.2387
 5906SOL    HW129351   1.158   1.974   5.008 -2.2508  2.1134  0.2686
 5906SOL    HW229352   1.286   1.974   4.957  2.0182  1.8878  1.3372
 5907SOL     OW29353   0.603   4.119   7.550  0.4342  0.1813  0.2249
 5907SOL    HW129354   0.535   4.056   7.530 -0.4926  0.6749  1.8031
 5907SOL    HW229355   0.661   4.065   7.603  1.1820  0.0170 -0.7643
 5908SOL     OW29356   1.905   3.603   7.627  0.2631 -0.1412 -0.0550
 5908SOL    HW129357   1.907   3.683   7.679 -1.5313 -0.8508  1.1377
 5908SOL    HW229358   1.831   3.609   7.566  0.7193  0.7740 -0.5111
 5909SOL     OW29359   4.629   3.532   8.245  0.7632 -0.5639 -0.7445
 5909SOL    HW129360   4.592   3.615   8.213 -0.3642 -0.7825 -0.0019
 5909SOL    HW229361   4.559   3.494   8.299 -0.3024  1.2783 -0.8362
 5910SOL     OW29362   4.519   3.970   7.779 -0.2241 -0.2826  0.1693
 5910SOL    HW129363   4.506   4.037   7.847  1.7718  1.6989 -1.4352
 5910SOL    HW229364   4.581   4.012   7.721  0.3538 -1.5514 -0.1310
 5911SOL     OW29365   0.369   3.971   1.165 -0.0695  0.3122 -0.6497
 5911SOL    HW129366   0.326   3.973   1.250  1.5790  1.7020  0.1362
 5911SOL    HW229367   0.303   4.020   1.116 -1.5434  0.1074  1.1646
 5912SOL     OW29368   2.520   3.747   5.992 -0.2133  0.4379  0.0122
 5912SOL    HW129369   2.595   3.703   5.952  1.0840  1.7926  0.9857
 5912SOL    HW229370   2.575   3.809   6.040  0.1327 -1.2154  1.7440
 5913SOL     OW29371   0.865   0.665   1.479  0.4868  0.6551 -0.5535
 5913SOL    HW129372   0.953   0.645   1.511  0.2952  0.9712  0.1654
 5913SOL    HW229373   0.804   0.659   1.552  0.3447  1.0401 -0.6421
 5914SOL     OW29374   0.304   0.551   4.233 -0.1625 -0.4401 -0.0589
 5914SOL    HW129375   0.387   0.503   4.234  0.5702  0.7379 -4.1261
 5914SOL    HW229376   0.320   0.621   4.295  2.5736 -0.7290 -0.4487
 5915SOL     OW29377   4.495   2.715   4.651 -0.8524 -0.1451  0.1586
 5915SOL    HW129378   4.549   2.640   4.624  1.1967  1.4954 -0.2857
 5915SOL    HW229379   4.547   2.791   4.627  0.8789 -0.4670  2.8513
 5916SOL     OW29380   1.755   2.833  16.849 -0.1790 -1.2686  0.2987
 5916SOL    HW129381   1.844   2.860  16.827  0.2607 -2.0569  1.0860
 5916SOL    HW229382   1.755   2.746  16.810 -1.8379 -2.1121  2.1241
 5917SOL     OW29383   4.039   2.386  16.759 -0.4303 -0.6538  0.6933
 5917SOL    HW129384   4.017   2.314  16.699 -0.2539  0.4410 -0.6837
 5917SOL    HW229385   3.953   2.393  16.801 -0.0540 -0.1675  1.3698
 5918SOL     OW29386   3.332   4.341  17.354  0.0546 -0.0889  0.9934
 5918SOL    HW129387   3.410   4.386  17.321 -0.2236 -1.3373 -1.4116
 5918SOL    HW229388   3.363   4.324  17.443  2.3817  1.8033  0.5547
 5919SOL     OW29389   4.552   0.941   5.079 -0.2263 -0.6899  0.1615
 5919SOL    HW129390   4.552   1.033   5.107 -0.0191  0.2119 -2.7352
 5919SOL    HW229391   4.479   0.949   5.018 -2.3891 -1.0483  2.7167
 5920SOL     OW29392   3.895   2.100   1.869 -0.1414  0.4678  0.1385
 5920SOL    HW129393   3.891   2.195   1.859 -1.9577  0.4446  0.5807
 5920SOL    HW229394   3.982   2.092   1.909 -0.1321 -3.4352 -0.6716
 5921SOL     OW29395   2.289   4.075  11.629  0.6915  0.2893  0.4045
 5921SOL    HW129396   2.194   4.065  11.617  0.0048  1.9943  4.3442
 5921SOL    HW229397   2.333   4.044  11.550 -2.5488  2.2626 -2.1825
 5922SOL     OW29398   0.354   1.574   7.474 -0.1249  0.2030 -0.4096
 5922SOL    HW129399   0.293   1.519   7.425 -0.6529  0.1920  0.2570
 5922SOL    HW229400   0.413   1.589   7.400  0.4878 -3.1545 -0.6140
 5923SOL     OW29401   4.504   0.433  17.411 -1.1400 -0.2577 -0.4873
 5923SOL    HW129402   4.560   0.366  17.373  1.0487  0.9615  0.6358
 5923SOL    HW229403   4.508   0.491  17.335 -1.1918 -0.4027 -0.6015
 5924SOL     OW29404   0.707   0.918  10.834 -0.3626  0.6859  0.3983
 5924SOL    HW129405   0.649   0.925  10.910 -1.3843 -1.5740 -0.1622
 5924SOL    HW229406   0.788   0.952  10.870 -1.3127  0.3731  2.8216
 5925SOL     OW29407   1.112   0.251   0.978  0.6927  0.3513 -0.1691
 5925SOL    HW129408   1.120   0.324   1.039  2.2707  0.5345 -0.5919
 5925SOL    HW229409   1.146   0.180   1.033  1.3392  0.4201 -0.4831
 5926SOL     OW29410   1.230   0.209  14.355  0.3882  0.0241 -0.8429
 5926SOL    HW129411   1.234   0.150  14.279  1.4806 -0.0639 -0.7164
 5926SOL    HW229412   1.266   0.296  14.336  0.1381  0.6274  1.4483
 5927SOL     OW29413   3.772   0.503   8.703 -0.0433 -0.0215  0.3048
 5927SOL    HW129414   3.731   0.436   8.648 -1.4654  0.0817  1.2260
 5927SOL    HW229415   3.796   0.577   8.647  1.1939  0.6860  1.7631
 5928SOL     OW29416   0.594   1.869   2.243  0.2760 -0.4223  0.0170
 5928SOL    HW129417   0.587   1.774   2.249 -1.2177 -0.2703  0.7301
 5928SOL    HW229418   0.678   1.883   2.200  0.3030 -0.3248  0.1018
 5929SOL     OW29419   0.965   0.876  11.737 -0.0761  0.3856  0.3170
 5929SOL    HW129420   0.914   0.956  11.749 -1.0342  0.0895 -1.6850
 5929SOL    HW229421   0.946   0.825  11.815  1.2892 -1.0103 -0.2789
 5930SOL     OW29422   2.458   1.566   3.038 -0.1331  0.0937  0.3516
 5930SOL    HW129423   2.376   1.518   3.027 -0.5183  0.2711  2.4338
 5930SOL    HW229424   2.522   1.500   3.009 -0.8176 -0.6609  0.5475
 5931SOL     OW29425   2.046   0.146   0.931 -0.7086  0.1244  0.0405
 5931SOL    HW129426   2.111   0.140   1.002  1.0436 -1.5153 -1.6721
 5931SOL    HW229427   1.994   0.225   0.944 -0.6912  0.0270  0.6813
 5932SOL     OW29428   4.002   0.899   3.110 -0.2709 -0.1548  0.1930
 5932SOL    HW129429   4.004   0.990   3.139 -0.2817  0.3393 -1.3370
 5932SOL    HW229430   3.996   0.913   3.015 -0.8052  3.7168  0.8170
 5933SOL     OW29431   3.342   0.760  16.293  0.1042  0.0681  0.2357
 5933SOL    HW129432   3.369   0.727  16.378  0.1311 -1.0176 -0.1976
 5933SOL    HW229433   3.433   0.773  16.267 -0.4857  1.4973 -1.1026
 5934SOL     OW29434   4.405   3.511   0.519 -0.2068 -0.4648 -0.0388
 5934SOL    HW129435   4.501   3.505   0.527  0.0854 -0.5868 -3.5474
 5934SOL    HW229436   4.384   3.581   0.580  1.2059 -2.8675  3.1794
 5935SOL     OW29437   4.619   3.744   7.481 -0.1182  0.4700 -0.1092
 5935SOL    HW129438   4.616   3.830   7.439 -1.3733  0.3448 -0.2521
 5935SOL    HW229439   4.583   3.688   7.412 -1.1759  2.0686 -0.8590
 5936SOL     OW29440   4.295   3.122   9.813  0.1865 -0.0021 -0.1102
 5936SOL    HW129441   4.257   3.059   9.874  2.3987  1.8770  3.1793
 5936SOL    HW229442   4.212   3.140   9.768  0.5342  1.0014 -0.3508
 5937SOL     OW29443   2.279   0.160   9.770 -0.3276  0.5567 -0.2632
 5937SOL    HW129444   2.370   0.189   9.767  0.3655 -1.5112  1.1276
 5937SOL    HW229445   2.241   0.235   9.817  0.3728  1.5035 -1.2044
 5938SOL     OW29446   4.087   2.433  12.725 -0.8293 -0.0493  0.4425
 5938SOL    HW129447   4.034   2.512  12.736 -1.4050 -0.1039 -1.9700
 5938SOL    HW229448   4.111   2.404  12.813  0.3442  1.3265  0.5711
 5939SOL     OW29449   3.800   4.092   1.922  0.3656  0.6192 -0.0493
 5939SOL    HW129450   3.775   4.006   1.888  0.1698  0.2960  0.9117
 5939SOL    HW229451   3.778   4.150   1.849 -0.8035 -1.0441 -1.0210
 5940SOL     OW29452   4.388   4.252   9.709 -0.4902  0.2024 -0.3098
 5940SOL    HW129453   4.430   4.299   9.637  0.9013 -0.7042 -0.1104
 5940SOL    HW229454   4.443   4.284   9.781  1.6155 -2.4933 -0.6973
 5941SOL     OW29455   2.325   1.869   5.152 -0.3266  0.0337 -0.3112
 5941SOL    HW129456   2.284   1.898   5.234 -2.3017  0.3181 -1.3816
 5941SOL    HW229457   2.416   1.897   5.159  0.0079 -1.0195 -0.5491
 5942SOL     OW29458   0.465   1.448  10.615 -0.1670  0.1043  0.1883
 5942SOL    HW129459   0.525   1.374  10.625  1.2625  1.1594 -0.5908
 5942SOL    HW229460   0.433   1.453  10.705  0.3278  0.4305  0.3487
 5943SOL     OW29461   3.945   2.537   0.094  0.4119  0.3472  0.2118
 5943SOL    HW129462   3.969   2.628   0.108 -2.1931  0.8977  1.0943
 5943SOL    HW229463   3.926   2.507   0.183  0.0081  2.0374  0.6974
 5944SOL     OW29464   2.849   1.407   4.540  0.4033  0.0583 -0.6160
 5944SOL    HW129465   2.894   1.323   4.550  0.0512 -0.0552  0.0502
 5944SOL    HW229466   2.924   1.463   4.560  1.3413 -0.5645 -2.4282
 5945SOL     OW29467   4.565   1.788   8.814 -0.0702 -0.0769 -0.3042
 5945SOL    HW129468   4.485   1.813   8.860 -0.3567 -1.3431 -0.1108
 5945SOL    HW229469   4.572   1.693   8.823  1.4675  0.3151  2.3862
 5946SOL     OW29470   2.203   1.787   4.913  0.7555 -0.5207  0.6529
 5946SOL    HW129471   2.265   1.786   4.839 -0.8574  1.8766 -0.7488
 5946SOL    HW229472   2.257   1.807   4.990  2.9957 -0.8465 -0.8322
 5947SOL     OW29473   4.468   0.810   4.114 -0.1689 -0.2784  0.3222
 5947SOL    HW129474   4.548   0.825   4.064  0.4515 -0.4550  1.2836
 5947SOL    HW229475   4.455   0.716   4.099  1.8798 -0.4549 -0.2877
 5948SOL     OW29476   3.365   2.229   5.694  1.1140 -0.1329 -0.1796
 5948SOL    HW129477   3.453   2.193   5.701  1.5778  0.8459 -1.0605
 5948SOL    HW229478   3.314   2.183   5.762  0.0215 -0.5234 -1.2594
 5949SOL     OW29479   3.868   3.259   7.399 -0.1557  0.4704  0.5152
 5949SOL    HW129480   3.832   3.348   7.406  0.3356  0.7261 -0.1371
 5949SOL    HW229481   3.884   3.244   7.492  0.8627  1.7119  0.5544
 5950SOL     OW29482   1.111   2.649   5.695  0.5455  0.3110 -0.0373
 5950SOL    HW129483   1.079   2.586   5.631 -0.8558 -0.1028  1.0631
 5950SOL    HW229484   1.079   2.599   5.770 -0.3987 -0.9256 -1.2598
 5951SOL     OW29485   2.577   3.199   2.982  0.5891 -0.3561 -0.3543
 5951SOL    HW129486   2.609   3.205   2.893  0.8080 -1.4202 -0.3534
 5951SOL    HW229487   2.517   3.124   2.976 -1.3720  1.1441  0.2749
 5952SOL     OW29488   1.876   3.167   6.440 -0.3641  0.5534  0.7773
 5952SOL    HW129489   1.796   3.191   6.394  0.1250  0.8591  0.0817
 5952SOL    HW229490   1.938   3.229   6.401  0.5078 -0.2691  0.8267
 5953SOL     OW29491   4.124   4.039   4.055  0.2630  0.2027  0.1926
 5953SOL    HW129492   4.086   4.009   4.138  2.0874  1.2011  1.3861
 5953SOL    HW229493   4.050   4.042   3.994  0.7497 -1.5062 -0.4768
 5954SOL     OW29494   2.433   1.932  10.431 -0.0148  0.0075  0.2223
 5954SOL    HW129495   2.462   1.956  10.519 -0.2192  0.5723  0.1349
 5954SOL    HW229496   2.465   2.011  10.388 -1.5976  0.7806  0.4694
 5955SOL     OW29497   2.964   2.447   5.027  0.2228 -0.5879  0.2008
 5955SOL    HW129498   3.050   2.467   5.065 -1.2772  0.2226  3.1431
 5955SOL    HW229499   2.948   2.360   5.063  1.4762 -1.9915 -2.6226
 5956SOL     OW29500   3.177   1.714  11.297  0.1354  0.9652 -0.6411
 5956SOL    HW129501   3.084   1.699  11.283  0.2197  0.7204 -0.9536
 5956SOL    HW229502   3.223   1.634  11.270  0.2510  0.7634  0.1602
 5957SOL     OW29503   3.379   3.691   1.919 -0.3421 -0.2487 -0.0114
 5957SOL    HW129504   3.351   3.612   1.967 -1.0948  2.6072  4.2419
 5957SOL    HW229505   3.450   3.654   1.867 -0.5207 -1.4721  0.6165
 5958SOL     OW29506   1.948   0.141  15.329 -0.0028 -0.0480  0.1858
 5958SOL    HW129507   1.974   0.116  15.417 -0.8058  2.4532  1.1315
 5958SOL    HW229508   1.917   0.055  15.302 -1.8511  0.3362  1.0532
 5959SOL     OW29509   1.835   3.072  12.656 -0.4664  0.0063 -0.3557
 5959SOL    HW129510   1.828   3.168  12.655  2.5694  0.1805 -2.3172
 5959SOL    HW229511   1.779   3.054  12.732  0.3719 -0.9692  0.0225
 5960SOL     OW29512   3.673   1.809   7.575  0.4847  0.0838 -0.2584
 5960SOL    HW129513   3.761   1.813   7.538  0.5962 -0.5422 -0.0673
 5960SOL    HW229514   3.667   1.713   7.578 -1.7362  0.1673 -2.4250
 5961SOL     OW29515   0.940   2.165  14.120 -0.1705 -0.3500 -0.4039
 5961SOL    HW129516   0.949   2.153  14.026 -0.1245  0.7294 -0.5309
 5961SOL    HW229517   0.938   2.070  14.132  2.0551 -0.2097  1.0237
 5962SOL     OW29518   2.024   4.057  17.538  0.5890 -0.0470  0.4727
 5962SOL    HW129519   1.951   3.997  17.556 -1.2095  1.3400 -2.0086
 5962SOL    HW229520   2.010   4.123  17.606  1.2806  0.5509  0.0392
 5963SOL     OW29521   4.010   2.670   6.374  0.2530  0.4142 -0.8271
 5963SOL    HW129522   3.917   2.691   6.361  0.9419  2.5556 -2.2038
 5963SOL    HW229523   4.026   2.593   6.319  2.9087  0.3347  0.0916
 5964SOL     OW29524   3.320   2.680   8.954 -0.0395 -0.0657  0.2486
 5964SOL    HW129525   3.261   2.663   8.881  1.9873 -1.9523 -0.9519
 5964SOL    HW229526   3.324   2.775   8.947  0.1784 -0.0662  0.3702
 5965SOL     OW29527   0.950   1.211   5.149 -0.4214  0.1516 -0.5532
 5965SOL    HW129528   0.859   1.236   5.167 -0.2531  0.0159  0.5070
 5965SOL    HW229529   0.980   1.240   5.235  3.1194  2.9189 -2.7269
 5966SOL     OW29530   3.371   3.359   6.280  0.2911  0.3822 -0.6600
 5966SOL    HW129531   3.399   3.305   6.205 -0.5863  0.1183 -0.7885
 5966SOL    HW229532   3.384   3.445   6.239 -0.0068  0.6797 -0.1182
 5967SOL     OW29533   0.459   0.359  15.000  0.0145 -0.0773  0.3654
 5967SOL    HW129534   0.502   0.385  14.918 -1.0028 -1.7140 -0.6813
 5967SOL    HW229535   0.531   0.331  15.057  0.3838  2.8871  1.3945
 5968SOL     OW29536   1.374   4.376   2.821 -0.2246 -0.0557 -0.1717
 5968SOL    HW129537   1.439   4.347   2.885 -1.2990 -0.4093  0.7844
 5968SOL    HW229538   1.292   4.365   2.870  0.4331  1.5430  1.2767
 5969SOL     OW29539   0.826   1.919   7.547 -0.0263  0.5667  0.4690
 5969SOL    HW129540   0.824   1.858   7.474 -0.1073 -1.2013  1.9523
 5969SOL    HW229541   0.739   1.925   7.586 -0.1200 -0.3376  0.3910
 5970SOL     OW29542   3.829   3.110   8.126  0.0236 -0.1777  0.8393
 5970SOL    HW129543   3.824   3.040   8.191  1.0137  1.6080  2.8664
 5970SOL    HW229544   3.769   3.171   8.169  1.7179  0.7436  1.9137
 5971SOL     OW29545   0.751   1.987   6.381 -0.5142  0.1228 -0.1513
 5971SOL    HW129546   0.812   1.941   6.324 -1.6312  1.1481 -2.1623
 5971SOL    HW229547   0.693   2.029   6.318 -0.5899  1.6380  0.9366
 5972SOL     OW29548   3.109   1.725   8.160 -0.4573  0.6565  0.0682
 5972SOL    HW129549   3.192   1.686   8.188 -0.2796  0.6108 -0.5074
 5972SOL    HW229550   3.094   1.790   8.229 -0.1691 -0.0423  0.7868
 5973SOL     OW29551   3.820   0.222  14.071 -0.1917  0.0721 -0.4420
 5973SOL    HW129552   3.826   0.128  14.056 -0.2859 -0.6014  3.8066
 5973SOL    HW229553   3.757   0.220  14.143  0.9364  0.4303  0.5522
 5974SOL     OW29554   1.672   2.516   2.631  0.6846 -0.8683  0.4049
 5974SOL    HW129555   1.765   2.540   2.634  0.1473  0.8824  2.8300
 5974SOL    HW229556   1.632   2.583   2.577 -0.1467 -1.3089  0.4779
 5975SOL     OW29557   1.416   1.571   4.382 -0.3203 -0.5412 -0.5185
 5975SOL    HW129558   1.461   1.637   4.330 -1.8210  1.3322  0.5616
 5975SOL    HW229559   1.489   1.536   4.434  1.1888  1.2633 -1.4710
 5976SOL     OW29560   1.007   1.951   8.083 -0.6154  0.1878 -0.0596
 5976SOL    HW129561   0.975   1.926   7.996 -0.6734  0.8231 -0.2222
 5976SOL    HW229562   0.972   1.883   8.139  1.4494 -0.3800  0.5518
 5977SOL     OW29563   0.589   4.620   6.145 -0.1787  0.0878 -0.0977
 5977SOL    HW129564   0.642   4.620   6.065  0.1867  1.5902  0.1344
 5977SOL    HW229565   0.502   4.645   6.113  0.0374  0.6097 -0.2790
 5978SOL     OW29566   2.078   2.235   4.528  0.2771 -0.2896  0.4250
 5978SOL    HW129567   2.163   2.193   4.541  1.4194  2.4725  1.7867
 5978SOL    HW229568   2.071   2.223   4.433 -0.0498  0.3642  0.3685
 5979SOL     OW29569   0.618   0.382   8.763 -0.5219 -0.0745 -0.1313
 5979SOL    HW129570   0.600   0.335   8.682 -3.0555 -1.3287  1.1536
 5979SOL    HW229571   0.565   0.461   8.765  2.5362  1.9714  0.8649
 5980SOL     OW29572   2.365   3.080   7.947  0.1638  0.3852  0.0016
 5980SOL    HW129573   2.425   3.023   7.994  0.6558  0.1573 -0.9073
 5980SOL    HW229574   2.372   3.157   8.004 -0.7539 -0.4825  1.2899
 5981SOL     OW29575   2.440   1.036   3.102  0.6914  0.9176 -0.0642
 5981SOL    HW129576   2.470   1.041   3.193 -0.2728 -0.1074  0.3169
 5981SOL    HW229577   2.392   1.119   3.099 -2.2357 -0.6089  4.2524
 5982SOL     OW29578   1.727   2.736   4.024  0.1340  0.2455  0.6706
 5982SOL    HW129579   1.736   2.652   4.069 -2.1027  0.6151  1.8366
 5982SOL    HW229580   1.632   2.741   4.028 -0.0184 -2.0210 -0.2032
 5983SOL     OW29581   4.368   1.609   4.679  0.0657  0.3955 -0.1653
 5983SOL    HW129582   4.437   1.587   4.617  1.2652 -0.6479  1.5567
 5983SOL    HW229583   4.416   1.664   4.740 -0.2538 -0.4358  0.8379
 5984SOL     OW29584   1.519   2.234   8.291  0.0615 -0.0912  0.5230
 5984SOL    HW129585   1.545   2.243   8.383 -0.8181  3.4218  0.4406
 5984SOL    HW229586   1.567   2.304   8.247 -0.2794 -1.0926 -1.4035
 5985SOL     OW29587   3.829   4.553   9.502  0.0524  0.1941 -0.1591
 5985SOL    HW129588   3.811   4.640   9.538 -1.8450  0.1314 -0.9573
 5985SOL    HW229589   3.758   4.547   9.437  0.1488  1.0467 -0.3496
 5986SOL     OW29590   4.505   3.730   9.566  0.4864  0.4176 -0.8122
 5986SOL    HW129591   4.481   3.788   9.639  0.4651  0.4820 -0.8702
 5986SOL    HW229592   4.428   3.674   9.564 -0.5494  1.6994  2.4192
 5987SOL     OW29593   2.032   3.787  14.157  0.3700 -0.1421 -0.3644
 5987SOL    HW129594   2.033   3.728  14.233 -0.9119  1.0090  0.5380
 5987SOL    HW229595   1.951   3.762  14.112 -0.1915  0.7340  0.1746
 5988SOL     OW29596   3.599   2.302   0.323  0.0341 -0.3827  0.3390
 5988SOL    HW129597   3.541   2.229   0.304  0.6653 -0.8371  0.1463
 5988SOL    HW229598   3.603   2.349   0.240  1.4924  1.3537  1.3700
 5989SOL     OW29599   3.899   1.669   7.761  0.1866 -0.1704 -0.6595
 5989SOL    HW129600   3.927   1.679   7.670 -1.8868 -2.1409 -1.5201
 5989SOL    HW229601   3.856   1.754   7.775  2.3505  0.6745  0.8390
 5990SOL     OW29602   4.334   1.884   9.851  0.0391 -0.5196  0.1206
 5990SOL    HW129603   4.371   1.853   9.768  2.1716  0.6320  0.6182
 5990SOL    HW229604   4.287   1.965   9.831 -0.5346 -1.1651 -1.1078
 5991SOL     OW29605   0.381   2.779   1.120 -0.5190  0.3332 -0.1225
 5991SOL    HW129606   0.462   2.828   1.107 -1.4451  1.8871  0.0757
 5991SOL    HW229607   0.342   2.841   1.182 -0.0283  0.2762  0.2484
 5992SOL     OW29608   1.717   4.198   8.448 -0.3297  0.1547  0.4369
 5992SOL    HW129609   1.678   4.280   8.477 -1.8337  0.4893 -2.4767
 5992SOL    HW229610   1.674   4.188   8.362 -0.0124 -2.3913  0.5583
 5993SOL     OW29611   0.324   3.559   6.280  0.4425 -0.1936 -0.3962
 5993SOL    HW129612   0.235   3.593   6.277  0.7464  0.4932 -1.7850
 5993SOL    HW229613   0.317   3.470   6.314  0.3457  0.7373  2.0046
 5994SOL     OW29614   3.576   3.373   3.641  0.3232 -0.2662  0.8656
 5994SOL    HW129615   3.513   3.408   3.704  0.8372 -0.2566  1.3751
 5994SOL    HW229616   3.589   3.440   3.574  0.0099 -1.0677  0.0163
 5995SOL     OW29617   0.675   1.329  10.274  0.3694  0.4603 -0.2972
 5995SOL    HW129618   0.682   1.251  10.329 -2.0343  0.9730  0.7008
 5995SOL    HW229619   0.719   1.296  10.195 -0.4822 -1.7019  0.1465
 5996SOL     OW29620   1.327   2.365   2.581  0.3450  0.5078 -0.2085
 5996SOL    HW129621   1.353   2.456   2.592 -2.5262  1.0735  1.9790
 5996SOL    HW229622   1.232   2.373   2.572  0.4101  0.4757 -0.9148
 5997SOL     OW29623   0.065   4.463  17.290  0.1963  0.1419  0.0112
 5997SOL    HW129624   0.047   4.397  17.357  0.2617  0.7455  0.6272
 5997SOL    HW229625   4.716   4.508  17.287  0.2185  0.1553 -0.4184
 5998SOL     OW29626   3.691   4.021   6.167  0.1005  0.3833 -0.1959
 5998SOL    HW129627   3.685   3.946   6.108 -0.7415  0.7159 -0.5462
 5998SOL    HW229628   3.783   4.017   6.194  0.1395 -1.6158 -0.6061
 5999SOL     OW29629   2.181   4.684   2.977  0.4277 -0.7287  0.1822
 5999SOL    HW129630   2.116   0.009   2.941  1.4463  0.5989  0.5600
 5999SOL    HW229631   2.138   4.601   2.999  0.3524  0.2850  3.7223
 6000SOL     OW29632   1.486   0.953   7.697  0.2832 -0.3299  0.4569
 6000SOL    HW129633   1.495   1.012   7.773  0.6336 -0.6629  0.6769
 6000SOL    HW229634   1.509   1.014   7.628  1.0644 -1.6061 -0.4151
 6001SOL     OW29635   0.618   3.843   3.114 -0.4619 -0.2591 -0.0114
 6001SOL    HW129636   0.649   3.870   3.027 -3.8448  3.6292 -0.0330
 6001SOL    HW229637   0.689   3.877   3.167 -1.2697 -1.5372  1.9073
 6002SOL     OW29638   4.100   1.594   9.249  0.5110  0.5703 -0.1219
 6002SOL    HW129639   4.165   1.601   9.180  1.8548 -0.1506  1.0781
 6002SOL    HW229640   4.121   1.507   9.282 -2.7484 -0.3627 -0.4656
 6003SOL     OW29641   1.091   3.507   6.801 -0.5610 -0.0390  0.5376
 6003SOL    HW129642   1.037   3.432   6.825  0.2167 -0.5147  0.7805
 6003SOL    HW229643   1.176   3.487   6.841 -0.8474 -4.2675 -1.0600
 6004SOL     OW29644   3.909   1.361   9.613 -0.1463  0.0854 -0.1632
 6004SOL    HW129645   3.878   1.435   9.561  0.0269 -0.7455 -1.4379
 6004SOL    HW229646   3.922   1.284   9.558 -0.7262  0.3995 -0.7396
 6005SOL     OW29647   3.526   1.031   1.134  0.1012 -0.1572 -0.4942
 6005SOL    HW129648   3.447   1.083   1.152 -0.2891 -1.9758  3.1180
 6005SOL    HW229649   3.598   1.072   1.182  1.2617  0.3680 -2.6877
 6006SOL     OW29650   1.491   2.924   2.569  0.0386  0.7083 -0.1909
 6006SOL    HW129651   1.496   3.010   2.611  0.6991  0.1542  0.8381
 6006SOL    HW229652   1.402   2.946   2.540  0.7674  1.8538 -1.5698
 6007SOL     OW29653   0.089   0.557   1.609 -0.7320  0.1749  0.0839
 6007SOL    HW129654   0.103   0.615   1.534 -0.8777  0.8387  0.5682
 6007SOL    HW229655   0.140   0.606   1.674  0.6993  2.1695 -2.5733
 6008SOL     OW29656   4.555   0.356   7.006 -0.7592  0.6540  0.2127
 6008SOL    HW129657   4.477   0.307   6.979 -1.5299  1.7287  0.4911
 6008SOL    HW229658   4.534   0.372   7.098  1.6812 -1.8786  1.1983
 6009SOL     OW29659   1.185   1.351   5.611  0.5862 -0.4763 -0.2016
 6009SOL    HW129660   1.235   1.403   5.548  0.6609 -0.0148  0.2396
 6009SOL    HW229661   1.137   1.300   5.546  0.3540 -0.9749  0.3597
 6010SOL     OW29662   1.278   3.386  12.148  0.1883  0.3435 -0.2599
 6010SOL    HW129663   1.352   3.326  12.152  1.3582  1.9277  1.8448
 6010SOL    HW229664   1.205   3.325  12.159 -0.0126  0.3368 -1.6550
 6011SOL     OW29665   1.346   1.558   1.661  0.0208 -0.5421 -0.1347
 6011SOL    HW129666   1.353   1.499   1.586  0.2095 -0.4476 -0.1927
 6011SOL    HW229667   1.312   1.636   1.618  0.6134 -0.7095 -0.8998
 6012SOL     OW29668   0.245   1.763   1.774 -0.3157  0.0995 -0.4566
 6012SOL    HW129669   0.161   1.780   1.816  0.3519  2.6489 -0.1608
 6012SOL    HW229670   0.285   1.693   1.826 -2.2841 -2.3536 -2.2738
 6013SOL     OW29671   0.814   4.735  12.549  0.6883 -0.1932  0.3763
 6013SOL    HW129672   0.898   4.711  12.510 -0.1238 -0.8921 -0.9294
 6013SOL    HW229673   0.833   4.733  12.643  0.5418  0.0557  0.4116
 6014SOL     OW29674   2.019   4.141  15.404  0.3309  0.2484 -0.2338
 6014SOL    HW129675   2.052   4.230  15.388 -0.8295  1.2875  3.2704
 6014SOL    HW229676   2.078   4.119  15.476 -0.3746  0.4688  0.4134
 6015SOL     OW29677   0.101   1.057   1.642 -0.0296 -0.2326  0.1904
 6015SOL    HW129678   0.162   0.989   1.612  0.9760  0.9246 -0.3461
 6015SOL    HW229679   0.041   1.077   1.571 -0.0312 -2.5750 -0.4773
 6016SOL     OW29680   4.500   4.043   4.118 -0.1093  0.0545 -0.0717
 6016SOL    HW129681   4.476   3.971   4.059 -1.9079 -0.4179  1.2455
 6016SOL    HW229682   4.538   4.002   4.195 -1.0468  1.6106  1.2221
 6017SOL     OW29683   4.143   0.636   2.793  0.0719 -0.0995 -0.4791
 6017SOL    HW129684   4.135   0.551   2.749  0.3161 -0.7153  0.6787
 6017SOL    HW229685   4.185   0.607   2.874  0.4152 -0.2791 -0.7237
 6018SOL     OW29686   3.611   1.337   4.690 -0.6655 -0.0338  0.4988
 6018SOL    HW129687   3.580   1.339   4.781 -1.3444  0.1591  0.2657
 6018SOL    HW229688   3.668   1.260   4.682  0.4546  0.8343  0.1538
 6019SOL     OW29689   3.324   3.320   4.489 -0.2559  0.0594 -0.5727
 6019SOL    HW129690   3.351   3.346   4.577 -2.5246  0.1851  0.0732
 6019SOL    HW229691   3.290   3.402   4.453  0.3917 -0.8781 -3.3368
 6020SOL     OW29692   1.241   3.644   0.110  0.8566 -0.0847 -0.0875
 6020SOL    HW129693   1.210   3.555   0.124  0.4515 -0.3033 -2.3519
 6020SOL    HW229694   1.165   3.689   0.072  0.2680 -0.5146  0.5997
 6021SOL     OW29695   3.269   2.011   7.903 -0.1669  0.0658  0.1799
 6021SOL    HW129696   3.261   2.064   7.824  0.4565 -0.4023 -0.1955
 6021SOL    HW229697   3.298   1.928   7.865 -1.1487  0.6957 -1.9300
 6022SOL     OW29698   2.586   3.197   7.653 -0.5595  0.3170  0.1721
 6022SOL    HW129699   2.649   3.169   7.719  0.3298  0.1002 -0.7798
 6022SOL    HW229700   2.552   3.114   7.621  0.9430 -0.4118  0.4736
 6023SOL     OW29701   0.734   0.590   4.085 -0.4193  0.0067  0.1136
 6023SOL    HW129702   0.775   0.529   4.024 -1.4744 -1.9405  1.3504
 6023SOL    HW229703   0.810   0.617   4.137  1.4336 -2.5402 -1.2828
 6024SOL     OW29704   4.421   2.392   5.714 -0.0168 -0.4223 -0.3200
 6024SOL    HW129705   4.457   2.416   5.629  0.5975 -1.5448 -0.3703
 6024SOL    HW229706   4.422   2.298   5.696 -1.4409 -0.2229 -1.5271
 6025SOL     OW29707   3.732   4.410   4.511  0.1016  0.2969  0.3257
 6025SOL    HW129708   3.651   4.462   4.514 -0.2880 -0.1730 -2.0602
 6025SOL    HW229709   3.763   4.434   4.424 -1.7222  1.5791  0.0306
 6026SOL     OW29710   0.761   0.907   1.911  0.1250  0.1227 -0.2113
 6026SOL    HW129711   0.833   0.926   1.971 -0.1656 -1.7744  0.7294
 6026SOL    HW229712   0.771   0.973   1.842 -0.5263  1.8090  1.3168
 6027SOL     OW29713   0.830   2.634   0.390 -0.0052  0.1932 -0.0330
 6027SOL    HW129714   0.906   2.596   0.434 -0.1671  0.0434  0.1193
 6027SOL    HW229715   0.807   2.574   0.319 -2.5895  1.1621 -0.0121
 6028SOL     OW29716   2.453   1.273   0.551  0.2112 -0.3251 -0.0913
 6028SOL    HW129717   2.498   1.294   0.633  1.0379  1.3593 -0.9644
 6028SOL    HW229718   2.374   1.226   0.576 -0.9495  0.6954 -1.8662
 6029SOL     OW29719   4.349   0.621   9.087 -0.2718 -0.6336  0.0168
 6029SOL    HW129720   4.367   0.641   9.179  0.7862 -0.1666 -0.2885
 6029SOL    HW229721   4.276   0.560   9.096 -0.0629 -0.9533 -0.5124
 6030SOL     OW29722   2.121   3.733   3.985 -0.1138  0.5700 -0.0642
 6030SOL    HW129723   2.072   3.677   4.044  2.4652 -0.1439  1.3820
 6030SOL    HW229724   2.175   3.770   4.055 -1.4530  0.0864  1.2258
 6031SOL     OW29725   0.724   1.772  13.181  0.2953  0.3508 -0.1624
 6031SOL    HW129726   0.637   1.767  13.141  0.3880  2.3016 -0.5968
 6031SOL    HW229727   0.773   1.834  13.127  0.2540 -0.6116 -1.3211
 6032SOL     OW29728   2.099   1.140   4.786 -0.2651 -0.1243 -0.1599
 6032SOL    HW129729   2.113   1.083   4.861 -0.4808 -1.4783 -1.1418
 6032SOL    HW229730   2.138   1.216   4.828  1.8159 -0.6439 -1.1342
 6033SOL     OW29731   2.064   0.739   4.289  0.0860  0.4535  0.3589
 6033SOL    HW129732   1.983   0.741   4.237  0.0237 -2.2885  0.3396
 6033SOL    HW229733   2.027   0.749   4.377 -0.7588  0.3396  0.0235
 6034SOL     OW29734   1.128   4.478   7.365  0.2136 -0.4349 -0.2412
 6034SOL    HW129735   1.036   4.502   7.374  0.4859  0.0595  1.1862
 6034SOL    HW229736   1.131   4.399   7.310  4.0124 -0.0917 -0.5345
 6035SOL     OW29737   0.753   1.339   4.093  0.1552  0.3682  0.0327
 6035SOL    HW129738   0.713   1.399   4.030 -0.5827  0.8074  0.9150
 6035SOL    HW229739   0.817   1.296   4.036  0.0473  0.8643 -0.4605
 6036SOL     OW29740   1.424   0.349   3.679 -0.2589 -0.1529 -0.1363
 6036SOL    HW129741   1.367   0.291   3.730  0.0806  1.1795  1.7744
 6036SOL    HW229742   1.504   0.346   3.732 -0.6980  0.3268  0.5664
 6037SOL     OW29743   1.190   1.253  14.985 -0.5253 -0.1587 -0.7570
 6037SOL    HW129744   1.117   1.235  15.045 -0.7321  0.9844 -0.6632
 6037SOL    HW229745   1.165   1.337  14.947  1.5929  0.8221  0.0267
 6038SOL     OW29746   1.347   0.560   8.632  0.0526  0.3239 -0.2065
 6038SOL    HW129747   1.311   0.486   8.680 -0.3568  1.0185  0.5584
 6038SOL    HW229748   1.434   0.574   8.670 -0.4447  0.7289  0.7714
 6039SOL     OW29749   3.436   3.495   2.294 -0.1500 -0.2254  0.1335
 6039SOL    HW129750   3.399   3.428   2.351  1.2634 -0.8790  0.2749
 6039SOL    HW229751   3.350   3.530   2.271  0.9171  1.4087 -1.3914
 6040SOL     OW29752   1.392   0.426  11.289 -0.3270  0.3042  0.0720
 6040SOL    HW129753   1.336   0.436  11.212 -1.4551  1.0331  0.9881
 6040SOL    HW229754   1.387   0.331  11.296 -0.0406  0.4251  1.8549
 6041SOL     OW29755   1.118   3.440   6.029 -0.7455 -0.2877 -1.1463
 6041SOL    HW129756   1.117   3.366   6.090  1.2451  0.1362 -0.6218
 6041SOL    HW229757   1.085   3.393   5.952  1.1336 -0.9618 -1.5433
 6042SOL     OW29758   0.588   2.589  11.711  0.0873  0.8720  0.0163
 6042SOL    HW129759   0.621   2.499  11.715 -1.7808  0.2223  0.8218
 6042SOL    HW229760   0.668   2.640  11.721  0.7766 -0.2820  0.4542
 6043SOL     OW29761   3.658   3.367  15.058 -0.5760  0.3838 -0.3534
 6043SOL    HW129762   3.632   3.292  15.111 -0.5061  2.0373  2.0309
 6043SOL    HW229763   3.605   3.345  14.981 -0.2284  0.1092 -0.5137
 6044SOL     OW29764   3.850   2.869   9.837 -0.0888  0.0245 -0.2866
 6044SOL    HW129765   3.790   2.811   9.791  2.2608 -1.9093 -0.9314
 6044SOL    HW229766   3.848   2.944   9.777  1.6818 -0.0908 -0.5022
 6045SOL     OW29767   3.036   0.764   4.009 -0.2186 -0.1130 -0.1355
 6045SOL    HW129768   3.125   0.761   4.044 -0.4481  0.2141  0.4814
 6045SOL    HW229769   2.998   0.841   4.051  1.7610  0.7973 -0.0200
 6046SOL     OW29770   1.196   0.801  10.852 -0.6506 -0.7696  0.1349
 6046SOL    HW129771   1.192   0.805  10.948  1.5182 -1.9146  0.2676
 6046SOL    HW229772   1.105   0.827  10.837 -0.5876 -1.5607 -1.6716
 6047SOL     OW29773   1.503   2.103   6.214  0.2665 -0.4276 -0.0727
 6047SOL    HW129774   1.422   2.113   6.264  0.3034 -1.2379  0.1486
 6047SOL    HW229775   1.492   2.018   6.170  3.1534 -0.4452 -0.7201
 6048SOL     OW29776   4.191   1.561   7.839 -0.0082  0.1929  0.4712
 6048SOL    HW129777   4.191   1.653   7.864  0.9753  0.1192  0.7333
 6048SOL    HW229778   4.134   1.580   7.764 -1.2380 -0.1741  1.3129
 6049SOL     OW29779   1.669   4.136   7.636  0.2688  0.7331  0.3244
 6049SOL    HW129780   1.664   4.077   7.561 -3.3573 -0.4005  1.4280
 6049SOL    HW229781   1.612   4.208   7.609  0.4934  0.4805 -0.7928
 6050SOL     OW29782   3.896   3.899  12.990  0.2476  0.3663  0.0795
 6050SOL    HW129783   3.913   3.829  13.052 -1.5049 -0.8289 -0.8092
 6050SOL    HW229784   3.852   3.964  13.044 -1.2011  0.4310 -1.1860
 6051SOL     OW29785   3.850   2.010   4.297 -0.8985 -0.1215 -0.0164
 6051SOL    HW129786   3.779   2.060   4.257 -2.1242  0.7568  3.2914
 6051SOL    HW229787   3.815   1.925   4.273  0.0425 -1.1270  2.1626
 6052SOL     OW29788   0.901   4.185   5.215  0.7112 -0.3229 -0.5255
 6052SOL    HW129789   0.877   4.094   5.195  0.4155 -0.6644  1.3711
 6052SOL    HW229790   0.828   4.214   5.270  0.0472 -0.6431 -1.2311
 6053SOL     OW29791   3.130   1.828   5.813  0.2724  0.0914 -0.4513
 6053SOL    HW129792   3.103   1.864   5.898  0.4456 -2.1070  0.5446
 6053SOL    HW229793   3.218   1.865   5.810  0.9616 -1.5489 -0.6169
 6054SOL     OW29794   3.980   4.454  12.936  0.3646 -0.1723 -0.1832
 6054SOL    HW129795   4.052   4.514  12.954 -0.8484  1.5573 -1.0308
 6054SOL    HW229796   3.910   4.512  12.968  0.5347 -1.0035  1.7457
 6055SOL     OW29797   3.373   0.783   2.509 -0.0242  0.2776 -0.1891
 6055SOL    HW129798   3.407   0.698   2.480 -1.1053 -0.1026 -0.3326
 6055SOL    HW229799   3.306   0.805   2.445 -0.7885 -0.1281  0.4786
 6056SOL     OW29800   3.566   2.548   8.473 -0.7658 -0.2890 -0.5815
 6056SOL    HW129801   3.645   2.497   8.454 -1.4168 -0.9533 -1.5066
 6056SOL    HW229802   3.582   2.627   8.421  0.6508 -0.1484  0.0550
 6057SOL     OW29803   3.840   2.763   3.559 -0.1073 -0.5687 -0.0129
 6057SOL    HW129804   3.777   2.805   3.501 -1.1322 -1.7494  0.2546
 6057SOL    HW229805   3.929   2.789   3.536 -0.9892  1.5893 -1.0074
 6058SOL     OW29806   1.305   4.635   5.153 -0.2565 -0.0502 -0.1662
 6058SOL    HW129807   1.301   4.540   5.146  0.2219 -0.0756 -0.0532
 6058SOL    HW229808   1.233   4.657   5.213 -1.2765 -0.6234 -1.1674
 6059SOL     OW29809   1.504   2.369   6.156  0.3182  0.0239 -0.0148
 6059SOL    HW129810   1.413   2.369   6.128 -0.2502  1.4546  1.8370
 6059SOL    HW229811   1.522   2.278   6.130 -0.7603 -0.4892  1.0121
 6060SOL     OW29812   1.857   2.528   4.609 -0.0557  0.1913 -0.1413
 6060SOL    HW129813   1.826   2.466   4.675  1.0918  0.4592  0.6634
 6060SOL    HW229814   1.908   2.597   4.652  0.6001 -0.3216 -0.0990
 6061SOL     OW29815   3.604   3.553   3.168  0.7373 -0.3088 -0.2143
 6061SOL    HW129816   3.627   3.630   3.117  1.8978 -1.5138 -1.5153
 6061SOL    HW229817   3.509   3.566   3.172  1.1229  2.2623  0.6093
 6062SOL     OW29818   3.028   3.599  17.346 -0.5564 -0.1675 -0.2382
 6062SOL    HW129819   2.992   3.528  17.400 -0.0309  0.2477  0.6630
 6062SOL    HW229820   2.994   3.679  17.385  0.5348  0.9237 -1.5315
 6063SOL     OW29821   1.835   4.377   7.060 -0.2205 -0.0829 -0.0575
 6063SOL    HW129822   1.863   4.441   6.995  1.2164  0.4007  1.0375
 6063SOL    HW229823   1.896   4.390   7.133 -0.8754  0.7946  0.3341
 6064SOL     OW29824   0.721   3.761  15.279 -0.2209  0.7951  0.0342
 6064SOL    HW129825   0.678   3.704  15.342 -2.4926  0.4777 -1.7924
 6064SOL    HW229826   0.803   3.717  15.256 -0.9497  0.3741 -1.8130
 6065SOL     OW29827   0.943   2.326   7.426  0.3032  0.0219 -0.0645
 6065SOL    HW129828   0.875   2.365   7.372  1.3965 -0.8025 -2.0023
 6065SOL    HW229829   0.934   2.394   7.493  0.9487 -0.3771  0.4290
 6066SOL     OW29830   0.321   1.146   2.288 -0.1405  0.3235 -0.0938
 6066SOL    HW129831   0.348   1.054   2.295 -1.1003 -0.0415 -1.3886
 6066SOL    HW229832   0.254   1.150   2.356 -0.0639  0.3123 -0.0173
 6067SOL     OW29833   3.125   4.055  14.166  0.3265  0.2583  0.5711
 6067SOL    HW129834   3.075   4.018  14.093 -0.0184  0.4055  0.7299
 6067SOL    HW229835   3.072   4.010  14.231  1.3384 -1.2975  0.3030
 6068SOL     OW29836   3.983   4.158  11.915  0.4595 -0.2141  0.4278
 6068SOL    HW129837   3.962   4.091  11.980 -0.8474 -0.1400  0.0803
 6068SOL    HW229838   3.900   4.205  11.918 -0.0230 -0.8232 -2.9326
 6069SOL     OW29839   0.168   2.408   9.882  0.1783 -0.5007  0.0463
 6069SOL    HW129840   0.251   2.448   9.907  0.8552 -2.0023  0.1847
 6069SOL    HW229841   0.123   2.476   9.831 -1.8145 -2.8562 -1.3268
 6070SOL     OW29842   0.790   1.078   0.208 -0.5277  0.0351  0.5197
 6070SOL    HW129843   0.871   1.042   0.172 -0.8183  0.8614 -0.9575
 6070SOL    HW229844   0.814   1.081   0.301  1.2101  0.3866  0.0518
 6071SOL     OW29845   4.502   3.028  16.765  0.1490 -0.1475  0.8692
 6071SOL    HW129846   4.507   2.937  16.739  1.4429  0.2149 -0.1494
 6071SOL    HW229847   4.521   3.076  16.684  1.1490 -1.9090  0.0692
 6072SOL     OW29848   1.991   0.223   1.265 -0.5945 -0.3304 -0.1165
 6072SOL    HW129849   2.066   0.173   1.232 -0.2829  0.4464 -0.5820
 6072SOL    HW229850   1.981   0.167   1.342 -0.1641  0.6830  0.6649
 6073SOL     OW29851   1.356   2.768   5.793 -0.0453  0.5459 -0.4584
 6073SOL    HW129852   1.263   2.747   5.798  0.1733 -0.1457  0.6684
 6073SOL    HW229853   1.364   2.808   5.706 -0.3727 -0.8610 -1.1238
 6074SOL     OW29854   0.710   0.315   4.391 -0.2164 -0.1101  0.0703
 6074SOL    HW129855   0.684   0.256   4.461 -0.8421 -0.0187 -0.0787
 6074SOL    HW229856   0.775   0.262   4.346  0.7855  1.2136 -0.0330
 6075SOL     OW29857   2.866   1.880   0.758  0.2749 -0.3417  0.2810
 6075SOL    HW129858   2.828   1.967   0.744 -3.2286 -2.0211 -0.7829
 6075SOL    HW229859   2.888   1.855   0.669 -0.9503 -2.2549  0.5088
 6076SOL     OW29860   1.759   3.452   9.842 -1.2016  0.0603  0.8257
 6076SOL    HW129861   1.823   3.474   9.909 -0.0418  1.4951 -0.7481
 6076SOL    HW229862   1.700   3.527   9.848 -1.9348 -0.3615 -1.0374
 6077SOL     OW29863   3.250   2.844   5.627 -0.1419 -0.1473  0.6296
 6077SOL    HW129864   3.234   2.826   5.535  2.1583 -1.4587  0.4747
 6077SOL    HW229865   3.327   2.902   5.626  0.0172 -0.3574  0.7383
 6078SOL     OW29866   3.542   3.467   4.109  0.7616  0.7027 -0.4607
 6078SOL    HW129867   3.558   3.373   4.102  1.4832  0.7749  0.2451
 6078SOL    HW229868   3.595   3.486   4.186 -0.7442 -2.8773  1.4423
 6079SOL     OW29869   3.678   3.045   1.300 -0.1795  0.1358  0.2089
 6079SOL    HW129870   3.604   3.063   1.357  1.3785  0.8913  2.0086
 6079SOL    HW229871   3.737   2.997   1.359 -0.9841 -0.9709  0.1157
 6080SOL     OW29872   2.915   0.467  12.320 -0.4021  0.9289 -0.4420
 6080SOL    HW129873   2.928   0.400  12.387 -2.7361  0.4199 -0.5116
 6080SOL    HW229874   3.003   0.481  12.285  0.0325  0.0695  0.3136
 6081SOL     OW29875   2.113   2.555   7.166 -0.7137  0.2629 -0.3815
 6081SOL    HW129876   2.112   2.624   7.232  0.9780  0.1762 -0.2654
 6081SOL    HW229877   2.046   2.497   7.202  0.7146 -1.9004 -1.1769
 6082SOL     OW29878   0.365   3.436   3.822  0.3360 -0.2592 -0.0018
 6082SOL    HW129879   0.272   3.420   3.833  0.1684  0.5973 -0.1900
 6082SOL    HW229880   0.393   3.435   3.914  1.3642 -0.8733 -0.3170
 6083SOL     OW29881   3.270   3.569   2.921  0.1848  0.0534 -0.0752
 6083SOL    HW129882   3.292   3.655   2.884 -0.3246  0.2367  0.0365
 6083SOL    HW229883   3.298   3.582   3.011 -0.6271  0.6572  0.0949
 6084SOL     OW29884   1.865   0.543   3.007 -0.4701  0.0930  0.1911
 6084SOL    HW129885   1.890   0.482   3.077  2.1638 -0.1697 -0.9656
 6084SOL    HW229886   1.932   0.609   2.989  0.3053  0.0887  3.0607
 6085SOL     OW29887   2.095   3.041  15.550  0.6277  0.1635 -0.1794
 6085SOL    HW129888   2.050   2.999  15.476 -1.4064  2.0847 -0.0264
 6085SOL    HW229889   2.184   3.005  15.547  0.7485  0.4974 -0.5806
 6086SOL     OW29890   0.178   0.591   0.780 -0.1653  0.0067 -0.0608
 6086SOL    HW129891   0.104   0.549   0.736 -1.3612  0.5578  1.4579
 6086SOL    HW229892   0.134   0.663   0.824  1.3334  0.8792  0.0329
 6087SOL     OW29893   2.738   4.315   4.504  0.4230  0.4078  0.2598
 6087SOL    HW129894   2.673   4.332   4.573 -0.4649 -2.1717  0.0788
 6087SOL    HW229895   2.750   4.221   4.513  0.0415  0.2913 -0.4872
 6088SOL     OW29896   0.680   0.021   4.990 -0.3359  0.3476  0.5222
 6088SOL    HW129897   0.589   0.041   5.014 -1.6867 -0.8369 -3.7225
 6088SOL    HW229898   0.699   0.105   4.947  1.9302  0.6061  2.0157
 6089SOL     OW29899   4.485   4.231  12.349 -0.0353  0.3205 -1.0224
 6089SOL    HW129900   4.473   4.318  12.309  1.4699  0.5510 -0.9637
 6089SOL    HW229901   4.481   4.264  12.438  0.7122 -0.4252 -0.7124
 6090SOL     OW29902   3.127   1.465   1.713 -0.0165 -0.5402  0.1985
 6090SOL    HW129903   3.103   1.403   1.782 -0.3616 -0.6021  0.0193
 6090SOL    HW229904   3.048   1.464   1.659 -0.4820  2.7836  0.8305
 6091SOL     OW29905   3.001   4.591   3.251 -0.7262 -0.2585 -0.3197
 6091SOL    HW129906   3.025   4.514   3.198 -2.3572 -1.4420  0.6568
 6091SOL    HW229907   2.973   4.544   3.330  2.0556  1.2039  1.5187
 6092SOL     OW29908   4.505   4.622   8.002  0.7792 -0.2976 -0.5253
 6092SOL    HW129909   4.533   4.583   8.085 -0.6530 -1.3945 -0.5575
 6092SOL    HW229910   4.415   4.589   8.003  0.6256  0.1228 -0.1177
 6093SOL     OW29911   1.691   3.210   9.769  0.3048  0.1774  0.1940
 6093SOL    HW129912   1.779   3.190   9.739  0.7197  2.5896 -0.1988
 6093SOL    HW229913   1.708   3.296   9.806  0.4729  1.0604 -1.9871
 6094SOL     OW29914   1.109   4.626   3.798 -0.1015 -0.1288 -0.0554
 6094SOL    HW129915   1.117   4.720   3.816  1.4916 -0.1252 -0.7681
 6094SOL    HW229916   1.127   4.599   3.888 -1.8984  0.0407  0.3526
 6095SOL     OW29917   4.312   2.180   5.086 -0.2187  0.1662 -0.5851
 6095SOL    HW129918   4.335   2.255   5.031  0.8774 -0.2240 -0.6560
 6095SOL    HW229919   4.316   2.222   5.172  1.0965 -1.6047  0.2125
 6096SOL     OW29920   4.689   4.559   2.956  0.1114  0.1071 -0.3881
 6096SOL    HW129921   0.006   4.566   2.876  1.9613  0.4034  0.8450
 6096SOL    HW229922   4.707   4.465   2.964 -0.8068  0.2836  3.6106
 6097SOL     OW29923   4.400   2.010   7.183  0.0002 -1.0002 -0.0596
 6097SOL    HW129924   4.455   1.960   7.244  0.6465 -1.4711 -1.0213
 6097SOL    HW229925   4.402   2.100   7.216 -1.8896 -1.3931  1.1218
 6098SOL     OW29926   3.006   3.804   7.904  0.0990 -0.0410 -0.4725
 6098SOL    HW129927   2.948   3.865   7.948 -0.7340  1.2558 -3.3699
 6098SOL    HW229928   2.969   3.784   7.818  2.5155 -1.2265 -1.2262
 6099SOL     OW29929   1.041   4.183   6.983  0.5434  0.0439  0.3913
 6099SOL    HW129930   1.003   4.108   6.938  0.1445  0.6797 -0.3355
 6099SOL    HW229931   0.971   4.248   6.986 -1.2257 -1.7510 -1.7446
 6100SOL     OW29932   1.455   0.955   6.194  0.2048  0.2239 -0.4502
 6100SOL    HW129933   1.492   0.978   6.108 -0.3890  2.8173 -0.0360
 6100SOL    HW229934   1.375   1.007   6.184  0.5470  0.4634 -1.9645
 6101SOL     OW29935   0.985   0.333   1.726 -0.8569  0.0290  0.2408
 6101SOL    HW129936   1.046   0.400   1.757 -0.1351 -0.0891 -0.9388
 6101SOL    HW229937   0.908   0.329   1.783  0.8424 -0.8117  2.4465
 6102SOL     OW29938   1.691   2.948   4.864  0.5406  0.1265  0.6457
 6102SOL    HW129939   1.700   2.932   4.958  0.9284 -0.8486  0.4443
 6102SOL    HW229940   1.752   3.022   4.855 -0.0799  0.7585  1.5844
 6103SOL     OW29941   1.351   0.267   6.414  0.0408 -0.2055  0.0283
 6103SOL    HW129942   1.368   0.194   6.473  0.6632 -0.2351 -0.1904
 6103SOL    HW229943   1.298   0.328   6.465 -0.1758 -0.2464 -0.1484
 6104SOL     OW29944   1.950   1.369  16.253 -0.1927 -0.0328 -0.1072
 6104SOL    HW129945   1.995   1.286  16.241 -0.0746 -0.2527  1.9460
 6104SOL    HW229946   1.860   1.341  16.240 -0.3830  1.1431 -1.3300
 6105SOL     OW29947   0.604   2.921   1.986 -0.3694  0.4150 -0.0871
 6105SOL    HW129948   0.648   2.986   1.931 -1.4717  1.6996  0.5446
 6105SOL    HW229949   0.684   2.868   1.989  1.2192  2.7547 -1.0278
 6106SOL     OW29950   1.005   3.516   1.340  1.0094  0.3252  0.1104
 6106SOL    HW129951   1.071   3.447   1.336  1.5751  0.8812 -0.0277
 6106SOL    HW229952   0.982   3.523   1.433  3.9400 -0.7864  0.9173
 6107SOL     OW29953   3.278   4.568  14.772 -0.4980  0.0220  0.0683
 6107SOL    HW129954   3.291   4.602  14.684 -0.3586 -0.8386 -0.2347
 6107SOL    HW229955   3.363   4.531  14.793  0.0507  1.0345 -0.3874
 6108SOL     OW29956   4.292   3.453   7.350  0.1731  0.7608 -0.0451
 6108SOL    HW129957   4.208   3.487   7.380  0.6665  0.1967  1.9763
 6108SOL    HW229958   4.352   3.477   7.420  1.7615  0.9982 -1.4919
 6109SOL     OW29959   1.270   3.779   4.941 -0.2959 -0.2401  0.3698
 6109SOL    HW129960   1.349   3.818   4.903 -0.3208 -0.9323 -0.3979
 6109SOL    HW229961   1.309   3.702   4.983 -1.5375 -1.2536 -0.3178
 6110SOL     OW29962   2.294   3.125   3.338 -0.3397  0.3942 -0.0621
 6110SOL    HW129963   2.207   3.139   3.376 -0.4220 -1.1680  0.3226
 6110SOL    HW229964   2.291   3.171   3.254  2.2745 -1.1534 -1.0147
 6111SOL     OW29965   2.013   2.484   4.366  0.4126  0.0455  0.0402
 6111SOL    HW129966   2.030   2.397   4.331 -1.6584  0.2119 -1.4496
 6111SOL    HW229967   1.974   2.473   4.453 -1.6622 -0.0464 -0.8787
 6112SOL     OW29968   2.759   1.236   6.811  0.0785  0.6711 -0.2962
 6112SOL    HW129969   2.693   1.287   6.765 -0.4373  0.6255  0.4090
 6112SOL    HW229970   2.770   1.167   6.745  0.8587 -0.6152  1.1952
 6113SOL     OW29971   0.994   4.682   5.023  0.3784  0.2575  0.1151
 6113SOL    HW129972   0.900   4.675   5.041  0.2599  1.2792 -0.1050
 6113SOL    HW229973   1.010   4.588   5.032 -0.6289  0.1556  0.8977
 6114SOL     OW29974   4.457   3.176   2.660  0.2685 -0.0483 -0.4714
 6114SOL    HW129975   4.439   3.109   2.726 -2.1793  0.4535 -0.6065
 6114SOL    HW229976   4.525   3.135   2.607 -0.0107 -0.7045 -0.3271
 6115SOL     OW29977   0.640   1.646  11.806  0.2014 -0.4208 -0.2856
 6115SOL    HW129978   0.673   1.726  11.846 -0.9708  0.0973 -0.3671
 6115SOL    HW229979   0.694   1.643  11.728  1.0618 -1.5343  0.3481
 6116SOL     OW29980   3.053   1.312   2.311 -0.2616  0.2846  0.0495
 6116SOL    HW129981   3.014   1.250   2.249  1.4593  0.5149 -1.2765
 6116SOL    HW229982   3.075   1.387   2.255 -0.2694 -1.7344 -2.6500
 6117SOL     OW29983   1.318   0.710  13.854 -0.1272  0.4051  0.1687
 6117SOL    HW129984   1.264   0.767  13.909  0.9378  2.0654 -0.4763
 6117SOL    HW229985   1.253   0.661  13.804 -0.9587  2.4472 -0.7694
 6118SOL     OW29986   0.216   3.171  14.750 -0.1168  0.9338  0.0458
 6118SOL    HW129987   0.237   3.200  14.661  0.3178  0.9425  0.1517
 6118SOL    HW229988   0.222   3.076  14.740  0.3385  1.0237 -0.5365
 6119SOL     OW29989   1.585   4.250  11.383 -0.4190  0.2514  0.1634
 6119SOL    HW129990   1.667   4.258  11.431  0.2775  0.6756 -1.1027
 6119SOL    HW229991   1.606   4.322  11.324 -0.1527  0.2538  0.2608
 6120SOL     OW29992   0.301   1.137   9.311  0.5642  0.2448  0.3185
 6120SOL    HW129993   0.226   1.119   9.254 -0.7249 -0.9276  2.3513
 6120SOL    HW229994   0.364   1.158   9.243  0.4442  1.3291  0.5476
 6121SOL     OW29995   3.945   2.040   2.630  0.0143 -0.3319  0.3707
 6121SOL    HW129996   3.905   1.990   2.701  3.6541 -1.1310  1.8638
 6121SOL    HW229997   3.998   2.108   2.672  2.2533 -1.4514 -0.6286
 6122SOL     OW29998   2.467   2.728  12.916  0.6152 -0.0128  0.4780
 6122SOL    HW129999   2.446   2.692  13.002 -0.7671 -2.1384 -0.7393
 6122SOL    HW230000   2.408   2.803  12.920 -0.2178 -0.5796 -0.9396
 6123SOL     OW30001   2.192   3.279   3.140  0.7481 -0.3068  0.0169
 6123SOL    HW130002   2.242   3.344   3.091 -0.0037 -0.3188 -0.7676
 6123SOL    HW230003   2.140   3.234   3.073  0.2536 -0.0364  0.2247
 6124SOL     OW30004   3.442   2.470  14.294  0.5059 -0.1111  0.0047
 6124SOL    HW130005   3.477   2.522  14.222  2.2283 -1.9858 -0.5016
 6124SOL    HW230006   3.487   2.389  14.271  0.1204 -0.4103  0.3032
 6125SOL     OW30007   1.798   4.563   2.065  0.8544  0.3696  0.2113
 6125SOL    HW130008   1.777   4.607   2.148 -0.1024 -0.4370  0.4010
 6125SOL    HW230009   1.714   4.585   2.023  1.1592 -0.2662 -0.7139
 6126SOL     OW30010   2.520   1.430   8.542  0.1027 -0.1031 -0.4498
 6126SOL    HW130011   2.611   1.420   8.516 -0.2176 -0.9542 -1.2728
 6126SOL    HW230012   2.523   1.373   8.618 -0.5780 -0.8010 -0.9468
 6127SOL     OW30013   0.150   4.590   4.147  0.0474  0.2234 -0.1918
 6127SOL    HW130014   0.224   4.537   4.178 -0.3047  0.6215  1.3138
 6127SOL    HW230015   0.099   4.524   4.099  1.0642 -0.7872  0.1109
 6128SOL     OW30016   1.136   1.961   6.771  0.1249 -0.4227 -0.3001
 6128SOL    HW130017   1.072   1.968   6.700  0.7150 -1.1363 -0.9088
 6128SOL    HW230018   1.171   1.879   6.737 -0.3869 -1.4199  1.5813
 6129SOL     OW30019   1.132   2.702   2.816 -0.0348  0.2769 -0.3305
 6129SOL    HW130020   1.219   2.743   2.813  0.2061 -0.0819  1.8311
 6129SOL    HW230021   1.119   2.679   2.724  0.5765 -0.8835 -0.1271
 6130SOL     OW30022   3.168   2.531   6.335 -0.6196 -0.3252  0.2846
 6130SOL    HW130023   3.246   2.475   6.331 -0.8390 -0.5948 -0.2775
 6130SOL    HW230024   3.112   2.487   6.271  0.6306  0.7182 -1.5175
 6131SOL     OW30025   1.996   1.123   3.905  0.2457 -0.5587 -0.2695
 6131SOL    HW130026   2.070   1.108   3.964 -0.5433 -1.9980  0.3367
 6131SOL    HW230027   1.961   1.034   3.910 -3.7273  0.9552 -1.3565
 6132SOL     OW30028   1.511   0.034   8.761  0.3417  1.3101  0.2523
 6132SOL    HW130029   1.488   0.017   8.669 -0.1970  0.4959  0.5343
 6132SOL    HW230030   1.547   4.682   8.779  1.2184  1.3964 -1.1140
 6133SOL     OW30031   3.606   1.521   7.467 -0.3552  0.2883 -0.1807
 6133SOL    HW130032   3.551   1.468   7.525  1.0873  0.3053  1.2201
 6133SOL    HW230033   3.534   1.561   7.420  0.5028  2.3509  0.2645
 6134SOL     OW30034   1.617   1.380   6.458  0.3249  0.2169 -0.8344
 6134SOL    HW130035   1.611   1.469   6.491 -0.2373 -0.5770  1.2276
 6134SOL    HW230036   1.570   1.343   6.533  0.2653 -3.1805 -2.5201
 6135SOL     OW30037   3.382   1.609   7.336 -0.1280  0.2530 -0.6528
 6135SOL    HW130038   3.324   1.547   7.381  0.5061  0.5004  0.5156
 6135SOL    HW230039   3.313   1.658   7.292  0.2467 -1.3315 -2.9862
 6136SOL     OW30040   3.749   0.113   3.957 -0.2627  0.5810 -0.4861
 6136SOL    HW130041   3.820   0.108   4.021  0.5222  0.6027 -1.3611
 6136SOL    HW230042   3.684   0.058   4.000  2.5009 -0.9658  1.7118
 6137SOL     OW30043   4.075   0.420   0.671 -0.1234 -0.1433 -0.6844
 6137SOL    HW130044   3.999   0.460   0.715 -0.6005 -3.2577  1.3553
 6137SOL    HW230045   4.094   0.491   0.610  2.1939  0.2406  0.4927
 6138SOL     OW30046   1.240   4.356   3.066  0.0957  0.1450  1.0219
 6138SOL    HW130047   1.145   4.368   3.063  0.2480 -0.2252 -4.7293
 6138SOL    HW230048   1.248   4.287   3.132  0.9068 -0.0799  0.6843
 6139SOL     OW30049   3.971   3.709   4.791  0.1982 -0.1424  0.1923
 6139SOL    HW130050   4.024   3.788   4.790  0.7309 -0.4987  0.7329
 6139SOL    HW230051   3.880   3.733   4.808 -0.7303 -1.3779 -2.9192
 6140SOL     OW30052   0.089   2.829  15.350  0.2654 -0.6071 -0.2689
 6140SOL    HW130053   0.093   2.924  15.337  0.7617 -0.7263 -0.9700
 6140SOL    HW230054   0.108   2.822  15.443 -0.2510  1.8079  0.0207
 6141SOL     OW30055   1.555   2.324   3.835  0.3661 -0.0101  0.5461
 6141SOL    HW130056   1.507   2.263   3.778  0.2500  0.4068  0.1973
 6141SOL    HW230057   1.500   2.349   3.909 -1.0584 -0.1582 -0.4619
 6142SOL     OW30058   1.666   0.606   1.714 -0.3091  0.1341  0.4241
 6142SOL    HW130059   1.622   0.596   1.630 -0.4015 -0.7814  0.5817
 6142SOL    HW230060   1.726   0.533   1.701 -1.5853 -0.4513 -1.9930
 6143SOL     OW30061   3.877   2.411   7.382  0.3042  0.9310 -0.4723
 6143SOL    HW130062   3.948   2.388   7.323  0.3697  0.5075 -0.2315
 6143SOL    HW230063   3.904   2.502   7.395 -0.7278  1.2260 -0.4230
 6144SOL     OW30064   1.825   0.809   9.146  0.1241 -0.5017  0.1546
 6144SOL    HW130065   1.759   0.813   9.077  0.8161 -0.0826 -0.4923
 6144SOL    HW230066   1.908   0.799   9.098 -0.6444  0.8312 -1.4871
 6145SOL     OW30067   3.380   4.072   1.982 -0.4414 -0.3532 -0.1148
 6145SOL    HW130068   3.307   4.016   1.956 -1.0200  0.3564 -0.0285
 6145SOL    HW230069   3.397   4.112   1.897 -0.2282 -0.6587 -0.2154
 6146SOL     OW30070   0.484   3.916   7.857  0.6220  1.0620 -0.6376
 6146SOL    HW130071   0.438   3.834   7.871 -1.1043  2.3619  1.2796
 6146SOL    HW230072   0.419   3.961   7.804 -0.2491 -0.8967 -1.1963
 6147SOL     OW30073   4.692   0.464   4.868 -0.3617  0.7143  0.4246
 6147SOL    HW130074   4.687   0.411   4.789  1.5161  0.8580  0.2110
 6147SOL    HW230075   4.626   0.533   4.863  0.8348  1.8845  0.6837
 6148SOL     OW30076   2.591   0.861   8.795  0.7073  0.1268 -0.0805
 6148SOL    HW130077   2.654   0.806   8.749 -0.9476 -1.3539 -0.5876
 6148SOL    HW230078   2.644   0.879   8.872 -2.2547 -0.6760  2.1250
 6149SOL     OW30079   0.199   0.662   2.501 -0.1054  0.0524 -0.8884
 6149SOL    HW130080   0.136   0.710   2.448  0.8250  0.8938 -1.2385
 6149SOL    HW230081   0.247   0.731   2.546 -0.0003 -2.0753  2.2870
 6150SOL     OW30082   1.746   3.972   3.279 -0.5264  0.4495 -0.4683
 6150SOL    HW130083   1.651   3.986   3.279 -0.4553  1.0343  2.3307
 6150SOL    HW230084   1.753   3.903   3.345 -0.4664  2.2790  1.4482
 6151SOL     OW30085   1.246   1.779   8.628  0.1197  0.4405  0.5587
 6151SOL    HW130086   1.262   1.851   8.690  1.4171  1.7738 -1.3209
 6151SOL    HW230087   1.213   1.814   8.546  2.1589 -0.7763 -0.7620
 6152SOL     OW30088   4.369   2.768  10.270  0.1663  0.4353 -0.0895
 6152SOL    HW130089   4.420   2.774  10.189  0.2915  0.9262  0.0271
 6152SOL    HW230090   4.284   2.745  10.234 -0.5279  0.2720  1.6323
 6153SOL     OW30091   2.694   2.782  15.157  0.2051 -0.1679 -0.2857
 6153SOL    HW130092   2.618   2.791  15.215  1.7022  3.3089  1.1519
 6153SOL    HW230093   2.712   2.689  15.168 -0.3692 -0.5113 -2.2664
 6154SOL     OW30094   1.420   0.744   1.050 -0.0956  0.1011 -0.3627
 6154SOL    HW130095   1.328   0.768   1.054  0.0991  0.7087  0.4847
 6154SOL    HW230096   1.432   0.669   1.108 -1.9325 -1.2883 -1.7924
 6155SOL     OW30097   0.714   0.780   3.636  0.6636  0.3272 -0.1411
 6155SOL    HW130098   0.674   0.862   3.665  0.2855 -0.0079  0.2672
 6155SOL    HW230099   0.685   0.713   3.697  2.1017  0.6042  0.8341
 6156SOL     OW30100   2.106   0.336   7.928  0.5757 -0.2209  0.0169
 6156SOL    HW130101   2.055   0.346   8.008  0.9477 -0.4614  0.2852
 6156SOL    HW230102   2.185   0.287   7.951 -0.3588 -2.2901 -1.1390
 6157SOL     OW30103   0.636   3.795   6.119  0.2687  0.1859 -0.1367
 6157SOL    HW130104   0.555   3.838   6.091 -0.5882 -0.8193  0.8049
 6157SOL    HW230105   0.687   3.874   6.135 -0.3298  0.3714  0.8107
 6158SOL     OW30106   2.103   3.690   2.075  0.3328 -0.3896 -0.1807
 6158SOL    HW130107   2.189   3.709   2.037 -0.1424 -0.2865 -1.1981
 6158SOL    HW230108   2.088   3.755   2.144 -0.5371 -0.2379 -0.5173
 6159SOL     OW30109   0.140   2.736  10.302 -0.0536 -0.0269 -0.5300
 6159SOL    HW130110   0.208   2.803  10.298  0.5301 -0.5000  1.6005
 6159SOL    HW230111   0.087   2.746  10.381 -0.9552 -1.5992 -0.9324
 6160SOL     OW30112   4.454   3.597  13.487 -0.0224 -0.3004 -0.6202
 6160SOL    HW130113   4.363   3.627  13.498  0.2927  1.0857 -1.6624
 6160SOL    HW230114   4.452   3.504  13.465 -2.5888 -1.1031  2.9653
 6161SOL     OW30115   2.824   4.192   2.900  0.1535  0.1626 -0.3855
 6161SOL    HW130116   2.751   4.254   2.898 -1.6163 -1.8868  1.2979
 6161SOL    HW230117   2.799   4.124   2.961  2.2234 -0.2604  0.0052
 6162SOL     OW30118   1.482   3.059   9.882 -0.0543 -0.7291 -0.4472
 6162SOL    HW130119   1.556   3.088   9.828  0.5228  1.4371  1.4808
 6162SOL    HW230120   1.408   3.078   9.824 -0.1346  2.8464  0.8287
 6163SOL     OW30121   3.905   0.690   9.336 -0.1135 -0.0158 -0.5644
 6163SOL    HW130122   4.000   0.683   9.325 -0.3206 -0.3155 -2.0898
 6163SOL    HW230123   3.879   0.600   9.318 -0.9824  0.0727  0.2425
 6164SOL     OW30124   0.716   4.043  15.339  0.1094  1.0446 -0.1947
 6164SOL    HW130125   0.723   3.952  15.308  1.6761  1.0083  0.2755
 6164SOL    HW230126   0.757   4.027  15.424  0.9775  1.6010 -0.5119
 6165SOL     OW30127   0.988   0.692   4.155  0.0034 -0.0466  0.8300
 6165SOL    HW130128   1.031   0.771   4.188 -0.1756 -0.3804  1.8505
 6165SOL    HW230129   1.052   0.622   4.169 -0.1277 -0.2440  0.4541
 6166SOL     OW30130   3.159   3.686   1.184 -0.3260 -0.6787 -0.0826
 6166SOL    HW130131   3.171   3.607   1.236 -0.0574  0.1604  1.1571
 6166SOL    HW230132   3.200   3.665   1.100  0.9262 -2.1431  0.8887
 6167SOL     OW30133   1.117   4.185   8.587 -0.3510 -0.7677  0.0035
 6167SOL    HW130134   1.058   4.158   8.517 -1.1769  1.2280 -0.0963
 6167SOL    HW230135   1.183   4.117   8.588 -0.3156 -0.7131  1.2037
 6168SOL     OW30136   0.066   0.137   4.064 -0.0823  0.5179 -0.2161
 6168SOL    HW130137   4.715   0.101   4.042 -1.1590  3.2605 -0.4507
 6168SOL    HW230138   0.095   0.071   4.128  1.0276  1.4266  0.2156
 6169SOL     OW30139   3.254   2.568   6.022 -0.3434  0.4613 -0.0129
 6169SOL    HW130140   3.180   2.555   6.081 -0.5958  2.4963  0.0990
 6169SOL    HW230141   3.206   2.587   5.941  0.1458 -1.6367 -0.8092
 6170SOL     OW30142   4.680   2.976  12.730 -0.2216  0.3052 -0.4316
 6170SOL    HW130143   4.631   2.932  12.799 -0.3313 -0.8191 -1.2193
 6170SOL    HW230144   4.695   3.065  12.761  0.5400 -0.0893  0.3312
 6171SOL     OW30145   0.798   0.467   0.844  0.8222 -0.0662 -0.8269
 6171SOL    HW130146   0.862   0.506   0.904 -0.2298 -0.0210  0.2468
 6171SOL    HW230147   0.862   0.407   0.805  1.1082  0.9991 -2.0009
 6172SOL     OW30148   0.578   0.461   7.972  0.0557  0.8846  0.0342
 6172SOL    HW130149   0.535   0.404   7.910  0.1426  0.3878  0.4320
 6172SOL    HW230150   0.658   0.412   7.991  0.1994  1.0721 -0.0778
 6173SOL     OW30151   2.431   2.948   5.711 -0.1289  0.1221  0.5820
 6173SOL    HW130152   2.523   2.927   5.726  0.2026  2.0835  1.3373
 6173SOL    HW230153   2.412   2.911   5.625 -0.4970 -0.0060  0.7170
 6174SOL     OW30154   0.681   3.618   7.709 -0.0666 -0.0326 -0.3786
 6174SOL    HW130155   0.595   3.576   7.714 -0.2963  0.3571 -1.0766
 6174SOL    HW230156   0.706   3.617   7.617  0.2905  0.4081 -0.2900
 6175SOL     OW30157   4.124   1.402   7.442  0.0937 -0.0323  1.4057
 6175SOL    HW130158   4.192   1.349   7.401 -0.3422  0.6607 -0.2040
 6175SOL    HW230159   4.121   1.474   7.379 -0.0517 -1.1730  0.1235
 6176SOL     OW30160   0.777   0.862   5.322 -0.2354 -0.3833  0.2261
 6176SOL    HW130161   0.741   0.950   5.328  2.0755  0.6378 -0.5535
 6176SOL    HW230162   0.712   0.817   5.375 -0.3607  1.3110  1.4733
 6177SOL     OW30163   0.902   3.162   5.983 -0.2854 -0.3650  0.1190
 6177SOL    HW130164   0.884   3.250   5.950  1.5611 -0.0393 -0.0513
 6177SOL    HW230165   0.875   3.181   6.073 -1.5922 -1.3654 -0.0820
 6178SOL     OW30166   0.369   2.234   6.718 -0.1441  0.2773 -0.2587
 6178SOL    HW130167   0.437   2.278   6.770 -0.2797 -0.6398  0.7057
 6178SOL    HW230168   0.427   2.197   6.651  0.8890  2.4711 -0.5864
 6179SOL     OW30169   3.968   1.689   8.647 -0.1832 -0.0628 -0.4659
 6179SOL    HW130170   3.965   1.602   8.687 -2.1507 -0.2052 -0.9247
 6179SOL    HW230171   3.951   1.758   8.711 -1.9066 -0.0982 -0.8970
 6180SOL     OW30172   3.055   2.354   9.077  0.1742  0.1640 -0.3068
 6180SOL    HW130173   2.972   2.353   9.124 -0.1984  1.4726 -0.9354
 6180SOL    HW230174   3.119   2.343   9.147  2.2023 -0.2836 -2.2175
 6181SOL     OW30175   1.525   4.579   7.020 -0.6702 -0.0105  0.4099
 6181SOL    HW130176   1.543   4.486   7.034 -0.9787 -0.3056 -1.2098
 6181SOL    HW230177   1.566   4.620   7.096  2.0957 -0.3425 -0.9148
 6182SOL     OW30178   1.240   3.911   7.424 -0.8628 -0.0280  0.2162
 6182SOL    HW130179   1.260   3.983   7.365  2.2761  0.8215  2.3488
 6182SOL    HW230180   1.254   3.841   7.360 -0.6748  0.6070 -0.4332
 6183SOL     OW30181   2.372   0.722   3.762 -0.0381  0.0868  0.1398
 6183SOL    HW130182   2.330   0.787   3.706 -0.2896  0.3450  0.6282
 6183SOL    HW230183   2.438   0.678   3.709  0.0232  0.2436  0.0878
 6184SOL     OW30184   3.503   0.062   0.294 -0.0704 -0.0989  0.1472
 6184SOL    HW130185   3.571   4.730   0.294  0.5706  0.5345 -2.3326
 6184SOL    HW230186   3.520   0.087   0.203  1.9843  1.9240  1.1071
 6185SOL     OW30187   1.232   4.566   4.635  0.4430  0.1757 -0.8095
 6185SOL    HW130188   1.250   4.562   4.729 -1.5881 -0.6122 -0.4749
 6185SOL    HW230189   1.190   4.481   4.627 -0.2286  0.3547  0.7283
 6186SOL     OW30190   3.390   4.105   2.800  0.2402  0.3872  0.5007
 6186SOL    HW130191   3.356   4.150   2.878 -0.6602 -2.7590  1.9500
 6186SOL    HW230192   3.328   4.146   2.740  1.2848 -0.3829 -1.1126
 6187SOL     OW30193   0.288   3.811  16.665 -0.2575  0.1102  0.2728
 6187SOL    HW130194   0.211   3.866  16.654 -0.2542 -0.2792 -1.7038
 6187SOL    HW230195   0.273   3.783  16.756  1.7598 -1.1897  0.2137
 6188SOL     OW30196   1.665   2.709   5.164  0.2238 -0.2660  0.2875
 6188SOL    HW130197   1.702   2.634   5.210 -1.1324  0.6587  2.9091
 6188SOL    HW230198   1.598   2.669   5.108  1.2000  0.5910 -1.4838
 6189SOL     OW30199   2.961   4.023   1.392 -0.4302  0.1752 -0.0386
 6189SOL    HW130200   3.001   4.058   1.313  0.3202 -0.6990 -0.0427
 6189SOL    HW230201   2.933   3.935   1.368  1.0622  0.0107 -1.1726
 6190SOL     OW30202   4.032   2.194  15.696  0.5288  0.4330  0.2312
 6190SOL    HW130203   4.118   2.160  15.670 -0.2336 -2.2919  1.2121
 6190SOL    HW230204   3.992   2.112  15.666  0.1995 -0.1068  2.1439
 6191SOL     OW30205   3.062   0.286   6.872  0.0146  0.2439 -0.2634
 6191SOL    HW130206   3.149   0.248   6.861 -0.7572 -1.7024  0.3651
 6191SOL    HW230207   3.082   0.348   6.942  0.6165  0.2577 -0.4411
 6192SOL     OW30208   1.367   1.284   7.527 -0.0142  0.1342  0.1851
 6192SOL    HW130209   1.278   1.260   7.503 -0.0086  1.3254 -1.0582
 6192SOL    HW230210   1.351   1.366   7.572 -0.1771  0.9391 -1.3384
 6193SOL     OW30211   1.832   3.012   9.957  0.3069 -0.1264  0.0292
 6193SOL    HW130212   1.764   2.945   9.963  1.3891 -1.1708  0.4078
 6193SOL    HW230213   1.816   3.062  10.037 -0.7225  0.2195 -0.3808
 6194SOL     OW30214   0.025   3.196   6.581 -0.1923 -0.1595 -0.7155
 6194SOL    HW130215   4.688   3.232   6.632  0.6369 -1.7950  1.6372
 6194SOL    HW230216   4.712   3.159   6.507 -0.8073  1.6553 -1.2165
 6195SOL     OW30217   1.582   0.160   1.859  0.0529  0.7701 -0.0776
 6195SOL    HW130218   1.638   0.220   1.908  2.0975 -1.0972 -0.1204
 6195SOL    HW230219   1.574   0.089   1.923 -0.0691  2.8298  2.2040
 6196SOL     OW30220   4.111   3.481   3.023  0.0263  0.4619 -0.3117
 6196SOL    HW130221   4.062   3.459   2.944  0.0822 -0.6016 -0.0445
 6196SOL    HW230222   4.167   3.404   3.019 -0.2229  0.2555  0.1544
 6197SOL     OW30223   3.922   2.202  16.581  0.0742  0.1022 -0.5638
 6197SOL    HW130224   3.832   2.184  16.607  0.8027  0.3304  2.1571
 6197SOL    HW230225   3.913   2.236  16.492 -0.3725 -0.8208 -0.8653
 6198SOL     OW30226   3.491   4.025   8.312 -0.3943  0.3302  0.4124
 6198SOL    HW130227   3.475   4.094   8.249  0.3105 -2.3452 -2.6836
 6198SOL    HW230228   3.453   3.947   8.272  2.3825 -0.7265 -0.1241
 6199SOL     OW30229   0.680   2.195   4.026 -0.0313 -0.1395 -0.0388
 6199SOL    HW130230   0.757   2.150   3.991  0.5175 -0.6705  1.8692
 6199SOL    HW230231   0.609   2.135   4.002  1.1740 -1.7094  0.3007
 6200SOL     OW30232   4.069   3.995   5.088 -0.3878  0.4380 -0.2718
 6200SOL    HW130233   3.978   4.001   5.120 -0.6732 -1.2245 -0.7680
 6200SOL    HW230234   4.116   4.022   5.166 -1.2584  2.8236 -0.5859
 6201SOL     OW30235   2.367   2.636   0.999  0.6152  0.3763 -0.3760
 6201SOL    HW130236   2.347   2.684   1.080  0.0629  1.0321 -0.8937
 6201SOL    HW230237   2.357   2.700   0.927  1.2319  0.7463 -0.1344
 6202SOL     OW30238   1.898   2.109   8.428  0.5155  0.4783  0.2732
 6202SOL    HW130239   1.815   2.144   8.458 -0.1601  0.6386 -1.7719
 6202SOL    HW230240   1.867   2.037   8.373  2.6988 -0.1609 -0.1366
 6203SOL     OW30241   1.237   2.956   2.460  0.2817  0.3021 -0.2060
 6203SOL    HW130242   1.200   3.042   2.482 -0.7445 -0.5740  1.5398
 6203SOL    HW230243   1.278   2.975   2.376  2.4890 -0.8704  0.6251
 6204SOL     OW30244   0.415   3.677   1.062 -0.7161  0.2648  0.3888
 6204SOL    HW130245   0.337   3.628   1.036 -1.2949  0.7931  1.1370
 6204SOL    HW230246   0.387   3.767   1.049  0.3686  0.4595 -0.6374
 6205SOL     OW30247   4.339   1.874  15.874 -0.0324 -0.2250 -0.1514
 6205SOL    HW130248   4.343   1.822  15.954  0.8083  3.1405  1.9938
 6205SOL    HW230249   4.269   1.823  15.834 -0.1918  0.7470 -1.0965
 6206SOL     OW30250   1.160   2.244   4.133  0.2694  0.1611  0.1559
 6206SOL    HW130251   1.253   2.219   4.140 -0.2833 -1.2749  2.4415
 6206SOL    HW230252   1.128   2.165   4.090 -1.5949 -0.0842  2.0329
 6207SOL     OW30253   3.215   2.694   1.743  0.2970 -0.1575  0.4982
 6207SOL    HW130254   3.274   2.696   1.667 -0.7277 -3.6295 -0.3714
 6207SOL    HW230255   3.216   2.784   1.775  0.6240  0.0376 -0.0580
 6208SOL     OW30256   4.437   3.962   3.054 -0.5068  0.0104  0.1202
 6208SOL    HW130257   4.354   3.969   3.101 -0.4023 -1.2115  0.4719
 6208SOL    HW230258   4.455   4.056   3.046  0.4804 -0.3819 -2.2822
 6209SOL     OW30259   2.191   0.075   0.541  0.4723  0.1786  0.5293
 6209SOL    HW130260   2.130   0.014   0.500  0.4221 -0.1545  1.0944
 6209SOL    HW230261   2.270   0.042   0.499  0.6156  0.3183  0.6893
 6210SOL     OW30262   4.672   3.510   0.619  0.0130 -0.4968  0.2297
 6210SOL    HW130263   0.007   3.494   0.556  0.7456 -0.5473  1.0563
 6210SOL    HW230264   4.696   3.599   0.643 -1.5301 -0.3912  1.3724
 6211SOL     OW30265   0.933   0.225   8.329  0.5425  0.5845  0.3735
 6211SOL    HW130266   0.949   0.138   8.293 -1.1995  0.2310  0.4433
 6211SOL    HW230267   0.840   0.222   8.353  0.3613 -0.2190 -0.4609
 6212SOL     OW30268   2.032   0.354   9.312  0.2251  0.1883 -0.7975
 6212SOL    HW130269   2.113   0.310   9.339  0.0286  0.5212  0.3182
 6212SOL    HW230270   1.962   0.300   9.348 -1.9061  3.5190  0.1395
 6213SOL     OW30271   2.033   4.519   4.359 -0.1814 -0.4906  0.0799
 6213SOL    HW130272   1.942   4.515   4.390  0.0274 -2.4613  0.4630
 6213SOL    HW230273   2.081   4.484   4.434 -0.8020 -1.0495  0.2230
 6214SOL     OW30274   4.588   3.094  13.313  0.0269  0.0672 -0.2342
 6214SOL    HW130275   4.683   3.106  13.322 -0.0013  1.3522 -1.7497
 6214SOL    HW230276   4.577   3.020  13.372 -1.9223  0.9925  0.5667
 6215SOL     OW30277   4.104   4.366   0.465  0.1074 -0.1642  0.2301
 6215SOL    HW130278   4.184   4.316   0.480  1.9723  2.6890 -0.2960
 6215SOL    HW230279   4.048   4.347   0.541 -0.0806 -1.0128 -0.1260
 6216SOL     OW30280   1.601   4.029   7.020  0.4273 -0.7210 -0.4670
 6216SOL    HW130281   1.629   3.992   6.936  1.5208 -1.0943  0.0511
 6216SOL    HW230282   1.532   3.970   7.049  1.1616 -1.0522  0.6207
 6217SOL     OW30283   3.083   3.355   6.643  0.1849 -0.2786  0.5253
 6217SOL    HW130284   3.047   3.269   6.664  1.1857 -0.2034  2.6140
 6217SOL    HW230285   3.171   3.333   6.674  0.1070 -0.5854  0.5331
 6218SOL     OW30286   4.698   2.920   6.425 -0.0333 -0.1239  0.8332
 6218SOL    HW130287   4.637   2.992   6.441 -1.3871 -1.2635  0.7440
 6218SOL    HW230288   4.641   2.847   6.401  1.9870 -0.8880 -1.6459
 6219SOL     OW30289   3.224   4.253   3.612  0.1345 -0.4353 -0.2872
 6219SOL    HW130290   3.163   4.202   3.560  2.4952 -1.3407 -2.1827
 6219SOL    HW230291   3.304   4.238   3.562  1.7659  0.1813  2.1090
 6220SOL     OW30292   1.681   0.640  16.100 -0.1113  0.0712  0.2391
 6220SOL    HW130293   1.710   0.704  16.034  0.4934 -1.5857 -1.0965
 6220SOL    HW230294   1.601   0.616  16.052 -0.3092  0.2577  0.4715
 6221SOL     OW30295   4.501   3.266  16.888 -0.2878 -0.1928  0.0561
 6221SOL    HW130296   4.487   3.176  16.856  0.3847 -0.7633  1.3718
 6221SOL    HW230297   4.436   3.314  16.837 -0.8893  0.6020  1.5945
 6222SOL     OW30298   4.303   1.286   7.936 -0.0257 -0.2460  0.2110
 6222SOL    HW130299   4.382   1.259   7.888  0.0224  2.0584 -0.9963
 6222SOL    HW230300   4.266   1.353   7.878 -1.7834 -1.4335 -0.0215
 6223SOL     OW30301   3.788   0.974  13.279 -0.0038 -0.3698  0.1348
 6223SOL    HW130302   3.782   1.026  13.358 -0.7518  0.7124 -0.6349
 6223SOL    HW230303   3.748   1.034  13.216 -0.8055 -2.1719 -1.1052
 6224SOL     OW30304   4.263   1.516  12.545 -0.2785  0.0492  0.0174
 6224SOL    HW130305   4.214   1.450  12.495 -1.7220  1.5446 -0.5233
 6224SOL    HW230306   4.289   1.577  12.476  1.2505 -0.5402  0.0555
 6225SOL     OW30307   3.997   1.362   2.433 -0.4518  0.6971  0.0736
 6225SOL    HW130308   3.961   1.426   2.495  0.5220  1.1472  0.1679
 6225SOL    HW230309   3.922   1.302   2.428  0.3163 -0.1259 -1.4396
 6226SOL     OW30310   0.824   4.463   5.936 -0.3057  0.2999  0.5247
 6226SOL    HW130311   0.833   4.524   5.863 -0.3496 -1.4285 -0.9166
 6226SOL    HW230312   0.917   4.455   5.960 -0.2934 -1.4026 -0.0968
 6227SOL     OW30313   0.343   1.796   4.382  0.2449  0.3701  0.1849
 6227SOL    HW130314   0.410   1.802   4.314 -0.1663  0.6451 -0.1948
 6227SOL    HW230315   0.318   1.704   4.375 -1.9927  1.0659 -1.1823
 6228SOL     OW30316   0.936   4.632  11.713  0.1496 -0.0348 -0.0113
 6228SOL    HW130317   0.873   4.562  11.730  1.4413 -1.5460 -1.3429
 6228SOL    HW230318   0.918   4.637  11.619 -0.1479  0.4075  0.0705
 6229SOL     OW30319   3.191   3.257  13.760 -0.1049 -0.5296 -0.3802
 6229SOL    HW130320   3.185   3.321  13.830 -0.4447  0.5835 -1.4207
 6229SOL    HW230321   3.259   3.294  13.703 -1.9058  0.8574 -1.6483
 6230SOL     OW30322   2.908   4.469   9.264  0.5268  0.7021 -0.2165
 6230SOL    HW130323   2.873   4.553   9.293  1.3792  0.2996  1.9521
 6230SOL    HW230324   2.999   4.497   9.266  0.4529  0.8875  0.5470
 6231SOL     OW30325   2.478   3.683   2.215 -0.3834 -0.2713 -0.3394
 6231SOL    HW130326   2.421   3.617   2.176  0.1288 -1.5721  1.1601
 6231SOL    HW230327   2.411   3.750   2.227 -1.7295 -1.6648 -0.1389
 6232SOL     OW30328   3.974   2.970  10.052  0.1146 -0.4376 -0.0131
 6232SOL    HW130329   3.954   2.906   9.984  0.2335  0.8864 -1.2877
 6232SOL    HW230330   4.063   2.945  10.076  1.0786  2.8659 -0.1192
 6233SOL     OW30331   2.529   1.020   7.628  0.3340  0.4055 -0.1088
 6233SOL    HW130332   2.438   1.032   7.654  0.1560 -3.0662  1.0050
 6233SOL    HW230333   2.569   1.084   7.687  3.8926 -1.8490 -0.0382
 6234SOL     OW30334   2.626   3.660   5.059 -0.0046 -0.2157 -0.2980
 6234SOL    HW130335   2.569   3.697   5.126  2.5017  2.2649  0.4592
 6234SOL    HW230336   2.698   3.633   5.116 -0.4210 -1.1953 -0.2449
 6235SOL     OW30337   4.229   0.829  12.429 -0.0496 -0.0858  0.3869
 6235SOL    HW130338   4.275   0.892  12.485 -1.5349  0.8528  0.5300
 6235SOL    HW230339   4.277   0.836  12.346 -1.3417 -1.9221 -0.5218
 6236SOL     OW30340   1.638   0.644  11.283 -0.3035  0.4602 -0.0269
 6236SOL    HW130341   1.659   0.719  11.228  1.8281 -0.2789 -0.2260
 6236SOL    HW230342   1.558   0.625  11.235  0.0954  0.0241 -0.5208
 6237SOL     OW30343   3.188   0.770   8.038 -0.0459 -0.1248  0.6067
 6237SOL    HW130344   3.171   0.701   8.102 -1.6836 -0.5235 -0.2464
 6237SOL    HW230345   3.165   0.847   8.089 -1.6592 -0.1485 -0.0902
 6238SOL     OW30346   1.855   4.166   7.858  0.1861  0.1698  0.2477
 6238SOL    HW130347   1.819   4.134   7.776 -3.4596 -0.6976  2.2036
 6238SOL    HW230348   1.895   4.247   7.829 -0.8522  0.7128  0.3510
 6239SOL     OW30349   2.526   1.318   7.043  0.6742  0.0545  0.3804
 6239SOL    HW130350   2.502   1.406   7.073  0.6253  0.6670 -1.4616
 6239SOL    HW230351   2.599   1.348   6.989 -0.6804  1.7750 -0.4984
 6240SOL     OW30352   3.153   0.800   2.281  0.0120  0.1144  0.5209
 6240SOL    HW130353   3.134   0.885   2.321  1.4728  0.6509  0.0709
 6240SOL    HW230354   3.220   0.825   2.218  0.1965  0.7499  0.9685
 6241SOL     OW30355   1.123   0.107   7.419  0.0135 -0.0065  0.0419
 6241SOL    HW130356   1.098   0.156   7.340  0.3350  1.1280  0.6385
 6241SOL    HW230357   1.033   0.080   7.438  0.6559 -1.5774  0.8108
 6242SOL     OW30358   2.944   3.971   5.691 -0.6155 -0.9442 -0.5450
 6242SOL    HW130359   2.965   3.896   5.635  1.9728  0.0709 -0.9168
 6242SOL    HW230360   2.864   4.002   5.648  0.0241 -1.6534 -2.2501
 6243SOL     OW30361   1.166   3.609   6.258  0.4099 -0.0022  0.0329
 6243SOL    HW130362   1.073   3.615   6.277  0.8901 -2.6169  3.0893
 6243SOL    HW230363   1.165   3.557   6.177 -1.3851  0.6977 -0.3993
 6244SOL     OW30364   0.453   1.200   8.871  0.3865 -0.2045 -0.1528
 6244SOL    HW130365   0.425   1.134   8.808 -1.3189  0.0448  0.3450
 6244SOL    HW230366   0.519   1.243   8.817 -2.0318  1.5252 -1.6755
 6245SOL     OW30367   1.158   3.482  15.028 -0.1052  0.2861 -0.1427
 6245SOL    HW130368   1.242   3.520  15.053  0.4205 -0.6659 -0.4671
 6245SOL    HW230369   1.136   3.547  14.962 -2.2616  0.6030  0.8684
 6246SOL     OW30370   0.550   2.311   6.976 -0.0131  0.1433 -0.3198
 6246SOL    HW130371   0.472   2.257   6.992  0.9562 -1.2065 -0.1076
 6246SOL    HW230372   0.511   2.395   6.951 -0.3067 -0.1851 -0.9666
 6247SOL     OW30373   4.458   4.345  12.577  0.0812  0.0122  0.0379
 6247SOL    HW130374   4.419   4.432  12.589 -0.9218 -0.1022 -2.2314
 6247SOL    HW230375   4.403   4.299  12.641  3.0902 -2.5777  0.7296
 6248SOL     OW30376   4.347   3.439  10.060  0.4333  0.2272 -0.0106
 6248SOL    HW130377   4.369   3.399  10.145  0.3754  1.1704  0.4437
 6248SOL    HW230378   4.263   3.402  10.033  0.5466  0.1306 -0.2334
 6249SOL     OW30379   1.121   1.421   6.029  0.3236 -0.3824  0.2463
 6249SOL    HW130380   1.204   1.392   5.990  0.0283  0.6884 -1.1864
 6249SOL    HW230381   1.064   1.361   5.982 -2.1667  3.3973 -1.5883
 6250SOL     OW30382   1.640   0.158   6.910 -0.2879  0.2228  0.0412
 6250SOL    HW130383   1.617   0.131   6.999 -1.3442  0.3751 -0.1869
 6250SOL    HW230384   1.615   0.092   6.846  2.1602 -0.8319  0.1850
 6251SOL     OW30385   3.917   1.463   5.087 -0.2711  0.5695 -0.2843
 6251SOL    HW130386   3.834   1.427   5.117  0.6398  0.0531  1.6099
 6251SOL    HW230387   3.984   1.419   5.139 -1.3726  1.9726  2.3127
 6252SOL     OW30388   2.932   1.343  17.595  0.1545  0.3115 -0.1806
 6252SOL    HW130389   3.006   1.285  17.578 -1.6746 -1.9959 -0.2536
 6252SOL    HW230390   2.857   1.287  17.573  0.4743 -0.5477  0.9255
 6253SOL     OW30391   1.009   2.457   0.513  0.4630 -0.5455  0.7063
 6253SOL    HW130392   1.104   2.453   0.500  0.4828 -0.1958  0.7422
 6253SOL    HW230393   0.992   2.404   0.592  0.4931 -1.2858  0.2178
 6254SOL     OW30394   0.352   1.466   5.977  0.1555  0.2569  0.4009
 6254SOL    HW130395   0.265   1.506   5.979 -0.3110 -0.6492 -1.2360
 6254SOL    HW230396   0.378   1.468   5.885  0.0947  0.5783  0.3903
 6255SOL     OW30397   4.561   4.314   9.503 -0.0777  0.3795  0.2138
 6255SOL    HW130398   4.551   4.219   9.502  1.3566  0.2331 -0.5008
 6255SOL    HW230399   4.651   4.336   9.528  0.3398  0.0019 -0.9548
 6256SOL     OW30400   4.568   0.022   2.594 -0.1603  0.0592  0.2342
 6256SOL    HW130401   4.548   0.003   2.686  0.0729  0.2338  0.3195
 6256SOL    HW230402   4.576   0.117   2.596 -0.1283  0.0497  0.5234
 6257SOL     OW30403   0.020   4.277   6.130  0.0665  0.1369 -0.3588
 6257SOL    HW130404   4.711   4.282   6.045  1.4509  0.1422 -1.0807
 6257SOL    HW230405   4.686   4.305   6.191 -0.1204 -2.0250  0.4187
 6258SOL     OW30406   0.849   4.110   0.320 -0.0658  0.2509  0.6369
 6258SOL    HW130407   0.781   4.092   0.385 -0.0821 -1.5477  0.1311
 6258SOL    HW230408   0.871   4.018   0.305 -1.4457  0.3862 -2.1197
 6259SOL     OW30409   1.378   1.350   5.898 -0.7040  0.3430 -0.2314
 6259SOL    HW130410   1.397   1.282   5.963  0.8178 -0.4285 -1.4913
 6259SOL    HW230411   1.456   1.346   5.843 -2.1668 -1.0120 -2.1636
 6260SOL     OW30412   1.949   4.414   7.750  0.1100  0.1848 -0.0745
 6260SOL    HW130413   1.960   4.495   7.701  0.8906  2.4026  3.7827
 6260SOL    HW230414   1.868   4.442   7.793 -0.3523 -0.1093 -0.7465
 6261SOL     OW30415   3.958   1.791   8.392 -0.5677  0.2181  0.6641
 6261SOL    HW130416   3.953   1.748   8.478  0.3315 -1.1109  0.0521
 6261SOL    HW230417   3.937   1.721   8.331 -1.0016  1.1232 -0.2168
 6262SOL     OW30418   2.724   1.349   4.836 -0.7602  0.4002  0.4460
 6262SOL    HW130419   2.807   1.301   4.831 -1.0625 -0.2476  1.6385
 6262SOL    HW230420   2.680   1.332   4.753 -1.3648 -1.3273  1.1125
 6263SOL     OW30421   3.611   0.071  15.946  0.7462  0.4670  0.1189
 6263SOL    HW130422   3.656   4.724  15.962 -1.7694 -0.7157  1.2107
 6263SOL    HW230423   3.584   0.108  16.031 -0.0230  0.7832 -0.2597
 6264SOL     OW30424   3.317   4.149   6.697  0.3275  0.5634 -0.5242
 6264SOL    HW130425   3.356   4.114   6.617  2.0368  0.6940  0.2564
 6264SOL    HW230426   3.302   4.237   6.663 -2.2719  0.3025 -0.0512
 6265SOL     OW30427   1.312   4.245   3.967  0.4713  0.7050 -0.3104
 6265SOL    HW130428   1.274   4.261   4.054  1.7852  1.7020  0.0838
 6265SOL    HW230429   1.373   4.318   3.955  0.5949  1.1577  3.0994
 6266SOL     OW30430   4.412   2.369   8.583 -0.2035 -0.0143 -0.1553
 6266SOL    HW130431   4.422   2.382   8.678 -0.9159 -3.7048  0.4402
 6266SOL    HW230432   4.342   2.305   8.585  0.8471 -1.1836 -1.1271
 6267SOL     OW30433   0.270   1.818   5.056  0.2618  0.3638 -0.5076
 6267SOL    HW130434   0.208   1.848   5.122 -0.1306 -3.0430  0.6486
 6267SOL    HW230435   0.325   1.896   5.041  0.2487  0.3697 -0.5249
 6268SOL     OW30436   2.336   0.865   4.801 -0.1629 -0.2707 -0.6852
 6268SOL    HW130437   2.290   0.864   4.885  0.3596  0.0528 -0.3907
 6268SOL    HW230438   2.329   0.953   4.765 -0.7518  0.3408  0.8998
 6269SOL     OW30439   3.566   1.559   1.947  0.3938 -0.3501 -0.3295
 6269SOL    HW130440   3.501   1.539   1.879 -0.7838 -0.1328  0.7406
 6269SOL    HW230441   3.603   1.632   1.897  2.5748 -1.9069 -0.9788
 6270SOL     OW30442   2.174   1.394  13.167  0.1547  0.4697  0.1642
 6270SOL    HW130443   2.130   1.371  13.085 -1.1168  0.1466  0.9323
 6270SOL    HW230444   2.098   1.378  13.223  0.5867  0.1809  0.6617
 6271SOL     OW30445   1.170   1.734   3.166 -0.0485 -0.1235 -0.4132
 6271SOL    HW130446   1.107   1.667   3.191 -1.5176  1.1474 -0.7529
 6271SOL    HW230447   1.153   1.743   3.073  4.2824  0.2768 -1.1849
 6272SOL     OW30448   4.694   4.415   7.034  0.2284  0.3249  0.2602
 6272SOL    HW130449   4.703   4.494   6.981 -1.3854  0.4586  0.1711
 6272SOL    HW230450   4.693   4.453   7.121  1.0549  1.1454 -0.0981
 6273SOL     OW30451   3.945   2.403   2.612  0.7579 -0.7727 -0.9205
 6273SOL    HW130452   3.963   2.317   2.649 -1.7145 -0.8924  0.0165
 6273SOL    HW230453   3.849   2.413   2.615  0.4217 -4.2718  0.2540
 6274SOL     OW30454   1.680   4.557   3.799  0.2547  0.2066  0.4507
 6274SOL    HW130455   1.769   4.586   3.778 -1.0036  3.4611 -0.4093
 6274SOL    HW230456   1.685   4.538   3.893 -0.6191 -3.3766 -0.2298
 6275SOL     OW30457   1.988   1.837  15.425 -0.0615 -0.6486 -0.0078
 6275SOL    HW130458   1.893   1.837  15.423 -0.1102 -0.4926  1.5802
 6275SOL    HW230459   2.015   1.748  15.403 -0.1381 -0.5307 -0.5547
 6276SOL     OW30460   4.270   1.241   3.040  1.0447 -0.1815 -0.4332
 6276SOL    HW130461   4.360   1.241   3.006  1.0913  2.6477 -0.3049
 6276SOL    HW230462   4.230   1.202   2.963 -0.6760 -0.9775  0.8681
 6277SOL     OW30463   1.505   1.858   3.148  0.5791  0.6020 -0.6718
 6277SOL    HW130464   1.484   1.929   3.209  2.7559  0.1098  0.6514
 6277SOL    HW230465   1.466   1.782   3.192  0.3841  0.5444 -0.9493
 6278SOL     OW30466   1.595   2.361   6.891  0.0946  0.6966  0.4636
 6278SOL    HW130467   1.621   2.357   6.798  0.3768  0.8920  0.5331
 6278SOL    HW230468   1.584   2.455   6.906  0.4006  0.7187  0.5471
 6279SOL     OW30469   2.105   0.409   8.701  0.3624  0.0431 -0.3017
 6279SOL    HW130470   2.110   0.361   8.784  1.5581 -2.0584 -1.5970
 6279SOL    HW230471   2.196   0.409   8.673  0.7202  1.7707  0.8869
 6280SOL     OW30472   2.031   1.495   4.458  0.2148  0.3756 -0.0002
 6280SOL    HW130473   2.008   1.512   4.550  2.4739  0.9328  0.4647
 6280SOL    HW230474   1.966   1.548   4.412  0.7410  1.3506  0.3735
 6281SOL     OW30475   3.155   1.602   4.322  0.2973  0.1932  0.1229
 6281SOL    HW130476   3.216   1.537   4.290 -1.7751 -1.9803  0.5982
 6281SOL    HW230477   3.210   1.647   4.386  1.3801 -1.4562  0.3479
 6282SOL     OW30478   3.881   0.009   8.591 -0.2126  0.3406  0.0699
 6282SOL    HW130479   3.968   4.732   8.627 -0.5736 -1.9099  0.1512
 6282SOL    HW230480   3.882   4.694   8.510  1.1207 -0.4131  0.5635
 6283SOL     OW30481   1.774   4.557   8.090  0.0608 -0.3310 -0.1505
 6283SOL    HW130482   1.704   4.498   8.060  0.6914 -1.2386  0.1406
 6283SOL    HW230483   1.800   4.592   8.005  0.4123 -0.2435 -0.0071
 6284SOL     OW30484   2.975   1.808  17.279  0.4124 -0.4553 -0.4046
 6284SOL    HW130485   3.044   1.744  17.261 -1.5909 -3.0863  1.2737
 6284SOL    HW230486   2.939   1.763  17.356  0.8472 -1.4402 -0.7697
 6285SOL     OW30487   0.141   3.710   9.329 -0.2480  0.0280 -0.1827
 6285SOL    HW130488   0.201   3.721   9.255  0.7624  0.2238  0.6701
 6285SOL    HW230489   0.199   3.740   9.399  0.6138 -2.6233  0.2235
 6286SOL     OW30490   1.346   3.428   6.923  0.8213 -0.3304 -0.0160
 6286SOL    HW130491   1.421   3.396   6.873 -0.1285 -0.5281 -1.3042
 6286SOL    HW230492   1.359   3.382   7.006 -0.8722 -0.1166  0.3541
 6287SOL     OW30493   2.258   4.474   3.816 -0.5029  0.5272 -0.1056
 6287SOL    HW130494   2.303   4.487   3.733 -0.1812 -1.8608 -0.2857
 6287SOL    HW230495   2.173   4.439   3.791 -0.9269  0.6324  1.1483
 6288SOL     OW30496   0.141   2.156   6.409  0.0702 -0.4638  0.5342
 6288SOL    HW130497   0.103   2.100   6.476 -0.9250 -0.0400  0.3255
 6288SOL    HW230498   0.060   2.192   6.374  0.1449 -0.5438  0.2802
 6289SOL     OW30499   3.054   4.500  10.458  0.3040 -0.4846 -0.0729
 6289SOL    HW130500   2.963   4.491  10.486  0.5960  1.7253  1.5758
 6289SOL    HW230501   3.040   4.463  10.370 -0.8940 -2.0193  0.7619
 6290SOL     OW30502   3.444   1.435  15.041 -0.0557 -0.1413  0.1459
 6290SOL    HW130503   3.440   1.375  15.116  2.5138 -1.4546 -0.7696
 6290SOL    HW230504   3.539   1.447  15.035 -0.2434  0.2960 -1.8507
 6291SOL     OW30505   2.153   4.127   7.978  0.1166 -0.0906 -0.3896
 6291SOL    HW130506   2.067   4.129   8.020 -0.9589 -3.0694 -2.3913
 6291SOL    HW230507   2.201   4.067   8.035 -1.5818  0.7700  1.9366
 6292SOL     OW30508   3.547   2.745   1.519 -0.1191 -0.4506  0.1429
 6292SOL    HW130509   3.594   2.760   1.437 -0.7067  0.3209 -0.0481
 6292SOL    HW230510   3.456   2.764   1.499  0.7279  2.4350 -1.0728
 6293SOL     OW30511   3.424   1.961   8.395 -0.2901  0.4624 -0.0984
 6293SOL    HW130512   3.471   1.883   8.424 -0.0570  1.3382  1.9008
 6293SOL    HW230513   3.495   2.014   8.358  0.3317  0.2702  0.8043
 6294SOL     OW30514   1.716   2.728   8.636 -0.0855 -0.8381  0.1140
 6294SOL    HW130515   1.652   2.672   8.591  2.3101 -1.9494 -1.8792
 6294SOL    HW230516   1.690   2.689   8.719 -1.9354  1.5449  0.6631
 6295SOL     OW30517   1.445   4.354   8.909  0.3078 -0.8206  0.1933
 6295SOL    HW130518   1.394   4.332   8.831 -1.0931  1.5651  0.4438
 6295SOL    HW230519   1.479   4.436   8.874  1.0993 -0.8269  0.9552
 6296SOL     OW30520   2.485   3.858   7.110  0.3325 -0.5014  0.6066
 6296SOL    HW130521   2.519   3.921   7.046  0.8110  0.8932  2.2687
 6296SOL    HW230522   2.545   3.870   7.183 -0.2243 -1.7044  1.2589
 6297SOL     OW30523   2.346   4.506   7.813  0.3912  0.6400  0.2891
 6297SOL    HW130524   2.325   4.470   7.727 -2.9508 -1.2783  1.9355
 6297SOL    HW230525   2.355   4.428   7.868  3.1816  0.8610  0.1628
 6298SOL     OW30526   0.725   3.546   6.441 -0.2468  0.3686 -0.4108
 6298SOL    HW130527   0.674   3.626   6.446 -1.1824 -0.2444 -0.1099
 6298SOL    HW230528   0.663   3.480   6.473 -0.5843  0.9455  0.1252
 6299SOL     OW30529   0.382   3.060   5.897 -0.4026 -0.9800 -0.4807
 6299SOL    HW130530   0.307   3.043   5.955 -1.2574  0.9788 -1.0299
 6299SOL    HW230531   0.454   3.064   5.960 -0.2226 -1.1368 -0.6760
 6300SOL     OW30532   3.686   0.836   3.045  0.2321  0.3692  0.5290
 6300SOL    HW130533   3.738   0.883   3.110 -0.4295 -1.7348  2.5669
 6300SOL    HW230534   3.610   0.893   3.039  0.5098  0.5681 -1.0643
 6301SOL     OW30535   1.064   0.657  17.706  0.6274 -0.5760  0.5389
 6301SOL    HW130536   1.039   0.749  17.697  0.2962 -0.5802  1.4796
 6301SOL    HW230537   0.980   0.626   0.002  0.2310  0.0633  0.1637
 6302SOL     OW30538   4.022   1.229   7.645 -0.3663  0.4602 -0.9122
 6302SOL    HW130539   4.035   1.293   7.574 -2.3787  0.7457 -1.0231
 6302SOL    HW230540   3.957   1.270   7.702  0.4744  1.3301 -0.5920
 6303SOL     OW30541   1.358   3.571   5.102 -0.5339 -0.0747 -0.4919
 6303SOL    HW130542   1.355   3.476   5.113  1.8444 -0.1712 -0.7684
 6303SOL    HW230543   1.338   3.595   5.192  1.1263  1.6977 -0.5970
 6304SOL     OW30544   0.597   2.775   0.629 -0.0314  0.2118  0.0829
 6304SOL    HW130545   0.546   2.754   0.707 -4.1784 -1.4507 -3.0408
 6304SOL    HW230546   0.684   2.742   0.653  0.9690  1.6023 -1.6479
 6305SOL     OW30547   2.514   0.267   2.746 -0.0839  0.4502  0.2434
 6305SOL    HW130548   2.598   0.310   2.729 -0.9410  2.0580  0.1128
 6305SOL    HW230549   2.529   0.238   2.836  2.1032  0.2844 -0.1681
 6306SOL     OW30550   1.057   1.145   0.548 -0.1903  0.0467 -0.4163
 6306SOL    HW130551   1.121   1.129   0.617  0.3935 -3.2809 -1.7297
 6306SOL    HW230552   1.110   1.182   0.478  0.3491  1.9206  0.9937
 6307SOL     OW30553   4.018   0.094  11.804 -0.0076  0.8781  0.1129
 6307SOL    HW130554   4.053   0.055  11.724  0.7867  1.9453 -0.0675
 6307SOL    HW230555   3.976   0.172  11.768 -3.5856 -1.0639  0.0852
 6308SOL     OW30556   4.625   0.592   1.036 -0.4234  0.3467 -0.2176
 6308SOL    HW130557   4.547   0.562   0.990  0.5790  1.1574 -2.4125
 6308SOL    HW230558   4.669   0.643   0.969 -1.8835  1.5998 -0.2286
 6309SOL     OW30559   3.256   3.541  13.834  0.2129 -0.5467 -0.8772
 6309SOL    HW130560   3.346   3.537  13.802  0.7018 -1.7197  0.6679
 6309SOL    HW230561   3.205   3.570  13.759 -0.4256 -1.4078 -0.7708
 6310SOL     OW30562   1.734   1.098   8.785  0.4420  0.4909 -0.0477
 6310SOL    HW130563   1.790   1.142   8.849  0.4556 -1.5914  1.3611
 6310SOL    HW230564   1.742   1.013   8.828  0.5624  1.0861  1.1141
 6311SOL     OW30565   3.428   0.003   1.416  0.5473 -0.1427 -0.0124
 6311SOL    HW130566   3.360   4.675   1.390  0.5429 -0.0696 -0.1849
 6311SOL    HW230567   3.506   4.714   1.366 -0.2232 -0.0608 -1.2812
 6312SOL     OW30568   4.390   2.349   8.204 -0.0573 -0.6308  0.7966
 6312SOL    HW130569   4.364   2.262   8.175 -2.7190  1.0325 -1.7442
 6312SOL    HW230570   4.482   2.331   8.225  0.1814  1.3508  1.4711
 6313SOL     OW30571   3.960   3.990   3.837  0.0043  0.1438  0.3221
 6313SOL    HW130572   3.869   3.983   3.863  0.1143  1.1589  0.9979
 6313SOL    HW230573   3.946   4.002   3.743 -0.8229 -1.2233  0.2679
 6314SOL     OW30574   3.407   3.882   3.762 -0.3505 -0.3750  0.5488
 6314SOL    HW130575   3.333   3.823   3.774  1.7134 -2.1826  4.2807
 6314SOL    HW230576   3.471   3.814   3.741  0.9970  1.2715 -0.7049
 6315SOL     OW30577   3.598   0.161   5.338  0.0412 -0.1566  0.2180
 6315SOL    HW130578   3.541   0.238   5.337  3.3457  2.2932  0.5336
 6315SOL    HW230579   3.673   0.184   5.282 -0.7358  1.7486 -0.0047
 6316SOL     OW30580   3.968   3.542   2.701 -0.1257  0.5299 -0.6924
 6316SOL    HW130581   4.006   3.615   2.750 -1.1333 -0.5838  1.7701
 6316SOL    HW230582   3.986   3.571   2.611 -0.4490  3.7565  0.2597
 6317SOL     OW30583   4.021   0.836  16.875  0.5822  0.2298  0.3669
 6317SOL    HW130584   3.977   0.844  16.959 -0.0133  0.3828  0.0406
 6317SOL    HW230585   4.102   0.805  16.916  0.7158  0.3681  0.2110
 6318SOL     OW30586   3.240   0.977   4.233 -0.4842  0.0761  0.3216
 6318SOL    HW130587   3.172   1.035   4.201  0.3265  0.2191 -1.1627
 6318SOL    HW230588   3.210   0.963   4.323 -1.0219  0.1123  0.1458
 6319SOL     OW30589   0.692   2.324   6.312  0.2612 -0.2575 -0.1681
 6319SOL    HW130590   0.682   2.419   6.307 -1.2068 -0.5012 -1.9710
 6319SOL    HW230591   0.786   2.308   6.302  0.2082  0.0694 -1.1397
 6320SOL     OW30592   1.636   1.081  12.475 -0.3569 -0.2705  0.1332
 6320SOL    HW130593   1.595   1.045  12.396 -1.4308  0.3753  0.3933
 6320SOL    HW230594   1.647   1.008  12.537  0.8485 -0.1280  0.0956
 6321SOL     OW30595   2.526   2.193  13.789 -0.2277  0.5655 -0.1627
 6321SOL    HW130596   2.550   2.267  13.733 -1.5644  0.3873 -0.9646
 6321SOL    HW230597   2.464   2.153  13.729  0.4687  0.8724 -1.0816
 6322SOL     OW30598   3.136   4.588  14.387 -0.0725 -0.3315 -0.1617
 6322SOL    HW130599   3.128   4.585  14.291 -0.6537 -0.1688 -0.1183
 6322SOL    HW230600   3.049   4.621  14.410  1.2809  1.4111  2.4822
 6323SOL     OW30601   1.226   3.098   8.781 -0.0329 -0.1195 -0.4550
 6323SOL    HW130602   1.161   3.039   8.818  0.5617 -0.2696  0.3441
 6323SOL    HW230603   1.203   3.186   8.808  0.4393 -0.4630  1.0359
 6324SOL     OW30604   4.284   0.044   6.318 -0.1047 -0.7695 -0.1499
 6324SOL    HW130605   4.233   0.016   6.242 -0.5617  1.8601 -0.7902
 6324SOL    HW230606   4.225   0.102   6.366  0.5527  1.3017 -1.8599
 6325SOL     OW30607   0.083   2.996   3.486  0.1630 -0.1055  0.2650
 6325SOL    HW130608   0.101   3.069   3.428 -1.8247 -0.9320 -1.3711
 6325SOL    HW230609   0.005   2.957   3.448  1.2258 -0.7554 -1.2572
 6326SOL     OW30610   2.828   4.209   5.448  0.1396  0.3976  0.4455
 6326SOL    HW130611   2.780   4.286   5.418 -1.4960 -0.9338 -0.3009
 6326SOL    HW230612   2.912   4.248   5.475 -0.9086  1.1277  2.6253
 6327SOL     OW30613   3.694   3.168  17.558 -0.0501  0.7889  0.2420
 6327SOL    HW130614   3.687   3.263  17.566 -1.4821  0.5431  1.8571
 6327SOL    HW230615   3.726   3.162  17.468  2.1223  1.5759  0.9479
 6328SOL     OW30616   1.191   2.256   5.731  0.8303 -0.5669  0.0120
 6328SOL    HW130617   1.108   2.241   5.686  0.5131  0.2314  0.3353
 6328SOL    HW230618   1.253   2.232   5.662 -0.1238 -0.4235 -0.9028
 6329SOL     OW30619   3.015   2.604   8.975 -0.0563  0.3982  0.5886
 6329SOL    HW130620   3.083   2.610   8.908  0.4264  1.4973  1.1843
 6329SOL    HW230621   3.030   2.514   9.005  0.5870  0.1009 -0.6342
 6330SOL     OW30622   0.800   0.861   1.204 -0.3727 -0.7485  0.1148
 6330SOL    HW130623   0.789   0.822   1.290 -0.4681 -0.4074  0.2557
 6330SOL    HW230624   0.749   0.942   1.210 -0.1054 -0.4049 -2.1305
 6331SOL     OW30625   0.973   0.745   5.517  0.6467  0.9611 -0.1279
 6331SOL    HW130626   0.959   0.667   5.464  1.1111  1.6667 -1.2954
 6331SOL    HW230627   1.008   0.696   5.592 -1.5140  2.3724  1.7892
 6332SOL     OW30628   0.499   1.062   2.939  0.3749  0.0326 -0.4675
 6332SOL    HW130629   0.504   1.023   3.026 -0.0428 -0.9960 -0.8987
 6332SOL    HW230630   0.570   1.126   2.940  0.7712 -0.4353  2.1789
 6333SOL     OW30631   2.841   0.737   8.054  0.0243 -0.0608 -0.6257
 6333SOL    HW130632   2.824   0.817   8.103  0.8088 -0.9446  1.0655
 6333SOL    HW230633   2.820   0.666   8.114 -0.1496  0.4028 -0.1407
 6334SOL     OW30634   1.504   0.899  16.596 -0.4405 -0.2562 -0.0496
 6334SOL    HW130635   1.450   0.964  16.552 -1.2853  1.4092  3.4119
 6334SOL    HW230636   1.545   0.849  16.525  0.3623  1.6720 -0.9447
 6335SOL     OW30637   3.379   1.553   1.747  0.3545 -0.5575 -0.0915
 6335SOL    HW130638   3.291   1.517   1.737  0.7717 -1.2057 -1.3793
 6335SOL    HW230639   3.399   1.569   1.655  2.1720 -0.3585  0.3351
 6336SOL     OW30640   4.165   2.449  14.585  0.0917 -0.3465  0.3480
 6336SOL    HW130641   4.150   2.389  14.659 -0.0737 -0.5724  0.1335
 6336SOL    HW230642   4.112   2.397  14.524  3.4962 -1.7653 -1.3407
 6337SOL     OW30643   2.622   1.628   2.322  0.4937  0.5187 -0.1183
 6337SOL    HW130644   2.628   1.545   2.274 -0.5112 -0.6985  1.8481
 6337SOL    HW230645   2.709   1.629   2.361  0.7002 -0.7127 -0.5318
 6338SOL     OW30646   2.393   4.471   6.131  0.6080  0.3009  0.2477
 6338SOL    HW130647   2.431   4.409   6.194  0.0387  1.8327  2.1176
 6338SOL    HW230648   2.376   4.418   6.054 -0.3090  0.5616  0.2646
 6339SOL     OW30649   3.485   0.243   3.357  0.0615 -0.5908 -0.1286
 6339SOL    HW130650   3.553   0.221   3.421 -0.4012 -2.2427 -0.1982
 6339SOL    HW230651   3.504   0.175   3.293 -0.0955 -0.8948  0.1429
 6340SOL     OW30652   2.865   4.056   9.954  0.1485  0.3977 -0.0889
 6340SOL    HW130653   2.861   4.146   9.988 -0.3188 -0.2646  1.5943
 6340SOL    HW230654   2.906   4.012  10.029  0.9459  2.2527  0.5848
 6341SOL     OW30655   1.257   0.498   0.748  0.4329  0.3910 -0.1600
 6341SOL    HW130656   1.338   0.524   0.704  0.3864  1.4013  0.3631
 6341SOL    HW230657   1.240   0.411   0.711  0.5947  0.2563  0.0825
 6342SOL     OW30658   1.451   3.148   2.713  0.6979 -0.0900  0.2282
 6342SOL    HW130659   1.491   3.234   2.698 -0.8926  0.6215  0.1377
 6342SOL    HW230660   1.496   3.109   2.788 -0.3776 -0.9232  0.4460
 6343SOL     OW30661   4.392   4.602  12.692  0.0425  0.0203  0.4010
 6343SOL    HW130662   4.486   4.585  12.699  0.6359  1.6450 -3.3248
 6343SOL    HW230663   4.377   4.695  12.706  0.6825  0.2734 -0.5637
 6344SOL     OW30664   2.856   0.014   3.830  0.8182  0.4172  0.2305
 6344SOL    HW130665   2.950   0.017   3.811  0.9049  2.9895  0.9519
 6344SOL    HW230666   2.846   0.066   3.910 -0.6933 -0.1998  0.4301
 6345SOL     OW30667   3.040   3.761   7.418  0.6262 -0.1946 -0.4381
 6345SOL    HW130668   3.100   3.742   7.346  0.4917 -0.9992 -0.3294
 6345SOL    HW230669   2.957   3.779   7.373  0.3600  0.7055  0.4149
 6346SOL     OW30670   1.601   1.629   5.742  0.3683 -0.2239 -0.3230
 6346SOL    HW130671   1.585   1.537   5.724  2.7677 -0.3769 -1.5900
 6346SOL    HW230672   1.687   1.623   5.700  0.8290  0.7607  0.4848
 6347SOL     OW30673   4.630   3.068   4.160  0.5099 -0.6192  0.6988
 6347SOL    HW130674   4.643   3.160   4.137  0.0125 -0.9170 -0.8202
 6347SOL    HW230675   4.618   3.028   4.074 -0.0694 -3.8729  2.3219
 6348SOL     OW30676   2.219   2.818   3.557 -0.3890  0.4452  0.0945
 6348SOL    HW130677   2.184   2.755   3.494  0.2998  0.3950 -0.2314
 6348SOL    HW230678   2.283   2.869   3.508 -0.7313 -1.7147 -2.5416
 6349SOL     OW30679   0.974   4.466   2.233 -0.0430  0.5314  0.4339
 6349SOL    HW130680   1.003   4.511   2.312 -3.1420  2.5817  0.4090
 6349SOL    HW230681   1.042   4.490   2.170 -1.7329  0.9591 -1.2133
 6350SOL     OW30682   4.379   4.195  14.380 -0.0266 -0.2019  0.6112
 6350SOL    HW130683   4.419   4.118  14.421 -1.2473 -0.3250  1.5520
 6350SOL    HW230684   4.340   4.239  14.456  0.5539  0.6706  0.4042
 6351SOL     OW30685   0.776   4.224   1.679  0.0800  0.0524 -0.0342
 6351SOL    HW130686   0.775   4.272   1.762  3.8847 -1.6113  0.9702
 6351SOL    HW230687   0.870   4.233   1.665 -0.1748  2.3565 -0.3047
 6352SOL     OW30688   0.295   1.263   4.408 -0.4974 -0.0555 -0.4464
 6352SOL    HW130689   0.336   1.181   4.437  0.5295  1.3024  1.9464
 6352SOL    HW230690   0.203   1.237   4.401 -0.9148  1.0895  0.9262
 6353SOL     OW30691   4.368   1.907   4.798  0.0184  0.6242 -0.5342
 6353SOL    HW130692   4.441   1.883   4.740  0.8127  1.2371  0.2025
 6353SOL    HW230693   4.410   1.960   4.866  0.4439 -1.1971  0.6257
 6354SOL     OW30694   4.437   2.958   7.642 -0.2817 -0.2959  0.2827
 6354SOL    HW130695   4.437   2.955   7.737 -1.4285  2.3970  0.3762
 6354SOL    HW230696   4.361   2.907   7.614 -0.2751 -0.1136 -0.0663
 6355SOL     OW30697   2.542   3.279  16.082 -0.2605 -0.0198 -0.0328
 6355SOL    HW130698   2.500   3.289  15.997  2.6492 -1.5116 -1.6256
 6355SOL    HW230699   2.474   3.244  16.140 -0.6435  0.1585 -0.3740
 6356SOL     OW30700   2.177   4.634  10.183 -0.7327 -0.5991 -0.2098
 6356SOL    HW130701   2.131   4.636  10.100  1.8822 -1.4374 -1.7017
 6356SOL    HW230702   2.181   4.726  10.209 -1.0469 -0.7546  0.3856
 6357SOL     OW30703   3.494   0.129   4.962  0.4301  0.3952 -0.2128
 6357SOL    HW130704   3.453   0.045   4.945  0.8082  0.3996 -1.1122
 6357SOL    HW230705   3.425   0.183   5.000 -0.0679 -1.6105  1.7247
 6358SOL     OW30706   1.488   0.516  12.181 -0.0435  0.3170 -0.0823
 6358SOL    HW130707   1.547   0.591  12.179 -0.6717  0.8309  0.3573
 6358SOL    HW230708   1.526   0.476  12.260  1.6901 -0.4751 -1.3271
 6359SOL     OW30709   3.967   2.369  17.612 -0.1950  0.1430  0.4608
 6359SOL    HW130710   3.898   2.303  17.609 -0.7763  0.7157  1.1532
 6359SOL    HW230711   3.953   2.412  17.696 -1.0235  4.6725 -2.0201
 6360SOL     OW30712   1.270   4.544   8.241  0.0930 -0.4030  0.0050
 6360SOL    HW130713   1.199   4.516   8.183 -0.0668  2.3205 -1.1235
 6360SOL    HW230714   1.284   4.634   8.211  0.5613 -0.8313 -1.0809
 6361SOL     OW30715   0.616   1.622   2.829 -0.2836  0.0592 -0.1338
 6361SOL    HW130716   0.555   1.558   2.865 -1.7890  2.7982  2.0863
 6361SOL    HW230717   0.555   1.695   2.818 -0.6604 -0.3180 -0.5665
 6362SOL     OW30718   2.789   2.311   8.635  1.0093  0.4311 -0.2741
 6362SOL    HW130719   2.866   2.353   8.597 -1.0783  2.0842 -2.6229
 6362SOL    HW230720   2.761   2.252   8.565  3.1394  0.1158 -0.8531
 6363SOL     OW30721   0.416   2.929   8.626 -0.2000  0.4592  0.1518
 6363SOL    HW130722   0.479   2.865   8.594  0.7759  0.3233  2.3611
 6363SOL    HW230723   0.451   3.012   8.592 -0.2050  1.1533  1.8085
 6364SOL     OW30724   0.861   3.020   2.481  0.1639  0.4712 -0.3598
 6364SOL    HW130725   0.833   2.970   2.404  2.5027  2.5603 -2.5765
 6364SOL    HW230726   0.919   3.084   2.441  1.4042  0.8559  2.0250
 6365SOL     OW30727   2.464   2.005   7.851 -0.2223  0.0501  0.4911
 6365SOL    HW130728   2.498   2.090   7.876  1.7338 -0.2655 -1.0822
 6365SOL    HW230729   2.517   1.991   7.773  0.2049 -0.9124  0.9521
 6366SOL     OW30730   3.230   4.353   1.885 -0.5788 -0.2789 -0.1594
 6366SOL    HW130731   3.284   4.284   1.847 -1.2183 -1.2172  0.6481
 6366SOL    HW230732   3.291   4.426   1.895  0.9221 -1.2071 -2.4848
 6367SOL     OW30733   3.703   1.933   0.709 -0.1509  0.7563 -0.3713
 6367SOL    HW130734   3.702   2.022   0.674  0.1124  1.0337  0.3091
 6367SOL    HW230735   3.641   1.894   0.648  0.4320 -0.9234  0.1031
 6368SOL     OW30736   0.364   4.346   0.908  0.6260 -0.1685 -0.3145
 6368SOL    HW130737   0.423   4.329   0.835 -0.4880 -0.8205 -1.0813
 6368SOL    HW230738   0.288   4.292   0.884 -0.0694  1.5997 -2.0522
 6369SOL     OW30739   4.182   4.128   5.792 -0.4167  0.3257 -0.3583
 6369SOL    HW130740   4.254   4.080   5.833 -0.5595 -0.7742 -1.4036
 6369SOL    HW230741   4.187   4.214   5.834 -0.3518  0.8432 -1.4157
 6370SOL     OW30742   3.073   0.468   4.871  0.4867  0.0127  0.3487
 6370SOL    HW130743   3.018   0.498   4.943  0.4099 -0.5488  0.5233
 6370SOL    HW230744   3.138   0.538   4.874 -0.3709  0.7798  0.9453
 6371SOL     OW30745   2.175   3.105  15.242  0.5711  0.3757  0.1048
 6371SOL    HW130746   2.236   3.134  15.310  1.2505 -0.2699 -0.2372
 6371SOL    HW230747   2.174   3.177  15.178 -2.8760  1.7804  1.7400
 6372SOL     OW30748   0.299   3.486   7.149 -0.8477  0.0960  0.1093
 6372SOL    HW130749   0.259   3.498   7.235 -1.9664  0.1168 -0.4180
 6372SOL    HW230750   0.393   3.485   7.168 -0.7493 -1.8644 -0.4052
 6373SOL     OW30751   1.420   1.837   6.132 -0.6139 -0.2460 -0.6295
 6373SOL    HW130752   1.446   1.867   6.044 -0.0016  2.0411  0.3283
 6373SOL    HW230753   1.343   1.785   6.109 -0.1635 -1.6355  0.9984
 6374SOL     OW30754   1.064   2.707   7.836  0.1574 -0.5959 -0.4779
 6374SOL    HW130755   1.115   2.628   7.850  0.3244  0.0633  2.5920
 6374SOL    HW230756   1.097   2.733   7.749 -0.0597 -2.1375 -1.0182
 6375SOL     OW30757   0.176   1.757  16.008 -0.0808  0.0579 -0.0641
 6375SOL    HW130758   0.112   1.701  16.050  0.5996 -0.4079  0.3553
 6375SOL    HW230759   0.207   1.810  16.082  0.3052  1.6006 -1.3179
 6376SOL     OW30760   0.872   1.554  17.586  0.2862  0.4519 -0.1540
 6376SOL    HW130761   0.965   1.572  17.575  0.2008  0.7804 -0.3423
 6376SOL    HW230762   0.868   1.499  17.507 -1.2449 -0.2942  0.4564
 6377SOL     OW30763   0.385   2.845   2.888  0.5075 -0.2954 -0.0397
 6377SOL    HW130764   0.455   2.906   2.867 -1.6231  2.1640 -0.0315
 6377SOL    HW230765   0.306   2.898   2.880 -0.0172 -0.8118  1.7622
 6378SOL     OW30766   4.047   4.594  11.945 -0.3159  0.4886  0.2231
 6378SOL    HW130767   4.073   4.684  11.923  2.0093 -0.2725 -0.0929
 6378SOL    HW230768   3.962   4.579  11.904 -0.7902 -1.2820  1.8710
 6379SOL     OW30769   0.330   4.580   9.121  0.8215 -0.6924 -0.3872
 6379SOL    HW130770   0.249   4.631   9.128  0.6160 -1.3169  2.0268
 6379SOL    HW230771   0.367   4.579   9.210 -1.3192 -0.4825  0.5236
 6380SOL     OW30772   3.348   0.635   7.628 -0.1567 -0.2223  0.3359
 6380SOL    HW130773   3.269   0.582   7.622  0.1981 -0.5493 -1.5946
 6380SOL    HW230774   3.321   0.719   7.589  2.3254  0.9744  1.1392
 6381SOL     OW30775   4.291   1.047  11.548  0.5637 -0.2479 -0.3283
 6381SOL    HW130776   4.261   1.138  11.540  1.0500 -0.1121 -0.5939
 6381SOL    HW230777   4.379   1.059  11.584  0.1115  0.4467  0.5506
 6382SOL     OW30778   3.632   0.959   8.588 -0.8810 -0.5974 -0.4353
 6382SOL    HW130779   3.702   0.946   8.525  1.0664  3.8730  0.8036
 6382SOL    HW230780   3.680   0.943   8.669  0.6285  0.5669 -1.1088
 6383SOL     OW30781   4.459   2.319   3.606  0.3431  0.1278 -0.1635
 6383SOL    HW130782   4.452   2.245   3.545  0.7451  0.5614 -0.7422
 6383SOL    HW230783   4.485   2.394   3.552 -0.7409  0.0760 -0.7561
 6384SOL     OW30784   0.101   1.993   6.159  0.2211 -0.0745  1.0350
 6384SOL    HW130785   0.185   1.974   6.117  0.2723  0.8015  0.7568
 6384SOL    HW230786   0.037   1.927   6.132 -2.1151  2.2614  0.8687
 6385SOL     OW30787   3.086   4.288   2.846  0.0705 -0.3234  0.1687
 6385SOL    HW130788   2.994   4.273   2.867  0.7098 -1.1581  2.4349
 6385SOL    HW230789   3.092   4.276   2.751 -1.8171 -0.4372  0.0724
 6386SOL     OW30790   1.683   1.971   4.007  0.6491 -0.0466  0.1083
 6386SOL    HW130791   1.728   2.016   3.936  0.3871 -0.1585 -0.1284
 6386SOL    HW230792   1.604   1.932   3.969  0.5561  2.0444 -1.8620
 6387SOL     OW30793   3.654   0.936   3.317 -0.1595 -0.4854  0.2321
 6387SOL    HW130794   3.674   0.855   3.364 -0.0996 -1.5987 -1.7515
 6387SOL    HW230795   3.560   0.932   3.303 -0.3317  0.0239  1.2191
 6388SOL     OW30796   4.370   3.738  12.625  0.7289 -0.6658  0.1358
 6388SOL    HW130797   4.466   3.739  12.631  0.7703 -1.5214 -0.3496
 6388SOL    HW230798   4.360   3.817  12.572 -0.7732 -1.4368 -0.7331
 6389SOL     OW30799   0.015   4.052   8.208 -0.3042 -0.2290 -0.4814
 6389SOL    HW130800   4.718   4.115   8.143  1.0661  0.6644 -0.2778
 6389SOL    HW230801   4.727   4.104   8.286 -1.9864 -2.2419  0.3519
 6390SOL     OW30802   3.190   1.105   8.474 -0.2188  0.5048  0.3986
 6390SOL    HW130803   3.110   1.065   8.441  1.0504 -0.5993 -1.3338
 6390SOL    HW230804   3.208   1.183   8.421 -1.5506  1.3103  1.1274
 6391SOL     OW30805   0.655   4.033   3.498 -0.3483 -0.2668  0.4587
 6391SOL    HW130806   0.586   3.990   3.448  1.5099 -0.5027 -1.9095
 6391SOL    HW230807   0.613   4.093   3.559 -2.9223 -0.1298 -1.4683
 6392SOL     OW30808   2.497   2.780   9.813  0.3868  1.1100  0.4956
 6392SOL    HW130809   2.480   2.686   9.805  3.0113  0.5980  1.2201
 6392SOL    HW230810   2.586   2.777   9.778 -0.0542 -0.8636 -0.4883
 6393SOL     OW30811   3.212   4.283   6.995 -0.2477 -0.4663 -0.1340
 6393SOL    HW130812   3.290   4.232   6.972  0.1466  1.2319 -2.6769
 6393SOL    HW230813   3.199   4.329   6.911  0.7369 -1.5003 -0.8492
 6394SOL     OW30814   3.908   4.564  11.598 -0.4220  0.5427  0.2613
 6394SOL    HW130815   3.981   4.623  11.580  1.6895 -1.0613  3.7173
 6394SOL    HW230816   3.946   4.516  11.671 -0.5562  0.5227  0.3181
 6395SOL     OW30817   2.060   1.430  16.498  0.2176 -0.0441  0.1493
 6395SOL    HW130818   2.094   1.349  16.461  0.0017 -0.9893  2.0451
 6395SOL    HW230819   1.978   1.435  16.448 -0.1570 -1.1286  0.6737
 6396SOL     OW30820   1.764   3.833   5.951  0.2873 -0.4490 -0.0175
 6396SOL    HW130821   1.697   3.770   5.923  1.3104 -3.0407  3.3072
 6396SOL    HW230822   1.739   3.904   5.892 -1.1820  0.7064  2.0330
 6397SOL     OW30823   0.694   2.590   6.278 -0.0462  0.2856  0.3141
 6397SOL    HW130824   0.705   2.668   6.223 -1.6194 -1.2229 -2.1344
 6397SOL    HW230825   0.602   2.599   6.301 -0.5997 -1.2494 -1.2554
 6398SOL     OW30826   3.275   4.480  15.367  0.4391 -0.5057  0.5121
 6398SOL    HW130827   3.289   4.551  15.429  0.7182  0.0761 -0.2299
 6398SOL    HW230828   3.180   4.471  15.362  0.5569 -0.2879 -1.7709
 6399SOL     OW30829   1.514   0.525   1.226 -0.1329 -0.3367 -0.3076
 6399SOL    HW130830   1.540   0.473   1.149  2.4437  0.4756  0.0125
 6399SOL    HW230831   1.576   0.494   1.291 -0.2565  1.5256  0.6902
 6400SOL     OW30832   1.457   0.093  16.747  0.0716  0.3758  0.1261
 6400SOL    HW130833   1.462   0.070  16.654  2.2431  2.6628 -0.3161
 6400SOL    HW230834   1.544   0.125  16.771  0.2820 -0.4832  0.5200
 6401SOL     OW30835   4.119   2.525   8.581  0.0139  0.2087 -0.7677
 6401SOL    HW130836   4.210   2.500   8.597 -0.0224  1.8041  1.9925
 6401SOL    HW230837   4.080   2.488   8.660 -1.0422  0.5990 -1.1119
 6402SOL     OW30838   0.086   0.237  14.245 -0.3253  0.0233  0.3663
 6402SOL    HW130839   0.138   0.305  14.287 -0.0490 -1.1918  1.9944
 6402SOL    HW230840   0.116   0.154  14.281  1.2066 -0.6714 -2.5762
 6403SOL     OW30841   0.935   1.619   5.660 -0.1426 -0.2498  0.0098
 6403SOL    HW130842   0.901   1.542   5.706 -1.3158 -0.9766 -2.0494
 6403SOL    HW230843   0.900   1.603   5.572 -1.5845  3.2209 -0.0509
 6404SOL     OW30844   0.216   1.830   3.946  0.3891  0.5572 -0.3392
 6404SOL    HW130845   0.266   1.833   3.864 -0.3032  0.6599 -0.7578
 6404SOL    HW230846   0.175   1.917   3.947  1.1034  0.8772  1.0172
 6405SOL     OW30847   4.355   0.613  16.736  0.3420 -0.4171  0.3388
 6405SOL    HW130848   4.411   0.689  16.716  1.3168 -0.5226  2.6290
 6405SOL    HW230849   4.272   0.658  16.724  0.5292 -0.5531 -1.3976
 6406SOL     OW30850   3.462   3.982   9.295 -0.1534  0.0450  0.1012
 6406SOL    HW130851   3.435   3.902   9.251 -2.1809  0.1472  1.1275
 6406SOL    HW230852   3.539   3.953   9.343  0.0985  2.3259  1.0841
 6407SOL     OW30853   0.029   4.194   5.605  0.2225  0.3611  0.1274
 6407SOL    HW130854   4.707   4.269   5.622  2.1885  2.0929 -1.1191
 6407SOL    HW230855   0.116   4.227   5.625  1.0662 -1.2571 -0.9154
 6408SOL     OW30856   3.275   1.959   4.619  0.4179 -0.2568  0.4252
 6408SOL    HW130857   3.185   1.939   4.641  0.2182  0.5264  0.3231
 6408SOL    HW230858   3.251   2.008   4.541 -1.0546 -1.0457  0.3976
 6409SOL     OW30859   0.591   0.731   2.385 -0.2868  0.1980 -0.1319
 6409SOL    HW130860   0.625   0.728   2.475 -1.0483  0.2476  0.1581
 6409SOL    HW230861   0.662   0.695   2.332  2.7367 -0.8581  4.6289
 6410SOL     OW30862   2.470   2.331   9.081 -0.4254 -0.2289  0.2666
 6410SOL    HW130863   2.506   2.375   9.158  3.0795  3.1015 -3.2557
 6410SOL    HW230864   2.380   2.363   9.085 -0.0349  1.0525 -1.1456
 6411SOL     OW30865   3.579   1.857  14.415  0.5940  0.4264 -0.9483
 6411SOL    HW130866   3.495   1.819  14.391 -0.2229  0.8262  1.3805
 6411SOL    HW230867   3.554   1.949  14.420 -0.2102  0.0759  1.0887
 6412SOL     OW30868   4.059   4.260   4.837 -0.3390 -0.0615  0.1352
 6412SOL    HW130869   4.110   4.327   4.791  0.0466 -1.0910 -0.9421
 6412SOL    HW230870   3.995   4.238   4.769 -0.8945  3.8285 -0.6147
 6413SOL     OW30871   1.224   1.718   7.808 -0.3003  0.0341  0.7607
 6413SOL    HW130872   1.171   1.745   7.734  0.1756 -1.7504 -0.2343
 6413SOL    HW230873   1.167   1.662   7.861  0.2814 -3.3720 -2.2244
 6414SOL     OW30874   1.553   4.659   2.017 -0.2456  0.3725 -0.2545
 6414SOL    HW130875   1.519   4.594   2.079 -2.7910 -1.0062 -3.0945
 6414SOL    HW230876   1.496   4.654   1.940 -1.0196 -0.9172  0.4027
 6415SOL     OW30877   3.770   3.105  14.397  0.8075 -0.0451 -0.2749
 6415SOL    HW130878   3.709   3.170  14.430  1.7225 -0.0245  1.3251
 6415SOL    HW230879   3.824   3.078  14.471 -0.0522  1.3058  0.8505
 6416SOL     OW30880   0.045   2.466  16.752 -0.2424  0.6492  0.0188
 6416SOL    HW130881   0.072   2.379  16.782  0.5996  0.4755 -1.2484
 6416SOL    HW230882   4.695   2.448  16.712 -0.3281 -0.2914  0.6448
 6417SOL     OW30883   3.386   3.650   5.881  0.1920  0.1227  0.4698
 6417SOL    HW130884   3.320   3.668   5.813  1.1452  1.8574  0.0093
 6417SOL    HW230885   3.419   3.561   5.870  0.8168  0.5110 -0.7537
 6418SOL     OW30886   4.441   3.411   9.362 -0.3273 -0.0170  0.1827
 6418SOL    HW130887   4.527   3.429   9.325 -0.5910  1.6542  0.3763
 6418SOL    HW230888   4.428   3.471   9.435  0.4853  0.3274  0.0449
 6419SOL     OW30889   3.368   1.170   7.516  0.4272 -0.7141 -0.1952
 6419SOL    HW130890   3.374   1.260   7.546  1.0679 -1.2774  1.4084
 6419SOL    HW230891   3.347   1.176   7.423 -1.0478 -0.6275  0.1462
 6420SOL     OW30892   4.333   1.573   5.981  0.2475 -0.2706 -0.0248
 6420SOL    HW130893   4.387   1.600   5.906 -1.3265  1.4796 -0.5383
 6420SOL    HW230894   4.356   1.645   6.040 -0.2658 -1.5117  1.6972
 6421SOL     OW30895   2.679   3.514   8.225  0.6073  0.0608  0.0562
 6421SOL    HW130896   2.712   3.469   8.302 -2.9509 -0.3802  1.2925
 6421SOL    HW230897   2.759   3.563   8.202 -2.0987  3.2043 -2.6304
 6422SOL     OW30898   1.341   3.684   9.135 -0.5907 -0.2743 -0.1132
 6422SOL    HW130899   1.288   3.724   9.203  0.7421 -0.3135  0.9581
 6422SOL    HW230900   1.391   3.761   9.108  1.9708 -2.2233 -0.8896
 6423SOL     OW30901   2.542   3.821   5.264  0.2127  0.1255  0.0008
 6423SOL    HW130902   2.602   3.825   5.339 -1.4257 -1.1114  1.3698
 6423SOL    HW230903   2.545   3.912   5.232  1.4486  0.3068  0.6018
 6424SOL     OW30904   1.451   3.039   7.276  0.4014  0.0315 -0.2385
 6424SOL    HW130905   1.437   2.965   7.217 -1.2095 -0.4583  0.7759
 6424SOL    HW230906   1.544   3.022   7.294  0.9520 -0.1628 -3.2179
 6425SOL     OW30907   1.136   0.841  15.515  0.8850 -0.5861 -0.2532
 6425SOL    HW130908   1.064   0.894  15.550  0.3660  0.7239 -3.2509
 6425SOL    HW230909   1.099   0.805  15.434  2.0967  0.5613 -1.3267
 6426SOL     OW30910   1.018   0.558  10.650  0.6313  0.0289 -0.2412
 6426SOL    HW130911   1.037   0.613  10.573 -0.3434  0.7549  0.0367
 6426SOL    HW230912   1.096   0.503  10.656  0.4637 -0.2287 -0.4468
 6427SOL     OW30913   1.247   1.431   7.725  0.3424  0.3666 -0.2816
 6427SOL    HW130914   1.330   1.409   7.767 -0.8052 -1.2961  1.1500
 6427SOL    HW230915   1.262   1.523   7.701 -0.5252  0.0159 -2.1324
 6428SOL     OW30916   4.168   2.840   6.694  0.0501  0.4014  0.2115
 6428SOL    HW130917   4.171   2.745   6.697  0.3052  0.3852 -0.6060
 6428SOL    HW230918   4.077   2.856   6.669 -0.1450 -0.0455  0.6445
 6429SOL     OW30919   0.278   4.554   9.794 -0.0178 -0.0797 -0.1493
 6429SOL    HW130920   0.334   4.575   9.719 -0.4127  2.3893  0.2495
 6429SOL    HW230921   0.321   4.469   9.800  0.0593 -0.0368 -0.0970
 6430SOL     OW30922   3.464   1.967   1.050  0.4135 -0.0188  0.0421
 6430SOL    HW130923   3.451   1.907   0.976  0.1514  0.8748 -0.6287
 6430SOL    HW230924   3.555   1.992   1.039 -0.5467  3.8316  0.7267
 6431SOL     OW30925   0.469   0.637  15.660  0.0331 -0.2064 -0.5569
 6431SOL    HW130926   0.564   0.645  15.673  0.2920 -0.3133 -2.4001
 6431SOL    HW230927   0.449   0.730  15.671  1.6266  0.0391  0.2464
 6432SOL     OW30928   2.035   4.382  16.818 -0.5906 -0.2965  0.2810
 6432SOL    HW130929   2.048   4.388  16.723  0.1776  2.2008  0.5368
 6432SOL    HW230930   1.966   4.317  16.832 -0.2818 -0.9850 -1.3768
 6433SOL     OW30931   0.141   2.729   7.997 -0.6502 -0.0734 -0.3893
 6433SOL    HW130932   0.096   2.806   7.961  3.2648  2.6712  0.5923
 6433SOL    HW230933   0.232   2.747   7.975 -0.2898  0.2324  1.3566
 6434SOL     OW30934   3.297   4.386  14.476 -0.3993 -0.2206  0.4281
 6434SOL    HW130935   3.226   4.441  14.442 -0.7494 -1.4548 -0.8395
 6434SOL    HW230936   3.359   4.457  14.493  0.4508 -1.2977  1.7555
 6435SOL     OW30937   4.594   1.201   0.079 -0.2211  0.2042  0.4816
 6435SOL    HW130938   4.687   1.183   0.064 -0.6091 -1.0006 -0.4771
 6435SOL    HW230939   4.591   1.273   0.142 -0.6396  0.1563  0.5122
 6436SOL     OW30940   4.224   0.401  17.412  0.0207 -0.4341  0.5665
 6436SOL    HW130941   4.203   0.347  17.336  0.9313 -2.8011  2.0097
 6436SOL    HW230942   4.315   0.375  17.425  0.7953  0.4915 -2.9926
 6437SOL     OW30943   0.015   2.453   7.198 -0.5301  0.2936 -0.6387
 6437SOL    HW130944   0.069   2.470   7.276 -0.1527  0.7632 -1.0023
 6437SOL    HW230945   0.070   2.418   7.129  1.1822  0.6220  0.5387
 6438SOL     OW30946   0.220   4.369   3.158  0.3031 -0.3465  0.0406
 6438SOL    HW130947   0.290   4.380   3.094  1.3117  3.5371  1.8254
 6438SOL    HW230948   0.237   4.452   3.203  1.2903 -0.1997 -0.6134
 6439SOL     OW30949   2.209   2.025   8.823  0.1430 -0.2177  0.1942
 6439SOL    HW130950   2.144   1.961   8.794 -2.0406  0.9787  2.3759
 6439SOL    HW230951   2.247   1.973   8.894 -1.1897 -0.1238  0.9890
 6440SOL     OW30952   1.270   1.584   9.020  0.0179 -0.1099 -0.4174
 6440SOL    HW130953   1.286   1.493   9.046  1.3097 -0.2701 -1.7627
 6440SOL    HW230954   1.209   1.603   9.091  0.9839 -1.2797  0.7299
 6441SOL     OW30955   0.881   3.355  17.421  0.3511  0.3231 -0.1438
 6441SOL    HW130956   0.935   3.382  17.495  0.2201 -1.6996  0.7033
 6441SOL    HW230957   0.954   3.322  17.368  1.7101  0.8243  1.4102
 6442SOL     OW30958   0.866   3.885  14.200  0.2582  0.4459  0.0275
 6442SOL    HW130959   0.811   3.818  14.161  1.8713 -1.8210  1.6602
 6442SOL    HW230960   0.817   3.902  14.281  1.1591  0.3261  0.6003
 6443SOL     OW30961   2.162   4.558  11.524 -0.4157 -0.2557 -0.1774
 6443SOL    HW130962   2.113   4.480  11.549 -0.4549 -0.1521  0.0696
 6443SOL    HW230963   2.205   4.527  11.444  0.0290 -0.7386  0.2413
 6444SOL     OW30964   0.373   2.399   5.012  0.1319  0.1644  0.1909
 6444SOL    HW130965   0.441   2.331   5.015 -1.2989 -1.3491 -1.7631
 6444SOL    HW230966   0.289   2.353   5.018  0.1000 -0.0664 -2.2096
 6445SOL     OW30967   1.184   3.285   6.240 -0.2294  0.1531 -0.2373
 6445SOL    HW130968   1.193   3.190   6.233 -0.2123  0.1913 -0.7538
 6445SOL    HW230969   1.138   3.308   6.321  0.6663  0.2471  0.2416
 6446SOL     OW30970   3.963   2.617   6.637  0.4691 -0.0707  0.1444
 6446SOL    HW130971   3.989   2.611   6.545  2.8300  0.9387  0.7324
 6446SOL    HW230972   3.870   2.601   6.625  0.5645 -1.0532  0.7520
 6447SOL     OW30973   2.708   4.210   3.823 -0.8029  0.2659 -0.1565
 6447SOL    HW130974   2.700   4.300   3.789  2.7303  1.4012  2.0503
 6447SOL    HW230975   2.630   4.200   3.877 -0.8266  1.1482 -0.0244
 6448SOL     OW30976   0.260   2.544  15.773 -0.1954 -0.1408 -0.1876
 6448SOL    HW130977   0.319   2.497  15.713  0.6761 -0.1022  0.6292
 6448SOL    HW230978   0.329   2.573  15.833  0.7237  0.0907 -1.3626
 6449SOL     OW30979   4.420   4.527   6.011  0.0920  0.6069 -0.2445
 6449SOL    HW130980   4.358   4.582   6.060 -0.6868 -1.5490  1.1840
 6449SOL    HW230981   4.481   4.600   5.997 -0.3338  0.6263 -1.9497
 6450SOL     OW30982   1.750   3.271  15.942  0.0337  0.0609 -0.0897
 6450SOL    HW130983   1.705   3.246  15.862  0.4552  1.0073 -0.6198
 6450SOL    HW230984   1.714   3.211  16.008  2.8079 -1.6649 -0.1403
 6451SOL     OW30985   0.661   3.087   4.861 -0.3792  0.4747  0.2860
 6451SOL    HW130986   0.597   3.096   4.932  0.4838 -2.8008  1.4915
 6451SOL    HW230987   0.610   3.017   4.821  1.6160  0.1103 -1.6488
 6452SOL     OW30988   3.519   4.130   8.000  0.4103 -0.2811 -0.5407
 6452SOL    HW130989   3.470   4.142   7.919 -0.7752 -0.5178  0.1373
 6452SOL    HW230990   3.590   4.194   7.994  0.8920 -0.9037 -1.5500
 6453SOL     OW30991   4.181   4.725  17.342  0.1184  0.6553 -0.5332
 6453SOL    HW130992   4.146   4.681  17.265  0.3234 -1.3324  0.5121
 6453SOL    HW230993   4.274   4.712  17.324 -0.0237  0.5351 -1.1754
 6454SOL     OW30994   2.346   1.524   6.684 -0.7005  0.5606 -0.0911
 6454SOL    HW130995   2.364   1.524   6.590  0.1677  1.2022  0.0752
 6454SOL    HW230996   2.336   1.619   6.690 -0.3209  0.5243  1.2327
 6455SOL     OW30997   2.132   0.299   5.381 -0.1892 -0.3089  0.1283
 6455SOL    HW130998   2.213   0.250   5.392 -0.8126 -1.0271  1.5073
 6455SOL    HW230999   2.079   0.242   5.435  0.0694  0.5690  1.3229
 6456SOL     OW31000   0.434   3.104   4.987 -0.3209  0.3134 -0.0244
 6456SOL    HW131001   0.421   3.037   5.054 -0.0636  2.0248  1.7296
 6456SOL    HW231002   0.345   3.110   4.953 -1.0134 -0.7563  1.6236
 6457SOL     OW31003   3.296   3.608   5.194  0.1836 -0.7723  0.1672
 6457SOL    HW131004   3.348   3.619   5.274  0.0784  0.1151  0.1109
 6457SOL    HW231005   3.213   3.575   5.230  0.1773 -2.0450 -1.0126
 6458SOL     OW31006   3.906   1.758  11.432  0.1534  0.1797  0.6869
 6458SOL    HW131007   3.949   1.798  11.356  2.3405 -1.4030  1.0821
 6458SOL    HW231008   3.903   1.667  11.402  0.7210  0.6597 -0.8451
 6459SOL     OW31009   4.228   3.577   8.324 -0.3718 -0.6108 -0.0402
 6459SOL    HW131010   4.320   3.551   8.325 -0.0725  0.4712  0.8130
 6459SOL    HW231011   4.230   3.623   8.408  0.1716  0.3751 -0.5944
 6460SOL     OW31012   3.488   1.168   8.503  0.5472  0.2915  0.5962
 6460SOL    HW131013   3.550   1.098   8.523 -0.0555 -0.5410 -0.4155
 6460SOL    HW231014   3.428   1.120   8.445  3.3018 -0.7001 -1.4380
 6461SOL     OW31015   2.599   2.326   3.890  0.1198 -0.5946  0.2375
 6461SOL    HW131016   2.581   2.407   3.843  0.9400 -0.4927  0.1014
 6461SOL    HW231017   2.689   2.314   3.859  0.6555 -0.5770  1.7797
 6462SOL     OW31018   1.148   3.993  13.173 -0.1541 -0.6909 -0.3774
 6462SOL    HW131019   1.215   3.988  13.105 -0.0923  0.1350 -0.3818
 6462SOL    HW231020   1.194   3.970  13.254  1.4548  1.2237 -0.7394
 6463SOL     OW31021   3.034   4.363  10.805 -0.2607 -0.2899 -0.6119
 6463SOL    HW131022   3.122   4.383  10.838 -0.4603 -0.1675 -0.1527
 6463SOL    HW231023   2.996   4.448  10.787  1.4383  0.6771  0.2959
 6464SOL     OW31024   3.697   4.236  13.315  0.2112 -0.7429 -0.3628
 6464SOL    HW131025   3.679   4.267  13.404 -0.2840 -1.2733 -0.2788
 6464SOL    HW231026   3.611   4.196  13.305 -0.2923 -0.1197  1.4850
 6465SOL     OW31027   2.254   3.713   8.005 -0.3508  0.5400  0.2038
 6465SOL    HW131028   2.231   3.710   7.912  0.1166  0.5277  0.0909
 6465SOL    HW231029   2.253   3.808   8.012 -0.4598  0.4414  1.6320
 6466SOL     OW31030   2.530   2.664   3.065  0.2546  0.0676 -0.6119
 6466SOL    HW131031   2.507   2.626   2.980  1.7458 -0.8663 -0.6059
 6466SOL    HW231032   2.447   2.652   3.111  1.0582  1.8488  1.3144
 6467SOL     OW31033   1.378   1.812   5.690  0.1476  0.2509 -0.0549
 6467SOL    HW131034   1.332   1.732   5.715 -0.4539  0.4098 -0.6500
 6467SOL    HW231035   1.469   1.784   5.701  0.2374  0.5608 -0.0016
 6468SOL     OW31036   0.780   3.881  14.707 -0.7444  0.2408 -1.1000
 6468SOL    HW131037   0.808   3.792  14.685  1.1013  0.6393 -0.3288
 6468SOL    HW231038   0.751   3.866  14.797 -0.4423  0.1493 -1.0190
 6469SOL     OW31039   2.232   3.089   9.070 -0.5552 -0.1682 -0.3835
 6469SOL    HW131040   2.198   2.999   9.074  1.3512 -0.7541  2.1704
 6469SOL    HW231041   2.302   3.083   9.135  1.1710  0.7794 -2.1549
 6470SOL     OW31042   1.036   3.165   4.291 -0.2447  0.1255  0.0721
 6470SOL    HW131043   1.070   3.099   4.230  1.3262 -1.0628  2.2326
 6470SOL    HW231044   1.051   3.127   4.377  1.3216  0.9071  0.1488
 6471SOL     OW31045   2.022   4.132   3.615 -0.5524  0.2854 -0.2294
 6471SOL    HW131046   2.046   4.047   3.653  0.6078  0.1240 -1.3169
 6471SOL    HW231047   2.007   4.178   3.698 -2.0319  0.9496 -0.8653
 6472SOL     OW31048   3.692   2.052   7.202  0.2770 -0.7752 -0.0257
 6472SOL    HW131049   3.643   1.976   7.235  2.0575 -2.5821 -1.4897
 6472SOL    HW231050   3.731   2.082   7.284  2.7405  0.5995 -1.7103
 6473SOL     OW31051   0.744   4.418  13.531  0.4242  0.9139  0.1278
 6473SOL    HW131052   0.767   4.393  13.442  2.3254  2.2039  0.2661
 6473SOL    HW231053   0.671   4.478  13.517 -1.5254 -1.6560 -0.7647
 6474SOL     OW31054   0.744   3.241   1.359  0.4288  0.8607  0.0594
 6474SOL    HW131055   0.826   3.235   1.310 -0.6959 -1.2677 -1.5894
 6474SOL    HW231056   0.690   3.286   1.293  0.4355 -0.1017 -0.5963
 6475SOL     OW31057   4.071   0.882  10.978  0.0594  0.3851 -0.3019
 6475SOL    HW131058   4.066   0.957  11.038  0.0952  0.2041 -0.0729
 6475SOL    HW231059   3.987   0.838  10.987  1.1061 -1.7714 -1.1325
 6476SOL     OW31060   4.672   2.569   3.953  0.3099 -0.2373  0.3179
 6476SOL    HW131061   4.637   2.488   3.990  0.0323  0.3108  1.2584
 6476SOL    HW231062   0.015   2.575   4.008  1.0913  0.5663 -0.8718
 6477SOL     OW31063   0.192   2.179   4.732 -0.0902  0.1406  0.3346
 6477SOL    HW131064   0.142   2.121   4.675  0.4430  0.0080  0.0037
 6477SOL    HW231065   0.209   2.244   4.663  0.1001 -0.6252 -0.3327
 6478SOL     OW31066   2.592   1.255   4.607 -0.2598  0.4199  0.3952
 6478SOL    HW131067   2.652   1.185   4.583  0.2783  0.5812  1.2298
 6478SOL    HW231068   2.562   1.276   4.519  1.4853 -0.0039 -0.2988
 6479SOL     OW31069   2.515   1.425   7.461  0.3665 -0.0092  0.1725
 6479SOL    HW131070   2.537   1.362   7.393 -1.6892 -1.8073  1.1914
 6479SOL    HW231071   2.432   1.389   7.492 -0.5700 -0.2966 -2.6302
 6480SOL     OW31072   4.245   1.965   6.613 -0.0675  0.0566 -0.2385
 6480SOL    HW131073   4.193   1.965   6.694  1.3724 -1.0596  0.7049
 6480SOL    HW231074   4.238   2.057   6.588  2.8334 -0.0899 -1.5888
 6481SOL     OW31075   3.893   1.179  12.420 -0.0957  0.3139  0.2926
 6481SOL    HW131076   3.977   1.133  12.413 -0.6493 -0.7192  0.3499
 6481SOL    HW231077   3.853   1.136  12.496 -0.4531 -0.1847 -0.1762
 6482SOL     OW31078   4.326   3.217  15.081  0.2813  0.2397 -0.6008
 6482SOL    HW131079   4.398   3.277  15.101 -1.3844  2.2079 -0.5452
 6482SOL    HW231080   4.305   3.182  15.167  2.0769  2.1020  0.5948
 6483SOL     OW31081   2.400   2.851   6.966  0.1734  0.2889  0.0490
 6483SOL    HW131082   2.324   2.838   7.023  0.2834  1.1759  0.4004
 6483SOL    HW231083   2.462   2.865   7.038  0.1680 -2.0651  0.5196
 6484SOL     OW31084   3.403   2.314   8.209  0.1246 -0.2073  0.2927
 6484SOL    HW131085   3.496   2.335   8.219  0.1040 -0.7468  1.6206
 6484SOL    HW231086   3.414   2.238   8.151 -0.0940 -0.8747  1.1222
 6485SOL     OW31087   2.919   0.454   4.286  0.5570  0.2378 -0.0609
 6485SOL    HW131088   2.992   0.394   4.305  1.0971  1.2306  1.0116
 6485SOL    HW231089   2.956   0.478   4.201  2.0409 -2.5954 -0.2387
 6486SOL     OW31090   1.915   0.910   0.611  0.6899 -0.6150  0.0024
 6486SOL    HW131091   1.872   0.941   0.691 -0.9802  1.2748 -1.6226
 6486SOL    HW231092   1.842   0.865   0.568 -0.8135  0.2603  1.6291
 6487SOL     OW31093   4.351   4.171   7.633  0.6912 -0.0198  0.3036
 6487SOL    HW131094   4.399   4.109   7.688 -0.5592 -0.8556  0.4697
 6487SOL    HW231095   4.279   4.198   7.690 -0.6758 -0.9737 -0.9727
 6488SOL     OW31096   4.362   2.912  17.040  0.1475 -0.4309 -0.2395
 6488SOL    HW131097   4.422   2.880  16.972 -0.6153 -1.7537 -0.2832
 6488SOL    HW231098   4.364   2.838  17.101  1.2831  1.0201  1.4747
 6489SOL     OW31099   2.165   2.953  12.900  0.2902  0.3427  0.2707
 6489SOL    HW131100   2.184   2.936  12.992 -2.0207  2.1817  1.0818
 6489SOL    HW231101   2.113   3.032  12.915 -1.7466 -1.0085  0.3846
 6490SOL     OW31102   3.525   0.924  15.655 -0.8821 -0.6000  0.0447
 6490SOL    HW131103   3.495   0.888  15.572  0.0994 -0.4949 -0.3555
 6490SOL    HW231104   3.479   1.008  15.659  2.3525  1.2798 -2.1116
 6491SOL     OW31105   0.542   2.023  12.989 -0.4020  0.0583  0.4495
 6491SOL    HW131106   0.536   2.090  12.921  1.9061 -0.5148 -0.3440
 6491SOL    HW231107   0.562   2.078  13.065 -0.4835 -0.2114  0.6623
 6492SOL     OW31108   2.862   4.083   3.638  0.0117 -0.2778 -0.0517
 6492SOL    HW131109   2.796   4.132   3.688  0.4702 -1.0029  1.2672
 6492SOL    HW231110   2.913   4.046   3.710  0.4754  0.0341 -0.2188
 6493SOL     OW31111   2.280   0.938  17.331 -0.1877 -0.9628 -0.8300
 6493SOL    HW131112   2.293   0.893  17.248  0.0821 -1.4963 -0.4976
 6493SOL    HW231113   2.224   0.884  17.387  0.6373 -1.6795 -0.6907
 6494SOL     OW31114   4.574   3.305   3.380  0.0727  0.0844  0.4913
 6494SOL    HW131115   4.624   3.332   3.457 -0.2623  3.0028 -0.2947
 6494SOL    HW231116   4.639   3.289   3.311  1.0634  0.4670  1.3290
 6495SOL     OW31117   0.576   3.306   0.936  0.0091 -0.5724 -0.0601
 6495SOL    HW131118   0.585   3.322   1.030  0.6730 -1.4692  0.0284
 6495SOL    HW231119   0.505   3.243   0.926  0.8185 -1.1695 -2.1106
 6496SOL     OW31120   1.158   3.696  14.517  0.0488  0.0005  0.0396
 6496SOL    HW131121   1.122   3.678  14.431  1.7822 -0.3362 -0.6238
 6496SOL    HW231122   1.118   3.780  14.543  0.5038  0.7194 -1.6070
 6497SOL     OW31123   0.067   3.148   5.456  0.2535  0.1084  0.3214
 6497SOL    HW131124   0.147   3.200   5.467  0.9585 -0.2835 -2.8767
 6497SOL    HW231125   0.006   3.215   5.426  2.2251  0.8777 -1.9706
 6498SOL     OW31126   4.660   4.142   8.454 -0.0326  0.2975 -0.6389
 6498SOL    HW131127   4.727   4.201   8.488  1.1583 -1.3163 -0.2141
 6498SOL    HW231128   4.580   4.161   8.504 -0.5852 -3.2757 -0.1456
 6499SOL     OW31129   3.359   2.522  17.645  0.5421  0.1313 -0.2481
 6499SOL    HW131130   3.423   2.480  17.702 -1.6756 -3.7691 -0.6203
 6499SOL    HW231131   3.273   2.506  17.685 -0.2678 -0.0730 -2.0945
 6500SOL     OW31132   2.358   1.406   4.483 -0.3930 -0.2128 -0.4758
 6500SOL    HW131133   2.375   1.364   4.399 -0.9091  1.0531 -1.2093
 6500SOL    HW231134   2.296   1.470   4.449 -1.1930 -0.3602  0.7230
 6501SOL     OW31135   3.291   3.987   9.636 -0.3838 -0.4083 -0.3509
 6501SOL    HW131136   3.342   4.041   9.576  0.6852 -1.2406 -0.1990
 6501SOL    HW231137   3.349   3.912   9.648  2.3563  1.7256 -0.3006
 6502SOL     OW31138   1.459   4.658   7.675  0.3633 -0.7710 -0.1008
 6502SOL    HW131139   1.408   4.633   7.598 -0.9450  3.8509 -0.7536
 6502SOL    HW231140   1.444   0.018   7.669  1.5228 -0.6735 -1.4615
 6503SOL     OW31141   1.441   3.611   1.596  0.6173 -0.3161 -0.0957
 6503SOL    HW131142   1.457   3.592   1.503 -1.0779  0.8805 -0.6291
 6503SOL    HW231143   1.472   3.529   1.635  0.4344  0.1192  0.9550
 6504SOL     OW31144   0.827   2.953   6.663 -0.1703 -0.0761 -0.1556
 6504SOL    HW131145   0.833   2.867   6.706  1.9974  1.8006  3.2749
 6504SOL    HW231146   0.917   2.985   6.655 -0.0701 -1.0395 -2.9309
 6505SOL     OW31147   3.132   4.318   2.258 -0.1890  0.0550  0.2871
 6505SOL    HW131148   3.191   4.270   2.316 -1.0700 -2.7809 -1.1521
 6505SOL    HW231149   3.144   4.408   2.288 -0.6314 -0.2105  1.2414
 6506SOL     OW31150   2.049   3.472   5.605 -0.1027  0.3223  0.0509
 6506SOL    HW131151   2.096   3.528   5.667 -0.8430  0.0676  0.8303
 6506SOL    HW231152   1.972   3.521   5.577  1.0230  1.1100 -1.6856
 6507SOL     OW31153   2.520   4.295   6.577  0.4712  0.3099 -0.2103
 6507SOL    HW131154   2.570   4.327   6.652 -1.9095  1.5256  0.8632
 6507SOL    HW231155   2.461   4.231   6.619  1.6184 -0.5723  0.0582
 6508SOL     OW31156   4.354   3.255  11.376 -0.3290  0.2381 -0.3713
 6508SOL    HW131157   4.439   3.263  11.420  0.9010 -0.3675 -2.6391
 6508SOL    HW231158   4.324   3.346  11.380  1.8815  0.9750 -0.4442
 6509SOL     OW31159   1.576   3.891   3.606  0.2222 -0.2170 -0.0021
 6509SOL    HW131160   1.531   3.843   3.675 -1.0383 -0.1209 -0.7739
 6509SOL    HW231161   1.499   3.938   3.574  1.3303 -0.2774 -2.7807
 6510SOL     OW31162   2.195   1.997  10.942  0.2573  0.1989 -0.2309
 6510SOL    HW131163   2.182   1.975  11.034  1.6285  0.0091 -0.0735
 6510SOL    HW231164   2.262   1.931  10.923 -0.1693 -0.2979 -0.0054
 6511SOL     OW31165   1.628   4.471   4.863 -0.0670 -0.1083  0.1820
 6511SOL    HW131166   1.598   4.382   4.844 -2.9531  0.7130  0.8901
 6511SOL    HW231167   1.683   4.445   4.936  1.3703  2.1554 -0.0899
 6512SOL     OW31168   2.668   0.021   9.111 -0.1409 -0.5310 -1.1044
 6512SOL    HW131169   2.717   0.017   9.193  0.5878  0.5798 -1.4868
 6512SOL    HW231170   2.578   0.006   9.140 -0.1353  1.0913 -0.2185
 6513SOL     OW31171   3.987   0.856   5.269  0.7687  0.0154  0.5740
 6513SOL    HW131172   4.068   0.807   5.256 -0.2326 -1.4372 -0.1488
 6513SOL    HW231173   3.940   0.799   5.330 -0.0391  1.1500  1.0289
 6514SOL     OW31174   0.282   1.229   8.417 -0.6280  0.5166 -1.0165
 6514SOL    HW131175   0.311   1.192   8.334  0.4076 -0.6521 -0.1458
 6514SOL    HW231176   0.227   1.298   8.381 -1.6914  1.1736  1.8631
 6515SOL     OW31177   4.283   3.635  15.263 -0.2939  0.0794  0.0933
 6515SOL    HW131178   4.189   3.628  15.246 -0.1967 -1.1110  0.0473
 6515SOL    HW231179   4.295   3.555  15.314  1.8777 -0.6458 -1.5846
 6516SOL     OW31180   1.162   4.530   0.918 -0.3423 -0.2446 -0.6021
 6516SOL    HW131181   1.178   4.515   0.824  1.0175 -0.7332 -0.2999
 6516SOL    HW231182   1.077   4.489   0.929  0.3552 -0.7631  2.9447
 6517SOL     OW31183   2.973   3.320   8.554 -0.0545 -0.1441 -0.0861
 6517SOL    HW131184   2.909   3.327   8.624  2.1796 -3.0273  2.2066
 6517SOL    HW231185   2.912   3.340   8.483  0.5518  0.8676 -0.3274
 6518SOL     OW31186   0.395   1.946   9.043 -0.2733  0.1284 -0.3420
 6518SOL    HW131187   0.387   1.995   8.961 -2.1496  0.0261 -0.2298
 6518SOL    HW231188   0.401   2.014   9.110  0.2043  0.1610 -0.4235
 6519SOL     OW31189   0.190   2.755  10.702  0.3351 -0.0609  0.3280
 6519SOL    HW131190   0.257   2.824  10.699  0.0176  0.3106  1.9448
 6519SOL    HW231191   0.140   2.784  10.625 -0.9349  2.9968  2.3132
 6520SOL     OW31192   3.534   4.509  15.047 -0.0843 -0.0607 -0.1273
 6520SOL    HW131193   3.527   4.599  15.078  1.6893  0.1055 -0.2311
 6520SOL    HW231194   3.603   4.526  14.983 -0.5945 -1.1132 -0.9629
 6521SOL     OW31195   3.992   4.166  10.151 -0.1413 -0.0956  0.2382
 6521SOL    HW131196   3.967   4.258  10.146 -1.8613 -0.5652  0.1529
 6521SOL    HW231197   4.079   4.180  10.114 -0.8358  0.6899 -1.0878
 6522SOL     OW31198   3.250   1.279  11.752  0.5953  0.3815 -0.8041
 6522SOL    HW131199   3.220   1.280  11.661 -1.4076 -3.0398 -0.1961
 6522SOL    HW231200   3.175   1.328  11.786  0.7415  1.1306 -1.5706
 6523SOL     OW31201   3.663   4.563   6.271 -0.2333  0.7297  0.5378
 6523SOL    HW131202   3.605   4.622   6.223  1.0411  0.6437 -1.1325
 6523SOL    HW231203   3.653   4.478   6.229 -0.9527  1.2188 -0.2737
 6524SOL     OW31204   3.558   4.718  13.984  0.1076  0.4627  0.3599
 6524SOL    HW131205   3.526   4.644  14.034 -0.8630  1.7934  1.7100
 6524SOL    HW231206   3.652   4.710  14.001  0.0328 -3.7808 -1.4007
 6525SOL     OW31207   3.901   3.061   4.071  0.7820  0.2253 -0.0289
 6525SOL    HW131208   3.832   2.995   4.059 -0.4471  1.6300 -0.6681
 6525SOL    HW231209   3.879   3.118   3.998 -0.0837 -0.9578 -0.6979
 6526SOL     OW31210   2.940   2.584  14.520 -0.0135 -0.0216 -0.3494
 6526SOL    HW131211   2.883   2.547  14.454 -0.4261 -0.3730  0.2025
 6526SOL    HW231212   2.928   2.678  14.505  3.2729  0.5994  0.7875
 6527SOL     OW31213   3.141   4.491   8.722  0.4228  0.1068  0.6060
 6527SOL    HW131214   3.057   4.478   8.765  0.1362  0.1133  0.0514
 6527SOL    HW231215   3.153   4.406   8.681 -0.5945 -0.1032  0.7328
 6528SOL     OW31216   1.069   2.501  17.473 -0.0636  0.7471  0.1066
 6528SOL    HW131217   1.148   2.545  17.443  1.9467 -0.2201  4.0132
 6528SOL    HW231218   1.038   2.480  17.385  1.2275 -1.1645  0.1041
 6529SOL     OW31219   3.634   4.176  17.048  0.3575  0.3616 -0.5434
 6529SOL    HW131220   3.722   4.195  17.013  0.5702  1.8130  0.7885
 6529SOL    HW231221   3.613   4.127  16.968  1.1101  0.3145 -0.7146
 6530SOL     OW31222   1.216   0.663   6.087  0.0426  0.0769 -0.2673
 6530SOL    HW131223   1.182   0.574   6.094  1.2331 -0.1523  2.6204
 6530SOL    HW231224   1.134   0.706   6.061  0.2384  0.3045 -0.5055
 6531SOL     OW31225   0.888   0.988   2.518 -0.6441 -0.2108 -0.1640
 6531SOL    HW131226   0.923   0.942   2.594 -0.4767  3.0577  1.7455
 6531SOL    HW231227   0.879   1.078   2.550 -0.3378 -1.1795  2.6763
 6532SOL     OW31228   3.941   0.345   8.830  0.4659  0.2746  0.4076
 6532SOL    HW131229   3.891   0.409   8.779  1.2113  0.2862 -0.3006
 6532SOL    HW231230   4.000   0.312   8.763  0.2238  1.0308 -0.1862
 6533SOL     OW31231   2.371   0.387   8.239 -1.0346  0.1953 -0.5891
 6533SOL    HW131232   2.355   0.333   8.162  0.4143  0.1549 -0.8614
 6533SOL    HW231233   2.343   0.328   8.308 -0.7607 -1.9695 -2.3488
 6534SOL     OW31234   0.971   3.288   6.862 -0.1308  0.2528 -0.0947
 6534SOL    HW131235   0.975   3.204   6.907 -2.8792  0.7698  1.1065
 6534SOL    HW231236   0.930   3.261   6.780 -1.2668  0.7190  0.3269
 6535SOL     OW31237   0.104   3.494   9.052 -0.2378  0.6341 -0.2525
 6535SOL    HW131238   0.182   3.441   9.038 -1.4028 -1.4211  1.0314
 6535SOL    HW231239   0.045   3.421   9.072 -0.3037  0.5514 -0.7478
 6536SOL     OW31240   0.961   4.001   7.817  0.3903 -0.2326 -0.4071
 6536SOL    HW131241   0.914   4.084   7.825 -1.6445 -1.3494 -0.6448
 6536SOL    HW231242   0.895   3.946   7.775 -1.6726  0.2722  2.1995
 6537SOL     OW31243   0.232   2.339   3.631 -0.2686 -0.0852 -0.0560
 6537SOL    HW131244   0.140   2.367   3.629 -0.6262 -1.2412  0.4403
 6537SOL    HW231245   0.248   2.343   3.537 -0.5507  0.6345 -0.0785
 6538SOL     OW31246   3.609   0.313   8.972 -0.7280  0.0673 -0.7758
 6538SOL    HW131247   3.641   0.241   8.918  1.8761  1.6316 -1.3095
 6538SOL    HW231248   3.532   0.345   8.925 -2.0588 -0.8157  0.7788
 6539SOL     OW31249   1.311   0.305  13.027 -0.2516 -0.0631  0.5534
 6539SOL    HW131250   1.372   0.231  13.031 -0.9023 -0.5988  0.4732
 6539SOL    HW231251   1.362   0.370  12.979  2.6193 -1.6884  1.3483
 6540SOL     OW31252   3.605   0.926  13.658  0.0776 -0.0363  0.1897
 6540SOL    HW131253   3.547   0.921  13.734 -1.7534  0.5555 -1.1728
 6540SOL    HW231254   3.558   0.976  13.591 -0.6221  1.5683  1.8837
 6541SOL     OW31255   1.742   2.066   7.652 -0.5223 -0.3550 -0.2160
 6541SOL    HW131256   1.800   2.047   7.578 -1.3940 -2.1279 -0.4635
 6541SOL    HW231257   1.785   2.144   7.686  0.7833 -0.8048 -0.8403
 6542SOL     OW31258   3.584   2.657   5.048  0.2192  0.0410  0.4352
 6542SOL    HW131259   3.650   2.701   4.995  0.0969 -0.8243 -0.4236
 6542SOL    HW231260   3.578   2.729   5.112  0.0237 -1.4436  2.0944
 6543SOL     OW31261   1.089   3.905  14.783  0.6340 -0.1453 -0.1106
 6543SOL    HW131262   1.084   3.968  14.711 -0.1441 -0.0582  0.0250
 6543SOL    HW231263   1.161   3.939  14.836  0.1602  0.3774  0.1849
 6544SOL     OW31264   0.052   2.255  12.072  0.5481  0.3815  0.0155
 6544SOL    HW131265   0.045   2.164  12.102  0.8798 -0.0074 -1.1065
 6544SOL    HW231266   0.006   2.246  11.988  0.7877  0.5985 -0.1368
 6545SOL     OW31267   2.622   1.191  13.255  0.3896  0.2040 -0.0563
 6545SOL    HW131268   2.560   1.245  13.304  1.2703  1.5936 -0.4647
 6545SOL    HW231269   2.585   1.104  13.241 -1.8413  0.7874  2.2527
 6546SOL     OW31270   1.234   4.183   9.825 -0.1362 -0.4089 -0.0680
 6546SOL    HW131271   1.150   4.199   9.868  0.5721  0.9689  0.8054
 6546SOL    HW231272   1.297   4.222   9.884 -1.9087  1.0883  0.8483
 6547SOL     OW31273   4.724   1.229   3.183  0.1271  0.1935 -0.5403
 6547SOL    HW131274   4.640   1.184   3.191 -0.6669  1.7156 -0.2975
 6547SOL    HW231275   0.049   1.166   3.143 -0.6412 -0.5965 -0.4337
 6548SOL     OW31276   0.993   4.236   9.937 -0.1102 -0.3814 -0.2241
 6548SOL    HW131277   0.963   4.326   9.950  0.2979 -0.5264  1.6916
 6548SOL    HW231278   0.929   4.191   9.991  0.0293  0.8573  0.9789
 6549SOL     OW31279   1.353   0.732   4.824 -0.3931  0.1213 -0.3703
 6549SOL    HW131280   1.259   0.723   4.835 -0.3723  0.8783  0.4286
 6549SOL    HW231281   1.378   0.824   4.816 -1.5344  0.3886 -0.7373
 6550SOL     OW31282   0.401   2.294   2.825  0.4973 -0.4289 -0.1170
 6550SOL    HW131283   0.433   2.221   2.878 -0.9908  0.2987  1.7724
 6550SOL    HW231284   0.434   2.365   2.880 -0.3847 -1.5632  1.8709
 6551SOL     OW31285   4.022   4.380   4.539  0.0510 -0.0375  0.2669
 6551SOL    HW131286   3.939   4.342   4.568 -0.2646 -0.2829 -0.9428
 6551SOL    HW231287   4.054   4.325   4.467 -0.4609 -0.9400  0.7274
 6552SOL     OW31288   3.168   2.157   5.088  0.1343  0.5378 -0.4162
 6552SOL    HW131289   3.190   2.180   4.997 -0.6046 -0.1043 -0.7538
 6552SOL    HW231290   3.104   2.222   5.117 -1.0404 -1.1315  0.7067
 6553SOL     OW31291   3.300   4.491   5.619 -0.5608 -0.7092  0.5210
 6553SOL    HW131292   3.327   4.421   5.678 -0.2698  0.4570  1.7605
 6553SOL    HW231293   3.374   4.482   5.560  1.9115  0.4776  3.4640
 6554SOL     OW31294   1.665   0.823   1.455  0.4131  0.1745  0.8291
 6554SOL    HW131295   1.732   0.756   1.456  1.1294  0.8782 -2.5051
 6554SOL    HW231296   1.715   0.901   1.480  0.0165  1.3617 -2.1756
 6555SOL     OW31297   4.097   4.232  12.261 -0.1765 -0.3253  0.0244
 6555SOL    HW131298   4.120   4.201  12.348 -0.8365 -1.0239 -0.0499
 6555SOL    HW231299   4.094   4.326  12.281  2.5969 -0.9557  3.2702
 6556SOL     OW31300   4.677   4.681   2.227  0.3791 -0.4056  0.2440
 6556SOL    HW131301   4.701   0.009   2.295  0.0814  0.5354 -0.5317
 6556SOL    HW231302   4.673   4.727   2.143 -2.0673 -2.3913 -0.7180
 6557SOL     OW31303   2.483   0.540  12.288 -0.1087 -0.2616 -0.6328
 6557SOL    HW131304   2.560   0.595  12.276 -1.0205  1.1688  0.0665
 6557SOL    HW231305   2.415   0.571  12.228  0.6694  2.1025 -0.2763
 6558SOL     OW31306   3.439   1.087   0.078  0.2998 -0.2678 -0.0836
 6558SOL    HW131307   3.446   0.997   0.048  1.5824 -0.3919  0.5711
 6558SOL    HW231308   3.352   1.123   0.058  0.7527  0.5345 -0.5902
 6559SOL     OW31309   0.246   2.073  12.333  0.6600 -0.2455 -0.3847
 6559SOL    HW131310   0.306   2.125  12.279  0.0298  0.9828  0.0928
 6559SOL    HW231311   0.173   2.056  12.274 -0.2477  0.3506  0.5744
 6560SOL     OW31312   0.041   3.927   5.677  0.2271  0.2632 -0.1404
 6560SOL    HW131313   0.059   3.911   5.584  0.2156  0.9446 -0.2608
 6560SOL    HW231314   0.038   4.023   5.668 -0.0313  0.3523  0.9722
 6561SOL     OW31315   4.018   3.343   3.932 -0.2679 -0.4778 -0.1132
 6561SOL    HW131316   3.963   3.307   3.861 -0.5651  1.3785 -0.8243
 6561SOL    HW231317   4.108   3.332   3.901 -1.5424 -1.9452 -3.4102
 6562SOL     OW31318   3.396   1.276   0.495 -0.5641 -0.0847 -0.4353
 6562SOL    HW131319   3.420   1.364   0.525  1.8834 -1.2799  1.0798
 6562SOL    HW231320   3.354   1.305   0.414  0.3189 -0.0741 -0.8891
 6563SOL     OW31321   3.217   0.322   7.866  0.3564  0.0936 -0.1756
 6563SOL    HW131322   3.143   0.335   7.806  0.1148  0.8579  0.2972
 6563SOL    HW231323   3.292   0.358   7.817  0.6853  1.1202  1.0857
 6564SOL     OW31324   2.010   4.015   0.116 -0.4002 -0.0957  0.3292
 6564SOL    HW131325   1.973   3.930   0.141  2.2588 -1.5208 -0.6632
 6564SOL    HW231326   1.945   4.072   0.159  0.1546  0.0423  0.9882
 6565SOL     OW31327   4.713   0.855   1.426  0.2145  0.6231  0.5699
 6565SOL    HW131328   4.666   0.807   1.358  1.0700  1.4442 -0.6012
 6565SOL    HW231329   0.070   0.845   1.402  0.5163  1.2218  1.4635
 6566SOL     OW31330   2.821   3.250   5.161  0.0302 -0.3054 -0.1297
 6566SOL    HW131331   2.751   3.306   5.195  0.3451 -0.2724  0.4620
 6566SOL    HW231332   2.863   3.307   5.097 -0.4434 -1.5560 -1.5436
 6567SOL     OW31333   2.553   3.630   6.997 -0.3440 -0.0464 -0.0075
 6567SOL    HW131334   2.645   3.652   6.985 -0.8176  0.8169 -2.1178
 6567SOL    HW231335   2.521   3.711   7.037  1.1066  1.5461 -2.0712
 6568SOL     OW31336   3.123   2.992   1.039  0.2358  0.6345 -0.0285
 6568SOL    HW131337   3.093   3.003   0.948  1.4839  1.7299 -0.2983
 6568SOL    HW231338   3.214   2.966   1.027 -0.6096 -2.3522  0.1008
 6569SOL     OW31339   2.964   2.219   4.718  0.0242  0.4528  0.2207
 6569SOL    HW131340   3.056   2.239   4.703  0.5239 -0.8256  1.5968
 6569SOL    HW231341   2.961   2.123   4.713  2.2862  0.5466 -2.7627
 6570SOL     OW31342   3.878   0.124  12.031 -0.3236 -0.3710 -0.3698
 6570SOL    HW131343   3.817   0.054  12.056  0.3169  0.2949  3.0435
 6570SOL    HW231344   3.937   0.085  11.966 -0.7817 -0.9215 -0.4635
 6571SOL     OW31345   0.585   2.843  10.764  0.3353  0.7190  0.3040
 6571SOL    HW131346   0.511   2.899  10.787  1.2156  2.1124 -0.2370
 6571SOL    HW231347   0.602   2.803  10.850 -0.4352 -0.1323  0.0606
 6572SOL     OW31348   3.827   1.038  17.280 -0.8870  0.2256  0.2809
 6572SOL    HW131349   3.898   1.056  17.340  0.3339  0.4102 -1.2180
 6572SOL    HW231350   3.759   1.080  17.333 -1.9562  0.0520 -0.9319
 6573SOL     OW31351   0.194   0.062   9.847  0.1713  0.2695 -0.1520
 6573SOL    HW131352   0.275   0.108   9.825  1.4849 -1.2870  1.4451
 6573SOL    HW231353   0.226   4.708   9.829 -4.2944 -0.9504 -2.1451
 6574SOL     OW31354   3.575   3.546  11.649 -0.8733  0.0588  0.4785
 6574SOL    HW131355   3.636   3.524  11.719 -1.1780  0.8067  0.9903
 6574SOL    HW231356   3.634   3.577  11.581  0.5748 -0.5609  1.4523
 6575SOL     OW31357   4.620   0.457   6.745 -0.1570 -0.3235  0.5184
 6575SOL    HW131358   4.573   0.540   6.750  1.0694  0.4477 -0.6557
 6575SOL    HW231359   4.628   0.439   6.839  0.7500  1.1761  0.7354
 6576SOL     OW31360   2.142   3.779   4.876  0.3425  0.1503 -0.0958
 6576SOL    HW131361   2.083   3.809   4.807 -0.7484 -0.7547  0.4215
 6576SOL    HW231362   2.171   3.701   4.829 -0.5782 -0.5027  0.3995
 6577SOL     OW31363   3.684   2.399  12.202 -0.1138  0.4036 -0.6584
 6577SOL    HW131364   3.591   2.381  12.185  0.1023  0.0181 -1.4493
 6577SOL    HW231365   3.693   2.319  12.254 -1.1533  1.7012  1.5480
 6578SOL     OW31366   0.951   3.846   0.309 -0.7955 -0.3013 -0.1885
 6578SOL    HW131367   0.962   3.782   0.238 -0.7336  1.4375 -1.7494
 6578SOL    HW231368   1.033   3.833   0.356 -0.3081  0.7933 -0.7334
 6579SOL     OW31369   4.126   1.375   6.022  0.1018  0.0671  0.2070
 6579SOL    HW131370   4.191   1.442   6.001 -0.2182 -0.1249 -1.3773
 6579SOL    HW231371   4.174   1.301   5.986 -2.6599 -0.8706 -1.6082
 6580SOL     OW31372   4.094   1.679   5.187  0.3603 -0.0523 -0.3088
 6580SOL    HW131373   4.123   1.761   5.146 -3.6676  1.2234 -0.5695
 6580SOL    HW231374   4.054   1.629   5.116 -0.7988  1.5276 -0.7886
 6581SOL     OW31375   2.268   0.083   9.112 -0.4217 -0.4092  0.3208
 6581SOL    HW131376   2.316   0.050   9.036 -1.2202 -0.5306 -0.1295
 6581SOL    HW231377   2.195   0.023   9.101 -1.0078  0.5757 -1.2522
 6582SOL     OW31378   1.257   1.081  12.485 -0.0092  0.0922 -0.1172
 6582SOL    HW131379   1.188   1.070  12.550  0.0400 -1.7134 -0.3790
 6582SOL    HW231380   1.331   1.066  12.543 -0.4151  0.8222  0.5860
 6583SOL     OW31381   0.956   0.404   2.102 -0.2518 -0.4908  0.4818
 6583SOL    HW131382   1.015   0.344   2.147  0.7833  0.0384 -0.1554
 6583SOL    HW231383   0.997   0.491   2.096  0.3391 -1.0060 -3.0128
 6584SOL     OW31384   3.616   3.205  17.018 -0.4835  0.1526  0.0083
 6584SOL    HW131385   3.542   3.167  16.972  0.0775  2.6072 -2.9189
 6584SOL    HW231386   3.567   3.269  17.070  1.5276  1.5084  0.2734
 6585SOL     OW31387   1.301   1.011   0.660 -0.4473  0.0489  0.7483
 6585SOL    HW131388   1.370   1.027   0.596 -0.2098  0.3937  1.0925
 6585SOL    HW231389   1.289   0.916   0.655 -0.6156  0.1185 -0.1957
 6586SOL     OW31390   2.767   2.428   2.794 -0.0376  0.1465 -0.3178
 6586SOL    HW131391   2.800   2.459   2.710  2.9690  1.6198  1.4104
 6586SOL    HW231392   2.675   2.443   2.772 -0.2821  0.6888  1.0309
 6587SOL     OW31393   2.798   1.774   6.462 -0.3468 -0.4322 -0.0207
 6587SOL    HW131394   2.708   1.788   6.492  0.1499  2.8593 -0.1174
 6587SOL    HW231395   2.824   1.865   6.453 -1.2673 -0.1220  0.3889
 6588SOL     OW31396   0.603   3.779   6.431  0.1463 -0.2688  0.0586
 6588SOL    HW131397   0.586   3.872   6.444  1.8002 -0.1853  1.6431
 6588SOL    HW231398   0.595   3.779   6.336  1.3982 -0.8755 -0.0467
 6589SOL     OW31399   4.713   2.346   6.310 -0.2466 -0.1883  0.0288
 6589SOL    HW131400   4.706   2.430   6.355 -0.9941 -0.2426  0.0126
 6589SOL    HW231401   4.734   2.377   6.221 -0.8604  1.6986  0.5289
 6590SOL     OW31402   2.996   3.408   8.979 -0.2249 -0.0617  0.0297
 6590SOL    HW131403   2.937   3.411   8.904  0.5922 -2.2407 -0.6964
 6590SOL    HW231404   3.031   3.497   8.979  1.7739 -0.8407  2.3534
 6591SOL     OW31405   3.268   4.316  14.047 -0.5325  0.0338 -0.4280
 6591SOL    HW131406   3.222   4.233  14.041  0.8991 -0.8383  0.7220
 6591SOL    HW231407   3.345   4.274  14.010 -0.8887  0.0099 -1.1316
 6592SOL     OW31408   0.791   2.539  12.104 -0.3853  0.0815  0.2164
 6592SOL    HW131409   0.868   2.593  12.089 -0.3409 -0.0949 -0.1954
 6592SOL    HW231410   0.713   2.595  12.106 -0.1179  0.4451  0.3836
 6593SOL     OW31411   4.613   1.543  11.797 -0.2526 -0.4264 -0.1882
 6593SOL    HW131412   4.532   1.569  11.842  0.4418  3.9979 -1.5481
 6593SOL    HW231413   4.679   1.543  11.867  0.1384 -0.9177 -0.5556
 6594SOL     OW31414   2.199   2.118   5.046  0.0822 -0.6543  0.6019
 6594SOL    HW131415   2.208   2.107   4.951  0.0256  0.7735  0.4208
 6594SOL    HW231416   2.225   2.033   5.081 -1.6589 -0.9520  1.1578
 6595SOL     OW31417   0.760   2.632   2.285  0.8142 -0.0888  0.5266
 6595SOL    HW131418   0.737   2.724   2.292 -2.9694 -1.0028  0.1973
 6595SOL    HW231419   0.706   2.612   2.209  0.0746 -0.1772  1.0802
 6596SOL     OW31420   4.618   4.292   7.611  0.1166 -0.4872 -0.5371
 6596SOL    HW131421   4.607   4.382   7.642  0.9203 -0.3589 -0.6244
 6596SOL    HW231422   4.527   4.263   7.605 -0.3066  0.2230  2.2699
 6597SOL     OW31423   4.008   1.415  13.082 -0.0764 -0.3892  0.2169
 6597SOL    HW131424   3.959   1.428  13.163 -0.9568 -3.2386  0.1361
 6597SOL    HW231425   4.098   1.434  13.108 -0.3973  0.7488  0.4834
 6598SOL     OW31426   1.476   1.722  12.492 -0.4104 -0.3852  0.5510
 6598SOL    HW131427   1.488   1.719  12.587 -1.1315 -1.3792  0.6036
 6598SOL    HW231428   1.546   1.662  12.465  0.5299  0.8557  0.2045
 6599SOL     OW31429   1.750   2.547   3.819 -0.1110  0.0655  0.2170
 6599SOL    HW131430   1.813   2.477   3.834 -1.0656 -0.7009  0.6773
 6599SOL    HW231431   1.666   2.504   3.839 -0.4796  1.5374  1.8441
 6600SOL     OW31432   0.128   1.581   5.308  0.4292 -0.2897  0.1770
 6600SOL    HW131433   0.034   1.562   5.314  0.9804 -1.9483  3.8304
 6600SOL    HW231434   0.122   1.667   5.268  1.9378  0.3244  1.2770
 6601SOL     OW31435   0.719   3.932   7.731 -0.1452  0.3156 -0.1411
 6601SOL    HW131436   0.631   3.953   7.762 -1.9852 -1.5942 -4.0890
 6601SOL    HW231437   0.716   3.838   7.744  0.0730  0.2262 -0.7329
 6602SOL     OW31438   3.407   0.784   3.257 -0.7067  0.1036  0.1960
 6602SOL    HW131439   3.426   0.699   3.295  0.3268 -0.0454 -0.6499
 6602SOL    HW231440   3.327   0.761   3.209  0.7754 -0.5483 -1.9174
 6603SOL     OW31441   2.332   2.850   9.171  0.2581 -0.4575 -0.8513
 6603SOL    HW131442   2.391   2.835   9.245 -1.6797 -1.8284  0.4325
 6603SOL    HW231443   2.261   2.883   9.225  0.2865  2.5396 -2.6718
 6604SOL     OW31444   2.309   2.188   1.174  0.9282 -0.2593 -0.3330
 6604SOL    HW131445   2.268   2.271   1.150  1.9819  1.1183  2.6566
 6604SOL    HW231446   2.298   2.185   1.269  0.8739  2.2180 -0.2688
 6605SOL     OW31447   1.863   2.903   6.481 -0.3013 -0.2389 -0.1493
 6605SOL    HW131448   1.885   2.996   6.487 -0.7598 -0.1533  0.2131
 6605SOL    HW231449   1.942   2.858   6.452  0.1739 -0.5771  1.7167
 6606SOL     OW31450   0.241   2.651  16.140 -0.1739 -0.0304  0.2796
 6606SOL    HW131451   0.155   2.661  16.099  0.7669  2.1773 -1.1625
 6606SOL    HW231452   0.224   2.687  16.227 -2.4587 -1.8901  0.5918
 6607SOL     OW31453   2.404   2.310   8.774 -0.5819  0.2525 -0.0198
 6607SOL    HW131454   2.413   2.226   8.729  1.8672  0.9169 -0.8076
 6607SOL    HW231455   2.433   2.288   8.863 -1.5899 -0.5738  0.0975
 6608SOL     OW31456   1.503   3.546   2.927  0.1173  0.0725  0.1447
 6608SOL    HW131457   1.548   3.623   2.894  0.1954  0.6059  1.5214
 6608SOL    HW231458   1.411   3.575   2.927 -0.5465 -2.0187 -0.9718
 6609SOL     OW31459   1.768   3.315   2.292 -0.3024  0.2053  0.5130
 6609SOL    HW131460   1.690   3.364   2.315  1.2457  2.1176  1.7119
 6609SOL    HW231461   1.765   3.328   2.198 -0.9754  2.2471  0.8280
 6610SOL     OW31462   3.236   2.987   5.888  0.0592  0.2513  0.1853
 6610SOL    HW131463   3.144   3.015   5.889  0.3545  1.1893  0.1633
 6610SOL    HW231464   3.242   2.945   5.802 -1.8230 -1.7705  1.0146
 6611SOL     OW31465   2.530   3.351  11.746  0.2373  0.8531  0.3444
 6611SOL    HW131466   2.625   3.344  11.734  0.2298  1.3003  0.0102
 6611SOL    HW231467   2.507   3.263  11.776 -0.5806  1.3288  1.1095
 6612SOL     OW31468   2.690   1.732   6.795  0.2164  0.0365  0.2087
 6612SOL    HW131469   2.637   1.653   6.784 -1.9777  1.5126  0.0826
 6612SOL    HW231470   2.649   1.790   6.731  0.0965  0.8812  1.0546
 6613SOL     OW31471   1.494   0.715  11.499  0.1342 -0.0676 -0.0961
 6613SOL    HW131472   1.565   0.704  11.435 -0.1666 -1.7040 -0.1290
 6613SOL    HW231473   1.539   0.752  11.575 -0.4390  0.7189 -0.1253
 6614SOL     OW31474   3.036   3.584   6.805  0.1250 -0.5927 -0.8078
 6614SOL    HW131475   3.020   3.501   6.759  1.2241 -1.9777  1.2958
 6614SOL    HW231476   3.062   3.556   6.893 -2.0407  0.1608  0.0835
 6615SOL     OW31477   1.192   0.406  15.565  0.1581 -0.5126 -0.1077
 6615SOL    HW131478   1.106   0.438  15.539  0.3164  0.9824  1.2113
 6615SOL    HW231479   1.188   0.316  15.532 -0.7850 -0.8153  0.8603
 6616SOL     OW31480   3.280   3.483   4.211 -0.0013  0.0900 -0.4961
 6616SOL    HW131481   3.210   3.445   4.158  0.3933 -1.8863  0.4111
 6616SOL    HW231482   3.358   3.496   4.158  0.5838 -1.8882 -0.1230
 6617SOL     OW31483   0.385   1.816   3.682  0.4279  0.3061 -0.1810
 6617SOL    HW131484   0.389   1.720   3.674  1.5781  0.2694  0.8508
 6617SOL    HW231485   0.302   1.828   3.636  1.3573  0.6848 -1.7504
 6618SOL     OW31486   0.191   2.377   3.369 -0.5025  0.0089  0.1078
 6618SOL    HW131487   0.181   2.296   3.319  0.3801 -0.8279  1.2804
 6618SOL    HW231488   0.114   2.426   3.340 -2.5345 -3.5729 -0.5926
 6619SOL     OW31489   4.145   3.745   9.575  0.0786  0.5252  0.2262
 6619SOL    HW131490   4.176   3.751   9.665  0.9328  0.6099 -0.0803
 6619SOL    HW231491   4.174   3.657   9.552  0.9914  1.0472 -0.6569
 6620SOL     OW31492   4.329   0.391   9.537  0.0066  0.0389  0.4396
 6620SOL    HW131493   4.240   0.414   9.563 -0.5036 -0.1455 -1.1092
 6620SOL    HW231494   4.310   0.353   9.451  1.6397 -0.3269  0.2490
 6621SOL     OW31495   1.542   4.077   3.043  0.6575  0.3722 -0.0519
 6621SOL    HW131496   1.605   4.005   3.049  1.0881  0.6192 -1.5788
 6621SOL    HW231497   1.506   4.061   3.131  0.6670 -0.9809 -0.2982
 6622SOL     OW31498   1.354   4.018   9.605  0.2902 -0.3237  0.6097
 6622SOL    HW131499   1.349   4.055   9.693 -0.8089 -1.7025  1.1201
 6622SOL    HW231500   1.272   4.046   9.563 -0.0080 -0.7144  0.9379
 6623SOL     OW31501   0.153   2.617   5.204 -0.0656  0.4018 -0.5518
 6623SOL    HW131502   0.104   2.699   5.214 -1.2542 -0.5157  1.2828
 6623SOL    HW231503   0.167   2.607   5.110  1.6349  1.7406 -0.4348
 6624SOL     OW31504   1.370   2.174   6.868  0.0879 -0.5345  0.3837
 6624SOL    HW131505   1.449   2.225   6.854 -1.4968  1.4905 -1.2154
 6624SOL    HW231506   1.374   2.133   6.781 -0.7320 -0.4588  0.3059
 6625SOL     OW31507   3.346   3.484  13.265  0.6565  0.1278 -0.3317
 6625SOL    HW131508   3.365   3.574  13.291 -0.9489  0.0954  0.9536
 6625SOL    HW231509   3.407   3.440  13.325  0.2510 -0.6384 -0.4839
 6626SOL     OW31510   0.328   1.123   6.001  0.5436 -0.2102 -0.2335
 6626SOL    HW131511   0.357   1.161   5.919  3.8200 -1.5590  0.2919
 6626SOL    HW231512   0.409   1.091   6.040 -0.2009  0.5180  1.9394
 6627SOL     OW31513   4.249   3.356  14.070  0.4217  0.0831  0.0362
 6627SOL    HW131514   4.303   3.277  14.062 -0.4658 -0.4106 -1.0115
 6627SOL    HW231515   4.172   3.317  14.111 -0.6551  1.3376 -0.7886
 6628SOL     OW31516   3.489   0.883   4.771 -0.1736 -0.1130 -0.1207
 6628SOL    HW131517   3.489   0.963   4.823 -1.9136  1.4261 -2.5181
 6628SOL    HW231518   3.438   0.918   4.699  1.7531 -0.1252 -1.5043
 6629SOL     OW31519   0.047   3.820   4.656 -0.6199 -0.1695 -0.1215
 6629SOL    HW131520   0.076   3.851   4.742  0.0615 -1.2927  0.0536
 6629SOL    HW231521   0.002   3.739   4.678  0.5636 -1.3721 -2.1193
 6630SOL     OW31522   4.213   0.605   0.480 -0.0672 -0.3198  0.1495
 6630SOL    HW131523   4.276   0.549   0.525  0.2734  1.6192  2.0813
 6630SOL    HW231524   4.265   0.671   0.436  2.3746 -3.5703 -1.8314
 6631SOL     OW31525   0.005   1.705  16.374  0.6456 -0.0804 -0.4741
 6631SOL    HW131526   0.096   1.706  16.404  0.7709 -0.8731 -0.8523
 6631SOL    HW231527   4.701   1.730  16.458  1.8406  0.4127 -0.0658
 6632SOL     OW31528   2.825   0.068  16.264 -0.4014  0.3613  0.1170
 6632SOL    HW131529   2.823   0.028  16.351  1.3309  0.4439  0.1814
 6632SOL    HW231530   2.839   4.729  16.205  1.3890 -0.7049  1.8937
 6633SOL     OW31531   2.929   0.453   8.929  0.2316  0.3439  0.2043
 6633SOL    HW131532   2.917   0.435   8.836  0.7766  0.8088  0.0388
 6633SOL    HW231533   2.968   0.370   8.956 -0.3554 -0.0332 -0.1052
 6634SOL     OW31534   3.402   4.158   7.466 -0.0662  0.0901  0.7852
 6634SOL    HW131535   3.415   4.217   7.392 -0.4739  0.3424  0.9151
 6634SOL    HW231536   3.441   4.080   7.426  0.2793  0.9263 -0.5101
 6635SOL     OW31537   1.241   0.771  12.096  0.3875 -0.2671 -0.4108
 6635SOL    HW131538   1.292   0.845  12.128  0.1932  0.7635 -2.5002
 6635SOL    HW231539   1.305   0.752  12.028 -0.2725  0.2457 -1.1891
 6636SOL     OW31540   1.484   0.992   0.973 -0.0904  0.2037 -0.4085
 6636SOL    HW131541   1.500   1.033   1.058 -0.3394 -0.3170 -0.1078
 6636SOL    HW231542   1.438   0.911   0.997 -1.1132  0.7252 -0.6106
 6637SOL     OW31543   2.863   1.283   4.184 -0.2835  0.1667 -0.2986
 6637SOL    HW131544   2.783   1.293   4.236 -1.5550 -1.1576 -2.0053
 6637SOL    HW231545   2.816   1.253   4.106  0.6269  0.5905 -1.0014
 6638SOL     OW31546   3.167   2.114   4.404 -0.6911  0.5087 -0.0337
 6638SOL    HW131547   3.079   2.081   4.383 -1.1093  3.4823 -3.0016
 6638SOL    HW231548   3.176   2.191   4.348  0.7658 -1.0809 -1.9822
 6639SOL     OW31549   2.206   2.930   7.163 -0.0179 -0.3172  0.1542
 6639SOL    HW131550   2.203   2.861   7.229  3.1000  0.3017  0.9651
 6639SOL    HW231551   2.249   2.992   7.222  2.7287 -2.2183  0.1448
 6640SOL     OW31552   2.131   0.385  10.845 -0.1741 -0.5054 -0.0414
 6640SOL    HW131553   2.098   0.456  10.899 -1.0806  1.3276 -3.0430
 6640SOL    HW231554   2.209   0.427  10.809  0.0967  0.3697  1.6153
 6641SOL     OW31555   3.808   0.402   9.171 -0.5469 -0.1296 -0.0811
 6641SOL    HW131556   3.775   0.487   9.143 -0.4869 -0.1072 -0.0841
 6641SOL    HW231557   3.787   0.349   9.094  0.5562 -0.3277 -0.2489
 6642SOL     OW31558   3.657   3.448   2.619  0.0155  0.2046  0.2781
 6642SOL    HW131559   3.689   3.456   2.529  1.5737 -0.7485  0.7421
 6642SOL    HW231560   3.681   3.534   2.653 -0.4804 -1.1334  4.0357
 6643SOL     OW31561   0.183   0.753   5.330 -0.0141  0.4755 -0.6969
 6643SOL    HW131562   0.124   0.682   5.355  2.0519 -1.0570 -0.1690
 6643SOL    HW231563   0.113   0.817   5.346 -0.6703 -1.2806  3.5471
 6644SOL     OW31564   2.846   1.241   0.722  0.7512  0.0752  0.0781
 6644SOL    HW131565   2.838   1.161   0.773 -0.9202  0.4842  0.4506
 6644SOL    HW231566   2.757   1.276   0.714  0.5818 -0.7170 -1.4801
 6645SOL     OW31567   2.370   1.764  10.887  0.0403  0.5105 -0.0736
 6645SOL    HW131568   2.402   1.675  10.904 -2.4258 -0.4846 -0.6834
 6645SOL    HW231569   2.282   1.755  10.851 -0.5927  1.7499  1.1229
 6646SOL     OW31570   4.481   4.013   1.488 -0.1572  0.9155  0.0001
 6646SOL    HW131571   4.496   4.072   1.561  1.1509  0.6040 -0.0241
 6646SOL    HW231572   4.408   3.963   1.525  0.5815 -2.0569 -2.5242
 6647SOL     OW31573   4.017   2.319   2.189  0.9314  0.2857  0.1038
 6647SOL    HW131574   3.939   2.323   2.134 -0.0585  0.1854  1.5064
 6647SOL    HW231575   3.991   2.263   2.262  1.9169 -1.9700 -1.2563
 6648SOL     OW31576   4.036   3.018  15.165  0.0110  0.5526  0.1586
 6648SOL    HW131577   4.100   2.998  15.233  1.0419  0.0409 -0.9571
 6648SOL    HW231578   3.981   3.091  15.193 -0.2902  0.4194 -0.0838
 6649SOL     OW31579   2.315   0.937   0.480  0.7127 -0.1064 -0.2168
 6649SOL    HW131580   2.274   0.934   0.567  1.3617 -0.1926  0.0849
 6649SOL    HW231581   2.286   1.023   0.450  1.0064  0.1990  0.3603
 6650SOL     OW31582   1.178   0.394  10.221 -0.1674 -0.0678 -0.1605
 6650SOL    HW131583   1.246   0.461  10.220 -0.7350  0.4798 -1.5317
 6650SOL    HW231584   1.220   0.310  10.200  0.8616  0.3261  0.3485
 6651SOL     OW31585   2.585   2.228   8.235 -0.1794 -0.2049  0.3713
 6651SOL    HW131586   2.516   2.262   8.292 -0.2403 -1.9802  1.3420
 6651SOL    HW231587   2.549   2.258   8.151  1.2528  0.5368  0.0233
 6652SOL     OW31588   2.973   0.748   7.100 -0.0351  0.0819  0.2646
 6652SOL    HW131589   3.017   0.665   7.119  2.0916  0.9600 -0.8885
 6652SOL    HW231590   2.952   0.776   7.189  1.8678  2.1824  0.0439
 6653SOL     OW31591   1.325   0.535   5.132  0.1509  0.2862 -0.2350
 6653SOL    HW131592   1.342   0.521   5.039 -1.1655  0.7298 -0.5413
 6653SOL    HW231593   1.400   0.495   5.176  1.1001  1.4658 -0.7843
 6654SOL     OW31594   2.490   4.499  15.858 -0.3945 -0.3627 -0.1749
 6654SOL    HW131595   2.520   4.417  15.820  2.4257 -0.0914  1.4007
 6654SOL    HW231596   2.396   4.487  15.867 -0.5244  0.2833 -0.6973
 6655SOL     OW31597   4.338   0.101   6.013 -0.0933  0.1523 -0.3720
 6655SOL    HW131598   4.355   0.176   5.955 -1.3581  0.3904 -0.4356
 6655SOL    HW231599   4.372   0.134   6.096 -0.2405 -0.0494 -0.2325
 6656SOL     OW31600   3.117   0.333   5.207 -0.6749  0.1490  0.1226
 6656SOL    HW131601   3.062   0.267   5.250 -0.6318  0.4162  0.5892
 6656SOL    HW231602   3.053   0.401   5.183  0.6064  0.1023 -3.4014
 6657SOL     OW31603   4.006   1.853   3.907 -0.1971 -0.0354  0.8552
 6657SOL    HW131604   3.950   1.923   3.941 -0.6054  0.8138 -1.5378
 6657SOL    HW231605   4.045   1.894   3.830 -0.3398 -3.6774 -1.1478
 6658SOL     OW31606   1.458   1.862   7.304  0.0781 -0.0172  0.0250
 6658SOL    HW131607   1.426   1.951   7.292 -0.0669 -0.6830 -4.5258
 6658SOL    HW231608   1.544   1.880   7.342  0.5240  1.7610 -1.8464
 6659SOL     OW31609   4.359   3.090   3.899 -0.1735 -0.2122  0.4356
 6659SOL    HW131610   4.318   3.008   3.927 -0.1021 -0.4787 -0.2157
 6659SOL    HW231611   4.280   3.140   3.881  0.2474 -0.4361 -2.0675
 6660SOL     OW31612   4.344   1.135   6.473 -0.2501  0.1153  0.3042
 6660SOL    HW131613   4.325   1.148   6.381 -0.3980  0.2270  0.3503
 6660SOL    HW231614   4.259   1.165   6.505 -1.1105  0.5830 -2.4834
 6661SOL     OW31615   0.994   3.791   7.497  0.0888  0.0780 -0.1434
 6661SOL    HW131616   1.077   3.825   7.464  1.0372 -1.0676  1.0016
 6661SOL    HW231617   0.977   3.725   7.430  1.7029 -1.4186  0.9034
 6662SOL     OW31618   0.907   1.891   6.173 -0.3828  0.3876  0.2748
 6662SOL    HW131619   0.989   1.916   6.130  0.3317 -2.0958  0.2073
 6662SOL    HW231620   0.900   1.799   6.148 -0.8536  0.6871 -0.7254
 6663SOL     OW31621   1.556   3.556   4.452 -0.5435  0.0075 -0.0676
 6663SOL    HW131622   1.618   3.520   4.389  0.0999 -0.8412  1.0548
 6663SOL    HW231623   1.582   3.648   4.457 -0.2623 -0.0479 -0.5251
 6664SOL     OW31624   4.313   3.117   6.278 -0.4061 -0.4549  0.3992
 6664SOL    HW131625   4.286   3.169   6.354  3.2052  1.8442  0.0668
 6664SOL    HW231626   4.244   3.050   6.286 -1.5651  1.0154  2.6877
 6665SOL     OW31627   2.269   0.695   6.519  0.0179 -0.3845  0.0586
 6665SOL    HW131628   2.301   0.720   6.605  0.5696  1.6596 -0.7379
 6665SOL    HW231629   2.177   0.676   6.538 -0.6940  3.2285  0.1977
 6666SOL     OW31630   4.513   4.421   0.434 -0.4541 -0.3971  0.2107
 6666SOL    HW131631   4.583   4.442   0.372  0.2772 -0.1434  1.1205
 6666SOL    HW231632   4.504   4.497   0.492  0.5341  0.9246 -1.3897
 6667SOL     OW31633   2.533   1.642   7.943  0.6242  0.4232  0.0212
 6667SOL    HW131634   2.502   1.619   8.030  1.1068  0.2217  0.1392
 6667SOL    HW231635   2.490   1.726   7.924 -0.6128 -0.5789 -1.6365
 6668SOL     OW31636   3.020   3.898   4.333 -0.2718 -0.2617  0.4256
 6668SOL    HW131637   3.049   3.859   4.250 -0.1636  1.8958 -0.5496
 6668SOL    HW231638   3.027   3.821   4.390 -0.0520 -1.0963 -0.7224
 6669SOL     OW31639   4.162   0.503   3.341 -1.0071 -0.2183  0.2054
 6669SOL    HW131640   4.233   0.450   3.377 -1.3382 -0.8227 -0.0287
 6669SOL    HW231641   4.117   0.526   3.422 -0.5868 -0.0926  0.3995
 6670SOL     OW31642   3.779   4.080   5.350 -0.5055  0.3462 -0.3740
 6670SOL    HW131643   3.852   4.062   5.410  0.4035 -0.3092 -1.6648
 6670SOL    HW231644   3.709   4.061   5.412 -1.2267  0.2754 -1.2135
 6671SOL     OW31645   4.281   2.227   7.744  0.3319  0.3053  0.1699
 6671SOL    HW131646   4.209   2.190   7.795 -0.8811  2.4579  0.0091
 6671SOL    HW231647   4.280   2.319   7.772 -0.8874 -0.8513  3.9090
 6672SOL     OW31648   2.969   3.878  17.723 -0.1076  0.3135  0.4448
 6672SOL    HW131649   2.959   3.886   0.079 -1.7676  2.2774  0.1043
 6672SOL    HW231650   2.875   3.865  17.708  0.0385 -3.0289  2.3783
 6673SOL     OW31651   4.723   0.542   6.452 -0.2487 -0.1421 -0.6161
 6673SOL    HW131652   4.641   0.563   6.497 -0.1872 -2.5961  0.6083
 6673SOL    HW231653   4.707   0.451   6.427  2.3360 -0.2417 -1.8800
 6674SOL     OW31654   4.287   2.674  14.661 -0.0210  0.1294  0.4839
 6674SOL    HW131655   4.375   2.648  14.633  0.4071 -0.5435  2.4515
 6674SOL    HW231656   4.245   2.588  14.650  0.9340 -0.6429  2.7067
 6675SOL     OW31657   3.707   0.502   9.607  0.1385  0.0568  0.0567
 6675SOL    HW131658   3.653   0.563   9.557 -0.7375 -0.7303  0.0476
 6675SOL    HW231659   3.737   0.444   9.536  1.8614  2.1106 -0.9015
 6676SOL     OW31660   3.883   4.170  16.912  0.1478  0.6358  0.0153
 6676SOL    HW131661   3.882   4.211  16.826 -1.3818 -0.3178 -0.4095
 6676SOL    HW231662   3.954   4.216  16.957  0.2224  2.1532 -1.6649
 6677SOL     OW31663   3.589   1.759   3.694  0.2631 -0.0462  0.5189
 6677SOL    HW131664   3.613   1.763   3.602 -2.0206 -0.7739 -0.1083
 6677SOL    HW231665   3.507   1.710   3.685  0.5423  0.0162 -2.3311
 6678SOL     OW31666   0.473   2.626   8.086 -0.1518 -0.6557 -0.1757
 6678SOL    HW131667   0.427   2.645   8.004 -0.6288 -2.2561 -0.2847
 6678SOL    HW231668   0.454   2.705   8.137 -0.6495  0.3080 -1.8536
 6679SOL     OW31669   4.504   4.005  16.537  0.2931 -0.1324 -0.1681
 6679SOL    HW131670   4.498   4.051  16.620 -0.5016 -0.6954  0.0869
 6679SOL    HW231671   4.417   4.032  16.507 -0.3488 -3.3368 -1.1922
 6680SOL     OW31672   4.380   1.369  16.152  0.4604 -0.6836 -0.4700
 6680SOL    HW131673   4.442   1.321  16.098 -0.2303  0.5706 -2.3855
 6680SOL    HW231674   4.363   1.311  16.227  1.2976  0.2638  0.4536
 6681SOL     OW31675   4.539   1.218   8.717  0.2248  0.2740 -0.2637
 6681SOL    HW131676   4.536   1.141   8.660  2.7724 -0.1110  0.1341
 6681SOL    HW231677   4.446   1.241   8.719  0.4804  1.2516  0.1100
 6682SOL     OW31678   4.560   1.869   1.168  0.0784  0.4544 -0.1868
 6682SOL    HW131679   4.514   1.899   1.247  2.6439  1.4550  0.9438
 6682SOL    HW231680   4.509   1.913   1.101 -1.9268 -1.6870 -0.0393
 6683SOL     OW31681   0.409   0.024   5.943  0.8070  0.1834  0.3406
 6683SOL    HW131682   0.368   4.677   5.914  0.1325  0.7902 -0.4234
 6683SOL    HW231683   0.353   0.084   5.893  2.3683  0.6081 -0.8727
 6684SOL     OW31684   1.569   4.370  11.669  0.1598  0.1345  0.4005
 6684SOL    HW131685   1.597   4.428  11.598  1.1842  1.1955  1.6781
 6684SOL    HW231686   1.622   4.400  11.742  0.5979  0.2324  0.0417
 6685SOL     OW31687   3.698   3.364   8.570  0.6448 -0.2180  0.1616
 6685SOL    HW131688   3.620   3.339   8.521  0.1700  0.8963  0.3493
 6685SOL    HW231689   3.720   3.439   8.515 -1.0771 -0.3914 -0.7577
 6686SOL     OW31690   2.958   0.298   3.566 -0.3431  0.1712  0.1495
 6686SOL    HW131691   2.980   0.229   3.504  1.0100 -0.8036  1.7398
 6686SOL    HW231692   3.034   0.319   3.619 -0.1679  0.7694 -0.3335
 6687SOL     OW31693   1.079   1.026   6.349  0.4784  0.1224  0.1760
 6687SOL    HW131694   1.005   1.066   6.303 -1.6576 -4.0311  0.0611
 6687SOL    HW231695   1.145   1.051   6.284  2.3432 -0.4906  1.8287
 6688SOL     OW31696   0.805   1.010  16.986  0.1332 -0.0022 -0.1544
 6688SOL    HW131697   0.749   0.942  16.948  0.0196  0.1973 -0.3405
 6688SOL    HW231698   0.823   0.984  17.077 -0.2973  0.9654  0.2139
 6689SOL     OW31699   0.635   2.225  11.333 -0.5192 -0.2934  0.2793
 6689SOL    HW131700   0.583   2.207  11.412  0.1256 -2.2706  0.2558
 6689SOL    HW231701   0.653   2.134  11.310  1.5885  0.2697 -0.2816
 6690SOL     OW31702   1.199   3.171   8.492 -0.1145  0.4135  0.2740
 6690SOL    HW131703   1.199   3.138   8.582  1.0013 -0.9762 -0.2432
 6690SOL    HW231704   1.266   3.238   8.502 -0.2454  0.5684  0.1143
 6691SOL     OW31705   0.178   0.309   4.282  0.3734  0.0583  0.5713
 6691SOL    HW131706   0.242   0.371   4.246  0.5167 -0.6739 -0.4433
 6691SOL    HW231707   0.162   0.262   4.201  1.1053 -1.3005  1.2136
 6692SOL     OW31708   1.811   3.559   6.320  0.4844  0.3309  0.7682
 6692SOL    HW131709   1.832   3.570   6.413  1.9977 -2.3319  0.7424
 6692SOL    HW231710   1.758   3.636   6.300  1.1906  0.4492 -0.6009
 6693SOL     OW31711   0.491   3.933   2.834  0.3959 -0.0742  0.3710
 6693SOL    HW131712   0.570   3.879   2.825 -0.0444 -0.7470  0.5225
 6693SOL    HW231713   0.524   4.022   2.832 -1.8611  0.6883 -2.8964
 6694SOL     OW31714   2.108   4.713  11.855  0.2271  0.3388 -0.1017
 6694SOL    HW131715   2.154   0.001  11.774  0.3314 -1.7243 -0.6367
 6694SOL    HW231716   2.101   0.057  11.909  0.6687  1.9749 -2.4486
 6695SOL     OW31717   3.852   1.220   4.911  0.1297  0.2955  0.2146
 6695SOL    HW131718   3.841   1.305   4.955 -2.3526  0.0723  0.0018
 6695SOL    HW231719   3.826   1.151   4.972 -1.2642  0.5781 -0.0515
 6696SOL     OW31720   2.218   1.656   5.414  0.2260 -0.2072 -1.1622
 6696SOL    HW131721   2.281   1.623   5.350  2.8078  1.9242  0.3099
 6696SOL    HW231722   2.136   1.636   5.368  0.0568  1.6290 -1.6436
 6697SOL     OW31723   1.684   1.931   5.817 -0.5079  0.0494  0.2644
 6697SOL    HW131724   1.703   1.883   5.737 -2.4684 -0.1028 -0.1220
 6697SOL    HW231725   1.738   1.882   5.878 -0.5489 -1.0932 -0.6363
 6698SOL     OW31726   3.960   3.729   8.719  0.5152 -0.4590 -0.5039
 6698SOL    HW131727   3.898   3.673   8.767 -1.3298  1.9848 -0.0641
 6698SOL    HW231728   3.947   3.806   8.774 -2.0005 -1.4921  0.3362
 6699SOL     OW31729   0.025   4.001   2.598  0.1246 -0.1893  0.4353
 6699SOL    HW131730   4.683   3.945   2.590 -0.6541  1.0785 -0.7727
 6699SOL    HW231731   0.092   3.939   2.570  0.2819  0.9288 -1.6381
 6700SOL     OW31732   3.063   4.171  15.783 -0.2544  0.1946 -0.0436
 6700SOL    HW131733   3.114   4.218  15.849  1.7194 -1.8977 -0.0686
 6700SOL    HW231734   3.127   4.190  15.714 -1.9695  1.8581 -1.1599
 6701SOL     OW31735   0.061   3.459  14.324  0.4002 -0.2053  0.5742
 6701SOL    HW131736   0.047   3.548  14.290  0.6137 -0.2234  0.4378
 6701SOL    HW231737   0.137   3.432  14.272  0.0221 -0.6952  0.2882
 6702SOL     OW31738   1.315   1.067   7.273  0.2828 -0.1036  0.4675
 6702SOL    HW131739   1.281   1.144   7.318 -2.1243 -0.7795 -0.1734
 6702SOL    HW231740   1.409   1.083   7.268  0.3846 -1.0093 -0.5771
 6703SOL     OW31741   0.094   4.289   1.884  0.0182 -0.0558 -0.3008
 6703SOL    HW131742   0.091   4.379   1.850 -0.6665 -1.5538 -4.2011
 6703SOL    HW231743   0.020   4.295   1.945 -0.3721 -1.0020 -0.6943
 6704SOL     OW31744   1.995   2.476   6.059 -0.7087 -0.1459 -0.2756
 6704SOL    HW131745   1.924   2.463   6.122  1.0761  1.6582  2.1156
 6704SOL    HW231746   1.944   2.490   5.980  0.5261 -0.5806 -1.1457
 6705SOL     OW31747   1.218   1.024   4.554  0.0050 -0.1249 -0.7434
 6705SOL    HW131748   1.126   0.997   4.555 -0.0972  0.1137 -3.2383
 6705SOL    HW231749   1.262   0.939   4.559  0.5190  0.0697 -1.9911
 6706SOL     OW31750   2.051   4.444   5.650  0.8484  0.1426  0.0876
 6706SOL    HW131751   2.063   4.534   5.621 -0.3594  0.0444 -0.7288
 6706SOL    HW231752   2.087   4.446   5.739  0.0822  0.8667  0.3764
 6707SOL     OW31753   4.287   3.037  15.288 -0.0463 -0.0910 -0.2314
 6707SOL    HW131754   4.301   2.943  15.289 -1.2202 -0.2374  2.1976
 6707SOL    HW231755   4.371   3.066  15.326  0.6514 -2.0347 -0.2884
 6708SOL     OW31756   2.787   0.867   4.818 -0.1569 -0.3582  0.2385
 6708SOL    HW131757   2.736   0.786   4.826 -1.4918  0.4624  0.0250
 6708SOL    HW231758   2.827   0.873   4.905 -0.2151 -3.3825  0.4706
 6709SOL     OW31759   4.522   1.744   6.876 -0.4608  0.6091  0.0140
 6709SOL    HW131760   4.601   1.797   6.875  0.8341 -1.3098  1.6252
 6709SOL    HW231761   4.496   1.746   6.784 -1.4045 -0.8702  0.2544
 6710SOL     OW31762   1.675   1.464   4.433  0.5126 -0.3669  0.2216
 6710SOL    HW131763   1.717   1.463   4.347 -0.6380  0.9861 -0.3624
 6710SOL    HW231764   1.723   1.394   4.478 -0.0419 -1.9879 -1.6977
 6711SOL     OW31765   3.465   3.976   5.069 -0.3401 -0.8919  0.2534
 6711SOL    HW131766   3.381   3.935   5.048 -0.3812  0.0926 -1.5076
 6711SOL    HW231767   3.434   4.066   5.085 -0.3351 -0.6535 -1.0722
 6712SOL     OW31768   4.681   0.514   8.318  0.3564  0.3826  0.0270
 6712SOL    HW131769   4.713   0.429   8.349 -1.8425 -0.3346  0.3820
 6712SOL    HW231770   0.002   0.549   8.249 -0.4388 -0.6245 -1.1349
 6713SOL     OW31771   0.717   2.402  17.011  0.2391 -0.7176  0.2839
 6713SOL    HW131772   0.646   2.465  16.997  0.2858 -0.5621  0.7687
 6713SOL    HW231773   0.687   2.354  17.088 -2.3191  0.7753  0.2398
 6714SOL     OW31774   3.534   1.394   4.949 -0.1371  0.5446  0.8719
 6714SOL    HW131775   3.611   1.392   5.007  0.4506  0.2549  0.0757
 6714SOL    HW231776   3.505   1.483   4.972 -2.2263 -0.0830  0.6038
 6715SOL     OW31777   3.809   3.615   7.657  0.5474 -0.8323 -0.1754
 6715SOL    HW131778   3.763   3.688   7.614 -0.7996 -0.2574  2.2606
 6715SOL    HW231779   3.752   3.543   7.631  0.8715 -1.4082  0.7445
 6716SOL     OW31780   2.726   1.214   9.463  0.0905 -0.1676  0.5258
 6716SOL    HW131781   2.783   1.137   9.461  1.2136  0.6572  0.7230
 6716SOL    HW231782   2.669   1.196   9.389 -0.5195  1.1919  0.6569
 6717SOL     OW31783   2.365   4.319   5.182 -1.1627 -0.2755 -0.1668
 6717SOL    HW131784   2.306   4.318   5.107 -0.2837 -1.9077 -0.8226
 6717SOL    HW231785   2.350   4.406   5.221  1.0935 -0.6327  1.4808
 6718SOL     OW31786   3.828   0.102   7.170  0.0975 -0.2949  0.5770
 6718SOL    HW131787   3.768   0.124   7.099  0.3135  0.3298  0.5856
 6718SOL    HW231788   3.786   0.153   7.240  3.8188  0.8938  1.9532
 6719SOL     OW31789   1.920   0.181  16.565 -0.0376 -0.8208 -0.2652
 6719SOL    HW131790   1.986   0.187  16.496 -0.0534 -2.0465 -0.3859
 6719SOL    HW231791   1.939   0.097  16.607  1.1592 -1.4144 -2.0223
 6720SOL     OW31792   2.550   2.073  12.984  0.0107 -0.1965  0.3381
 6720SOL    HW131793   2.547   2.157  13.031 -0.1131 -1.6863  3.0194
 6720SOL    HW231794   2.625   2.099  12.930 -0.7085 -0.9018 -1.0000
 6721SOL     OW31795   0.102   3.726   8.920  0.4683 -0.2108  0.3060
 6721SOL    HW131796   0.108   3.642   8.966  0.9274  0.1823  0.9566
 6721SOL    HW231797   0.078   3.696   8.833 -0.3153  0.0172  0.4405
 6722SOL     OW31798   1.344   4.069   7.231  0.2572 -0.2888 -0.2780
 6722SOL    HW131799   1.431   4.105   7.249  0.9744 -1.5635 -1.1854
 6722SOL    HW231800   1.360   4.001   7.166  0.8125 -0.3964 -0.0332
 6723SOL     OW31801   1.863   4.172   2.894 -0.4251  0.1186  0.1789
 6723SOL    HW131802   1.880   4.146   2.803 -0.1439 -0.7546  0.4783
 6723SOL    HW231803   1.833   4.091   2.937  0.8245  0.6168  1.9691
 6724SOL     OW31804   3.127   4.163  15.303 -0.0718  0.1267  0.4131
 6724SOL    HW131805   3.049   4.118  15.270 -0.4586  0.8722  0.3049
 6724SOL    HW231806   3.094   4.253  15.314 -0.4609  0.3194 -2.2711
 6725SOL     OW31807   3.436   2.852   5.188  0.0298  0.0100  0.0614
 6725SOL    HW131808   3.348   2.844   5.152  0.1221  1.5433 -0.4951
 6725SOL    HW231809   3.438   2.945   5.210  2.0262  0.0822 -0.4551
 6726SOL     OW31810   4.418   2.718   6.389  0.3808  0.1931  0.2779
 6726SOL    HW131811   4.432   2.713   6.294 -1.3408  2.1471 -0.0756
 6726SOL    HW231812   4.349   2.652   6.395  0.1851  0.5130  1.4824
 6727SOL     OW31813   1.742   1.130  11.602  0.2666 -0.8077  0.2024
 6727SOL    HW131814   1.650   1.105  11.606 -0.0528  0.4002  0.3500
 6727SOL    HW231815   1.765   1.118  11.509 -1.4954 -0.7546 -0.2325
 6728SOL     OW31816   4.381   3.068   2.132 -0.4563  0.2690  0.1378
 6728SOL    HW131817   4.459   3.050   2.184  0.0249 -0.9235 -1.0139
 6728SOL    HW231818   4.314   3.065   2.201 -0.3623 -0.1125  0.2141
 6729SOL     OW31819   4.567   3.643   6.939 -0.0709  0.5019 -0.2075
 6729SOL    HW131820   4.621   3.722   6.934  1.9874 -0.9969 -1.6396
 6729SOL    HW231821   4.484   3.677   6.906  0.8259  1.5511 -1.3643
 6730SOL     OW31822   2.028   2.769   7.763 -0.3471 -0.0011  0.2856
 6730SOL    HW131823   2.045   2.807   7.849  2.1576  1.6963 -0.9945
 6730SOL    HW231824   2.007   2.847   7.712  1.2131  0.1165 -0.1621
 6731SOL     OW31825   1.073   0.151  11.572 -0.3575  0.0729 -0.0425
 6731SOL    HW131826   0.997   0.210  11.567 -1.3399 -1.3252 -1.4009
 6731SOL    HW231827   1.135   0.201  11.626  0.3592  1.2949 -1.9978
 6732SOL     OW31828   0.053   1.288   4.243 -0.1602 -0.5101  0.0219
 6732SOL    HW131829   0.044   1.374   4.285  1.5781  0.4422 -1.5301
 6732SOL    HW231830   4.694   1.270   4.243 -0.4224  0.9151 -3.5591
 6733SOL     OW31831   0.575   3.976   2.169 -0.1953 -0.0922 -0.2556
 6733SOL    HW131832   0.515   3.981   2.094  0.5285  1.6417 -0.7069
 6733SOL    HW231833   0.561   3.885   2.195 -1.2528 -0.1142 -0.9271
 6734SOL     OW31834   3.453   1.653   4.980 -0.0581  0.0869 -0.1695
 6734SOL    HW131835   3.465   1.734   4.930  1.3486 -0.6584 -1.0430
 6734SOL    HW231836   3.380   1.687   5.032 -2.6539 -2.6059 -2.0116
 6735SOL     OW31837   2.908   1.098   3.296 -0.0509 -0.5099  0.1199
 6735SOL    HW131838   2.895   1.189   3.324 -1.9356 -0.6661 -0.2637
 6735SOL    HW231839   2.932   1.055   3.378 -0.9943  0.9504  1.1708
 6736SOL     OW31840   0.405   4.429   0.128  0.2634  0.2909 -0.1631
 6736SOL    HW131841   0.419   4.348   0.178  2.9358  0.7968 -0.0605
 6736SOL    HW231842   0.496   4.446   0.103  0.4999  1.1979  1.2973
 6737SOL     OW31843   0.232   1.205   0.885  0.0505 -0.1108 -0.1321
 6737SOL    HW131844   0.252   1.267   0.955 -2.1069  2.5850 -1.9131
 6737SOL    HW231845   0.279   1.252   0.817 -2.2772  1.9044 -0.3407
 6738SOL     OW31846   0.063   3.748  14.308  0.4388 -0.1393  0.0776
 6738SOL    HW131847   0.090   3.754  14.399 -2.3131  2.0397  0.7492
 6738SOL    HW231848   0.127   3.804  14.264  1.5425 -1.4086  0.0566
 6739SOL     OW31849   3.410   3.680   7.472 -0.7538  0.4673 -0.0889
 6739SOL    HW131850   3.349   3.679   7.399  1.1701 -0.5544 -1.6580
 6739SOL    HW231851   3.344   3.655   7.537  0.3445  0.6019  1.1005
 6740SOL     OW31852   4.180   1.471   3.148 -0.0225  0.4301  0.3029
 6740SOL    HW131853   4.221   1.399   3.101  1.6640  0.4965  1.6604
 6740SOL    HW231854   4.098   1.476   3.098  1.6054 -0.5083 -2.4373
 6741SOL     OW31855   1.148   4.009  11.752 -0.4883 -0.3882  0.8603
 6741SOL    HW131856   1.183   4.087  11.796  0.1746  2.0297 -4.0010
 6741SOL    HW231857   1.075   3.981  11.808 -0.8149 -0.3262  0.4686
 6742SOL     OW31858   1.055   3.463  14.266 -0.0096 -0.0593  0.4499
 6742SOL    HW131859   0.992   3.478  14.337  1.1401  1.7143  1.0753
 6742SOL    HW231860   1.072   3.555  14.248  0.7672 -0.0131  1.4390
 6743SOL     OW31861   2.748   2.931   2.915  0.2420 -0.2247 -0.1483
 6743SOL    HW131862   2.714   3.011   2.956 -0.8732 -0.4063 -0.7040
 6743SOL    HW231863   2.681   2.913   2.849 -0.7799 -3.2060  1.7013
 6744SOL     OW31864   4.289   2.067   0.310  0.2353 -0.2160 -0.4732
 6744SOL    HW131865   4.220   2.001   0.319  1.4391 -1.4225 -0.0277
 6744SOL    HW231866   4.360   2.018   0.269  1.1170  0.1803  0.5816
 6745SOL     OW31867   0.598   3.549   5.422 -0.5257  0.9124  0.5259
 6745SOL    HW131868   0.543   3.582   5.350 -1.4226 -1.1303  0.2859
 6745SOL    HW231869   0.576   3.456   5.428 -0.0904  0.9056  2.0871
 6746SOL     OW31870   2.655   3.418   5.271 -0.2786  0.2665  0.0160
 6746SOL    HW131871   2.564   3.393   5.283 -0.0570 -0.4596  0.1954
 6746SOL    HW231872   2.671   3.469   5.351 -0.4655 -0.7730  0.7087
 6747SOL     OW31873   0.134   1.368  14.731  0.3033 -0.0664  0.5404
 6747SOL    HW131874   0.128   1.289  14.677  0.4329 -0.2012  0.7238
 6747SOL    HW231875   0.058   1.419  14.702  0.0434  0.6074  2.4199
 6748SOL     OW31876   2.327   3.623   5.246 -0.5475 -0.1290  0.1469
 6748SOL    HW131877   2.383   3.695   5.273 -0.7828  0.5706 -1.2797
 6748SOL    HW231878   2.252   3.667   5.208  0.5999 -1.1862 -3.3138
 6749SOL     OW31879   2.660   1.329  14.718 -0.8244 -0.2627  0.7892
 6749SOL    HW131880   2.662   1.408  14.771 -1.5672  0.6437 -0.5450
 6749SOL    HW231881   2.611   1.359  14.642  0.2731 -1.4396 -0.3987
 6750SOL     OW31882   0.948   0.273   7.590  0.6496  0.4184  0.4905
 6750SOL    HW131883   0.929   0.335   7.520 -0.4178  0.8601  1.1726
 6750SOL    HW231884   1.044   0.277   7.597  0.8244  0.5710 -2.1463
 6751SOL     OW31885   0.227   3.411   2.894 -0.6699 -0.1575 -0.2870
 6751SOL    HW131886   0.322   3.420   2.885 -0.3031 -3.5052 -0.0629
 6751SOL    HW231887   0.191   3.499   2.896 -0.4890 -0.0897 -0.0014
 6752SOL     OW31888   3.501   1.071   2.343  1.1819 -0.2585 -0.4005
 6752SOL    HW131889   3.549   1.006   2.395  0.5658  0.5020  1.1314
 6752SOL    HW231890   3.499   1.136   2.414  3.0041 -0.5916 -0.0366
 6753SOL     OW31891   1.907   4.285  14.246  0.5791 -0.2543 -0.4251
 6753SOL    HW131892   1.918   4.371  14.285 -0.5082 -1.1584  1.8985
 6753SOL    HW231893   1.940   4.222  14.310  1.9262 -1.1732 -2.0241
 6754SOL     OW31894   3.875   3.690   1.007  0.0928 -0.5726 -0.0728
 6754SOL    HW131895   3.912   3.776   0.985  2.0614 -0.3737  4.0331
 6754SOL    HW231896   3.947   3.628   0.993 -0.0189 -1.0811  1.6448
 6755SOL     OW31897   1.543   3.653   2.261 -0.1897  0.2233  0.0054
 6755SOL    HW131898   1.468   3.709   2.280 -0.1570  0.5314 -0.7730
 6755SOL    HW231899   1.561   3.664   2.167  0.1831  1.2258  0.1886
 6756SOL     OW31900   4.218   3.654  14.261  0.3015  0.1824 -0.2098
 6756SOL    HW131901   4.158   3.585  14.290  2.5225 -1.2009  1.0767
 6756SOL    HW231902   4.165   3.714  14.208 -2.2726 -1.1961  0.7777
 6757SOL     OW31903   2.897   4.571   5.042 -0.2659 -0.3374 -0.1794
 6757SOL    HW131904   2.876   4.477   5.045 -0.1845 -0.3838 -1.3555
 6757SOL    HW231905   2.900   4.597   5.134  0.5442  1.2812 -0.6793
 6758SOL     OW31906   2.649   1.611   7.150 -1.2128  0.1287 -0.3921
 6758SOL    HW131907   2.617   1.701   7.161  1.9501  1.2067 -0.0198
 6758SOL    HW231908   2.563   1.570   7.158 -0.8543 -0.4644  0.4271
 6759SOL     OW31909   0.010   1.530   6.564  0.3281  0.3148  0.1848
 6759SOL    HW131910   0.016   1.455   6.623 -0.9449  0.1346  0.0837
 6759SOL    HW231911   0.099   1.520   6.531  0.1352  3.7158 -1.4338
 6760SOL     OW31912   2.326   3.939  11.371 -0.5359  0.1053 -0.2952
 6760SOL    HW131913   2.417   3.909  11.370 -0.2933  0.8386  0.0565
 6760SOL    HW231914   2.335   3.993  11.292 -2.0482  2.4072  1.1006
 6761SOL     OW31915   0.137   3.357   6.097 -0.3810 -0.5620 -0.4137
 6761SOL    HW131916   0.080   3.281   6.098 -1.0272 -0.0786  0.1094
 6761SOL    HW231917   0.083   3.423   6.141 -0.0734  0.0816 -0.9937
 6762SOL     OW31918   1.064   0.161   6.366 -0.0714  0.0300 -0.3994
 6762SOL    HW131919   1.115   0.082   6.384 -1.0285 -0.0915  1.7557
 6762SOL    HW231920   1.052   0.194   6.455 -1.9240  0.0095 -0.6423
 6763SOL     OW31921   1.821   1.261  12.448  0.3429 -0.2020 -0.1648
 6763SOL    HW131922   1.748   1.200  12.441 -0.6023  0.7220  1.5164
 6763SOL    HW231923   1.833   1.289  12.357  2.1107  2.7758  0.9580
 6764SOL     OW31924   3.951   0.490   5.603 -0.2575  0.2071 -0.1494
 6764SOL    HW131925   3.974   0.461   5.515 -0.1414 -1.2084  0.3602
 6764SOL    HW231926   3.896   0.419   5.634 -0.1848 -0.1542 -0.8497
 6765SOL     OW31927   1.280   4.308  11.663 -0.4418  0.7679  0.1545
 6765SOL    HW131928   1.375   4.294  11.668 -0.8323 -1.9011  0.0027
 6765SOL    HW231929   1.264   4.285  11.572 -2.2338  1.4303  0.2925
 6766SOL     OW31930   0.043   2.979   2.977 -0.3367  0.1094 -0.6630
 6766SOL    HW131931   0.099   2.929   3.036  0.0667 -1.7971 -2.6528
 6766SOL    HW231932   4.697   2.984   3.027  0.1362 -1.2163  0.2376
 6767SOL     OW31933   4.682   0.392   0.700 -0.6809  0.6299 -0.3166
 6767SOL    HW131934   4.658   0.309   0.741  0.4053  0.2352 -0.4682
 6767SOL    HW231935   0.022   0.356   0.652 -0.5668 -1.6138  1.5472
 6768SOL     OW31936   3.460   0.536   3.400  0.4031  0.2909  0.1308
 6768SOL    HW131937   3.473   0.441   3.402 -0.4518  0.1691 -0.0741
 6768SOL    HW231938   3.375   0.548   3.442  0.8273  1.5485  0.6434
 6769SOL     OW31939   0.850   2.764   3.631  0.1024 -0.1823  0.0055
 6769SOL    HW131940   0.929   2.726   3.592 -0.1744 -1.3741  0.6098
 6769SOL    HW231941   0.795   2.739   3.557 -0.7157  0.1396  0.5144
 6770SOL     OW31942   3.648   2.141   0.546  0.8660  0.2784  0.3681
 6770SOL    HW131943   3.639   2.198   0.469 -2.1474  1.4970  1.6128
 6770SOL    HW231944   3.568   2.142   0.597  0.9674  0.0177  0.5293
 6771SOL     OW31945   3.361   0.787  17.730 -0.0333  0.6511 -0.1310
 6771SOL    HW131946   3.447   0.777  17.689  0.5429  4.0974  0.2138
 6771SOL    HW231947   3.390   0.736   0.067  1.3921  1.3097 -0.2312
 6772SOL     OW31948   0.940   1.850  12.418 -0.0348  0.3610 -0.2122
 6772SOL    HW131949   0.895   1.789  12.476 -1.4507  3.5325  2.0459
 6772SOL    HW231950   1.031   1.823  12.430 -0.6563 -1.4524  0.3082
 6773SOL     OW31951   0.632   2.532   7.687 -1.0212 -0.0628  0.1845
 6773SOL    HW131952   0.637   2.608   7.627 -0.1604 -0.8237 -0.7112
 6773SOL    HW231953   0.703   2.545   7.749 -0.5241 -0.8099 -0.2247
 6774SOL     OW31954   0.703   1.252   7.632 -0.4063  0.1904 -0.5389
 6774SOL    HW131955   0.753   1.184   7.586  0.3006  0.5545 -0.3035
 6774SOL    HW231956   0.615   1.217   7.616  0.8392 -2.6700 -1.0759
 6775SOL     OW31957   1.398   2.004  12.644 -0.3252 -0.3081 -0.3107
 6775SOL    HW131958   1.409   1.912  12.670  0.1710 -0.5508 -1.3761
 6775SOL    HW231959   1.454   2.002  12.567  1.4871 -1.5693  1.0332
 6776SOL     OW31960   0.607   1.031   0.029 -1.0927 -0.0985  0.1685
 6776SOL    HW131961   0.555   1.110   0.013 -2.2080 -1.1416 -1.3352
 6776SOL    HW231962   0.666   1.055   0.100 -1.5200  0.1277  0.4446
 6777SOL     OW31963   3.549   4.725   2.251  0.4243  0.2897  0.0475
 6777SOL    HW131964   3.586   0.078   2.257 -0.2452  0.5911 -0.2999
 6777SOL    HW231965   3.616   4.682   2.197  0.0472 -0.9173  0.5366
 6778SOL     OW31966   0.888   0.255  14.663  0.5338 -0.4098  0.9610
 6778SOL    HW131967   0.924   0.183  14.715 -0.2558 -1.1516  0.4809
 6778SOL    HW231968   0.929   0.334  14.698  2.9073 -1.6538  0.9586
 6779SOL     OW31969   3.074   1.886   3.579 -0.2355  0.6627  0.2085
 6779SOL    HW131970   3.027   1.911   3.499  0.1636  2.7948  0.6362
 6779SOL    HW231971   3.059   1.964   3.633  1.4859  1.8660 -1.0475
 6780SOL     OW31972   1.512   0.987   2.612 -0.2354 -0.1504  0.2615
 6780SOL    HW131973   1.542   0.901   2.642 -2.5526 -1.5051 -1.2551
 6780SOL    HW231974   1.595   1.033   2.610 -0.7101  0.7037  0.5222
 6781SOL     OW31975   1.989   3.692  10.953 -0.0739 -0.4545 -0.1260
 6781SOL    HW131976   2.028   3.655  11.033 -1.6032 -1.9982 -0.0932
 6781SOL    HW231977   2.063   3.724  10.902  0.8037 -2.7654 -0.2822
 6782SOL     OW31978   4.050   3.598   2.414  0.3492 -0.1743  0.6332
 6782SOL    HW131979   4.074   3.511   2.383  1.6245  0.7316 -0.9058
 6782SOL    HW231980   4.136   3.641   2.410  0.0575  0.2353 -1.0968
 6783SOL     OW31981   3.027   2.463   7.486 -0.2912  0.8360 -0.2406
 6783SOL    HW131982   3.069   2.441   7.403 -1.1272 -2.4386  0.2158
 6783SOL    HW231983   3.077   2.408   7.547 -0.3872  2.1811  1.0658
 6784SOL     OW31984   4.419   1.067  16.650  0.2409 -0.5879  0.0634
 6784SOL    HW131985   4.460   1.144  16.611 -2.3054  1.3273  1.0993
 6784SOL    HW231986   4.349   1.108  16.702  0.1296  0.2071 -0.7168
 6785SOL     OW31987   1.619   0.979  10.162 -0.3834  0.1082 -0.1460
 6785SOL    HW131988   1.650   1.055  10.211 -3.4053  0.3512  1.3501
 6785SOL    HW231989   1.584   1.015  10.080 -2.5568  1.0628  1.2093
 6786SOL     OW31990   1.717   4.684   1.203  1.1387 -0.0609  0.5989
 6786SOL    HW131991   1.670   4.605   1.231  1.8574 -1.3338 -1.7713
 6786SOL    HW231992   1.693   0.011   1.272 -0.3774 -0.5431  0.5135
 6787SOL     OW31993   2.879   4.472   7.034 -0.1061 -0.2858 -0.1293
 6787SOL    HW131994   2.836   4.461   6.950 -1.3856  0.7243  0.3840
 6787SOL    HW231995   2.933   4.552   7.026  1.4347 -1.3503 -0.3891
 6788SOL     OW31996   4.556   3.437   4.263 -0.2304  0.1051  0.1698
 6788SOL    HW131997   4.482   3.405   4.315 -1.5421 -0.5261 -2.0227
 6788SOL    HW231998   4.531   3.414   4.173  0.2653 -2.3031  0.6368
 6789SOL     OW31999   2.828   4.085   8.639  0.1603 -0.1873 -0.0545
 6789SOL    HW132000   2.849   4.132   8.558  2.8097  0.3327  0.9322
 6789SOL    HW232001   2.771   4.153   8.674  2.8329  2.1389 -0.2250
 6790SOL     OW32002   2.334   3.343   6.393 -0.0781 -0.1382  0.0041
 6790SOL    HW132003   2.358   3.368   6.482 -0.4239  1.4638 -0.3393
 6790SOL    HW232004   2.375   3.411   6.339 -0.7471 -0.5913 -1.0654
 6791SOL     OW32005   0.000   3.455  17.202  0.2013  0.0593  0.2453
 6791SOL    HW132006   0.009   3.407  17.119  0.7556  3.0008 -1.3840
 6791SOL    HW232007   4.668   3.513  17.168  1.6272  1.5269 -0.0909
 6792SOL     OW32008   0.838   1.135   3.166 -0.1813 -0.3116 -0.4751
 6792SOL    HW132009   0.823   1.043   3.145  4.6119 -1.0748 -0.6117
 6792SOL    HW232010   0.778   1.180   3.106  0.1383  1.6817  0.6927
 6793SOL     OW32011   1.967   0.991  14.468 -0.0901 -0.3471 -0.1523
 6793SOL    HW132012   2.002   0.905  14.494 -0.2910 -0.2690  0.3750
 6793SOL    HW232013   1.935   0.975  14.380  1.7109  3.5460 -1.4834
 6794SOL     OW32014   4.360   3.303   9.017  0.2799 -0.0784 -0.1160
 6794SOL    HW132015   4.267   3.311   8.999  0.0466 -2.4032  0.0652
 6794SOL    HW232016   4.358   3.343   9.104  1.0933  0.2551 -0.2493
 6795SOL     OW32017   2.820   4.629  13.952 -0.5440 -0.4162 -0.5977
 6795SOL    HW132018   2.797   4.590  13.868 -0.5915 -0.0400 -0.7611
 6795SOL    HW232019   2.878   4.561  13.986  0.0934  0.6371  0.4258
 6796SOL     OW32020   0.765   0.614   2.230 -0.2456  0.3091  0.0072
 6796SOL    HW132021   0.784   0.538   2.285 -1.6763  2.4660  3.4434
 6796SOL    HW232022   0.837   0.625   2.168 -1.6284 -0.6978 -1.7861
 6797SOL     OW32023   3.508   1.838   1.537  0.5544 -0.7056 -0.1792
 6797SOL    HW132024   3.594   1.856   1.497  1.2664 -0.5920  1.4226
 6797SOL    HW232025   3.490   1.921   1.581  1.4408  0.7890 -2.5772
 6798SOL     OW32026   3.745   3.292   3.850 -0.0458 -0.9943  0.5520
 6798SOL    HW132027   3.679   3.279   3.918 -1.2722 -1.4719 -0.7440
 6798SOL    HW232028   3.688   3.302   3.774 -0.7643  0.8568  1.3101
 6799SOL     OW32029   1.875   4.135   9.216  0.2935  0.2356 -0.3245
 6799SOL    HW132030   1.793   4.184   9.206  1.2584  1.6318 -1.3334
 6799SOL    HW232031   1.847   4.044   9.219 -0.2171  0.3009 -2.8438
 6800SOL     OW32032   0.930   2.959   2.924 -0.0671 -0.8522  0.1612
 6800SOL    HW132033   0.975   3.040   2.947 -3.2361  0.4861  1.6963
 6800SOL    HW232034   0.998   2.892   2.936 -0.7401 -1.9894 -2.3875
 6801SOL     OW32035   2.579   2.933   6.596  0.7702 -0.2958 -0.3431
 6801SOL    HW132036   2.649   2.947   6.532  0.2990  1.1596 -0.5500
 6801SOL    HW232037   2.628   2.962   6.673 -2.9728 -0.8546  2.2278
 6802SOL     OW32038   2.730   2.940   8.815 -0.5013 -0.0211 -0.1998
 6802SOL    HW132039   2.644   2.898   8.815  0.2088 -1.4773  1.3162
 6802SOL    HW232040   2.738   2.989   8.897 -0.2773  1.0201 -0.8468
 6803SOL     OW32041   2.859   3.984  15.965  0.3820 -0.4059 -0.2930
 6803SOL    HW132042   2.852   3.905  15.912  0.3568  0.6524 -1.8553
 6803SOL    HW232043   2.951   4.002  15.946  0.1674  0.0177 -0.9190
 6804SOL     OW32044   1.306   4.545   3.325 -0.1681  0.1100 -0.2955
 6804SOL    HW132045   1.270   4.624   3.285 -1.0053  0.2708  0.8019
 6804SOL    HW232046   1.273   4.544   3.415  2.8227 -1.3741  0.7930
 6805SOL     OW32047   3.343   3.452  16.735  0.1711  0.0918 -0.2587
 6805SOL    HW132048   3.369   3.402  16.658 -0.6670 -0.7800  0.0243
 6805SOL    HW232049   3.339   3.381  16.799 -0.5032 -0.3584 -0.8013
 6806SOL     OW32050   0.867   1.500   2.782  0.4448 -0.7408  0.1040
 6806SOL    HW132051   0.773   1.487   2.772  0.2337  0.2891  0.7901
 6806SOL    HW232052   0.876   1.592   2.757  0.4628 -0.5625  0.7741
 6807SOL     OW32053   1.587   1.236   6.726 -0.3751  0.0728  0.4822
 6807SOL    HW132054   1.512   1.286   6.759 -0.0451  0.6604  0.3523
 6807SOL    HW232055   1.559   1.145   6.735  0.5870 -0.2930 -0.2006
 6808SOL     OW32056   2.360   3.772   1.926 -0.5214 -0.3056  0.4677
 6808SOL    HW132057   2.398   3.785   1.839  0.4606  0.7165  1.0578
 6808SOL    HW232058   2.385   3.681   1.938  1.0998 -0.1328 -1.6063
 6809SOL     OW32059   1.800   0.278   5.320  0.1207  0.6838 -0.0232
 6809SOL    HW132060   1.753   0.202   5.286  1.0249  0.7245 -1.3407
 6809SOL    HW232061   1.846   0.312   5.243  0.1517  0.4818 -0.0930
 6810SOL     OW32062   0.687   0.142   1.650 -0.4973 -0.1174  0.4379
 6810SOL    HW132063   0.699   0.176   1.739 -0.7025  0.3209  0.2984
 6810SOL    HW232064   0.671   0.225   1.604  1.5473 -0.0832 -0.2087
 6811SOL     OW32065   2.631   3.321  14.691 -0.2457  0.2437  0.3208
 6811SOL    HW132066   2.674   3.350  14.771  1.2889 -2.5448  0.4973
 6811SOL    HW232067   2.635   3.406  14.649 -1.9233  0.5601  0.8016
 6812SOL     OW32068   2.151   4.443   2.431 -0.0205  0.2285 -0.2616
 6812SOL    HW132069   2.109   4.450   2.345 -1.4927 -1.0485  0.3435
 6812SOL    HW232070   2.191   4.356   2.432 -3.2795 -1.2608  1.1469
 6813SOL     OW32071   4.156   1.508   9.945  0.5727 -0.2778  0.2234
 6813SOL    HW132072   4.101   1.479   9.872 -0.2250  2.4050 -0.2414
 6813SOL    HW232073   4.127   1.597   9.965 -1.2408 -1.2443  1.8406
 6814SOL     OW32074   0.391   1.530  14.306 -0.3968 -0.2492 -0.1658
 6814SOL    HW132075   0.368   1.611  14.260  1.8311  0.6056  0.2080
 6814SOL    HW232076   0.303   1.501  14.330 -0.1630 -0.1996  0.7710
 6815SOL     OW32077   3.951   1.121  17.732  0.4691 -0.6083  0.1696
 6815SOL    HW132078   3.975   1.055   0.058 -2.2713 -1.9692 -0.1872
 6815SOL    HW232079   4.015   1.115  17.661  0.5511  0.8686  0.1277
 6816SOL     OW32080   0.273   4.579   5.639 -0.3200  0.1020 -0.6281
 6816SOL    HW132081   0.343   4.525   5.602 -0.3991 -1.9994  2.2925
 6816SOL    HW232082   0.264   4.660   5.589 -1.9570 -0.1436 -0.7435
 6817SOL     OW32083   3.306   3.791   9.935 -0.7870  0.6155 -0.1238
 6817SOL    HW132084   3.357   3.871   9.951 -1.3452  0.8893  0.2678
 6817SOL    HW232085   3.383   3.734   9.926 -0.0292  1.4301  1.1786
 6818SOL     OW32086   4.522   2.475   2.113  0.6460  0.4311  0.8624
 6818SOL    HW132087   4.491   2.525   2.189  0.5503 -1.0048  1.7788
 6818SOL    HW232088   4.463   2.401   2.120  1.3546 -0.2691 -0.5717
 6819SOL     OW32089   3.543   4.294  13.781  0.2878 -0.2836 -0.7035
 6819SOL    HW132090   3.590   4.359  13.833  0.3793 -1.0615  0.2084
 6819SOL    HW232091   3.525   4.229  13.850  1.4207  1.0604  0.8553
 6820SOL     OW32092   1.272   0.292   4.208  0.0227  0.0633  0.5934
 6820SOL    HW132093   1.336   0.307   4.139 -0.2053 -0.8651  0.1823
 6820SOL    HW232094   1.317   0.322   4.287  0.5137  0.9363 -0.0254
 6821SOL     OW32095   4.635   4.676  12.313  0.3197 -0.0877  0.3903
 6821SOL    HW132096   4.664   4.668  12.223 -0.4358 -0.2096  0.1580
 6821SOL    HW232097   4.560   4.617  12.320 -1.1645  1.8825  1.3357
 6822SOL     OW32098   3.990   1.292   3.794 -0.2114 -0.7689 -0.3658
 6822SOL    HW132099   3.975   1.285   3.700 -3.0619  0.0173  0.0448
 6822SOL    HW232100   3.958   1.206   3.820  1.1520 -1.1644  0.0168
 6823SOL     OW32101   0.875   3.619  15.942 -0.5172  0.0212  0.0725
 6823SOL    HW132102   0.816   3.553  15.978 -1.4160 -0.1068 -1.6274
 6823SOL    HW232103   0.818   3.694  15.955 -1.1280 -0.3991 -0.1349
 6824SOL     OW32104   2.038   3.298   9.967 -0.0735 -0.1914  0.4665
 6824SOL    HW132105   2.074   3.386   9.979  2.1544 -0.9155 -0.8716
 6824SOL    HW232106   1.949   3.314   9.999 -0.8707 -3.7696  0.0324
 6825SOL     OW32107   2.832   1.608   5.380  0.0241 -0.1550 -0.2539
 6825SOL    HW132108   2.830   1.599   5.475 -1.7587 -1.1162 -0.3786
 6825SOL    HW232109   2.857   1.518   5.359  0.4343 -0.1477  0.2027
 6826SOL     OW32110   1.015   2.747   2.134  0.1516 -0.4179  0.1034
 6826SOL    HW132111   1.010   2.667   2.187 -1.3056 -0.2186  0.2708
 6826SOL    HW232112   1.104   2.730   2.104  0.8319  1.3801  1.1237
 6827SOL     OW32113   2.085   4.060   9.958 -0.1324  0.0164  0.5066
 6827SOL    HW132114   2.031   4.016  10.024  2.8003 -2.0283  1.5635
 6827SOL    HW232115   2.017   4.119   9.926  0.0357  1.4727  2.8281
 6828SOL     OW32116   0.294   1.404   5.147 -0.8776 -0.5459 -0.2854
 6828SOL    HW132117   0.349   1.451   5.084  0.1902  0.4585  1.4014
 6828SOL    HW232118   0.232   1.467   5.183  0.0174  0.7120 -0.9483
 6829SOL     OW32119   4.471   3.372   3.656  0.1145 -0.4152  0.0598
 6829SOL    HW132120   4.507   3.450   3.615 -0.7300 -0.0478  0.0138
 6829SOL    HW232121   4.548   3.319   3.675  1.6563  1.2382 -1.6263
 6830SOL     OW32122   0.169   3.390  11.690 -0.4178 -0.4345 -0.2747
 6830SOL    HW132123   0.101   3.364  11.753 -0.6443  1.1774  0.1481
 6830SOL    HW232124   0.252   3.369  11.733 -0.0585 -1.4685 -1.4873
 6831SOL     OW32125   1.929   0.342   2.799  0.6102 -0.3199  0.0975
 6831SOL    HW132126   2.023   0.327   2.787  0.8045 -0.4227  1.7137
 6831SOL    HW232127   1.913   0.430   2.832 -3.0449 -0.7365 -0.5860
 6832SOL     OW32128   3.959   3.904   6.193  0.2245 -0.2637 -0.0615
 6832SOL    HW132129   3.904   3.836   6.153  0.1437  1.5833 -3.1339
 6832SOL    HW232130   3.972   3.871   6.282 -2.6962 -2.2438 -0.3616
 6833SOL     OW32131   0.865   3.191  10.212  0.1702  0.0281 -0.0092
 6833SOL    HW132132   0.853   3.187  10.307  0.0540  1.3440  0.0313
 6833SOL    HW232133   0.942   3.247  10.216 -0.5363  0.9931 -0.0003
 6834SOL     OW32134   4.419   4.067   9.148  0.0224 -0.4821 -0.1228
 6834SOL    HW132135   4.430   4.075   9.243  0.7223 -2.4871 -0.0342
 6834SOL    HW232136   4.435   4.157   9.122  2.0677 -0.4574  1.1826
 6835SOL     OW32137   4.153   3.458   0.646 -0.0655 -0.5285  0.2115
 6835SOL    HW132138   4.232   3.479   0.596  0.2021  0.9641  1.2443
 6835SOL    HW232139   4.128   3.368   0.626  0.2105 -0.7519  0.8526
 6836SOL     OW32140   1.890   1.680   8.304  0.0942 -0.0055 -0.0312
 6836SOL    HW132141   1.954   1.670   8.233 -0.3052 -1.8675 -0.1307
 6836SOL    HW232142   1.938   1.619   8.360 -0.6647 -0.0644  0.5533
 6837SOL     OW32143   0.919   4.555   4.602  0.0359  0.6079  0.3872
 6837SOL    HW132144   0.874   4.510   4.674  0.3385 -1.2696 -0.6017
 6837SOL    HW232145   0.993   4.498   4.586  0.6742  1.9052 -1.3038
 6838SOL     OW32146   4.139   4.488   6.886 -0.4895  0.1619  0.4388
 6838SOL    HW132147   4.215   4.449   6.929 -1.8339 -1.8617  1.0475
 6838SOL    HW232148   4.086   4.493   6.966 -0.5778  0.8038  0.3384
 6839SOL     OW32149   1.670   2.881  13.146 -0.4971 -0.0695 -0.1767
 6839SOL    HW132150   1.614   2.957  13.162  3.4203  3.0549 -1.1801
 6839SOL    HW232151   1.668   2.843  13.234 -0.6663  1.4762  0.4985
 6840SOL     OW32152   3.906   2.138   7.027  0.1820 -0.0669  0.5650
 6840SOL    HW132153   3.840   2.112   7.091 -0.1945 -1.0563 -0.2274
 6840SOL    HW232154   3.889   2.232   7.028  2.2654  0.3195 -0.6031
 6841SOL     OW32155   1.295   0.106   8.383 -0.1927  0.3716  0.1655
 6841SOL    HW132156   1.251   0.190   8.391  2.4115  1.8952 -1.4533
 6841SOL    HW232157   1.302   0.100   8.288 -1.2445  1.3464  0.0244
 6842SOL     OW32158   2.154   2.105   3.402  0.2537 -0.6206 -0.5363
 6842SOL    HW132159   2.130   2.017   3.373 -0.1203 -0.0759 -1.9138
 6842SOL    HW232160   2.073   2.126   3.449 -0.1632  0.3370 -1.6872
 6843SOL     OW32161   4.241   0.171   8.393  0.1764  0.3622 -0.3305
 6843SOL    HW132162   4.331   0.192   8.418  1.0261 -0.7916 -2.3264
 6843SOL    HW232163   4.255   0.109   8.321  0.2475 -0.7778  0.6608
 6844SOL     OW32164   1.123   4.726   5.340 -0.6377 -0.4650 -0.0228
 6844SOL    HW132165   1.057   4.657   5.330  0.7923 -1.9330  0.7250
 6844SOL    HW232166   1.086   0.072   5.305  1.6631  0.1394 -1.0276
 6845SOL     OW32167   3.835   3.442   9.735  0.2022  0.0369  0.1064
 6845SOL    HW132168   3.788   3.371   9.692 -0.6384  0.1765  0.7977
 6845SOL    HW232169   3.800   3.456   9.823  2.8871 -0.1455  1.2118
 6846SOL     OW32170   4.584   0.272   5.982 -0.3002 -0.0061 -0.3084
 6846SOL    HW132171   4.608   0.292   5.892 -0.6702  1.2853 -0.1109
 6846SOL    HW232172   4.647   0.319   6.036 -1.6721  0.5546  0.8002
 6847SOL     OW32173   1.003   1.264   5.436 -0.3650 -0.1113 -0.1348
 6847SOL    HW132174   0.910   1.274   5.456 -0.5166  0.4733 -1.1134
 6847SOL    HW232175   1.019   1.172   5.413 -3.3305 -0.8067  0.5816
 6848SOL     OW32176   2.967   3.781   5.476  0.0122  0.2411 -0.2138
 6848SOL    HW132177   3.062   3.787   5.472  0.0149 -0.1704 -0.7587
 6848SOL    HW232178   2.945   3.688   5.477  1.0391  0.0011  0.5155
 6849SOL     OW32179   0.562   3.278   5.385 -0.5681  0.2705 -0.6065
 6849SOL    HW132180   0.523   3.192   5.401  0.8422 -0.3850 -0.6656
 6849SOL    HW232181   0.650   3.248   5.361  0.1045  1.7155  0.1016
 6850SOL     OW32182   2.351   3.515   4.985 -0.5753 -0.8916 -0.1524
 6850SOL    HW132183   2.380   3.559   5.065  0.4947 -1.2720 -0.3351
 6850SOL    HW232184   2.367   3.423   5.004 -1.5745 -0.4439  2.8416
 6851SOL     OW32185   0.258   1.943  15.251  0.4940 -0.3005  0.1467
 6851SOL    HW132186   0.179   1.996  15.263  0.0747 -0.5577 -1.4029
 6851SOL    HW232187   0.288   1.926  15.340 -1.6858 -3.2970  0.3135
 6852SOL     OW32188   2.325   2.858   6.523 -0.4439 -0.5767  0.1076
 6852SOL    HW132189   2.302   2.937   6.475 -1.2779  0.9485  2.9759
 6852SOL    HW232190   2.420   2.869   6.518 -0.6713  1.0368 -0.7694
 6853SOL     OW32191   1.885   2.340  11.190 -0.1166 -0.3706 -0.0619
 6853SOL    HW132192   1.799   2.371  11.163  0.7716  1.2914 -0.9812
 6853SOL    HW232193   1.926   2.294  11.116  0.3994  0.2015 -0.1245
 6854SOL     OW32194   2.940   2.877   4.252  0.9752 -0.0896  0.0703
 6854SOL    HW132195   2.863   2.844   4.298 -0.3633 -0.1853 -2.2618
 6854SOL    HW232196   2.917   2.880   4.160 -0.3971 -0.4200  0.4098
 6855SOL     OW32197   0.149   3.564   5.195 -0.5789  0.0036  0.4077
 6855SOL    HW132198   0.098   3.626   5.246 -0.7640  0.5563 -0.4530
 6855SOL    HW232199   0.195   3.521   5.268  1.1632  1.5529  0.2207
 6856SOL     OW32200   4.024   0.697   5.784  0.5450  0.2641 -0.4096
 6856SOL    HW132201   4.111   0.701   5.746  0.6316 -0.2576 -0.2629
 6856SOL    HW232202   3.987   0.644   5.713 -0.2501  0.7551 -0.3592
 6857SOL     OW32203   2.626   3.733   4.404  0.3533  0.2029 -0.9485
 6857SOL    HW132204   2.666   3.708   4.487  0.1165  2.9578  0.0154
 6857SOL    HW232205   2.531   3.725   4.417  0.7700 -1.9645  0.5596
 6858SOL     OW32206   4.099   1.740  12.995  0.2664  0.2596 -0.5520
 6858SOL    HW132207   4.015   1.773  12.965  0.0985 -0.6324 -1.0859
 6858SOL    HW232208   4.130   1.700  12.914  0.5789 -1.6146  0.4897
 6859SOL     OW32209   1.280   0.317   1.631 -0.4050 -0.2261 -0.4948
 6859SOL    HW132210   1.210   0.267   1.589 -0.2994 -0.0311 -0.9020
 6859SOL    HW232211   1.230   0.373   1.690  1.7012  1.9681 -0.7799
 6860SOL     OW32212   4.213   3.741   6.634 -0.1372  0.2090 -0.1421
 6860SOL    HW132213   4.278   3.778   6.695  0.0091  1.9195 -1.3279
 6860SOL    HW232214   4.201   3.661   6.684  1.0381 -1.2038 -2.1379
 6861SOL     OW32215   0.509   2.014   3.813  0.7990 -0.4478  0.3814
 6861SOL    HW132216   0.507   2.095   3.762  1.6375  0.5167  1.8801
 6861SOL    HW232217   0.458   1.960   3.754  2.7932 -0.3185 -1.4710
 6862SOL     OW32218   3.561   1.412   6.157  0.1414 -0.6111 -0.8613
 6862SOL    HW132219   3.650   1.444   6.144  0.9959 -1.8486  1.9145
 6862SOL    HW232220   3.588   1.320   6.160 -1.1162 -0.9700 -0.3734
 6863SOL     OW32221   1.489   3.171   5.490 -0.1220 -0.0158  0.2950
 6863SOL    HW132222   1.551   3.243   5.477 -0.1410 -0.2141 -0.9477
 6863SOL    HW232223   1.452   3.186   5.576  2.5053 -0.7178  1.5490
 6864SOL     OW32224   1.997   1.321   8.959  0.1482  0.7773  0.5511
 6864SOL    HW132225   1.955   1.362   8.883  2.3998  0.3403 -0.9275
 6864SOL    HW232226   1.917   1.290   9.002  0.7050 -0.2278  0.8470
 6865SOL     OW32227   2.794   2.502   8.223 -0.4393 -0.3327  0.5473
 6865SOL    HW132228   2.846   2.453   8.286 -1.2217  1.0044  2.2216
 6865SOL    HW232229   2.706   2.466   8.237 -0.4156 -1.2108 -1.5443
 6866SOL     OW32230   1.468   2.858  17.423 -0.0055 -0.3273  0.6758
 6866SOL    HW132231   1.443   2.819  17.507 -0.1959  2.2275  1.7866
 6866SOL    HW232232   1.393   2.916  17.409 -0.6344 -1.2702  0.0671
 6867SOL     OW32233   2.708   2.975   1.789  0.0578 -0.1203 -0.6234
 6867SOL    HW132234   2.672   2.907   1.846  0.5945 -0.4796 -0.7164
 6867SOL    HW232235   2.656   3.049   1.822  0.7408  0.0428  0.0866
 6868SOL     OW32236   3.755   2.654   9.658 -0.5127 -0.1515  0.2013
 6868SOL    HW132237   3.666   2.622   9.674 -0.2737 -1.2883 -0.8057
 6868SOL    HW232238   3.730   2.704   9.580 -0.2606 -1.0215 -0.4355
 6869SOL     OW32239   1.542   4.378  17.476  0.0583 -0.4911  0.0025
 6869SOL    HW132240   1.535   4.286  17.450  1.5194 -0.5861 -0.0506
 6869SOL    HW232241   1.545   4.362  17.571 -0.6105  0.6105  0.2143
 6870SOL     OW32242   3.899   4.310   7.083  0.5473 -0.4702 -0.3524
 6870SOL    HW132243   3.828   4.292   7.143  1.2628  0.5220  0.7892
 6870SOL    HW232244   3.925   4.402   7.094  0.0090 -0.5443  1.4034
 6871SOL     OW32245   1.552   4.679   4.215 -0.2764  0.5231 -0.1146
 6871SOL    HW132246   1.530   4.586   4.220 -0.2486  0.4862 -0.7315
 6871SOL    HW232247   1.629   4.685   4.158 -0.8476  0.5566 -0.8652
 6872SOL     OW32248   2.308   3.297  13.616 -0.0665 -0.2358 -0.0841
 6872SOL    HW132249   2.366   3.231  13.654 -1.3871 -0.7022  1.1219
 6872SOL    HW232250   2.333   3.379  13.658 -1.2348  0.4809 -0.7881
 6873SOL     OW32251   2.773   4.339   2.080  0.4455  0.4191 -0.1705
 6873SOL    HW132252   2.863   4.370   2.067  0.2857  0.9377 -0.0338
 6873SOL    HW232253   2.771   4.332   2.175 -1.1380 -0.2941 -0.2477
 6874SOL     OW32254   3.514   0.863  12.735 -0.1915  0.1371  0.6789
 6874SOL    HW132255   3.600   0.822  12.747 -0.3844 -0.5296 -0.2221
 6874SOL    HW232256   3.470   0.807  12.671  1.4459 -0.6726  0.2840
 6875SOL     OW32257   0.617   0.753   4.394 -0.3985  0.0384 -0.3222
 6875SOL    HW132258   0.528   0.775   4.368 -0.9755 -0.5276  1.1342
 6875SOL    HW232259   0.645   0.844   4.406 -1.1502  0.3460 -0.9522
 6876SOL     OW32260   3.302   2.799   1.447  0.0839  0.3066 -0.7129
 6876SOL    HW132261   3.238   2.869   1.439  0.1703  0.3865 -0.7020
 6876SOL    HW232262   3.254   2.725   1.410 -0.6355 -0.1475  1.0932
 6877SOL     OW32263   3.504   3.409  11.278 -0.0091  0.0153 -0.2165
 6877SOL    HW132264   3.578   3.356  11.309  0.0346 -0.4415 -1.1107
 6877SOL    HW232265   3.443   3.398  11.351 -0.6832 -0.0629 -0.7959
 6878SOL     OW32266   3.547   2.559   8.765 -0.1654  0.2355  0.1537
 6878SOL    HW132267   3.575   2.562   8.674  2.7730 -0.7763  1.0267
 6878SOL    HW232268   3.500   2.643   8.765  3.5183  2.2811 -1.5199
 6879SOL     OW32269   2.672   3.386   3.922 -0.2867  0.3302 -0.0560
 6879SOL    HW132270   2.761   3.409   3.948  0.0537 -0.2952 -0.6395
 6879SOL    HW232271   2.687   3.320   3.854  2.7288  0.6328  0.2905
 6880SOL     OW32272   4.574   1.154  14.892  0.1385  0.4077 -0.2575
 6880SOL    HW132273   4.649   1.102  14.919 -1.6623 -2.1002 -0.1075
 6880SOL    HW232274   4.613   1.212  14.826  0.2219  0.3136 -0.2904
 6881SOL     OW32275   0.134   0.638  10.990 -0.5712 -0.2723  0.1642
 6881SOL    HW132276   0.089   0.555  11.005  0.3848 -0.9617 -0.7827
 6881SOL    HW232277   0.073   0.693  10.941 -1.8008 -1.4581  0.3621
 6882SOL     OW32278   1.956   1.608   2.922  0.8506  0.0573 -0.6136
 6882SOL    HW132279   1.899   1.627   2.848 -0.0658 -1.0252 -0.1890
 6882SOL    HW232280   2.028   1.668   2.905  1.0843  0.0230  0.2174
 6883SOL     OW32281   2.711   0.038   4.696  0.3129 -0.1114 -0.0936
 6883SOL    HW132282   2.723   0.057   4.603  0.5514  1.3362  0.2226
 6883SOL    HW232283   2.619   0.064   4.703  0.1100  0.1348 -3.6759
 6884SOL     OW32284   4.704   4.683   9.481 -0.7776 -0.0053  0.5385
 6884SOL    HW132285   0.063   4.691   9.470 -1.0623  0.6394 -1.5163
 6884SOL    HW232286   4.692   4.680   9.576 -2.1203  3.5227  0.4900
 6885SOL     OW32287   2.030   4.465   4.097  0.4202 -0.2833  0.1406
 6885SOL    HW132288   2.047   4.370   4.095  2.2092  0.0362  0.2799
 6885SOL    HW232289   2.041   4.490   4.189 -2.3451  0.7413  0.1784
 6886SOL     OW32290   1.934   0.462   1.373  0.0927  0.1681  0.5446
 6886SOL    HW132291   1.970   0.535   1.323  1.6351 -1.0461 -0.1165
 6886SOL    HW232292   1.971   0.383   1.334 -0.5347  0.1827 -0.0926
 6887SOL     OW32293   2.124   4.646   7.428 -0.4738 -0.5637  0.1288
 6887SOL    HW132294   2.095   4.726   7.385 -1.0038 -0.5828  0.4491
 6887SOL    HW232295   2.101   4.663   7.520 -1.4690 -0.5773 -0.1200
 6888SOL     OW32296   3.012   2.128   1.940 -0.2865  0.1116  0.0830
 6888SOL    HW132297   3.060   2.104   1.860  0.7936 -0.3007  0.8585
 6888SOL    HW232298   3.006   2.044   1.985 -0.8362 -0.0662 -0.3290
 6889SOL     OW32299   1.227   4.600  10.889 -0.8280 -0.1098  0.2954
 6889SOL    HW132300   1.244   4.507  10.908 -1.5796 -0.4493 -0.6827
 6889SOL    HW232301   1.234   4.639  10.976  1.1098 -0.5652  0.3478
 6890SOL     OW32302   3.083   3.852  10.211 -0.8604 -0.3417  0.5072
 6890SOL    HW132303   3.085   3.782  10.145 -2.1633  0.6233 -0.5559
 6890SOL    HW232304   3.128   3.927  10.172  1.2027 -0.5861  2.4510
 6891SOL     OW32305   0.824   4.047   5.811  0.4553 -0.0139  0.8950
 6891SOL    HW132306   0.830   4.025   5.904 -0.0249 -2.3069  0.3912
 6891SOL    HW232307   0.918   4.062   5.803  0.4449 -1.4814 -2.1037
 6892SOL     OW32308   4.648   0.542   2.606 -0.1786  0.3057 -0.5535
 6892SOL    HW132309   4.636   0.554   2.512  0.4573 -2.1154 -0.9325
 6892SOL    HW232310   4.727   0.594   2.623  0.5481 -0.6285 -1.1086
 6893SOL     OW32311   0.492   3.293   7.984  0.0566  0.0959 -0.0674
 6893SOL    HW132312   0.546   3.222   8.020  2.0777  1.3429 -0.6676
 6893SOL    HW232313   0.408   3.280   8.029 -0.0322 -1.0271 -0.5556
 6894SOL     OW32314   0.475   0.786   5.664  0.0249  0.1256  0.3831
 6894SOL    HW132315   0.528   0.755   5.590  1.0607  0.9670  0.7734
 6894SOL    HW232316   0.486   0.707   5.716 -1.3030 -1.1817 -1.2960
 6895SOL     OW32317   3.765   1.317   6.476  0.4563  0.3878  0.1084
 6895SOL    HW132318   3.716   1.375   6.534  0.4000  1.6061 -1.1549
 6895SOL    HW232319   3.847   1.355   6.506  0.9242 -0.5788  0.0766
 6896SOL     OW32320   4.227   2.283  12.544  0.5923  0.0482  0.0130
 6896SOL    HW132321   4.194   2.336  12.616 -1.1152  0.1435 -0.8282
 6896SOL    HW232322   4.282   2.219  12.589  0.2362 -0.7018 -0.6058
 6897SOL     OW32323   3.680   2.643   9.280 -0.1593  0.5684  0.0912
 6897SOL    HW132324   3.670   2.629   9.186  2.2554 -0.7617  0.0382
 6897SOL    HW232325   3.711   2.554   9.296  0.3983  0.7529  0.0018
 6898SOL     OW32326   2.870   1.707   7.295 -0.5787 -0.0334 -0.5204
 6898SOL    HW132327   2.869   1.647   7.370 -2.3980 -0.8338 -1.1720
 6898SOL    HW232328   2.829   1.643   7.236 -3.2448  0.8105  0.4019
 6899SOL     OW32329   4.241   2.849   8.568 -0.3144 -0.4557  0.0491
 6899SOL    HW132330   4.286   2.791   8.507  0.7123  1.1079 -0.6768
 6899SOL    HW232331   4.263   2.808   8.652  0.8145  0.6138  0.2818
 6900SOL     OW32332   1.825   2.843   4.568  0.6620 -0.7731  0.1936
 6900SOL    HW132333   1.835   2.826   4.661 -0.6983  2.0535  0.8455
 6900SOL    HW232334   1.734   2.870   4.556  1.2960  1.0923 -0.3623
 6901SOL     OW32335   1.377   1.520  15.262  0.6509 -0.0377  0.2053
 6901SOL    HW132336   1.390   1.425  15.261 -4.2668 -0.7489  0.5936
 6901SOL    HW232337   1.281   1.527  15.254  0.5879 -1.0188  0.0634
 6902SOL     OW32338   3.928   1.167   3.142 -0.6193  0.2707 -0.2180
 6902SOL    HW132339   3.911   1.258   3.118 -0.2836 -0.1617 -2.1327
 6902SOL    HW232340   3.879   1.156   3.223 -1.1256  0.4170 -0.5075
 6903SOL     OW32341   4.314   2.998   2.819  0.5650  0.1941  0.3432
 6903SOL    HW132342   4.233   3.015   2.867 -0.3010 -0.7132 -0.8023
 6903SOL    HW232343   4.336   2.914   2.861  0.1607  0.0039  0.1781
 6904SOL     OW32344   0.143   3.024   7.946 -0.8262  0.5022  0.3985
 6904SOL    HW132345   0.086   3.066   7.881  1.9676  0.4622 -2.0925
 6904SOL    HW232346   0.180   3.102   7.987  0.2626 -0.3176  0.9818
 6905SOL     OW32347   3.385   1.913   4.248 -0.4880 -0.0984  0.4168
 6905SOL    HW132348   3.391   1.997   4.294  0.7135  0.0362  0.0196
 6905SOL    HW232349   3.304   1.931   4.200  0.0023 -0.1006 -0.4214
 6906SOL     OW32350   3.575   3.859   7.999 -0.2871 -0.1853  0.3508
 6906SOL    HW132351   3.531   3.941   8.021  0.2982  0.1743  0.1768
 6906SOL    HW232352   3.624   3.894   7.924  0.8111 -0.9852  0.6991
 6907SOL     OW32353   2.531   3.680   6.470 -0.4507  0.2498  0.5602
 6907SOL    HW132354   2.489   3.766   6.479 -0.1664  0.5590 -0.9938
 6907SOL    HW232355   2.525   3.656   6.562 -2.0031 -0.7260  0.2115
 6908SOL     OW32356   1.639   0.031   5.695  0.1316  0.3340  0.1433
 6908SOL    HW132357   1.725   0.030   5.736  0.5718 -2.9835 -0.8633
 6908SOL    HW232358   1.596   0.004   5.777  2.2787  1.7067  1.7075
 6909SOL     OW32359   0.908   1.616   6.576 -0.0260 -0.3243 -0.1496
 6909SOL    HW132360   0.968   1.688   6.558 -2.5895  1.5138 -1.3000
 6909SOL    HW232361   0.966   1.540   6.574  0.4196  0.0455 -1.1916
 6910SOL     OW32362   1.763   4.230   5.337 -0.0206  0.1644 -0.8237
 6910SOL    HW132363   1.763   4.284   5.417 -0.1006 -0.7038 -0.2368
 6910SOL    HW232364   1.710   4.156   5.367 -0.4547  0.8030  0.0257
 6911SOL     OW32365   1.997   3.565   4.176  0.2113 -0.1665 -0.2982
 6911SOL    HW132366   2.034   3.562   4.264 -3.1572 -1.0536  1.1186
 6911SOL    HW232367   2.035   3.486   4.139  0.7925 -0.5630  1.1391
 6912SOL     OW32368   0.693   0.388   1.508  0.2636 -0.3096  0.2894
 6912SOL    HW132369   0.645   0.400   1.426 -1.1746  0.2533  1.1982
 6912SOL    HW232370   0.779   0.427   1.497 -1.1256  2.5582 -0.4418
 6913SOL     OW32371   2.319   0.659   5.220 -0.3639  0.0999  0.0197
 6913SOL    HW132372   2.366   0.606   5.284  1.3248  1.2178 -0.2921
 6913SOL    HW232373   2.304   0.599   5.147  0.0028 -1.3320  1.1119
 6914SOL     OW32374   4.427   4.201   8.560 -0.9358 -0.3063 -0.3337
 6914SOL    HW132375   4.435   4.160   8.646 -0.3144 -0.7871 -0.6184
 6914SOL    HW232376   4.341   4.240   8.576 -0.8928  0.3330 -1.6565
 6915SOL     OW32377   0.147   3.011   1.853 -0.0045 -0.5323  0.5588
 6915SOL    HW132378   0.097   3.064   1.915 -0.2209  0.9713 -0.8946
 6915SOL    HW232379   0.237   3.018   1.886 -0.2774  0.6875  1.0602
 6916SOL     OW32380   3.009   3.682   2.973  0.2606  0.6554 -0.1999
 6916SOL    HW132381   3.028   3.775   2.960 -0.8304  0.7750 -0.9280
 6916SOL    HW232382   3.096   3.643   2.985  0.4995  1.0955 -0.5099
 6917SOL     OW32383   3.491   2.693   2.999  0.0482 -0.8242 -0.2666
 6917SOL    HW132384   3.454   2.639   2.929 -0.8475  1.1277 -1.3103
 6917SOL    HW232385   3.407   2.686   3.044  0.2397 -3.0530 -0.2658
 6918SOL     OW32386   1.298   1.807  17.071  0.3528 -0.1158  0.1470
 6918SOL    HW132387   1.275   1.869  17.002 -0.5525 -1.5389 -0.8247
 6918SOL    HW232388   1.348   1.864  17.130 -1.1465  0.5429  0.7745
 6919SOL     OW32389   2.635   1.744   4.294 -0.2347  1.1077 -0.3654
 6919SOL    HW132390   2.606   1.688   4.222  0.8420  0.4531 -0.2792
 6919SOL    HW232391   2.724   1.763   4.265  0.5654 -0.3666  1.1189
 6920SOL     OW32392   1.653   2.484   8.238  0.1491 -0.4557  0.3285
 6920SOL    HW132393   1.644   2.469   8.144  0.2310 -2.2816  0.6256
 6920SOL    HW232394   1.578   2.539   8.259  0.0945 -0.3509 -0.1512
 6921SOL     OW32395   0.070   3.367   9.811 -0.0678 -0.3113 -0.3627
 6921SOL    HW132396   0.045   3.420   9.736  0.2118 -0.1659 -0.3520
 6921SOL    HW232397   0.019   3.289   9.787 -3.0577  1.7539 -0.7142
 6922SOL     OW32398   2.443   1.607   6.163 -0.2058  0.7955 -0.0530
 6922SOL    HW132399   2.524   1.655   6.148 -0.5058  1.1233 -0.6067
 6922SOL    HW232400   2.470   1.529   6.115 -2.2159  0.7637 -1.0929
 6923SOL     OW32401   2.271   4.220   7.370  0.3217 -0.0071 -0.0495
 6923SOL    HW132402   2.195   4.189   7.321  1.8190 -3.5391 -0.0915
 6923SOL    HW232403   2.345   4.227   7.310  0.1810  0.8922 -0.1250
 6924SOL     OW32404   3.970   0.498   2.205  0.4694  0.0971  0.2327
 6924SOL    HW132405   4.027   0.568   2.173  0.1594  0.3475  0.2299
 6924SOL    HW232406   3.881   0.526   2.180  1.1267 -0.3060 -2.6299
 6925SOL     OW32407   2.784   1.144   3.003  0.8315  0.4495 -0.2360
 6925SOL    HW132408   2.853   1.205   2.974  1.7653  0.4252  1.9585
 6925SOL    HW232409   2.837   1.105   3.072  0.5249 -0.0477 -0.2772
 6926SOL     OW32410   0.821   1.811  11.941  0.8158  0.1995 -0.4713
 6926SOL    HW132411   0.846   1.886  11.995 -0.7598  0.0654  0.4484
 6926SOL    HW232412   0.883   1.740  11.955  0.8902  0.3158 -0.2026
 6927SOL     OW32413   0.542   3.543   6.045 -0.3503  0.0804 -0.2639
 6927SOL    HW132414   0.600   3.614   6.075  0.1069 -0.7761  0.8611
 6927SOL    HW232415   0.485   3.546   6.122 -0.5014 -0.1393 -0.3703
 6928SOL     OW32416   1.698   0.729  15.848  0.4327 -0.1479 -0.4716
 6928SOL    HW132417   1.626   0.766  15.797  0.4693 -0.2540 -0.6001
 6928SOL    HW232418   1.775   0.735  15.791  0.1558  2.0580 -0.6009
 6929SOL     OW32419   4.620   1.231   3.952 -0.3366 -0.0407 -0.7414
 6929SOL    HW132420   4.613   1.167   4.022  1.8215 -1.2478 -1.6071
 6929SOL    HW232421   4.572   1.201   3.875 -1.5784  0.7276 -0.2710
 6930SOL     OW32422   4.115   3.473   4.805 -0.0079 -0.2363 -0.1851
 6930SOL    HW132423   4.042   3.417   4.831  0.6081 -0.3668  1.2837
 6930SOL    HW232424   4.078   3.559   4.783  0.3036 -0.0951 -0.1562
 6931SOL     OW32425   3.891   2.992  13.969  0.1324  0.7938  0.0009
 6931SOL    HW132426   3.976   2.985  14.011 -0.5503 -1.6545  0.9709
 6931SOL    HW232427   3.832   2.987  14.044 -0.4405  0.7376 -0.4513
 6932SOL     OW32428   1.447   3.644  10.504 -0.6372 -0.6460  0.0288
 6932SOL    HW132429   1.493   3.612  10.426  1.6918 -1.4711  1.7484
 6932SOL    HW232430   1.358   3.643  10.468 -0.8307 -0.3822  0.5044
 6933SOL     OW32431   3.622   3.283   5.258 -0.6576 -0.1666 -0.5753
 6933SOL    HW132432   3.562   3.335   5.311  1.4295  0.4119  1.1939
 6933SOL    HW232433   3.692   3.340   5.226 -1.1138  1.4922  1.3784
 6934SOL     OW32434   4.422   2.354   6.833 -0.4400  1.0553 -0.3206
 6934SOL    HW132435   4.399   2.288   6.768  2.2725  0.7134 -0.9413
 6934SOL    HW232436   4.398   2.315   6.917  0.7694 -0.4781 -0.6882
 6935SOL     OW32437   1.098   0.698  16.897  0.0890  0.1636 -0.4804
 6935SOL    HW132438   1.139   0.689  16.983  1.0485 -2.8473 -1.2314
 6935SOL    HW232439   1.074   0.790  16.893 -0.4310  0.1537  2.9390
 6936SOL     OW32440   1.360   2.120   2.369  0.2524  0.3255 -0.5704
 6936SOL    HW132441   1.266   2.129   2.355 -0.0121 -2.1357 -0.4358
 6936SOL    HW232442   1.361   2.116   2.465 -2.0148 -0.4523 -0.5919
 6937SOL     OW32443   2.674   1.572  16.483 -0.1592  0.1534  0.4401
 6937SOL    HW132444   2.614   1.566  16.409  0.0630 -2.2143  0.4426
 6937SOL    HW232445   2.755   1.589  16.435  0.4264  0.5659  1.5581
 6938SOL     OW32446   1.892   1.506   6.042  0.3169 -0.0616 -0.0589
 6938SOL    HW132447   1.868   1.469   6.127  2.0759  0.3964  0.6379
 6938SOL    HW232448   1.963   1.449   6.014  1.2339  1.7084 -1.3185
 6939SOL     OW32449   2.536   2.483   3.482 -0.2203  0.3373  1.0409
 6939SOL    HW132450   2.580   2.538   3.417 -0.4824 -1.3007 -0.5172
 6939SOL    HW232451   2.465   2.441   3.434  0.3098 -0.4114  0.9069
 6940SOL     OW32452   1.663   3.448  16.915  0.2804  0.4851  0.0391
 6940SOL    HW132453   1.593   3.395  16.953 -0.0508  0.9470  0.0698
 6940SOL    HW232454   1.731   3.448  16.982  0.3572  1.5086 -0.0409
 6941SOL     OW32455   2.006   3.123   8.123  0.0687  0.8548  0.2782
 6941SOL    HW132456   1.974   3.196   8.070 -0.7323 -1.0072 -1.8027
 6941SOL    HW232457   2.061   3.158   8.192  1.5122 -1.3040  0.2054
 6942SOL     OW32458   2.170   1.705   6.174 -0.5514 -0.1855  0.0493
 6942SOL    HW132459   2.169   1.610   6.178 -2.5554 -0.2621 -2.3362
 6942SOL    HW232460   2.265   1.714   6.176 -0.4366 -1.5574  0.6288
 6943SOL     OW32461   2.007   0.528   6.064  0.8529 -0.1443  0.0515
 6943SOL    HW132462   2.074   0.517   6.131  1.1130  0.2580 -0.1467
 6943SOL    HW232463   1.936   0.551   6.123  0.1072  0.9498 -1.2747
 6944SOL     OW32464   0.043   0.211   2.503 -0.4644 -0.0697  0.3799
 6944SOL    HW132465   4.725   0.243   2.576 -0.1451  0.1260  0.5279
 6944SOL    HW232466   0.116   0.271   2.516 -1.8844  1.7639 -0.0365
 6945SOL     OW32467   4.188   1.366   2.658  0.0646 -0.2235 -0.6045
 6945SOL    HW132468   4.160   1.306   2.727 -0.8609  1.2789  0.3378
 6945SOL    HW232469   4.119   1.355   2.592 -1.1588  2.1499  0.2835
 6946SOL     OW32470   3.551   1.555   0.049  0.1268  0.2754 -0.0210
 6946SOL    HW132471   3.571   1.461   0.055 -0.2769 -0.0145 -3.0450
 6946SOL    HW232472   3.497   1.571   0.127  0.2346 -2.0168  0.5277
 6947SOL     OW32473   2.329   4.628  10.612  0.1645 -0.1010 -0.2145
 6947SOL    HW132474   2.340   4.608  10.519  1.9167 -0.2525  0.0305
 6947SOL    HW232475   2.273   4.704  10.599  0.9335  0.3532 -0.8449
 6948SOL     OW32476   0.409   1.354  14.805  0.4536 -0.0018  0.2662
 6948SOL    HW132477   0.317   1.342  14.778  0.4158  0.9526 -0.0106
 6948SOL    HW232478   0.404   1.316  14.892 -2.9157 -0.1409  0.0202
 6949SOL     OW32479   2.586   0.666   5.448  0.1943  0.2448  0.0504
 6949SOL    HW132480   2.594   0.737   5.513 -0.4261 -1.1732  1.6747
 6949SOL    HW232481   2.533   0.602   5.495  1.0183  0.2234  0.9579
 6950SOL     OW32482   1.746   2.493   4.857  0.0424  0.3860  0.1414
 6950SOL    HW132483   1.788   2.578   4.867 -0.1472  0.6486 -1.3578
 6950SOL    HW232484   1.658   2.511   4.888  0.2210  1.2119  0.1713
 6951SOL     OW32485   2.436   0.622   7.610 -0.1637  0.0070  0.3074
 6951SOL    HW132486   2.408   0.543   7.562  1.4838 -0.8340  0.7454
 6951SOL    HW232487   2.376   0.630   7.684 -0.3376 -1.3661  0.3144
 6952SOL     OW32488   1.970   4.690   7.667 -0.1886 -0.1775 -0.1923
 6952SOL    HW132489   1.917   0.031   7.691  1.2953  0.4218  1.1551
 6952SOL    HW232490   2.046   4.721   7.715 -2.3675  1.5847  2.1213
 6953SOL     OW32491   2.710   0.808   3.859 -0.0075  0.2094  0.0088
 6953SOL    HW132492   2.653   0.884   3.870 -1.2513 -0.5321 -1.2978
 6953SOL    HW232493   2.786   0.864   3.844  1.8880 -2.0429  1.0552
 6954SOL     OW32494   3.680   0.176  15.651  0.4033  0.0376 -0.7669
 6954SOL    HW132495   3.682   0.104  15.713 -1.0155 -0.9139 -1.8089
 6954SOL    HW232496   3.767   0.210  15.668  0.6253 -1.3762  0.9417
 6955SOL     OW32497   2.818   0.382  16.503 -0.2049  0.5867 -0.2270
 6955SOL    HW132498   2.763   0.309  16.534 -0.1423  1.4054  1.8337
 6955SOL    HW232499   2.829   0.366  16.409  1.2769 -1.8144  0.3297
 6956SOL     OW32500   1.053   1.588  12.526  0.4287 -0.6413  0.0200
 6956SOL    HW132501   1.111   1.664  12.519  0.5622 -0.6858  0.6672
 6956SOL    HW232502   1.120   1.525  12.497 -0.0522 -0.0943 -2.2514
 6957SOL     OW32503   0.592   3.072  16.193 -0.0993  0.0424  0.1153
 6957SOL    HW132504   0.654   3.022  16.140  0.1385  0.2257  0.2164
 6957SOL    HW232505   0.635   3.069  16.279 -0.5345  0.8421  0.3666
 6958SOL     OW32506   3.516   0.380   0.319  0.1131 -0.1270 -0.4067
 6958SOL    HW132507   3.552   0.363   0.406  1.5611 -1.3603 -1.2510
 6958SOL    HW232508   3.567   0.322   0.263  1.2974 -1.8659  2.4596
 6959SOL     OW32509   0.394   3.750   9.891 -0.1775  0.4382  0.4442
 6959SOL    HW132510   0.341   3.732   9.969  0.1811  0.1180  0.6116
 6959SOL    HW232511   0.326   3.743   9.825 -0.4285  0.5016  0.6933
 6960SOL     OW32512   2.205   0.973  17.653  0.4293  0.2170 -0.3361
 6960SOL    HW132513   2.224   0.889  17.695  1.6048 -0.0003 -1.3059
 6960SOL    HW232514   2.111   0.965  17.635  0.8925 -3.6588 -1.0828
 6961SOL     OW32515   2.933   3.528   5.569 -0.0534 -0.0603  1.1030
 6961SOL    HW132516   2.930   3.520   5.664 -1.1359 -1.1606  0.9638
 6961SOL    HW232517   2.993   3.456   5.551  2.3238  1.8977  1.1963
 6962SOL     OW32518   0.824   4.286  16.800 -0.3390  0.2221  0.2969
 6962SOL    HW132519   0.732   4.269  16.780 -0.2806  0.5875 -0.2692
 6962SOL    HW232520   0.833   4.243  16.885 -1.4414 -1.0079 -0.2207
 6963SOL     OW32521   4.725   3.071   2.070  0.2488  0.3728  0.3059
 6963SOL    HW132522   4.711   2.977   2.081 -0.1560  0.2005 -1.6975
 6963SOL    HW232523   0.056   3.096   2.135 -0.6307 -1.4355  1.9076
 6964SOL     OW32524   0.868   3.945   0.836 -0.3289 -0.5532  0.1220
 6964SOL    HW132525   0.876   3.948   0.931  0.1255  4.2161 -0.0988
 6964SOL    HW232526   0.950   3.898   0.817  1.2717  2.0100  0.6414
 6965SOL     OW32527   3.590   4.073  16.804  0.0857  0.1139 -0.0050
 6965SOL    HW132528   3.636   3.989  16.796 -0.0579  0.4418 -4.4616
 6965SOL    HW232529   3.617   4.105  16.718  0.0678  0.0662 -0.0281
 6966SOL     OW32530   2.496   3.452   8.831 -0.5975  0.2622  0.6410
 6966SOL    HW132531   2.473   3.495   8.914  0.2658  0.3047  0.8525
 6966SOL    HW232532   2.428   3.384   8.833 -2.2183  1.8033 -1.4252
 6967SOL     OW32533   3.419   1.357   3.709 -0.2671 -0.3135  0.1133
 6967SOL    HW132534   3.406   1.289   3.775  2.4149 -0.4594  0.5202
 6967SOL    HW232535   3.433   1.430   3.770  1.6580 -0.9324  0.4188
 6968SOL     OW32536   3.456   0.289   7.451  0.6181  0.3448 -0.5333
 6968SOL    HW132537   3.470   0.295   7.546 -0.0055 -0.1445 -0.4072
 6968SOL    HW232538   3.532   0.239   7.421  1.2054  0.6613  0.4139
 6969SOL     OW32539   3.310   4.366  15.117 -0.5087 -0.5041 -0.3394
 6969SOL    HW132540   3.386   4.419  15.091  0.2906 -1.6156 -0.2821
 6969SOL    HW232541   3.295   4.401  15.205 -0.1968  1.8880 -1.2384
 6970SOL     OW32542   0.024   1.710   2.476 -0.0836 -0.1485 -0.5925
 6970SOL    HW132543   4.671   1.705   2.514  0.2496 -0.3291  0.1564
 6970SOL    HW232544   0.029   1.788   2.421 -1.4809 -0.5715 -1.3151
 6971SOL     OW32545   4.532   3.528   9.895  0.7060 -0.2529  0.7472
 6971SOL    HW132546   4.474   3.525   9.971 -0.2928  1.1307  0.0487
 6971SOL    HW232547   4.506   3.447   9.851 -0.4056  0.9384 -0.8092
 6972SOL     OW32548   2.885   3.274   6.923 -0.4639  0.6156 -0.5881
 6972SOL    HW132549   2.902   3.180   6.929 -3.4185  0.1736  0.9338
 6972SOL    HW232550   2.869   3.294   7.015  2.4334 -0.1466  0.0895
 6973SOL     OW32551   1.660   4.627   6.749 -0.0109 -0.0165  0.1334
 6973SOL    HW132552   1.751   4.605   6.769  0.2578 -1.1652 -2.3402
 6973SOL    HW232553   1.614   4.618   6.833  1.1641 -1.4507  0.6229
 6974SOL     OW32554   1.985   0.636   6.534  0.0606  0.1568 -0.3242
 6974SOL    HW132555   1.952   0.629   6.624 -0.8627 -1.3377 -0.7906
 6974SOL    HW232556   1.934   0.712   6.506 -0.3049 -0.4591 -1.3173
 6975SOL     OW32557   0.024   1.755   9.315  0.6559  0.4355  0.0146
 6975SOL    HW132558   4.671   1.722   9.298 -0.2490  2.6158  0.4187
 6975SOL    HW232559   0.065   1.677   9.350  0.3836  0.7415  1.0092
 6976SOL     OW32560   1.476   3.849   4.796 -0.1867  0.5882 -0.6331
 6976SOL    HW132561   1.427   3.861   4.714 -3.0108 -0.5341  0.9230
 6976SOL    HW232562   1.476   3.942   4.820  1.7078  0.6130 -0.7508
 6977SOL     OW32563   2.338   3.440   6.661 -0.3658 -0.3552 -0.3908
 6977SOL    HW132564   2.420   3.478   6.691 -0.8407  0.2730  0.1095
 6977SOL    HW232565   2.347   3.363   6.717 -0.7087 -0.0397  0.0938
 6978SOL     OW32566   2.410   3.227   3.580 -0.0059 -0.0622 -0.4537
 6978SOL    HW132567   2.385   3.193   3.494 -3.7916  1.3427  0.0786
 6978SOL    HW232568   2.436   3.317   3.561 -0.0472  0.0779  0.1515
 6979SOL     OW32569   3.746   1.819   2.937  0.1756 -0.4128 -0.0314
 6979SOL    HW132570   3.775   1.730   2.957  2.3561  0.7947  2.1482
 6979SOL    HW232571   3.731   1.825   2.843  1.3423 -0.4571 -0.2091
 6980SOL     OW32572   2.408   1.765   9.454  0.2568  0.3782  0.2396
 6980SOL    HW132573   2.477   1.775   9.389 -2.7770  2.9094 -2.5970
 6980SOL    HW232574   2.379   1.674   9.446 -2.1314  0.8215  4.0130
 6981SOL     OW32575   0.083   2.596   3.066 -0.2264  0.1202 -0.1276
 6981SOL    HW132576   0.049   2.530   3.126  1.1941  1.4076  2.1096
 6981SOL    HW232577   0.078   2.675   3.121 -2.9437 -0.8520  1.0029
 6982SOL     OW32578   0.523   3.171   3.847 -0.2652 -0.3484  0.8356
 6982SOL    HW132579   0.455   3.238   3.853 -0.3309 -0.2908 -0.5106
 6982SOL    HW232580   0.472   3.093   3.869  1.0539 -1.3739  0.2665
 6983SOL     OW32581   1.887   0.595   2.060 -0.8427 -0.7989 -0.2867
 6983SOL    HW132582   1.808   0.632   2.021  0.2176  0.6461 -1.0575
 6983SOL    HW232583   1.947   0.670   2.052 -1.7639  0.1412  1.6104
 6984SOL     OW32584   4.272   2.261   6.581 -0.1106  0.2931  0.3963
 6984SOL    HW132585   4.269   2.303   6.496  1.2996  0.0506  0.2278
 6984SOL    HW232586   4.202   2.306   6.628  0.1447 -0.0763  1.1354
 6985SOL     OW32587   2.272   4.593  16.753  0.0152 -0.5509 -0.1176
 6985SOL    HW132588   2.312   4.608  16.839 -0.5990 -0.2716  0.1175
 6985SOL    HW232589   2.305   4.509  16.721  1.6849 -0.2361  0.7828
 6986SOL     OW32590   3.372   0.627   0.944  0.3328 -0.4448  0.2374
 6986SOL    HW132591   3.361   0.601   0.852 -0.3494  0.0403  0.1789
 6986SOL    HW232592   3.368   0.722   0.940 -0.2967 -0.5703 -2.7104
 6987SOL     OW32593   1.754   1.892   6.793  0.6572 -0.3200 -0.7522
 6987SOL    HW132594   1.668   1.876   6.833  0.7542  2.1029  0.4493
 6987SOL    HW232595   1.811   1.904   6.869  0.1762  2.0226 -0.7543
 6988SOL     OW32596   3.622   0.819   7.736  0.8084 -0.1261  0.0766
 6988SOL    HW132597   3.531   0.838   7.718  0.8812 -1.4772 -1.7006
 6988SOL    HW232598   3.668   0.851   7.659 -0.9624  0.2531 -0.8074
 6989SOL     OW32599   4.540   1.127   2.936  0.4226 -0.4240 -0.2967
 6989SOL    HW132600   4.594   1.116   2.858  0.9922  0.2262  0.0136
 6989SOL    HW232601   4.542   1.039   2.975  1.1853  0.2470  1.1456
 6990SOL     OW32602   1.504   3.972  15.602  0.1980  0.3604 -0.4233
 6990SOL    HW132603   1.455   4.054  15.606 -0.7646 -0.2668  0.4899
 6990SOL    HW232604   1.592   4.004  15.581 -0.0216  1.4177  0.2499
 6991SOL     OW32605   3.677   4.235   3.781 -0.1212 -0.1370  0.3323
 6991SOL    HW132606   3.715   4.305   3.727 -1.6057  0.0505 -0.4694
 6991SOL    HW232607   3.599   4.272   3.822 -0.3744 -0.0571 -0.2245
 6992SOL     OW32608   3.964   2.456  15.654  0.2568  0.0743 -0.1975
 6992SOL    HW132609   3.875   2.453  15.618 -0.2836  0.3328  1.1206
 6992SOL    HW232610   3.976   2.362  15.667  0.0754  0.1675  0.6739
 6993SOL     OW32611   1.901   1.973   9.145  0.3506  0.5880 -0.2063
 6993SOL    HW132612   1.854   1.908   9.093 -1.2562  0.0427  1.9187
 6993SOL    HW232613   1.970   1.918   9.180  0.4948 -0.4743 -2.1631
 6994SOL     OW32614   4.580   1.151   2.473 -0.0585  0.4284  0.4226
 6994SOL    HW132615   4.537   1.235   2.460 -1.4744  0.0946  2.8421
 6994SOL    HW232616   4.513   1.117   2.532 -1.2038 -1.2804 -1.8485
 6995SOL     OW32617   1.783   2.564   9.099 -0.0255 -0.0529  0.3443
 6995SOL    HW132618   1.744   2.478   9.084  1.4357 -0.3575 -1.7322
 6995SOL    HW232619   1.710   2.621   9.124  0.5363  0.5959  0.5059
 6996SOL     OW32620   3.377   3.837   1.323 -0.1518 -0.0505 -0.4448
 6996SOL    HW132621   3.306   3.779   1.296 -2.3464  1.6534  1.6267
 6996SOL    HW232622   3.456   3.783   1.321 -0.0685  0.1520 -2.4725
 6997SOL     OW32623   3.496   1.689   3.361 -0.0879  0.8210 -0.0342
 6997SOL    HW132624   3.421   1.723   3.314 -0.0763 -0.1347 -0.7401
 6997SOL    HW232625   3.567   1.752   3.348  0.8178 -0.0347  0.7034
 6998SOL     OW32626   3.903   0.921   1.275  0.2259 -0.1728  0.4990
 6998SOL    HW132627   3.834   0.893   1.335 -0.0504 -2.7559 -1.0069
 6998SOL    HW232628   3.851   0.981   1.222  0.3928 -0.3932  0.0808
 6999SOL     OW32629   0.916   3.683   2.946 -0.4547 -0.4763 -0.0204
 6999SOL    HW132630   0.995   3.640   2.979 -0.2299 -0.5161 -0.6056
 6999SOL    HW232631   0.868   3.674   3.028  2.0959 -3.0147  1.2080
 7000SOL     OW32632   1.300   0.192  17.489  0.6140  0.1804 -0.0159
 7000SOL    HW132633   1.230   0.240  17.533 -0.3049 -1.0667 -0.0917
 7000SOL    HW232634   1.367   0.199  17.556 -1.3112  1.0499  1.7984
 7001SOL     OW32635   2.934   2.510  17.184  0.0304 -0.6396 -0.4643
 7001SOL    HW132636   3.000   2.508  17.254  0.7509 -2.0233 -1.1938
 7001SOL    HW232637   2.975   2.520  17.098  1.7446 -1.9490  0.1951
 7002SOL     OW32638   3.016   0.598  14.686 -0.2789  0.0910 -0.5132
 7002SOL    HW132639   3.054   0.617  14.601  0.9175  2.0256  0.4466
 7002SOL    HW232640   3.036   0.684  14.723  0.7278  0.0636 -1.0024
 7003SOL     OW32641   1.786   2.714   7.516  0.4192 -0.1908 -0.0762
 7003SOL    HW132642   1.807   2.668   7.597  0.6833  2.5400  1.4174
 7003SOL    HW232643   1.867   2.693   7.470 -0.4557  0.5904 -1.9592
 7004SOL     OW32644   0.226   2.785   3.749  0.0835 -0.0846  0.2514
 7004SOL    HW132645   0.233   2.871   3.707  3.3698  0.3607  1.7139
 7004SOL    HW232646   0.299   2.745   3.701 -0.8835 -1.6040  0.0580
 7005SOL     OW32647   0.501   2.527   8.434  0.2115  0.7278 -0.3565
 7005SOL    HW132648   0.512   2.444   8.480  0.8656  0.9380 -0.1280
 7005SOL    HW232649   0.545   2.510   8.351 -0.4955 -0.5122 -0.4737
 7006SOL     OW32650   2.476   3.506   3.538 -0.2450 -0.3465 -0.3012
 7006SOL    HW132651   2.430   3.548   3.610 -0.2060 -0.2197 -0.3505
 7006SOL    HW232652   2.567   3.511   3.565 -0.5364  2.2180  0.1147
 7007SOL     OW32653   3.590   2.228  17.639 -0.1585  0.4067  0.5389
 7007SOL    HW132654   3.592   2.256  17.731 -0.1598  2.8486 -0.2217
 7007SOL    HW232655   3.657   2.159  17.645 -1.6538 -1.2531 -1.8620
 7008SOL     OW32656   4.409   3.779  15.670  0.1837 -0.0997  0.0286
 7008SOL    HW132657   4.436   3.688  15.680  1.0911  0.3661  1.6730
 7008SOL    HW232658   4.484   3.823  15.630  0.5590  1.0184  1.9764
 7009SOL     OW32659   4.112   0.207  10.498 -0.1333  0.0658 -0.1907
 7009SOL    HW132660   4.133   0.198  10.591 -2.5523  3.2044  0.6467
 7009SOL    HW232661   4.016   0.199  10.503 -0.1290  0.1678  0.0515
 7010SOL     OW32662   4.293   1.653   2.796 -1.1250 -0.0688  0.5269
 7010SOL    HW132663   4.247   1.648   2.713 -1.0524  1.3475  0.3942
 7010SOL    HW232664   4.331   1.567   2.813  0.6870  0.1741 -2.2791
 7011SOL     OW32665   0.515   1.263   2.622  0.0877 -0.0085 -0.2942
 7011SOL    HW132666   0.545   1.194   2.563 -0.1394 -1.7790  1.6549
 7011SOL    HW232667   0.577   1.252   2.694 -1.0348  2.4345  1.0591
 7012SOL     OW32668   3.199   0.270   8.858 -0.2246 -0.1931  0.0179
 7012SOL    HW132669   3.273   0.331   8.850 -0.8726  0.4739 -0.8916
 7012SOL    HW232670   3.223   0.218   8.781  0.1526  0.2436 -0.1612
 7013SOL     OW32671   4.114   0.363   7.470  0.2088 -0.4585 -0.2812
 7013SOL    HW132672   4.138   0.418   7.395 -0.0901 -0.7077 -0.5635
 7013SOL    HW232673   4.025   0.396   7.485 -0.6253 -2.2666 -1.1706
 7014SOL     OW32674   1.086   3.306   9.420  0.2740  0.3625 -0.1275
 7014SOL    HW132675   1.064   3.333   9.509  2.6066  4.6590 -0.8749
 7014SOL    HW232676   1.127   3.220   9.433  0.9203  0.9105  1.4840
 7015SOL     OW32677   1.850   0.461   5.113 -0.4325  0.8432  0.4020
 7015SOL    HW132678   1.869   0.546   5.072  0.4623  0.6743  0.4666
 7015SOL    HW232679   1.852   0.407   5.034 -0.9585 -1.4397  1.9721
 7016SOL     OW32680   1.650   3.978  17.726 -0.2641 -0.7990  0.0858
 7016SOL    HW132681   1.717   3.993   0.055  0.8661 -0.6921 -1.0502
 7016SOL    HW232682   1.641   3.883  17.730  0.8320 -0.9699 -1.4683
 7017SOL     OW32683   3.285   3.411   3.347  0.4193  0.6237  0.2754
 7017SOL    HW132684   3.295   3.397   3.442  0.3750  0.6712  0.2874
 7017SOL    HW232685   3.230   3.338   3.319  0.0700  1.0960 -0.2615
 7018SOL     OW32686   1.352   3.957   1.971 -0.0181  0.3410  0.0212
 7018SOL    HW132687   1.374   3.914   1.889  1.7913 -1.6825  1.5592
 7018SOL    HW232688   1.305   3.889   2.019  2.0277 -0.3045  1.1237
 7019SOL     OW32689   3.672   2.503   5.934 -0.3168 -0.1701 -0.7265
 7019SOL    HW132690   3.742   2.548   5.887  1.8409  0.2100  2.7989
 7019SOL    HW232691   3.593   2.547   5.904  0.5612  2.4357  0.7435
 7020SOL     OW32692   2.866   2.551   7.944  0.5903 -0.2353 -0.4068
 7020SOL    HW132693   2.948   2.530   7.989  0.3847 -0.5391 -0.1742
 7020SOL    HW232694   2.802   2.513   8.004  1.4009  0.2049  0.7370
 7021SOL     OW32695   1.917   2.378  12.373 -0.2219  0.4514  0.2000
 7021SOL    HW132696   1.951   2.466  12.354 -2.2929  0.8714 -1.5624
 7021SOL    HW232697   1.828   2.393  12.343 -0.2573  1.4054  0.7665
 7022SOL     OW32698   3.794   1.855   2.414 -0.0006  0.2080  0.4561
 7022SOL    HW132699   3.726   1.815   2.360 -0.3891  2.0229 -0.4153
 7022SOL    HW232700   3.756   1.837   2.500 -0.7276  2.7314  0.6597
 7023SOL     OW32701   0.827   1.959   4.978 -0.1721 -0.0356 -0.5426
 7023SOL    HW132702   0.773   1.930   5.051 -0.5275  2.1956  0.0968
 7023SOL    HW232703   0.833   2.054   4.993  0.3034 -0.5257  2.2486
 7024SOL     OW32704   1.962   0.106   2.220  0.5860 -0.1097 -0.4147
 7024SOL    HW132705   1.983   0.195   2.193  2.9137 -0.9553 -1.4393
 7024SOL    HW232706   2.050   0.077   2.245  1.2382 -0.4304 -3.0444
 7025SOL     OW32707   2.783   3.794   9.706 -0.3934 -0.2377  0.3523
 7025SOL    HW132708   2.852   3.730   9.722 -2.4758 -2.1816  1.5684
 7025SOL    HW232709   2.830   3.871   9.674 -0.7634 -0.9814 -1.9597
 7026SOL     OW32710   2.792   3.210   5.611  0.4803 -0.2934 -0.0159
 7026SOL    HW132711   2.714   3.224   5.558 -1.3354  1.1901  3.0338
 7026SOL    HW232712   2.851   3.217   5.537  1.2166  1.9164  0.7883
 7027SOL     OW32713   2.126   0.619   7.360  0.0691 -0.0602 -0.3232
 7027SOL    HW132714   2.089   0.673   7.290 -2.6719 -1.3456  0.1005
 7027SOL    HW232715   2.158   0.685   7.421  1.0371 -1.4126  0.6425
 7028SOL     OW32716   2.807   3.892   4.719  0.3284  0.2265 -0.4073
 7028SOL    HW132717   2.803   3.943   4.638  0.9759  1.6445  0.4642
 7028SOL    HW232718   2.841   3.809   4.684 -0.6681  0.4366 -1.8809
 7029SOL     OW32719   2.476   3.747   3.080  0.1779 -0.2530 -0.0339
 7029SOL    HW132720   2.463   3.692   3.157 -2.4927  2.2116  1.2719
 7029SOL    HW232721   2.394   3.795   3.068 -1.2894 -3.1696 -1.7033
 7030SOL     OW32722   4.026   2.103   6.306 -0.0546 -0.1090 -0.4585
 7030SOL    HW132723   4.006   2.075   6.217 -0.3959  1.4937 -0.8811
 7030SOL    HW232724   4.078   2.029   6.338 -0.7756  0.0495  1.0442
 7031SOL     OW32725   3.471   4.408   3.900 -0.1710  0.0110 -0.1756
 7031SOL    HW132726   3.466   4.476   3.832 -0.8497 -0.1182 -0.2630
 7031SOL    HW232727   3.378   4.389   3.916  0.2102 -0.7053  1.1773
 7032SOL     OW32728   4.295   3.952   0.738 -0.2226 -0.0008 -0.7018
 7032SOL    HW132729   4.243   3.940   0.658 -0.0793 -1.4043 -0.5862
 7032SOL    HW232730   4.234   4.011   0.781 -0.3871  0.7748 -2.0114
 7033SOL     OW32731   2.170   4.088   7.714  0.5805  0.2704 -0.4276
 7033SOL    HW132732   2.141   4.105   7.803 -1.4607 -0.2513 -0.9899
 7033SOL    HW232733   2.152   3.994   7.717  2.4664 -0.1137 -1.2596
 7034SOL     OW32734   3.491   0.905   8.019  0.2049 -0.3379 -0.4391
 7034SOL    HW132735   3.454   0.899   7.931 -2.2811  1.5202  0.4895
 7034SOL    HW232736   3.570   0.851   8.008 -0.9277 -1.9697 -0.5702
 7035SOL     OW32737   1.878   2.362   7.932  0.0620 -0.1215  0.1134
 7035SOL    HW132738   1.915   2.338   8.017  0.3264 -0.2558 -0.0379
 7035SOL    HW232739   1.803   2.303   7.929 -0.1999  0.2655 -1.1368
 7036SOL     OW32740   1.851   0.303   6.307 -0.0104  0.4594 -0.7281
 7036SOL    HW132741   1.935   0.287   6.262  0.6412  1.5750  0.0932
 7036SOL    HW232742   1.853   0.398   6.307 -1.9421  0.4890  1.0734
 7037SOL     OW32743   4.500   1.283  11.893  0.1782 -0.3900 -0.1036
 7037SOL    HW132744   4.587   1.292  11.933 -0.1152 -1.2047  0.7256
 7037SOL    HW232745   4.478   1.367  11.853  0.3652  0.0696  0.7504
 7038SOL     OW32746   1.379   3.295   3.437  0.0338  0.1456  0.6312
 7038SOL    HW132747   1.286   3.306   3.415  0.3219  0.3151 -0.4837
 7038SOL    HW232748   1.387   3.326   3.527  0.7594 -0.0649  0.6347
 7039SOL     OW32749   0.173   0.797   5.719 -0.4179 -0.3334  0.5410
 7039SOL    HW132750   0.267   0.804   5.703 -0.3569 -0.5011  0.8258
 7039SOL    HW232751   0.181   0.780   5.813  0.7793  2.0848  0.8724
 7040SOL     OW32752   3.851   1.472   3.954  0.7442  0.2190 -0.4778
 7040SOL    HW132753   3.824   1.547   3.901  1.6546 -1.8243 -3.8447
 7040SOL    HW232754   3.887   1.417   3.884 -0.0074 -4.0718  2.5044
 7041SOL     OW32755   0.713   2.469  11.467 -0.0538 -0.3381 -0.3166
 7041SOL    HW132756   0.699   2.428  11.553 -0.8459  1.2036  0.2895
 7041SOL    HW232757   0.660   2.409  11.416 -2.1182  1.2839 -0.0649
 7042SOL     OW32758   0.188   1.505   2.396  0.3069 -0.1137 -0.0086
 7042SOL    HW132759   0.127   1.573   2.425  1.6849  0.8851  0.5403
 7042SOL    HW232760   0.259   1.508   2.460  0.4776  1.9834 -0.2752
 7043SOL     OW32761   1.069   0.750   4.874 -0.2993 -0.4871  0.0296
 7043SOL    HW132762   1.043   0.834   4.838 -0.8702  0.0871  1.8093
 7043SOL    HW232763   1.015   0.756   4.953 -0.7989 -1.3541 -0.2407
 7044SOL     OW32764   1.028   0.159   7.978 -0.0682 -0.3722 -0.0484
 7044SOL    HW132765   0.943   0.160   7.933  0.0190 -1.0134 -0.2314
 7044SOL    HW232766   1.080   0.144   7.899 -0.2334  2.2895 -0.6780
 7045SOL     OW32767   2.882   2.873  16.403  0.0458 -0.2361  0.1356
 7045SOL    HW132768   2.836   2.859  16.321 -1.7800 -2.2245  1.4959
 7045SOL    HW232769   2.900   2.789  16.446  0.8983  0.7691  1.7629
 7046SOL     OW32770   4.106   0.683   8.395 -0.0071 -0.2832  0.6754
 7046SOL    HW132771   4.151   0.623   8.454 -0.0814 -0.7030  0.3036
 7046SOL    HW232772   4.175   0.736   8.354 -0.2388 -0.3709  0.1669
 7047SOL     OW32773   1.296   1.280   3.403 -0.2055  0.9524 -0.1132
 7047SOL    HW132774   1.218   1.256   3.352 -1.4166  0.3839  2.0290
 7047SOL    HW232775   1.360   1.217   3.370  0.0109  1.9199 -1.5757
 7048SOL     OW32776   0.238   0.641  12.695  0.4001  0.7090  0.2744
 7048SOL    HW132777   0.161   0.656  12.641  0.6269 -1.0225 -0.5246
 7048SOL    HW232778   0.202   0.633  12.784 -4.3573  1.6236 -1.6024
 7049SOL     OW32779   3.756   1.508   8.414 -0.2201  0.0044 -0.4909
 7049SOL    HW132780   3.829   1.544   8.363  0.1731 -1.4153 -0.9376
 7049SOL    HW232781   3.754   1.414   8.392 -1.8579 -0.6307  2.4330
 7050SOL     OW32782   1.419   3.980   4.552  0.5426 -0.4120  0.6944
 7050SOL    HW132783   1.405   3.956   4.460 -2.7244  0.8476  0.8711
 7050SOL    HW232784   1.397   4.073   4.550 -0.6008 -0.6551  2.1810
 7051SOL     OW32785   0.796   4.172   7.228 -0.0455 -0.2471 -0.0186
 7051SOL    HW132786   0.847   4.121   7.165  2.4192 -0.7926  2.4430
 7051SOL    HW232787   0.725   4.107   7.227  0.1236 -0.4693  1.9913
 7052SOL     OW32788   2.210   1.793   7.525  0.4686  0.2943  0.1008
 7052SOL    HW132789   2.206   1.757   7.437 -0.4422  2.2393 -0.6405
 7052SOL    HW232790   2.280   1.735   7.556  0.0383 -0.4406 -0.3167
 7053SOL     OW32791   1.069   4.675   6.074 -0.3760 -0.1345 -0.3425
 7053SOL    HW132792   1.120   4.680   6.155  0.2865  0.0343 -0.7755
 7053SOL    HW232793   0.989   4.717   6.108 -0.7459 -1.0627 -0.0729
 7054SOL     OW32794   1.500   3.759   0.240  0.5030  0.4997 -0.4587
 7054SOL    HW132795   1.430   3.724   0.184 -1.9460  1.5055  1.9814
 7054SOL    HW232796   1.575   3.747   0.182  1.4854  0.4190  0.8288
 7055SOL     OW32797   4.114   4.639   4.467 -0.7059  0.1403  0.1852
 7055SOL    HW132798   4.095   4.551   4.500 -0.9618  0.1559  0.0822
 7055SOL    HW232799   4.138   4.620   4.377  0.7484  0.5889  0.4780
 7056SOL     OW32800   0.281   4.597  11.766  1.0606 -0.5623 -0.3554
 7056SOL    HW132801   0.375   4.600  11.744  0.1852  0.6423 -3.9439
 7056SOL    HW232802   0.271   4.652  11.843 -0.2721  1.8562 -2.2507
 7057SOL     OW32803   3.985   4.222   2.413  0.3605 -0.2845  0.5701
 7057SOL    HW132804   3.905   4.181   2.380 -0.0114  0.2738  0.7748
 7057SOL    HW232805   4.037   4.221   2.333 -0.5783 -1.6735 -0.0163
 7058SOL     OW32806   1.088   2.293  16.818  0.0242 -0.0713  0.2694
 7058SOL    HW132807   1.149   2.251  16.757  0.8152  1.5050 -0.0371
 7058SOL    HW232808   1.121   2.276  16.906  1.2261 -0.4725 -0.2580
 7059SOL     OW32809   3.980   1.123   4.142  0.1021 -0.4176  0.3699
 7059SOL    HW132810   3.955   1.067   4.069 -1.1523 -0.1299  0.5886
 7059SOL    HW232811   4.042   1.179   4.095  0.8071 -0.3792  1.3575
 7060SOL     OW32812   0.298   3.717  16.921  0.5056 -0.2311 -0.2757
 7060SOL    HW132813   0.226   3.655  16.937  1.4488 -1.5405 -1.0928
 7060SOL    HW232814   0.358   3.713  16.996  0.2295 -0.9648 -0.0894
 7061SOL     OW32815   2.260   0.043  11.631 -0.2505 -0.4898 -0.1159
 7061SOL    HW132816   2.342   0.002  11.661 -1.2503 -1.0387  1.8656
 7061SOL    HW232817   2.217   4.697  11.605 -0.1736  0.1074 -2.0704
 7062SOL     OW32818   4.498   4.534   9.338  0.0482 -0.0602 -0.1967
 7062SOL    HW132819   4.523   4.467   9.402  1.3622  1.3090  0.7123
 7062SOL    HW232820   4.536   4.608   9.386 -1.3450  0.5356  0.0082
 7063SOL     OW32821   0.031   1.460   3.497  0.1582  0.1297  0.3301
 7063SOL    HW132822   0.078   1.506   3.567 -1.0352 -1.3226  2.0778
 7063SOL    HW232823   0.057   1.519   3.426  0.3602  0.7736  0.9416
 7064SOL     OW32824   3.990   4.002   5.931  0.4030  0.1715 -0.0780
 7064SOL    HW132825   4.066   4.046   5.892 -0.1529  1.0290 -0.1944
 7064SOL    HW232826   4.019   3.965   6.014 -1.6449 -2.2121 -0.4006
 7065SOL     OW32827   4.108   3.133   1.671  0.5615  0.0322 -0.1132
 7065SOL    HW132828   4.200   3.131   1.644  1.2683  2.7756  2.1222
 7065SOL    HW232829   4.106   3.196   1.743 -0.6837 -1.9078  1.5298
 7066SOL     OW32830   4.617   1.107   6.539 -0.4337 -0.5056  0.4534
 7066SOL    HW132831   4.523   1.125   6.535 -0.5585 -1.3863 -0.4890
 7066SOL    HW232832   4.640   1.173   6.605 -0.6326  2.1493 -2.1778
 7067SOL     OW32833   4.668   0.684   3.662 -0.0143  0.2607  0.0512
 7067SOL    HW132834   4.680   0.777   3.645 -0.5639  0.1045 -1.2087
 7067SOL    HW232835   0.012   0.660   3.711  1.2168  2.8249 -0.7240
 7068SOL     OW32836   1.006   0.464  10.909 -0.3807  0.0276  0.3002
 7068SOL    HW132837   1.008   0.504  10.822 -0.5238 -0.4126  0.0934
 7068SOL    HW232838   0.956   0.384  10.890  2.5229 -2.1060  1.5796
 7069SOL     OW32839   0.226   4.175   6.364 -0.5803  0.0639 -0.3655
 7069SOL    HW132840   0.232   4.235   6.289  1.9328  0.4787  0.1425
 7069SOL    HW232841   0.305   4.192   6.415  0.1771 -0.5114 -1.3499
 7070SOL     OW32842   0.216   0.546   3.506  0.3649 -0.5995  0.1781
 7070SOL    HW132843   0.273   0.479   3.542  2.4045  1.1860  0.2957
 7070SOL    HW232844   0.266   0.622   3.537  2.2975 -0.7172 -2.6137
 7071SOL     OW32845   0.123   2.903   5.282 -0.1790  0.2788 -0.0495
 7071SOL    HW132846   0.032   2.888   5.309 -0.2267 -0.6778 -0.7478
 7071SOL    HW232847   0.134   2.981   5.336  1.3276  0.7313 -1.0265
 7072SOL     OW32848   1.757   1.625   2.494 -0.4176  0.3449 -0.6259
 7072SOL    HW132849   1.721   1.706   2.457 -1.1733  0.9092  1.3243
 7072SOL    HW232850   1.840   1.659   2.528  1.1210 -1.4354 -2.6021
 7073SOL     OW32851   0.298   1.704  16.331 -0.1815  0.6971  0.2975
 7073SOL    HW132852   0.306   1.631  16.270 -2.4408 -0.9293  1.9499
 7073SOL    HW232853   0.357   1.670  16.398 -2.3365 -0.0657  1.8313
 7074SOL     OW32854   4.416   1.407   2.835  0.9361  0.2985  0.4138
 7074SOL    HW132855   4.378   1.349   2.769  1.7663 -0.4770  0.6150
 7074SOL    HW232856   4.487   1.352   2.867  0.0854 -0.8502  0.3297
 7075SOL     OW32857   1.419   4.031   6.412 -0.5364 -0.3835 -0.2654
 7075SOL    HW132858   1.405   3.949   6.460 -0.7159 -0.5882 -0.6747
 7075SOL    HW232859   1.407   4.003   6.321 -1.1536 -0.2418 -0.2253
 7076SOL     OW32860   0.111   1.060   5.671 -0.3358  0.0710  0.2158
 7076SOL    HW132861   0.199   1.065   5.634 -0.2961 -0.1113  0.2816
 7076SOL    HW232862   0.117   0.975   5.716  1.4427  0.2957  0.3859
 7077SOL     OW32863   0.137   3.105  13.370  0.1555 -0.2913  0.2881
 7077SOL    HW132864   0.148   3.024  13.319 -0.4776  1.2909 -2.3903
 7077SOL    HW232865   0.204   3.089  13.436 -0.4125  0.6268  1.0725
 7078SOL     OW32866   4.232   1.536   8.110  0.1446 -0.4928  0.3855
 7078SOL    HW132867   4.224   1.529   8.015  0.0104  0.0015  0.3573
 7078SOL    HW232868   4.290   1.463   8.132  0.0257 -0.0370  2.2406
 7079SOL     OW32869   3.972   3.332   7.051 -0.6251  0.4212  0.1041
 7079SOL    HW132870   4.012   3.413   7.083 -0.9698  0.9790 -0.8957
 7079SOL    HW232871   4.030   3.270   7.097 -0.5240 -0.9656 -1.9268
 7080SOL     OW32872   3.262   3.771   5.683  0.0373  0.1413 -0.5285
 7080SOL    HW132873   3.251   3.861   5.713  0.7943 -0.6927  2.2548
 7080SOL    HW232874   3.238   3.780   5.590  0.3052  0.6108 -0.5522
 7081SOL     OW32875   3.036   1.415   0.604 -0.0972  0.1312 -0.3188
 7081SOL    HW132876   3.007   1.330   0.637 -1.7936  0.0785 -1.9228
 7081SOL    HW232877   3.044   1.396   0.510 -1.8785  0.4259 -0.5208
 7082SOL     OW32878   3.208   4.097  10.088  0.3227  0.1273  0.1430
 7082SOL    HW132879   3.299   4.078  10.068  0.0896 -0.4639 -0.3737
 7082SOL    HW232880   3.220   4.160  10.159 -0.6505  1.9571 -1.3237
 7083SOL     OW32881   1.518   4.137   6.638  0.1112 -0.6191 -0.5248
 7083SOL    HW132882   1.530   4.229   6.614  0.9542 -0.2583  1.2845
 7083SOL    HW232883   1.483   4.103   6.556 -0.3756 -0.7730 -0.2537
 7084SOL     OW32884   0.198   0.912   6.852 -0.1077 -0.3928 -0.4441
 7084SOL    HW132885   0.142   0.951   6.920  2.0518 -0.0831  1.1491
 7084SOL    HW232886   0.233   0.984   6.801  2.2042 -0.2074  1.4094
 7085SOL     OW32887   3.361   3.905   7.130 -0.5315  0.7774 -0.3768
 7085SOL    HW132888   3.455   3.913   7.145 -0.1883 -1.1898 -1.3905
 7085SOL    HW232889   3.343   3.969   7.061 -1.5898  1.9259  0.9787
 7086SOL     OW32890   1.840   3.769   7.874 -0.1770 -0.1079  0.3138
 7086SOL    HW132891   1.820   3.677   7.893  0.4801  0.0855  1.9831
 7086SOL    HW232892   1.784   3.814   7.938 -1.6743  1.2616 -1.9781
 7087SOL     OW32893   4.280   0.818   3.708 -0.0634 -0.5009  0.1219
 7087SOL    HW132894   4.338   0.849   3.639  0.9328  1.4078  1.7975
 7087SOL    HW232895   4.279   0.897   3.763 -1.4604 -1.1270  0.9952
 7088SOL     OW32896   0.927   0.422   2.453 -0.4670 -0.4582  0.2780
 7088SOL    HW132897   0.838   0.436   2.485 -0.6661  0.7342 -0.8445
 7088SOL    HW232898   0.956   0.349   2.509  0.4206  1.3513  2.2055
 7089SOL     OW32899   4.434   4.522   4.685  0.3823  0.0467 -0.3942
 7089SOL    HW132900   4.439   4.426   4.686  1.2250  0.0883 -0.1391
 7089SOL    HW232901   4.367   4.534   4.752  0.8910 -1.6822  0.4219
 7090SOL     OW32902   2.021   3.676   5.853  0.3099  0.2502  0.5473
 7090SOL    HW132903   2.102   3.696   5.899  0.8885 -0.4329 -0.1783
 7090SOL    HW232904   1.972   3.622   5.916 -2.3169  2.1288  0.1414
 7091SOL     OW32905   3.025   4.303   5.008 -0.4516  0.0115 -0.2476
 7091SOL    HW132906   2.930   4.289   5.019 -0.7600  1.3146 -1.1919
 7091SOL    HW232907   3.039   4.363   5.081  1.2620 -3.0536  1.9362
 7092SOL     OW32908   0.794   0.480  17.370  0.0903  0.0070  0.8072
 7092SOL    HW132909   0.858   0.522  17.312  1.4591  1.1552  3.1272
 7092SOL    HW232910   0.796   0.534  17.449  1.6908  1.6197 -0.3146
 7093SOL     OW32911   3.160   2.638   3.795 -0.0349 -0.2843  0.0671
 7093SOL    HW132912   3.107   2.717   3.787 -1.6416 -1.4331 -0.6426
 7093SOL    HW232913   3.213   2.656   3.717 -0.0325 -0.5075  0.0182
 7094SOL     OW32914   1.233   0.907  16.482 -0.3458 -0.1443 -0.2365
 7094SOL    HW132915   1.231   0.849  16.558 -0.0545 -1.0224 -0.9027
 7094SOL    HW232916   1.233   0.836  16.418  0.5713  0.2207 -0.6208
 7095SOL     OW32917   1.728   4.070   5.820 -0.3224 -0.5368  0.7585
 7095SOL    HW132918   1.715   4.147   5.876  0.3522 -0.6592  1.0846
 7095SOL    HW232919   1.679   4.099   5.744 -1.6585 -3.8011  0.3750
 7096SOL     OW32920   3.574   2.571   6.352  0.3812 -0.0773  0.9871
 7096SOL    HW132921   3.490   2.579   6.396 -0.2409  0.3097 -0.2854
 7096SOL    HW232922   3.564   2.644   6.291  0.2773 -0.5148  0.4807
 7097SOL     OW32923   1.106   0.462   3.828 -0.2821  0.1005  0.5952
 7097SOL    HW132924   1.162   0.516   3.884  1.2905  1.4365 -2.3078
 7097SOL    HW232925   1.093   0.516   3.751 -0.8577 -0.8061  0.0632
 7098SOL     OW32926   4.287   2.478   6.397 -0.2227 -0.5488 -0.1216
 7098SOL    HW132927   4.196   2.454   6.377 -0.3492  0.2734 -0.5220
 7098SOL    HW232928   4.330   2.485   6.312  0.8608  0.7931  0.5455
 7099SOL     OW32929   2.785   2.716   6.002  0.4070  0.0702 -0.2624
 7099SOL    HW132930   2.814   2.806   6.018  1.9785 -1.5402  5.9097
 7099SOL    HW232931   2.837   2.690   5.926  1.7092 -0.1912  0.7300
 7100SOL     OW32932   0.271   3.051   3.701  0.1027 -0.5808  0.1501
 7100SOL    HW132933   0.225   3.040   3.617  1.2215  2.8901 -0.9468
 7100SOL    HW232934   0.357   3.025   3.667  1.3908 -0.3895  3.3365
 7101SOL     OW32935   0.979   2.483   5.904  0.0883  0.4422  0.3653
 7101SOL    HW132936   0.983   2.495   5.999  0.8323  1.1309  0.2427
 7101SOL    HW232937   0.981   2.387   5.901  0.6509  0.4117  1.8990
 7102SOL     OW32938   4.568   4.320  13.475  0.0906 -0.3096 -0.3857
 7102SOL    HW132939   4.612   4.359  13.399 -1.0222 -1.1883 -1.4962
 7102SOL    HW232940   4.607   4.233  13.475  2.5858  0.7932  0.1714
 7103SOL     OW32941   1.970   0.446   4.350  0.4417 -0.0271 -0.5834
 7103SOL    HW132942   1.894   0.498   4.378  0.6742 -0.7661  1.3878
 7103SOL    HW232943   2.034   0.516   4.338  1.0192 -0.4102  0.3128
 7104SOL     OW32944   2.365   1.810   4.701  0.2811  0.0831 -0.1659
 7104SOL    HW132945   2.349   1.840   4.612  0.0263  1.6746  0.4066
 7104SOL    HW232946   2.394   1.720   4.689  0.3311 -0.0360  0.8340
 7105SOL     OW32947   3.479   0.058   7.608  0.5989 -0.1014 -0.3209
 7105SOL    HW132948   3.513   4.716   7.563  0.7410 -1.0672  1.4385
 7105SOL    HW232949   3.398   0.068   7.557  0.7410  3.1676  0.0929
 7106SOL     OW32950   1.576   1.771   7.576  0.2407 -0.0873  0.3751
 7106SOL    HW132951   1.523   1.834   7.624  0.1371  0.4646 -0.4617
 7106SOL    HW232952   1.598   1.819   7.496  1.0685  0.7882  1.1310
 7107SOL     OW32953   2.924   3.587   2.248 -0.2364 -0.1213  0.4569
 7107SOL    HW132954   2.994   3.651   2.235  1.7552 -2.2788  0.6291
 7107SOL    HW232955   2.852   3.636   2.208 -0.2492 -0.9464 -0.5021
 7108SOL     OW32956   2.112   3.747   5.142  0.4000 -0.3474 -0.2811
 7108SOL    HW132957   2.021   3.749   5.112 -0.6021  1.0620  2.8691
 7108SOL    HW232958   2.143   3.742   5.051  0.4074  2.2469 -0.4028
 7109SOL     OW32959   2.671   3.805   1.167  0.1510 -0.0881  0.3279
 7109SOL    HW132960   2.727   3.807   1.089 -0.3332 -0.6548 -0.0349
 7109SOL    HW232961   2.743   3.825   1.226 -1.2452  1.5122  1.4951
 7110SOL     OW32962   3.306   3.848   4.092  0.1110  0.3190 -0.2662
 7110SOL    HW132963   3.327   3.933   4.053  0.0713  0.3125 -0.3018
 7110SOL    HW232964   3.396   3.817   4.091 -0.1276 -0.4447  2.3826
 7111SOL     OW32965   0.051   1.551   4.296 -0.6880 -0.1296  0.3345
 7111SOL    HW132966   4.707   1.584   4.252 -0.0647 -1.1182 -1.5538
 7111SOL    HW232967   0.120   1.583   4.238 -2.3617 -0.4280 -1.8618
 7112SOL     OW32968   1.942   4.198   0.365  0.4283 -0.1158  0.1194
 7112SOL    HW132969   2.017   4.253   0.341  1.2676 -1.7060 -0.9253
 7112SOL    HW232970   1.975   4.158   0.445  0.0215  0.0957  0.3941
 7113SOL     OW32971   0.121   2.260  12.539 -0.1504  0.1026  0.0077
 7113SOL    HW132972   0.185   2.205  12.493  1.3560  0.4386  1.7026
 7113SOL    HW232973   0.116   2.327  12.470 -2.0517 -1.7626 -1.6513
 7114SOL     OW32974   3.538   4.453   7.741 -0.1094  0.4175 -0.0851
 7114SOL    HW132975   3.454   4.499   7.745  0.2868  0.9476  2.3430
 7114SOL    HW232976   3.511   4.362   7.740 -0.5610  0.5598 -0.3963
 7115SOL     OW32977   1.547   2.578  10.233 -0.0397  0.1338  0.5019
 7115SOL    HW132978   1.531   2.577  10.139 -2.6080 -1.5651  0.9258
 7115SOL    HW232979   1.475   2.637  10.257  2.0616  2.6358  0.5610
 7116SOL     OW32980   4.387   3.092   1.666  0.0564  0.5889  0.0876
 7116SOL    HW132981   4.442   3.015   1.655 -2.5983 -1.2677 -0.2288
 7116SOL    HW232982   4.388   3.127   1.576  0.6446  1.3393  0.3799
 7117SOL     OW32983   2.742   1.567  14.368 -0.0404 -0.0979 -0.4181
 7117SOL    HW132984   2.749   1.662  14.374  1.5908 -0.3130  1.1638
 7117SOL    HW232985   2.820   1.544  14.419  1.0597  2.4699 -0.9389
 7118SOL     OW32986   0.120   0.511   4.551  0.1543  0.1028  0.0684
 7118SOL    HW132987   0.083   0.487   4.466 -0.2719  0.2389  0.2105
 7118SOL    HW232988   0.189   0.445   4.554  0.8540  0.8767  1.3169
 7119SOL     OW32989   1.159   1.784   4.135  0.4442  0.1078  0.1770
 7119SOL    HW132990   1.161   1.869   4.092  2.5083  0.0702  0.2104
 7119SOL    HW232991   1.117   1.815   4.216  1.6918  0.5970  0.6343
 7120SOL     OW32992   3.402   1.722  12.269 -0.0823  0.3326 -0.6423
 7120SOL    HW132993   3.449   1.658  12.216  1.4233  1.4048 -0.6119
 7120SOL    HW232994   3.318   1.740  12.228 -0.2452 -0.1329 -0.5080
 7121SOL     OW32995   2.465   1.733   5.858 -0.3615  0.3622 -0.6227
 7121SOL    HW132996   2.408   1.753   5.932 -1.1191  2.2048 -1.7087
 7121SOL    HW232997   2.530   1.676   5.898 -1.1073 -0.5952 -0.7692
 7122SOL     OW32998   3.491   3.337   7.176  0.5956  0.8882 -0.1860
 7122SOL    HW132999   3.462   3.253   7.213  0.7673  0.3848 -1.2043
 7122SOL    HW233000   3.407   3.383   7.176  0.2567  0.2766  0.4920
 7123SOL     OW33001   3.330   0.898   7.608  0.1572 -0.0278  0.2058
 7123SOL    HW133002   3.239   0.894   7.638  0.7214 -0.6436  1.8022
 7123SOL    HW233003   3.345   0.988   7.579  2.9979  0.1419  2.2644
 7124SOL     OW33004   2.666   2.246  15.555  0.0073 -0.2722  0.4194
 7124SOL    HW133005   2.709   2.325  15.522  0.1926  0.0554  1.4422
 7124SOL    HW233006   2.723   2.224  15.629 -0.5322  1.6629  1.3922
 7125SOL     OW33007   4.098   3.338   9.984  0.1647 -0.1769  0.1715
 7125SOL    HW133008   4.032   3.405  10.001  0.7319  0.4275 -0.0079
 7125SOL    HW233009   4.067   3.278   9.916 -2.1705  0.2159  0.8894
 7126SOL     OW33010   0.108   4.518  10.043 -0.1102  0.1952 -0.0221
 7126SOL    HW133011   0.156   4.510   9.961 -1.1650  0.1360 -0.6344
 7126SOL    HW233012   0.130   4.436  10.087  0.1028 -0.2082 -0.8781
 7127SOL     OW33013   2.284   1.366   8.388 -0.0418  0.1386 -0.1238
 7127SOL    HW133014   2.364   1.388   8.437 -0.1086  1.0580 -0.4203
 7127SOL    HW233015   2.213   1.375   8.452 -0.1469  2.3787 -0.5365
 7128SOL     OW33016   2.438   4.078   3.116 -0.0680  0.3198 -0.6784
 7128SOL    HW133017   2.389   4.004   3.081 -1.3436 -0.3623  2.4997
 7128SOL    HW233018   2.442   4.135   3.039  2.2480  2.6530  1.1429
 7129SOL     OW33019   1.935   4.016   1.940  0.0642 -0.1709 -0.2891
 7129SOL    HW133020   1.866   4.014   1.873  1.3310  0.3436 -1.6041
 7129SOL    HW233021   1.982   4.096   1.916 -0.3447 -0.4602 -2.0762
 7130SOL     OW33022   2.023   2.630  12.302  0.2099  0.8402 -1.4466
 7130SOL    HW133023   2.100   2.658  12.351 -0.6518 -0.7080  0.8139
 7130SOL    HW233024   1.991   2.710  12.261 -1.9882  0.8983  0.3417
 7131SOL     OW33025   0.096   2.721   5.952 -0.4984 -0.4641 -0.3584
 7131SOL    HW133026   0.028   2.653   5.956 -1.4956  0.7049  2.8215
 7131SOL    HW233027   0.170   2.666   5.928  0.8857  1.3946 -0.3441
 7132SOL     OW33028   3.678   4.162   8.673 -0.4562  0.3542 -1.2328
 7132SOL    HW133029   3.769   4.185   8.690 -0.6887  0.6085 -0.3443
 7132SOL    HW233030   3.690   4.104   8.598  1.5552 -1.2090  0.3001
 7133SOL     OW33031   2.028   0.259   3.584  0.2363  0.1262 -0.3191
 7133SOL    HW133032   1.940   0.262   3.547 -0.2765 -0.2488  0.8720
 7133SOL    HW233033   2.007   0.245   3.676  2.3585 -1.0441 -0.0063
 7134SOL     OW33034   1.858   0.230   4.478  0.4654 -0.3007  0.5059
 7134SOL    HW133035   1.910   0.293   4.429  2.2854 -1.6743  0.6562
 7134SOL    HW233036   1.778   0.218   4.427  2.0059 -0.8278 -1.8187
 7135SOL     OW33037   1.843   2.955   4.189  0.0873 -0.2256  0.0751
 7135SOL    HW133038   1.807   3.006   4.117 -0.8002  0.5066  1.0256
 7135SOL    HW233039   1.847   2.868   4.150  0.7379 -0.6413  1.0672
 7136SOL     OW33040   2.301   1.027   3.676  0.4638  0.2449 -0.4065
 7136SOL    HW133041   2.255   1.021   3.592  2.1754 -1.3393 -1.2279
 7136SOL    HW233042   2.235   1.068   3.732  1.1208  0.6243  0.0808
 7137SOL     OW33043   1.019   1.853   7.199 -0.1686 -0.2982 -0.2279
 7137SOL    HW133044   1.084   1.923   7.202 -2.6955  2.0000  1.5292
 7137SOL    HW233045   0.987   1.859   7.109 -0.3345 -1.7752 -0.2553
 7138SOL     OW33046   4.088   0.551   9.511  0.4574 -0.2430 -0.8046
 7138SOL    HW133047   4.063   0.616   9.576 -2.1882 -0.3842 -1.6739
 7138SOL    HW233048   4.015   0.490   9.502 -1.3698  1.7810  0.3778
 7139SOL     OW33049   4.351   0.178   6.997  0.6539 -0.7794 -0.4970
 7139SOL    HW133050   4.315   0.183   7.086 -0.8201 -0.0636 -1.1481
 7139SOL    HW233051   4.292   0.112   6.962 -0.0696 -0.8420  0.8374
 7140SOL     OW33052   3.787   2.340  16.906  0.2231 -0.0533 -0.3804
 7140SOL    HW133053   3.751   2.354  16.994  0.2210  2.4811 -0.7938
 7140SOL    HW233054   3.720   2.291  16.858 -2.8577  0.1128  3.6769
 7141SOL     OW33055   4.094   0.634   3.559  0.0485 -0.0550 -0.6586
 7141SOL    HW133056   4.103   0.706   3.497  0.7760 -0.5683 -1.1510
 7141SOL    HW233057   4.168   0.667   3.611  0.8600 -1.1358 -1.1408
 7142SOL     OW33058   2.258   3.422   2.897  0.1080 -0.2601 -0.0256
 7142SOL    HW133059   2.244   3.415   2.802  2.0959 -3.6889 -0.0510
 7142SOL    HW233060   2.349   3.454   2.898  0.5106 -1.3004 -1.9956
 7143SOL     OW33061   4.442   4.299   7.025  0.1047 -0.2882  0.2762
 7143SOL    HW133062   4.402   4.331   7.106 -1.7682 -0.5598 -0.5367
 7143SOL    HW233063   4.523   4.349   7.012 -2.1563  2.7689 -2.1073
 7144SOL     OW33064   3.559   4.691   8.012  0.1917 -0.0392 -0.0835
 7144SOL    HW133065   3.487   4.729   7.961 -0.6760 -2.8902 -0.9474
 7144SOL    HW233066   3.542   4.735   8.095  0.4088 -3.4902  1.7489
 7145SOL     OW33067   1.548   1.148   9.922  0.9445  0.4121  0.2396
 7145SOL    HW133068   1.460   1.180   9.941  1.4904  0.1490  3.2913
 7145SOL    HW233069   1.532   1.096   9.843 -3.5347 -1.0185  2.0965
 7146SOL     OW33070   0.185   2.666   9.155 -0.2603 -0.0404 -0.0780
 7146SOL    HW133071   0.236   2.629   9.226 -0.4423  0.7312  0.4555
 7146SOL    HW233072   0.092   2.653   9.175 -0.0173 -1.8358 -0.1051
 7147SOL     OW33073   0.139   0.943  11.491  0.1847  0.1943 -0.0785
 7147SOL    HW133074   0.219   0.996  11.488  0.1322  0.2599 -0.3575
 7147SOL    HW233075   0.179   0.860  11.466  1.3458  0.7091  0.0461
 7148SOL     OW33076   1.169   0.024   1.099 -0.6125 -0.1313  0.0168
 7148SOL    HW133077   1.157   4.707   1.179  0.8681 -0.6262 -0.0733
 7148SOL    HW233078   1.211   4.693   1.043 -2.4790 -1.6004  0.3446
 7149SOL     OW33079   0.616   1.226  10.662 -0.3626  0.2224  0.0313
 7149SOL    HW133080   0.700   1.198  10.699 -1.0915 -2.0317 -0.0759
 7149SOL    HW233081   0.553   1.168  10.703 -0.9718 -0.1570 -1.4336
 7150SOL     OW33082   4.421   4.586   4.415  0.7567 -0.2404 -0.6170
 7150SOL    HW133083   4.461   4.673   4.410  1.2036 -0.3865  0.6346
 7150SOL    HW233084   4.413   4.567   4.508  3.2900  1.9937  0.0681
 7151SOL     OW33085   0.034   2.482  15.648  0.4678 -0.2830  0.2512
 7151SOL    HW133086   0.115   2.483  15.698  1.4154  2.4719 -1.3534
 7151SOL    HW233087   4.713   2.532  15.708 -0.5401 -1.0304 -0.0558
 7152SOL     OW33088   1.614   2.409   4.544  0.5023 -0.0728  0.0887
 7152SOL    HW133089   1.659   2.331   4.576  1.5184  0.5681  0.2219
 7152SOL    HW233090   1.692   2.459   4.520  1.5464 -1.2731  0.9446
 7153SOL     OW33091   3.491   3.798   3.393 -0.4598 -0.0414 -0.1202
 7153SOL    HW133092   3.406   3.784   3.436 -0.6719 -1.4343 -0.9974
 7153SOL    HW233093   3.460   3.847   3.318  0.9223 -0.5203 -0.9990
 7154SOL     OW33094   0.069   0.575   3.863 -0.4411  0.4312  0.0862
 7154SOL    HW133095   0.036   0.578   3.952  2.0674 -0.4301  1.0546
 7154SOL    HW233096   0.026   0.491   3.848  2.1887 -0.8590 -0.3082
 7155SOL     OW33097   1.772   0.742   2.348 -0.5160  0.1505  0.1410
 7155SOL    HW133098   1.742   0.737   2.438 -0.8095 -0.7125 -0.0013
 7155SOL    HW233099   1.694   0.719   2.297 -0.0010  1.7848 -1.4029
 7156SOL     OW33100   3.941   0.076   3.756 -0.2261  0.3897 -0.0451
 7156SOL    HW133101   3.867   0.052   3.813 -0.7891  0.1678 -0.8731
 7156SOL    HW233102   4.003   0.013   3.791 -0.9239  1.0526  2.4184
 7157SOL     OW33103   4.294   1.492   4.940 -0.1340  0.0732 -0.5354
 7157SOL    HW133104   4.364   1.463   4.882  1.5577 -0.7936  1.9019
 7157SOL    HW233105   4.247   1.556   4.888 -3.3758 -0.9025  1.1841
 7158SOL     OW33106   4.190   0.645   7.021  0.2544 -0.1021 -0.3698
 7158SOL    HW133107   4.260   0.605   6.970  2.6562  0.5596  2.3508
 7158SOL    HW233108   4.211   0.739   7.021 -1.8654  0.3528 -0.3221
 7159SOL     OW33109   2.079   1.246   4.348 -0.0483 -0.1762 -0.1504
 7159SOL    HW133110   2.078   1.316   4.413  0.8204 -0.5475  0.2599
 7159SOL    HW233111   2.151   1.201   4.393  0.9373  0.9697 -0.5614
 7160SOL     OW33112   3.507   3.065   3.294  0.0353 -0.3404  0.4707
 7160SOL    HW133113   3.554   3.149   3.294 -2.5875  1.1068  0.3343
 7160SOL    HW233114   3.547   3.038   3.211  0.7724  0.7769  0.4516
 7161SOL     OW33115   2.101   1.659   8.150  0.3691 -0.1755  0.5336
 7161SOL    HW133116   2.075   1.669   8.058 -0.8554 -0.4731  0.8537
 7161SOL    HW233117   2.117   1.749   8.178 -0.6901  0.6409 -1.4752
 7162SOL     OW33118   3.250   2.687  14.236  0.0869 -0.5486  0.0549
 7162SOL    HW133119   3.255   2.592  14.223  1.5958 -0.1615 -2.1334
 7162SOL    HW233120   3.297   2.709  14.317 -0.1523 -2.3273  0.6736
 7163SOL     OW33121   4.002   2.357   4.234  0.5750 -0.1932 -0.3438
 7163SOL    HW133122   4.078   2.413   4.216  0.2640  0.9479  1.8646
 7163SOL    HW233123   4.038   2.297   4.299  1.3848  0.7175  0.0524
 7164SOL     OW33124   1.830   3.632  14.749  0.4455  0.1500  0.3600
 7164SOL    HW133125   1.803   3.571  14.817  0.4658  2.0841  2.1095
 7164SOL    HW233126   1.832   3.573  14.674 -0.1503  0.9769 -0.3188
 7165SOL     OW33127   1.981   0.983   3.509  0.1233  0.9050 -0.1037
 7165SOL    HW133128   2.047   1.006   3.444  0.3265 -1.8244 -0.8528
 7165SOL    HW233129   1.995   0.889   3.523 -0.8570  1.2718  3.4116
 7166SOL     OW33130   4.503   2.747   3.813  0.5508  0.2766 -0.5975
 7166SOL    HW133131   4.447   2.717   3.884 -0.6897 -0.7220 -1.9981
 7166SOL    HW233132   4.577   2.693   3.842  1.5856  1.3454 -1.2520
 7167SOL     OW33133   1.619   3.272  15.687  0.2182 -0.0881 -0.6289
 7167SOL    HW133134   1.625   3.190  15.637 -2.3190 -0.9781  0.5362
 7167SOL    HW233135   1.629   3.330  15.612 -0.3161  3.1373  1.8269
 7168SOL     OW33136   1.633   1.220   1.520 -0.3450  0.2160  0.6591
 7168SOL    HW133137   1.715   1.173   1.508 -0.8169  0.3481 -2.9685
 7168SOL    HW233138   1.603   1.219   1.429  1.6952  0.2070  0.0030
 7169SOL     OW33139   4.297   1.861  11.312  0.5169 -0.4234 -0.6289
 7169SOL    HW133140   4.323   1.918  11.385 -1.2039  1.2415 -1.3204
 7169SOL    HW233141   4.311   1.779  11.359 -0.4313 -0.7768 -0.9862
 7170SOL     OW33142   0.519   3.041   2.788  0.1879 -0.0637  0.1748
 7170SOL    HW133143   0.611   3.069   2.784  1.2544 -3.3608  1.4828
 7170SOL    HW233144   0.478   3.109   2.841 -2.0776 -0.2548 -1.3209
 7171SOL     OW33145   2.371   0.363   7.500  0.1446 -0.2125  0.0283
 7171SOL    HW133146   2.281   0.362   7.466 -0.0355  1.9621  0.4123
 7171SOL    HW233147   2.439   0.361   7.434 -0.8616 -1.7842 -0.9488
 7172SOL     OW33148   4.242   3.674   8.576 -0.5766  0.5164  0.3321
 7172SOL    HW133149   4.189   3.754   8.573  0.5458  1.2478  0.0237
 7172SOL    HW233150   4.217   3.652   8.665  0.1346 -0.8630  0.1955
 7173SOL     OW33151   3.801   1.420   5.468  0.1309  0.0267 -0.1264
 7173SOL    HW133152   3.807   1.329   5.498 -0.0513  0.3982  1.0532
 7173SOL    HW233153   3.872   1.469   5.510 -0.3680 -0.0731  0.8404
 7174SOL     OW33154   0.623   3.961   6.668  0.0876 -0.5955 -0.4085
 7174SOL    HW133155   0.585   4.040   6.707 -0.7311 -0.8176 -0.7607
 7174SOL    HW233156   0.579   3.893   6.719 -1.0856 -1.4506 -2.5529
 7175SOL     OW33157   4.362   0.694  11.171  0.2003 -0.3219 -0.9021
 7175SOL    HW133158   4.318   0.760  11.226  1.3365 -1.7101  1.6620
 7175SOL    HW233159   4.325   0.615  11.210  0.7565 -0.2799 -0.3015
 7176SOL     OW33160   4.301   1.201   5.890 -0.4453 -0.6116  0.7742
 7176SOL    HW133161   4.271   1.215   5.801  0.5542  0.8088  0.6659
 7176SOL    HW233162   4.395   1.219   5.891 -0.3297 -1.1368 -0.4465
 7177SOL     OW33163   1.783   4.181  14.512 -0.2200 -0.6735 -0.0858
 7177SOL    HW133164   1.711   4.223  14.464 -1.4491 -0.2870  2.0859
 7177SOL    HW233165   1.841   4.150  14.442 -0.5373  0.4043 -0.8394
 7178SOL     OW33166   1.765   0.567   8.578 -0.2233 -0.3549  0.8553
 7178SOL    HW133167   1.673   0.559   8.602 -0.4146  1.3555  0.6630
 7178SOL    HW233168   1.778   0.479   8.541 -1.1602 -0.3090  0.4133
 7179SOL     OW33169   3.689   2.813   4.049  0.1433  0.2103 -0.1035
 7179SOL    HW133170   3.689   2.864   4.130 -0.9069  0.3272 -0.1788
 7179SOL    HW233171   3.625   2.745   4.073 -1.8871  2.5017  1.0228
 7180SOL     OW33172   4.515   0.018   2.872 -0.5802 -0.2796 -0.1531
 7180SOL    HW133173   4.593   4.698   2.882 -0.0818 -0.2612 -3.8990
 7180SOL    HW233174   4.533   0.091   2.931 -2.0066  0.7148 -0.9423
 7181SOL     OW33175   2.914   1.062   6.687  0.2403  0.2609 -0.1038
 7181SOL    HW133176   2.973   1.137   6.676  0.7988 -0.1297  0.2019
 7181SOL    HW233177   2.933   1.029   6.775  2.1560 -2.5504 -1.5726
 7182SOL     OW33178   1.310   4.370   5.211  0.0483  0.1878 -0.6978
 7182SOL    HW133179   1.365   4.299   5.178  2.5765  1.1163  1.5123
 7182SOL    HW233180   1.244   4.320   5.260  1.5149 -0.9922  0.0811
 7183SOL     OW33181   2.884   2.645   8.465  0.5494 -0.1576  0.4123
 7183SOL    HW133182   2.898   2.701   8.541 -2.2884  2.1709 -0.7901
 7183SOL    HW233183   2.797   2.670   8.435  0.6439  0.2948  0.5180
 7184SOL     OW33184   1.934   1.182  10.711  0.1882  0.4892 -0.1199
 7184SOL    HW133185   1.967   1.193  10.622  1.8287  0.4055  0.4909
 7184SOL    HW233186   1.999   1.120  10.744 -0.7865 -0.6794 -0.3986
 7185SOL     OW33187   4.434   3.414   2.549 -0.1049  0.0944  0.0429
 7185SOL    HW133188   4.434   3.325   2.585 -0.1594 -0.6507 -1.7626
 7185SOL    HW233189   4.497   3.461   2.603  0.0083  1.6377 -1.4078
 7186SOL     OW33190   1.267   4.078   6.771 -0.1235 -0.2816 -0.4579
 7186SOL    HW133191   1.343   4.072   6.713  0.4315  0.3576  0.2086
 7186SOL    HW233192   1.276   3.993   6.814 -0.0875  0.5190  1.1071
 7187SOL     OW33193   2.619   3.691   2.475  0.0411 -0.2790  0.3017
 7187SOL    HW133194   2.580   3.709   2.389  0.5094  0.3444  0.2217
 7187SOL    HW233195   2.621   3.777   2.516  0.7494 -0.0215 -0.2773
 7188SOL     OW33196   0.332   0.793   4.375  0.4749  0.0714 -0.5377
 7188SOL    HW133197   0.295   0.855   4.437  0.2775 -0.9261  0.3437
 7188SOL    HW233198   0.336   0.845   4.296  0.5218  0.0052 -0.5794
 7189SOL     OW33199   1.202   1.054   5.184 -0.3007 -0.4435 -0.0736
 7189SOL    HW133200   1.186   0.967   5.220 -1.7298 -1.0008 -2.0943
 7189SOL    HW233201   1.115   1.079   5.153 -0.1582  1.7823  1.2796
 7190SOL     OW33202   3.348   1.208   4.962  0.1592  0.0107 -0.0311
 7190SOL    HW133203   3.263   1.251   4.953  0.5312  0.3589 -1.9953
 7190SOL    HW233204   3.416   1.275   4.971  0.5653 -0.5685  1.2922
 7191SOL     OW33205   1.352   0.431  14.251 -0.3978 -0.5533  0.3622
 7191SOL    HW133206   1.384   0.520  14.267 -1.7003 -0.0344  0.0263
 7191SOL    HW233207   1.373   0.414  14.159  0.8919  0.7169  0.4168
 7192SOL     OW33208   0.409   3.121   6.372 -0.8094 -0.5753 -0.3627
 7192SOL    HW133209   0.364   3.205   6.357 -1.1256 -0.8496 -0.9497
 7192SOL    HW233210   0.339   3.056   6.378 -1.1829 -0.2907 -1.6956
 7193SOL     OW33211   1.614   2.986  11.334  0.2279  0.0460  0.2869
 7193SOL    HW133212   1.534   3.021  11.294 -0.2297 -0.6347  0.6102
 7193SOL    HW233213   1.585   2.897  11.352  1.3097  0.2371  2.9134
 7194SOL     OW33214   1.990   3.313   8.603  0.5810 -1.0746  0.0969
 7194SOL    HW133215   2.077   3.283   8.629  0.5208  0.3036  1.8135
 7194SOL    HW233216   1.927   3.272   8.663 -1.0111  0.9253 -0.1964
 7195SOL     OW33217   0.981   3.865   4.345  0.4756  0.5820 -0.7764
 7195SOL    HW133218   0.983   3.771   4.361  2.2321  0.6996 -0.3356
 7195SOL    HW233219   0.905   3.887   4.398  0.8352 -0.2669  0.0791
 7196SOL     OW33220   3.482   2.766   8.067 -0.1657 -0.2328 -0.0509
 7196SOL    HW133221   3.532   2.710   8.126 -1.0911 -0.9390  0.0543
 7196SOL    HW233222   3.536   2.784   7.990 -2.7301 -1.8239 -2.2040
 7197SOL     OW33223   3.797   2.903  14.216 -0.0951 -0.1859 -0.0748
 7197SOL    HW133224   3.868   2.846  14.246  0.5735  1.1769  0.9172
 7197SOL    HW233225   3.805   2.975  14.278 -1.9093 -0.6078  0.6473
 7198SOL     OW33226   3.171   2.756   5.372 -0.5124  0.4486  0.1612
 7198SOL    HW133227   3.099   2.695   5.389 -0.6725  0.6787  0.3074
 7198SOL    HW233228   3.215   2.715   5.297  0.0790 -0.2340  0.8793
 7199SOL     OW33229   3.088   1.144   5.904  0.0888  0.2197  0.1179
 7199SOL    HW133230   3.110   1.233   5.932 -1.0070  0.5020  0.0787
 7199SOL    HW233231   3.172   1.100   5.891  0.2221  0.5286 -0.0565
 7200SOL     OW33232   0.476   3.433   7.747  0.2973  0.5169 -0.5602
 7200SOL    HW133233   0.435   3.388   7.673  1.1403  0.1797 -0.8189
 7200SOL    HW233234   0.470   3.370   7.820 -0.9821 -0.0274 -1.1379
 7201SOL     OW33235   1.462   1.004   1.563 -0.6407  0.2511 -0.4800
 7201SOL    HW133236   1.473   1.099   1.557 -0.4817  0.0577 -3.3048
 7201SOL    HW233237   1.541   0.972   1.520 -0.9596  2.5051 -2.7484
 7202SOL     OW33238   2.412   4.011  15.053 -0.7010 -0.1899  0.5033
 7202SOL    HW133239   2.345   3.959  15.007 -1.6017  1.0799  0.3658
 7202SOL    HW233240   2.424   3.952  15.126  0.5989 -0.9727 -0.3523
 7203SOL     OW33241   3.192   1.400   1.124  0.7588 -0.0904 -0.3958
 7203SOL    HW133242   3.246   1.478   1.117 -1.1727  1.3649  0.8161
 7203SOL    HW233243   3.114   1.445   1.092  0.7683 -0.4016 -0.8626
 7204SOL     OW33244   2.457   4.713   8.591  0.3364  0.3889 -0.3909
 7204SOL    HW133245   2.437   4.629   8.632  0.9898  0.2383 -0.3853
 7204SOL    HW233246   2.551   4.714   8.571  0.2058 -0.2722 -1.0258
 7205SOL     OW33247   3.751   0.095   4.902  0.2877 -0.3360 -0.1013
 7205SOL    HW133248   3.662   0.124   4.922  1.0936  2.1995 -0.1986
 7205SOL    HW233249   3.786   0.061   4.984  1.3550  2.6711  0.6877
 7206SOL     OW33250   2.218   2.230   9.605  0.5327 -0.1486 -0.6975
 7206SOL    HW133251   2.149   2.173   9.572  0.5210  0.3287 -1.4858
 7206SOL    HW233252   2.288   2.167   9.622  1.5148  0.7624 -1.4100
 7207SOL     OW33253   3.135   1.074   2.450 -0.0935  0.2231 -0.7694
 7207SOL    HW133254   3.212   1.074   2.507 -0.3217  1.8160 -0.4535
 7207SOL    HW233255   3.155   1.151   2.396 -0.9333 -0.1901 -1.6731
 7208SOL     OW33256   1.198   0.360   2.871 -0.2809 -0.3013  0.3200
 7208SOL    HW133257   1.233   0.331   2.787  1.7824 -1.8329  1.7158
 7208SOL    HW233258   1.278   0.354   2.923 -0.5023 -0.8669  0.5968
 7209SOL     OW33259   1.697   0.578   4.397 -0.7273 -0.0147  0.3167
 7209SOL    HW133260   1.637   0.628   4.452 -1.5570 -0.6048 -0.0623
 7209SOL    HW233261   1.640   0.508   4.366 -0.2594  0.7877 -2.3356
 7210SOL     OW33262   4.157   0.414   1.324 -0.4206 -0.0029 -0.7850
 7210SOL    HW133263   4.126   0.494   1.282  0.1866  1.2792  1.2174
 7210SOL    HW233264   4.134   0.429   1.416  1.3394 -1.5409 -0.0876
 7211SOL     OW33265   2.947   2.587   4.399 -0.1014 -0.5516 -0.2570
 7211SOL    HW133266   2.938   2.515   4.462 -2.2809  0.2444  0.3456
 7211SOL    HW233267   2.865   2.595   4.350 -1.8594 -1.2866  2.5147
 7212SOL     OW33268   0.587   1.090   6.472  0.6021  0.3029 -0.0072
 7212SOL    HW133269   0.522   1.158   6.452 -0.4822 -0.6902  0.1451
 7212SOL    HW233270   0.589   1.045   6.388  0.5599  0.9810 -0.3726
 7213SOL     OW33271   0.584   0.989  12.207  0.1439 -0.4284  0.2599
 7213SOL    HW133272   0.566   0.901  12.173  1.0010 -0.7680  0.6873
 7213SOL    HW233273   0.537   0.974  12.289 -1.3707 -1.8107 -0.8570
 7214SOL     OW33274   0.510   0.526   9.009 -0.1497  0.2314 -0.6084
 7214SOL    HW133275   0.566   0.600   9.032  0.2759 -0.1956 -0.2872
 7214SOL    HW233276   0.486   0.547   8.919  0.8110 -0.7277 -1.0940
 7215SOL     OW33277   3.305   1.749   3.597  0.4034 -0.0521  0.2358
 7215SOL    HW133278   3.219   1.788   3.582  0.0634 -0.7270  0.4288
 7215SOL    HW233279   3.315   1.685   3.527 -1.4288  1.3432 -1.2868
 7216SOL     OW33280   1.253   1.353   5.006 -0.2077 -0.3262 -0.8077
 7216SOL    HW133281   1.224   1.320   4.921  1.8466 -2.0693 -0.8332
 7216SOL    HW233282   1.223   1.286   5.068  0.7204  2.6306  2.8133
 7217SOL     OW33283   0.886   3.643   5.998 -0.3928 -0.1290 -0.3298
 7217SOL    HW133284   0.920   3.626   6.086 -1.0524 -1.7278 -0.3841
 7217SOL    HW233285   0.822   3.711   6.020  0.3383  0.0219  1.3418
 7218SOL     OW33286   4.205   0.093  11.313  0.4061  0.1303  0.7242
 7218SOL    HW133287   4.288   0.138  11.299 -0.1722  1.0008  0.0062
 7218SOL    HW233288   4.157   0.122  11.236  0.7631  0.4348  0.6165
 7219SOL     OW33289   2.586   0.151   7.857 -0.5316  0.0944  0.1872
 7219SOL    HW133290   2.659   0.187   7.805  0.4466 -0.6774  1.0278
 7219SOL    HW233291   2.540   0.096   7.794  0.6427 -0.8774  0.1717
 7220SOL     OW33292   3.253   1.686   4.032 -0.5238  0.3257  0.7159
 7220SOL    HW133293   3.235   1.696   4.126 -1.4433 -2.0187  0.8054
 7220SOL    HW233294   3.166   1.659   4.001  0.1104  1.1765 -1.7823
 7221SOL     OW33295   1.818   3.196  11.208 -1.0256  0.2143  0.4131
 7221SOL    HW133296   1.818   3.195  11.304 -0.4716 -0.7052  0.3970
 7221SOL    HW233297   1.724   3.199  11.188 -0.6048 -0.5056 -1.6734
 7222SOL     OW33298   2.145   2.025  17.647 -0.4157  0.0961  0.5688
 7222SOL    HW133299   2.092   2.100  17.622  0.6053  1.1204  1.4990
 7222SOL    HW233300   2.220   2.030  17.588 -1.4293  3.0986 -0.4478
 7223SOL     OW33301   1.550   4.627   7.335  0.5765  0.0036  0.3723
 7223SOL    HW133302   1.467   4.647   7.379  0.9490  2.0791  0.1315
 7223SOL    HW233303   1.519   4.549   7.288 -3.3337  2.0203 -0.3679
 7224SOL     OW33304   3.394   3.180   7.752 -0.0984  0.0712  0.0262
 7224SOL    HW133305   3.413   3.272   7.738  0.5190  0.2717  2.1909
 7224SOL    HW233306   3.436   3.156   7.834  1.2648 -0.7028 -0.8956
 7225SOL     OW33307   3.774   4.252   5.041 -0.1778 -0.1872 -0.1205
 7225SOL    HW133308   3.699   4.261   5.099 -1.2050 -0.7833 -1.3597
 7225SOL    HW233309   3.763   4.161   5.012 -2.2843  0.2924 -0.7686
 7226SOL     OW33310   0.675   1.309   8.694 -0.2149 -1.1690 -0.3446
 7226SOL    HW133311   0.656   1.382   8.636 -1.3221 -1.7547 -0.7139
 7226SOL    HW233312   0.746   1.347   8.747  1.0065 -1.1069 -2.0246
 7227SOL     OW33313   0.200   1.924   3.005  0.2041  0.3933  0.2308
 7227SOL    HW133314   0.119   1.889   2.968  1.1249 -0.3596 -1.0842
 7227SOL    HW233315   0.232   1.852   3.060 -0.4381  0.0895  0.2039
 7228SOL     OW33316   4.381   2.759   2.979  0.4205  0.2533 -0.2894
 7228SOL    HW133317   4.423   2.724   3.057 -1.2884 -0.5568  0.2691
 7228SOL    HW233318   4.339   2.675   2.959 -0.1779  0.5146 -0.1376
 7229SOL     OW33319   3.015   3.295  13.990  0.2601 -0.6003  0.4230
 7229SOL    HW133320   3.008   3.377  14.040  1.6520 -0.4519  0.3765
 7229SOL    HW233321   2.955   3.236  14.035  3.0814 -4.5790 -1.0466
 7230SOL     OW33322   0.151   3.903   7.768  0.3063 -0.5156 -0.3600
 7230SOL    HW133323   0.205   3.870   7.840 -0.6338 -1.1693  0.0669
 7230SOL    HW233324   0.103   3.978   7.803  1.6385  0.2612 -0.2269
 7231SOL     OW33325   0.014   3.551  13.268  0.1869 -0.6213 -0.0146
 7231SOL    HW133326   4.702   3.634  13.279 -1.0118 -1.1012 -1.5362
 7231SOL    HW233327   0.071   3.555  13.345  1.2172  1.4803 -0.8894
 7232SOL     OW33328   1.360   1.298   2.674  0.4251  0.2451  0.1827
 7232SOL    HW133329   1.384   1.237   2.744  1.1095  0.9492  0.5583
 7232SOL    HW233330   1.432   1.358   2.695  0.6152  0.1871 -0.2972
 7233SOL     OW33331   1.664   3.720   1.435  0.4525  0.4205 -0.2182
 7233SOL    HW133332   1.609   3.652   1.397  0.5411 -0.4082  1.1346
 7233SOL    HW233333   1.751   3.684   1.413  0.9393  1.6199 -0.2565
 7234SOL     OW33334   1.674   4.468   2.459 -0.3852 -0.5258  0.1681
 7234SOL    HW133335   1.720   4.509   2.531  0.1214 -0.4439 -0.2047
 7234SOL    HW233336   1.693   4.533   2.391  2.8239 -2.2539 -0.6039
 7235SOL     OW33337   2.038   4.152   7.203 -0.4828  0.0680  0.0142
 7235SOL    HW133338   1.968   4.132   7.140 -0.1760 -2.9843  0.6425
 7235SOL    HW233339   2.015   4.087   7.270  0.1372  0.0012  0.1584
 7236SOL     OW33340   2.432   0.197  12.206 -0.5220  0.7694 -0.0196
 7236SOL    HW133341   2.359   0.137  12.190  0.6226 -0.8693  0.8037
 7236SOL    HW233342   2.412   0.247  12.285  2.1323 -1.1819  1.8937
 7237SOL     OW33343   3.161   3.228   4.905  0.2895 -0.8151  0.4600
 7237SOL    HW133344   3.231   3.227   4.970 -0.7625  1.0498  1.6226
 7237SOL    HW233345   3.181   3.303   4.850  0.2289 -0.2573  1.2066
 7238SOL     OW33346   2.780   1.466  17.312 -0.0812 -0.3376  0.3819
 7238SOL    HW133347   2.811   1.382  17.344 -1.0366 -1.3728 -1.4177
 7238SOL    HW233348   2.774   1.453  17.218 -0.6510 -1.0271  0.5177
 7239SOL     OW33349   1.181   4.396   1.665  0.2945  0.0602  0.0718
 7239SOL    HW133350   1.196   4.409   1.571  2.1889  0.5200  0.4475
 7239SOL    HW233351   1.159   4.303   1.657  1.3406 -0.1488 -0.3695
 7240SOL     OW33352   1.294   3.820   6.782 -0.7658  0.0807 -0.7718
 7240SOL    HW133353   1.201   3.803   6.795 -0.5960  0.1504  0.5977
 7240SOL    HW233354   1.317   3.753   6.718  0.8677  1.1589 -1.3150
 7241SOL     OW33355   3.677   1.372   5.189  0.3011  0.1828 -0.4736
 7241SOL    HW133356   3.720   1.327   5.262  1.0228  1.0852 -0.3415
 7241SOL    HW233357   3.617   1.432   5.234 -0.1747  0.6672 -1.7668
 7242SOL     OW33358   2.656   1.292  13.646 -0.1035  0.2586  0.2800
 7242SOL    HW133359   2.737   1.311  13.597  1.2331  1.5415  2.9665
 7242SOL    HW233360   2.620   1.380  13.658 -0.4429  0.3274 -1.2107
 7243SOL     OW33361   4.005   1.786   7.101 -0.1307 -0.4346 -0.5511
 7243SOL    HW133362   3.953   1.817   7.027 -2.1358  0.8683  1.4067
 7243SOL    HW233363   4.095   1.799   7.068 -1.5562  3.0665 -3.1357
 7244SOL     OW33364   0.790   1.059   5.768 -0.1273  0.3033  0.2359
 7244SOL    HW133365   0.876   1.084   5.735 -0.5753 -0.7044 -1.7051
 7244SOL    HW233366   0.802   1.100   5.854 -0.6348  3.1841 -1.0448
 7245SOL     OW33367   4.289   1.813   9.484  0.1735 -0.4363 -0.2694
 7245SOL    HW133368   4.205   1.805   9.530 -0.0607 -0.7243 -0.7448
 7245SOL    HW233369   4.333   1.731   9.507  0.6409 -0.8350 -2.5755
 7246SOL     OW33370   0.719   3.296   2.865  0.3077 -0.0828 -0.6362
 7246SOL    HW133371   0.726   3.215   2.816  2.7691 -0.6233  0.6342
 7246SOL    HW233372   0.807   3.312   2.898 -0.3641  0.8955  0.7236
 7247SOL     OW33373   4.014   4.392   0.839 -0.4985  0.0129  0.0036
 7247SOL    HW133374   4.038   4.467   0.784 -1.6222 -1.1613 -2.0821
 7247SOL    HW233375   3.930   4.366   0.800 -0.7700 -0.0292  0.6126
 7248SOL     OW33376   4.659   3.106   9.311 -0.6414 -0.0178 -0.4755
 7248SOL    HW133377   4.648   3.167   9.238  3.5098  0.8531 -0.3335
 7248SOL    HW233378   0.017   3.104   9.330 -0.5096 -0.1406 -1.1202
 7249SOL     OW33379   4.524   0.326   8.883  0.2422 -0.2565 -0.6126
 7249SOL    HW133380   4.465   0.366   8.818 -0.3827  0.0330  0.1385
 7249SOL    HW233381   4.608   0.326   8.836  1.4986 -0.0277  1.6495
 7250SOL     OW33382   3.780   1.211  11.098  0.3037  0.1260 -0.9956
 7250SOL    HW133383   3.688   1.237  11.099  1.1818  3.1843 -1.7387
 7250SOL    HW233384   3.767   1.129  11.146 -2.1679  1.1437  0.0860
 7251SOL     OW33385   3.623   2.893   2.625  0.2633 -0.0618  0.6752
 7251SOL    HW133386   3.690   2.841   2.669 -0.3492  0.9243  2.7612
 7251SOL    HW233387   3.675   2.973   2.621 -0.6268  0.4165 -1.7320
 7252SOL     OW33388   3.294   2.268  16.808 -0.3323 -0.0618 -0.3494
 7252SOL    HW133389   3.215   2.279  16.860  0.5863 -1.7276  1.4023
 7252SOL    HW233390   3.351   2.316  16.868  0.7380 -0.5153 -0.9878
 7253SOL     OW33391   0.637   2.015   8.589  0.4729  0.7440 -0.0610
 7253SOL    HW133392   0.655   1.939   8.645 -0.5429 -0.4721 -1.3853
 7253SOL    HW233393   0.705   2.077   8.614  1.5156  1.1268 -3.9086
 7254SOL     OW33394   0.872   2.311   8.366  0.0183 -0.3319  0.0389
 7254SOL    HW133395   0.923   2.331   8.288 -0.7953 -0.1360 -0.4399
 7254SOL    HW233396   0.831   2.227   8.343  1.5557 -1.0854  0.0640
 7255SOL     OW33397   0.406   0.631   5.288  0.3719  0.5214  0.0940
 7255SOL    HW133398   0.321   0.672   5.301 -0.8729 -2.3748  1.2852
 7255SOL    HW233399   0.420   0.637   5.193 -2.0014  0.6034 -0.2461
 7256SOL     OW33400   1.471   3.482   1.931 -0.1176  0.3638 -0.9351
 7256SOL    HW133401   1.391   3.431   1.927  0.4347 -0.5062 -0.9716
 7256SOL    HW233402   1.443   3.568   1.963  0.7667 -0.0469  0.9717
 7257SOL     OW33403   1.862   4.363   4.595  0.2316 -0.0074  0.0264
 7257SOL    HW133404   1.784   4.417   4.578  0.1593 -0.2757 -0.5018
 7257SOL    HW233405   1.828   4.313   4.669 -0.6471 -0.9534 -0.9898
 7258SOL     OW33406   4.175   3.965   3.127  0.1229  0.0616 -0.0838
 7258SOL    HW133407   4.175   3.938   3.218  2.8244  0.4976  0.0549
 7258SOL    HW233408   4.093   3.924   3.100  0.2788 -0.5630  0.3970
 7259SOL     OW33409   0.783   1.387   6.466  0.0784 -0.6990  0.1242
 7259SOL    HW133410   0.817   1.454   6.527 -1.6892 -0.4239  0.8214
 7259SOL    HW233411   0.694   1.375   6.500  0.4777  0.1531  1.4876
 7260SOL     OW33412   2.200   4.439  10.372 -0.0114  0.5368  0.4246
 7260SOL    HW133413   2.128   4.489  10.410  0.9831  2.4278 -0.1754
 7260SOL    HW233414   2.203   4.478  10.285 -0.8467  1.1803  0.6810
 7261SOL     OW33415   4.332   3.982  10.029  0.2982 -0.0193 -0.2454
 7261SOL    HW133416   4.302   4.072  10.038 -1.5681 -0.6103 -0.5580
 7261SOL    HW233417   4.411   4.001  10.079 -0.0194  2.6016 -0.7421
 7262SOL     OW33418   0.706   4.674   1.886  0.2375 -0.9418  0.7576
 7262SOL    HW133419   0.781   4.694   1.830  0.4857 -0.1947  1.3698
 7262SOL    HW233420   0.626   4.685   1.834  0.0925 -0.1726  1.1415
 7263SOL     OW33421   0.535   0.360   1.293  0.5359  0.1591 -0.4726
 7263SOL    HW133422   0.584   0.387   1.216  1.5653 -0.8399 -0.1818
 7263SOL    HW233423   0.469   0.302   1.256 -0.0280  0.3160  0.2838
 7264SOL     OW33424   1.933   0.900   5.190 -0.1190 -0.7686  0.1893
 7264SOL    HW133425   1.837   0.904   5.192 -0.1729 -1.0766 -1.8216
 7264SOL    HW233426   1.948   0.882   5.282  0.4544 -0.0106  0.2469
 7265SOL     OW33427   4.203   2.214   9.471  0.4075  0.4827 -0.1311
 7265SOL    HW133428   4.212   2.309   9.485  0.4217  0.4453  0.1246
 7265SOL    HW233429   4.298   2.200   9.468 -0.3193 -3.9451 -1.8543
 7266SOL     OW33430   4.572   3.779  12.340  0.7058 -0.4037 -0.0044
 7266SOL    HW133431   4.505   3.841  12.369 -2.0134 -3.9442  1.2587
 7266SOL    HW233432   4.580   3.716  12.412  0.4592  1.2952  1.5187
 7267SOL     OW33433   4.619   0.890   6.820 -0.4782  1.1087 -0.2862
 7267SOL    HW133434   4.545   0.913   6.765 -0.0004 -0.9467 -1.7673
 7267SOL    HW233435   4.692   0.880   6.759  1.7651 -4.2004  3.1950
 7268SOL     OW33436   2.613   1.196   7.811 -0.0364  0.3070 -0.0373
 7268SOL    HW133437   2.645   1.286   7.822 -0.6374  0.7012 -1.5176
 7268SOL    HW233438   2.522   1.226   7.802 -0.6799 -2.2128 -1.8628
 7269SOL     OW33439   2.627   2.330  14.971  0.4505 -0.2349  0.0221
 7269SOL    HW133440   2.687   2.401  14.995  0.0003 -0.0378  0.5786
 7269SOL    HW233441   2.553   2.356  15.026  0.9473 -0.5761  0.8408
 7270SOL     OW33442   4.433   4.234   0.746 -0.0294  0.0238 -0.3475
 7270SOL    HW133443   4.402   4.222   0.836  3.9148  0.2384  1.0280
 7270SOL    HW233444   4.458   4.327   0.753  0.8173 -0.1862 -0.5793
 7271SOL     OW33445   2.106   1.000  10.755  0.1194 -0.7526 -0.2064
 7271SOL    HW133446   2.044   0.928  10.766 -0.3916 -0.4982 -1.4906
 7271SOL    HW233447   2.140   1.015  10.843 -1.0307  0.6073  0.0067
 7272SOL     OW33448   3.066   0.965  11.178 -0.0084 -0.3452  0.0671
 7272SOL    HW133449   3.067   0.960  11.273  1.1627  0.6620  0.1108
 7272SOL    HW233450   3.063   1.060  11.173  1.9716 -0.3506 -1.6201
 7273SOL     OW33451   0.518   4.720  11.745 -0.4288  0.1367  0.0751
 7273SOL    HW133452   0.508   0.034  11.826  1.4954  2.1987 -0.9399
 7273SOL    HW233453   0.567   4.641  11.769 -1.2662 -0.8392 -1.4287
 7274SOL     OW33454   0.831   0.729   6.640  0.0485  0.3360 -0.1799
 7274SOL    HW133455   0.917   0.691   6.622 -0.2532 -0.9620  1.0820
 7274SOL    HW233456   0.810   0.698   6.728  1.5879  2.1372  0.8193
 7275SOL     OW33457   0.578   4.543   9.307 -0.2307  0.0533  0.2425
 7275SOL    HW133458   0.513   4.473   9.307 -0.1023 -0.0720  2.6229
 7275SOL    HW233459   0.610   4.517   9.393 -0.6968 -0.0755  0.3751
 7276SOL     OW33460   4.023   3.453   2.094  0.2849  0.1682  0.2871
 7276SOL    HW133461   4.007   3.547   2.093  0.4351  0.1835 -0.3267
 7276SOL    HW233462   4.104   3.453   2.145  0.5565 -0.5634 -0.1516
 7277SOL     OW33463   0.967   1.713   2.302  0.1046 -0.4904  0.6203
 7277SOL    HW133464   1.042   1.692   2.245 -0.0109 -1.0192  0.6648
 7277SOL    HW233465   0.912   1.754   2.235  1.3765 -0.5275 -0.4600
 7278SOL     OW33466   0.082   3.023   4.732  0.0576 -0.0797 -0.4308
 7278SOL    HW133467   4.733   3.053   4.767 -0.6415 -2.9681  0.3777
 7278SOL    HW233468   0.125   3.105   4.754 -0.7601 -0.1081  1.3049
 7279SOL     OW33469   4.514   3.197   4.685 -0.5716  0.2635 -0.1210
 7279SOL    HW133470   4.482   3.133   4.621 -0.0557  0.0322 -0.1518
 7279SOL    HW233471   4.575   3.243   4.627 -0.1966  2.7701  2.2928
 7280SOL     OW33472   3.637   0.386  15.918  0.3192 -0.7674 -0.2348
 7280SOL    HW133473   3.616   0.389  15.825 -0.8297  0.3818  0.0528
 7280SOL    HW233474   3.647   0.292  15.933  0.1113 -0.8039 -0.3203
 7281SOL     OW33475   2.059   2.863   1.884 -0.4808 -0.1142 -0.5570
 7281SOL    HW133476   1.999   2.907   1.944  0.6304 -0.4832  0.7978
 7281SOL    HW233477   1.996   2.853   1.812 -1.0681 -2.6901  0.3235
 7282SOL     OW33478   4.648   2.969   8.700  1.1218  0.2449 -0.1147
 7282SOL    HW133479   4.702   3.018   8.762  0.2805 -0.3291  1.0650
 7282SOL    HW233480   4.696   2.886   8.697  0.1704 -0.2162 -2.6055
 7283SOL     OW33481   2.690   1.174   2.192 -0.4717 -0.6185 -0.2676
 7283SOL    HW133482   2.667   1.240   2.257  1.0835 -1.9304  1.6168
 7283SOL    HW233483   2.602   1.168   2.155 -1.0042  1.5301  0.6802
 7284SOL     OW33484   2.344   2.284   6.822 -0.7496 -0.1226 -0.3362
 7284SOL    HW133485   2.313   2.372   6.843  0.4323 -0.1286  1.4387
 7284SOL    HW233486   2.436   2.300   6.804 -0.4160  0.0683  1.5266
 7285SOL     OW33487   0.588   3.909   2.502  0.1201  0.2207 -0.0478
 7285SOL    HW133488   0.634   3.881   2.423 -1.0242 -3.0689  0.4538
 7285SOL    HW233489   0.542   3.832   2.536  2.5100 -0.2120  2.1271
 7286SOL     OW33490   0.830   4.400   6.288 -0.0476 -0.2066 -0.3011
 7286SOL    HW133491   0.842   4.346   6.366 -0.2363  1.4847  0.8952
 7286SOL    HW233492   0.918   4.415   6.253 -0.0770 -0.2359 -0.3876
 7287SOL     OW33493   1.636   0.339   3.817  0.1745 -0.2616  0.2344
 7287SOL    HW133494   1.614   0.314   3.907  0.2235  0.9199  0.5756
 7287SOL    HW233495   1.723   0.301   3.806  0.2849 -0.4579  1.7712
 7288SOL     OW33496   3.586   3.782   4.023 -0.0353  0.5980 -0.0368
 7288SOL    HW133497   3.582   3.695   3.983 -2.9605  0.6159  0.1840
 7288SOL    HW233498   3.605   3.836   3.946  2.1959 -1.1795 -0.7453
 7289SOL     OW33499   3.125   4.681   6.397 -0.4634 -1.0791 -0.3278
 7289SOL    HW133500   3.171   4.650   6.476 -0.2085 -0.0660 -0.0831
 7289SOL    HW233501   3.128   0.040   6.413  0.0484 -0.7824 -2.1997
 7290SOL     OW33502   4.621   2.374   9.133  0.2625  0.1334  0.1722
 7290SOL    HW133503   4.629   2.460   9.175  0.5888  0.0440  0.2951
 7290SOL    HW233504   4.615   2.407   9.044  3.0025 -0.4975 -0.2434
 7291SOL     OW33505   1.489   4.636  17.122  0.2377 -0.1499  0.0359
 7291SOL    HW133506   1.400   4.663  17.099  0.2441  0.4420  0.7463
 7291SOL    HW233507   1.532   4.719  17.143 -2.6606  1.4493 -0.3495
 7292SOL     OW33508   3.793   1.590   6.855 -0.4297 -0.0356 -0.4732
 7292SOL    HW133509   3.744   1.632   6.926  1.0534  0.0559  0.5057
 7292SOL    HW233510   3.867   1.650   6.847 -0.9368  0.6202 -0.2407
 7293SOL     OW33511   2.176   0.251  11.959  0.1114 -0.2127  0.4330
 7293SOL    HW133512   2.265   0.214  11.954 -0.7943 -2.4858  1.0100
 7293SOL    HW233513   2.156   0.274  11.868 -2.5846 -2.6574  0.3999
 7294SOL     OW33514   4.559   1.947   7.399 -0.8288 -0.3858 -0.9189
 7294SOL    HW133515   4.530   1.986   7.481  2.2465  2.8133 -1.3414
 7294SOL    HW233516   4.631   2.005   7.374  0.2679 -2.1451 -1.8297
 7295SOL     OW33517   3.818   0.262   5.693  0.3313  0.1178  0.0491
 7295SOL    HW133518   3.746   0.198   5.695  0.1982  0.2669 -0.0246
 7295SOL    HW233519   3.888   0.197   5.701 -1.1560 -1.6600 -1.4109
 7296SOL     OW33520   3.921   4.051  12.183  0.4081 -0.1192  0.6358
 7296SOL    HW133521   3.960   3.970  12.214 -0.1292 -0.6912 -0.1740
 7296SOL    HW233522   3.991   4.114  12.204  0.7167 -0.0241 -0.6337
 7297SOL     OW33523   3.751   1.225   8.795  0.0015 -0.4092 -0.6486
 7297SOL    HW133524   3.682   1.185   8.849  0.4475 -0.1119  0.1538
 7297SOL    HW233525   3.696   1.294   8.757 -2.5072 -1.0674  1.7674
 7298SOL     OW33526   4.066   3.890   8.213 -0.3194  0.1161  0.3961
 7298SOL    HW133527   4.161   3.882   8.213 -0.3636 -0.4344  0.0234
 7298SOL    HW233528   4.035   3.864   8.300 -1.4202 -0.4503 -0.1648
 7299SOL     OW33529   3.785   1.181   4.333 -0.3169  0.5703 -0.1242
 7299SOL    HW133530   3.732   1.221   4.265  0.6024 -0.5398 -1.4978
 7299SOL    HW233531   3.863   1.162   4.281  0.8885 -0.5907  2.0887
 7300SOL     OW33532   2.644   2.100   3.598 -0.2262  0.6628 -0.1791
 7300SOL    HW133533   2.591   2.168   3.556 -0.5497  1.3533  1.3393
 7300SOL    HW233534   2.590   2.022   3.605 -0.0032  0.4212 -1.1166
 7301SOL     OW33535   1.916   2.022   8.070  0.1710  0.1866 -0.1303
 7301SOL    HW133536   1.977   1.973   8.125  1.0505  0.3937 -0.9260
 7301SOL    HW233537   1.834   1.983   8.100 -0.0925  0.0254 -1.0651
 7302SOL     OW33538   2.790   0.192  12.553 -0.1356  0.4646  0.3218
 7302SOL    HW133539   2.769   0.212  12.462 -0.2884 -0.5745  0.1243
 7302SOL    HW233540   2.858   0.256  12.574 -1.3710  1.3278  1.6689
 7303SOL     OW33541   1.672   3.670   3.334 -0.0638 -0.0381 -0.0828
 7303SOL    HW133542   1.765   3.648   3.342  0.0234  0.3116 -0.1057
 7303SOL    HW233543   1.653   3.642   3.244  0.8726  0.4018 -0.4160
 7304SOL     OW33544   0.279   0.258   0.856  0.0840 -0.7943 -0.3871
 7304SOL    HW133545   0.205   0.241   0.914 -0.1067  0.7138 -0.1847
 7304SOL    HW233546   0.340   0.190   0.882  1.3370  1.1697  1.7661
 7305SOL     OW33547   3.630   1.375  12.413 -0.1578 -0.3198  0.0234
 7305SOL    HW133548   3.608   1.393  12.321 -0.4903 -1.6277 -0.1570
 7305SOL    HW233549   3.723   1.354  12.416 -0.2924 -0.9830 -0.4455
 7306SOL     OW33550   4.390   0.746  17.422 -0.5648  0.5327  1.1178
 7306SOL    HW133551   4.467   0.719  17.372 -2.8141 -2.1049 -0.9886
 7306SOL    HW233552   4.409   0.684  17.493 -0.2563  0.1686  0.7162
 7307SOL     OW33553   4.682   0.583   2.302 -0.0280  0.2784  0.1296
 7307SOL    HW133554   4.669   0.677   2.298 -0.1418  0.2837  0.5867
 7307SOL    HW233555   0.042   0.575   2.295 -0.1944 -1.3609 -0.3004
 7308SOL     OW33556   0.376   1.991  16.775  0.0413 -0.1884  0.1836
 7308SOL    HW133557   0.450   2.051  16.768 -0.8118  0.8336  0.0688
 7308SOL    HW233558   0.406   1.943  16.852  0.8516 -2.1864 -1.3702
 7309SOL     OW33559   1.217   3.767   6.036 -0.2186  0.3685 -0.5850
 7309SOL    HW133560   1.163   3.721   5.972 -0.2870 -1.1399  0.5580
 7309SOL    HW233561   1.186   3.727   6.117 -0.7521 -0.2517 -1.0992
 7310SOL     OW33562   1.988   4.442   7.284 -0.4282  0.1468 -0.6326
 7310SOL    HW133563   2.028   4.520   7.322  1.2352 -0.8298 -0.3379
 7310SOL    HW233564   2.019   4.378   7.349 -0.4880  2.8993  2.0987
 7311SOL     OW33565   3.518   0.560   5.407 -0.0542  0.4614  0.3128
 7311SOL    HW133566   3.453   0.489   5.411  1.7328 -1.1870  0.0610
 7311SOL    HW233567   3.557   0.539   5.322 -0.4371  1.2101 -0.0498
 7312SOL     OW33568   0.216   0.238   3.242  0.1244 -0.0783 -0.1165
 7312SOL    HW133569   0.300   0.213   3.280 -0.2985 -0.6289  0.4399
 7312SOL    HW233570   0.201   0.167   3.180 -0.9332  0.1906 -0.1663
 7313SOL     OW33571   0.704   1.569   4.370 -0.6644 -0.0140 -0.2845
 7313SOL    HW133572   0.753   1.622   4.432  2.8353 -2.7665 -0.6786
 7313SOL    HW233573   0.768   1.543   4.304 -0.2712  0.6209 -0.1508
 7314SOL     OW33574   0.058   2.139  17.279 -0.6234 -0.0850 -0.0560
 7314SOL    HW133575   0.074   2.210  17.217  1.7517  1.2401  2.0709
 7314SOL    HW233576   0.085   2.058  17.235  0.1535 -0.2259  0.6753
 7315SOL     OW33577   0.730   4.583   3.498 -0.4230 -0.1833 -0.1020
 7315SOL    HW133578   0.676   4.509   3.472  0.1237 -0.3677 -0.7003
 7315SOL    HW233579   0.758   4.565   3.588 -0.0527  2.0624  0.2391
 7316SOL     OW33580   1.506   2.467  13.359  0.0618  0.1781  0.1003
 7316SOL    HW133581   1.571   2.456  13.290 -0.4865 -0.3308 -0.3293
 7316SOL    HW233582   1.510   2.562  13.370  0.7264  0.1738 -0.1074
 7317SOL     OW33583   0.530   1.442   4.991  0.2008 -0.2751 -0.4068
 7317SOL    HW133584   0.535   1.536   4.973  0.4797  0.4086  3.2383
 7317SOL    HW233585   0.595   1.415   4.927  3.0415 -0.9726  2.7584
 7318SOL     OW33586   1.049   0.886   2.296 -0.5940 -0.3007 -0.3236
 7318SOL    HW133587   0.995   0.942   2.240  0.5160  1.7853  0.7075
 7318SOL    HW233588   0.988   0.884   2.370  0.0565 -3.2236  0.1099
 7319SOL     OW33589   3.840   1.736   0.855  0.6702 -0.7109 -0.3989
 7319SOL    HW133590   3.930   1.752   0.827  0.0141  4.0802  0.1556
 7319SOL    HW233591   3.802   1.815   0.817  1.0696 -0.9243 -1.2266
 7320SOL     OW33592   2.184   3.185   6.817  0.3747 -0.1025  0.1522
 7320SOL    HW133593   2.159   3.095   6.792 -2.7641  0.7050  0.3326
 7320SOL    HW233594   2.276   3.199   6.794  1.0985 -0.5458  2.8082
 7321SOL     OW33595   2.288   2.622   3.748  0.3092 -0.2390  0.5409
 7321SOL    HW133596   2.229   2.604   3.821 -0.4782 -1.1675 -0.3249
 7321SOL    HW233597   2.238   2.683   3.693  0.1073 -0.0796  0.9011
 7322SOL     OW33598   4.131   0.207  10.762 -0.4791  0.3874 -0.1886
 7322SOL    HW133599   4.194   0.262  10.808 -0.2020  1.1449 -1.4609
 7322SOL    HW233600   4.050   0.227  10.809 -1.0186 -2.3202  0.0476
 7323SOL     OW33601   4.157   2.162   0.048  0.0058 -0.1614  0.0328
 7323SOL    HW133602   4.231   2.140   0.104  1.0715  2.0300 -0.5509
 7323SOL    HW233603   4.158   2.257   0.047 -1.9443 -0.1352 -1.4040
 7324SOL     OW33604   2.947   0.855   3.179 -0.3320  0.4515  0.7170
 7324SOL    HW133605   2.871   0.820   3.132 -0.5908  0.3461  1.2152
 7324SOL    HW233606   2.901   0.927   3.222  1.9164  1.2340  1.8115
 7325SOL     OW33607   2.199   3.878  10.165 -0.3451  0.6099 -0.3839
 7325SOL    HW133608   2.193   3.839  10.252 -0.4127  2.5167  0.4773
 7325SOL    HW233609   2.156   3.810  10.114  3.2555  1.5706 -4.6738
 7326SOL     OW33610   2.172   0.886   0.698 -0.1318  0.5344 -0.0081
 7326SOL    HW133611   2.096   0.888   0.640  0.1923  0.8850 -0.4233
 7326SOL    HW233612   2.190   0.793   0.712  0.8952  0.2476 -3.1750
 7327SOL     OW33613   4.341   0.623  10.520 -0.0775 -0.4744 -0.2750
 7327SOL    HW133614   4.327   0.634  10.614  0.8034 -2.3893  0.0737
 7327SOL    HW233615   4.254   0.590  10.496  0.1415 -0.8792 -0.5160
 7328SOL     OW33616   4.173   2.939  14.650  0.0143  0.4032  0.1403
 7328SOL    HW133617   4.171   2.949  14.746 -2.2516 -1.2639  0.2666
 7328SOL    HW233618   4.218   2.856  14.638 -1.6719 -0.7932  2.0092
 7329SOL     OW33619   2.021   3.270   0.735  0.8021 -0.1527 -0.4559
 7329SOL    HW133620   2.085   3.221   0.683 -0.4930 -2.5265  0.1815
 7329SOL    HW233621   1.948   3.265   0.673  0.1560 -1.1464  0.3844
 7330SOL     OW33622   1.584   2.973   5.154 -0.2911  0.0866  0.3201
 7330SOL    HW133623   1.648   3.018   5.208 -0.6504  1.2806 -0.2274
 7330SOL    HW233624   1.598   2.884   5.186  0.4647  1.0052  2.4604
 7331SOL     OW33625   1.622   3.716   6.468  0.0351  0.1430 -0.5106
 7331SOL    HW133626   1.586   3.673   6.546  0.4949  0.5591 -0.0698
 7331SOL    HW233627   1.543   3.705   6.415  0.7985 -2.0394 -1.1504
 7332SOL     OW33628   4.682   3.520   9.283  0.4178  0.3267  0.2766
 7332SOL    HW133629   0.014   3.581   9.313  1.2091  1.1780 -3.1381
 7332SOL    HW233630   4.712   3.508   9.192 -1.5543 -2.4268 -0.0257
 7333SOL     OW33631   0.606   0.143  11.543  0.0727  0.2007 -0.4262
 7333SOL    HW133632   0.661   0.155  11.620  0.0627 -0.3747 -0.3299
 7333SOL    HW233633   0.542   0.091  11.592  0.5009 -1.1166 -1.3046
 7334SOL     OW33634   0.191   2.579   4.080  0.1836 -0.3004  0.4903
 7334SOL    HW133635   0.189   2.672   4.056  1.3475 -0.5380 -0.5230
 7334SOL    HW233636   0.269   2.545   4.036 -1.0440 -3.1773  0.5569
 7335SOL     OW33637   3.025   4.697   5.841 -0.1072  0.7838 -0.4977
 7335SOL    HW133638   2.960   0.030   5.859 -0.5925  0.2672 -0.3158
 7335SOL    HW233639   3.017   4.639   5.916 -1.0348  0.9678 -0.4538
 7336SOL     OW33640   2.314   4.628  15.587 -0.2667 -0.1690  0.1816
 7336SOL    HW133641   2.280   4.572  15.656 -1.8620 -0.6859 -1.0357
 7336SOL    HW233642   2.362   4.566  15.532  0.2926  0.9028 -0.5475
 7337SOL     OW33643   0.239   4.278   3.488 -0.6420 -0.7817  0.1257
 7337SOL    HW133644   0.164   4.302   3.433 -1.2717 -0.7555  0.9813
 7337SOL    HW233645   0.205   4.318   3.568 -2.1945  0.8083 -1.3124
 7338SOL     OW33646   1.529   3.247  14.914 -0.0606 -0.6995  0.2309
 7338SOL    HW133647   1.531   3.162  14.871 -0.0477 -0.5569 -0.0513
 7338SOL    HW233648   1.466   3.289  14.856  0.5461 -0.8786 -0.5553
 7339SOL     OW33649   2.963   4.438   4.651 -0.6631  0.7293  0.6473
 7339SOL    HW133650   2.964   4.533   4.640  3.1443  0.6774  0.6397
 7339SOL    HW233651   2.885   4.422   4.705 -1.1465 -1.2003 -0.6478
 7340SOL     OW33652   3.240   0.259   4.990  0.1575 -1.0129 -0.3522
 7340SOL    HW133653   3.180   0.319   4.946 -0.3700  1.5323  3.8733
 7340SOL    HW233654   3.229   0.293   5.079  3.8320  1.3383 -0.8202
 7341SOL     OW33655   0.974   4.407   3.017 -0.0023 -0.5556 -0.4639
 7341SOL    HW133656   0.938   4.416   2.929  0.3760  0.0814 -0.5580
 7341SOL    HW233657   0.921   4.466   3.071  1.6279  1.0689 -0.6235
 7342SOL     OW33658   3.821   2.963   8.910 -0.1932 -0.3183  0.0014
 7342SOL    HW133659   3.739   2.938   8.952 -1.0447  2.3550 -0.0747
 7342SOL    HW233660   3.789   2.987   8.823 -2.3755 -1.6505  0.4496
 7343SOL     OW33661   1.890   3.409   9.598 -1.0166  0.3373 -0.2285
 7343SOL    HW133662   1.876   3.470   9.526  0.2358  0.0595 -0.7057
 7343SOL    HW233663   1.828   3.443   9.663  2.0858  0.5319  2.6469
 7344SOL     OW33664   1.529   0.416   7.303  0.5471 -0.7022 -0.1742
 7344SOL    HW133665   1.596   0.476   7.271 -2.0953  1.3727 -1.7633
 7344SOL    HW233666   1.449   0.469   7.303  0.7445 -0.4210 -1.8097
 7345SOL     OW33667   3.050   1.261   9.012  0.5644 -0.8145 -0.1965
 7345SOL    HW133668   3.095   1.241   8.930  1.4873 -0.8253  0.3122
 7345SOL    HW233669   3.015   1.176   9.039 -0.9422 -0.1208  0.0822
 7346SOL     OW33670   4.148   0.808  11.622 -0.7904  0.3602 -0.5160
 7346SOL    HW133671   4.074   0.801  11.562 -1.3655  0.2160  0.2029
 7346SOL    HW233672   4.180   0.896  11.599  0.8540  0.1541  1.0029
 7347SOL     OW33673   0.753   1.733  16.836 -0.8002  0.2711 -0.2834
 7347SOL    HW133674   0.842   1.766  16.822 -0.9894  0.6519 -0.5928
 7347SOL    HW233675   0.758   1.689  16.921 -1.2352 -0.2222 -0.5105
 7348SOL     OW33676   2.755   0.615   3.280 -0.2927  0.1944 -0.0290
 7348SOL    HW133677   2.754   0.522   3.303  3.2298  0.2783  0.4943
 7348SOL    HW233678   2.826   0.634   3.342  0.8329  1.6280 -1.7708
 7349SOL     OW33679   4.022   2.322   9.808  0.2238 -0.1455 -0.0999
 7349SOL    HW133680   3.999   2.396   9.864 -0.5537 -0.7818  0.4212
 7349SOL    HW233681   3.948   2.261   9.806 -0.5277  0.7057  1.8010
 7350SOL     OW33682   0.063   4.266   5.173 -0.3561 -0.3224 -1.0663
 7350SOL    HW133683   0.008   4.267   5.252  0.4833  0.0942 -0.4827
 7350SOL    HW233684   0.001   4.225   5.113 -2.2295  0.5200  0.3025
 7351SOL     OW33685   4.332   1.616  11.396  0.4825 -0.2362 -0.1781
 7351SOL    HW133686   4.396   1.545  11.408  1.0704  0.4584  0.7547
 7351SOL    HW233687   4.281   1.611  11.476  0.7179  1.8475  0.0863
 7352SOL     OW33688   4.422   1.872   2.893  0.4003  0.2634 -0.0176
 7352SOL    HW133689   4.398   1.940   2.830  2.5201  0.6186 -0.4447
 7352SOL    HW233690   4.369   1.800   2.859  0.8222 -0.6681  1.2965
 7353SOL     OW33691   4.100   1.956   3.670  0.1253  0.0337  0.9301
 7353SOL    HW133692   4.061   2.043   3.673  2.3981  1.0726 -0.4636
 7353SOL    HW233693   4.084   1.939   3.577 -0.3760 -1.0796  1.2094
 7354SOL     OW33694   2.247   3.485   9.165  0.6174 -0.0607 -0.1387
 7354SOL    HW133695   2.211   3.536   9.238  1.1419 -1.2720  0.9657
 7354SOL    HW233696   2.170   3.479   9.108  0.8306  0.1251 -0.4445
 7355SOL     OW33697   1.605   4.196  12.173 -0.3560 -0.3478  0.1238
 7355SOL    HW133698   1.675   4.182  12.109 -1.8272  1.5355 -1.9153
 7355SOL    HW233699   1.660   4.209  12.250 -1.2195 -0.4006  0.7534
 7356SOL     OW33700   3.310   0.909   6.228  0.0518  0.5071 -0.2196
 7356SOL    HW133701   3.372   0.919   6.155 -2.0909 -3.1111 -2.4962
 7356SOL    HW233702   3.349   0.962   6.298  1.1150 -1.7284  0.8493
 7357SOL     OW33703   1.504   1.296  16.833 -0.2678  0.3958 -0.0292
 7357SOL    HW133704   1.539   1.207  16.831  1.2330  0.9884 -0.5548
 7357SOL    HW233705   1.442   1.291  16.906 -1.0079  0.0782 -0.6751
 7358SOL     OW33706   3.106   3.999   6.237 -0.1947 -0.1809  0.5632
 7358SOL    HW133707   3.141   3.965   6.154 -0.7650 -2.3038  1.1985
 7358SOL    HW233708   3.099   3.919   6.288 -3.7511 -0.6542 -0.6311
 7359SOL     OW33709   1.990   2.255   9.847  0.7195 -0.8305  0.6801
 7359SOL    HW133710   2.027   2.188   9.905  1.8829 -1.8100 -1.1801
 7359SOL    HW233711   1.991   2.205   9.765 -1.8586  1.8647 -0.9993
 7360SOL     OW33712   2.165   2.481   5.839 -0.1167  0.1863  0.4614
 7360SOL    HW133713   2.120   2.510   5.918  0.8246  0.2028  0.9939
 7360SOL    HW233714   2.112   2.534   5.779 -1.6387 -1.7510  0.0690
 7361SOL     OW33715   2.740   3.363   6.720  0.1798 -0.2042  0.7703
 7361SOL    HW133716   2.688   3.283   6.726  0.8466 -0.6195  1.0161
 7361SOL    HW233717   2.802   3.358   6.793 -0.4633  0.8101  1.3839
 7362SOL     OW33718   1.480   2.124  17.445 -0.0085 -0.8397 -0.7179
 7362SOL    HW133719   1.478   2.212  17.482 -1.7946 -0.5352 -1.5666
 7362SOL    HW233720   1.500   2.065  17.518 -1.9050 -0.5691  0.0128
 7363SOL     OW33721   1.583   1.671   1.777  0.0106 -0.6626  0.2890
 7363SOL    HW133722   1.499   1.652   1.734  0.2994  0.3970 -0.7532
 7363SOL    HW233723   1.560   1.629   1.860 -1.0119 -0.7416 -0.0359
 7364SOL     OW33724   2.780   4.218   7.848  0.1037 -0.2335 -0.1773
 7364SOL    HW133725   2.787   4.309   7.818 -2.2893  0.3086  0.8815
 7364SOL    HW233726   2.761   4.168   7.769 -2.1513 -0.7546  0.7243
 7365SOL     OW33727   1.789   3.188   9.071  0.5243  0.2633  0.1766
 7365SOL    HW133728   1.837   3.112   9.037  0.6805  0.9612 -1.1974
 7365SOL    HW233729   1.713   3.192   9.012 -0.0542 -1.7367  0.7748
 7366SOL     OW33730   2.582   4.278  11.419  0.0715  0.2120 -0.1751
 7366SOL    HW133731   2.653   4.236  11.469 -1.1781 -1.4943  0.1531
 7366SOL    HW233732   2.524   4.299  11.493 -2.0257 -1.6893 -1.2965
 7367SOL     OW33733   0.386   4.727   1.817 -0.2325 -0.6307 -0.0182
 7367SOL    HW133734   0.373   0.087   1.812 -0.4301 -0.5784  1.3807
 7367SOL    HW233735   0.425   4.708   1.732 -0.5286 -0.3876 -0.2059
 7368SOL     OW33736   2.700   2.101   6.740  0.0783  0.0555 -0.2051
 7368SOL    HW133737   2.722   2.184   6.699 -1.3611  0.7603  0.4437
 7368SOL    HW233738   2.708   2.136   6.829  1.0750 -0.1664 -0.2039
 7369SOL     OW33739   2.022   0.835   5.469  0.2544  0.6737 -0.0024
 7369SOL    HW133740   1.969   0.884   5.531  0.1562 -1.6225  1.7280
 7369SOL    HW233741   1.979   0.750   5.464  1.9889 -0.1835 -0.2616
 7370SOL     OW33742   3.146   2.856   6.130  0.5159  0.2054  0.0983
 7370SOL    HW133743   3.074   2.820   6.078  0.2019  1.0171 -0.0240
 7370SOL    HW233744   3.200   2.916   6.079  1.6956 -1.1552 -0.2489
 7371SOL     OW33745   0.660   0.809   2.901  0.2104 -0.4436  0.0226
 7371SOL    HW133746   0.641   0.816   2.995  1.8720 -1.3892  0.4282
 7371SOL    HW233747   0.655   0.899   2.870 -0.1826 -0.0473  1.2412
 7372SOL     OW33748   4.263   1.509   5.364 -0.0874  0.3637  0.5891
 7372SOL    HW133749   4.191   1.558   5.325 -1.4230 -1.6174  0.6080
 7372SOL    HW233750   4.221   1.436   5.409  0.5367 -1.0382 -1.0783
 7373SOL     OW33751   4.403   0.643   9.355 -0.1494 -0.7747  0.7288
 7373SOL    HW133752   4.454   0.701   9.412 -1.1635  0.6232  0.2240
 7373SOL    HW233753   4.330   0.621   9.413 -0.2957  0.6214  1.0763
 7374SOL     OW33754   0.423   1.113  10.034  0.1464 -0.0161 -0.1904
 7374SOL    HW133755   0.370   1.035  10.051  1.2525 -0.7895 -0.3490
 7374SOL    HW233756   0.506   1.071  10.056 -1.1924 -2.0238  1.0118
 7375SOL     OW33757   4.721   1.676  12.405  0.4803 -0.3019 -0.4687
 7375SOL    HW133758   0.065   1.726  12.384  1.0995 -1.6810 -1.4246
 7375SOL    HW233759   4.666   1.686  12.327  0.6736  0.1335 -0.5490
 7376SOL     OW33760   2.647   3.413   3.181  0.3499  0.3376 -0.0728
 7376SOL    HW133761   2.560   3.454   3.189 -0.7363 -1.6463 -1.7013
 7376SOL    HW233762   2.623   3.345   3.118  2.1268 -0.6809  0.3743
 7377SOL     OW33763   0.801   0.557   0.051 -0.1759  0.1511 -0.0580
 7377SOL    HW133764   0.783   0.594  17.704 -0.4923 -1.1305 -0.5366
 7377SOL    HW233765   0.730   0.494   0.057 -0.3056  0.2250 -0.8325
 7378SOL     OW33766   1.640   0.815  11.697 -0.0485  0.7541  0.0525
 7378SOL    HW133767   1.648   0.883  11.764 -0.7815  0.8055  0.0891
 7378SOL    HW233768   1.728   0.785  11.674 -1.1986 -2.8990  0.4074
 7379SOL     OW33769   0.413   1.910  15.016  0.3416  0.6856 -0.1006
 7379SOL    HW133770   0.378   1.922  15.105  1.0121 -1.2613  0.4318
 7379SOL    HW233771   0.509   1.907  15.006  0.6342  1.0167  2.5624
 7380SOL     OW33772   1.912   2.969   3.755 -0.1656  0.1409 -0.0251
 7380SOL    HW133773   1.893   2.879   3.780  0.4683  0.7815  2.7480
 7380SOL    HW233774   2.000   2.984   3.790 -0.3672 -1.2294  1.0690
 7381SOL     OW33775   2.488   1.989  10.695  0.3238 -0.0108  0.3367
 7381SOL    HW133776   2.423   2.060  10.691  0.6238  0.2194 -0.4873
 7381SOL    HW233777   2.487   1.966  10.788  3.5859  2.2663  0.9259
 7382SOL     OW33778   2.852   0.228   9.760  0.0218  0.0856  0.0127
 7382SOL    HW133779   2.862   0.152   9.704 -2.1125 -0.5315  0.4728
 7382SOL    HW233780   2.927   0.280   9.732  0.0303  1.6008  2.7603
 7383SOL     OW33781   1.454   3.733   3.795 -0.4644  0.4769  0.8369
 7383SOL    HW133782   1.377   3.785   3.817 -0.9023  0.4451 -0.6193
 7383SOL    HW233783   1.505   3.717   3.874  0.6574 -0.5446 -0.0857
 7384SOL     OW33784   2.745   3.016   7.786  0.4464  0.4161  1.0018
 7384SOL    HW133785   2.833   2.981   7.776  0.7717  1.1600  1.3307
 7384SOL    HW233786   2.705   2.957   7.850  1.9192  0.2206  1.7409
 7385SOL     OW33787   3.955   1.090  15.105  0.3431 -0.4020 -0.6164
 7385SOL    HW133788   3.912   1.007  15.084  0.3865 -0.0553 -2.1392
 7385SOL    HW233789   4.026   1.095  15.041 -1.8975  1.3480 -2.9553
 7386SOL     OW33790   2.234   4.712   9.484  0.0288 -0.2519 -0.3853
 7386SOL    HW133791   2.249   4.625   9.522 -2.3474 -1.2498 -1.6969
 7386SOL    HW233792   2.326   4.733   9.469  0.0864 -0.9480 -0.9991
 7387SOL     OW33793   0.196   2.102   2.800 -0.2593 -0.0549  0.4439
 7387SOL    HW133794   0.255   2.177   2.810 -0.5010  0.2511 -0.3986
 7387SOL    HW233795   0.203   2.040   2.873  0.9989  0.2325  0.5650
 7388SOL     OW33796   4.097   0.158   3.265  0.3466  0.1341  0.0381
 7388SOL    HW133797   4.137   0.162   3.353  2.5875  2.1440 -1.0502
 7388SOL    HW233798   4.040   0.234   3.275 -0.3939 -0.2277 -1.4504
 7389SOL     OW33799   2.189   4.733   7.796 -0.2871  0.1381  0.5378
 7389SOL    HW133800   2.254   4.663   7.787 -0.3538 -0.3009  3.6210
 7389SOL    HW233801   2.152   4.735   7.884  0.0045 -0.8585  0.6867
 7390SOL     OW33802   1.517   3.682   5.597  0.3017 -0.1557 -0.3900
 7390SOL    HW133803   1.476   3.599   5.573 -1.9454  1.3880 -1.8453
 7390SOL    HW233804   1.476   3.690   5.683  0.9974 -1.3007  0.0455
 7391SOL     OW33805   1.681   3.257   5.751  0.5564 -0.5973  0.3151
 7391SOL    HW133806   1.692   3.273   5.658  3.0348 -0.8508  0.5836
 7391SOL    HW233807   1.764   3.267   5.797  0.4084  1.2793  0.1587
 7392SOL     OW33808   3.322   0.167   6.903  0.3102 -0.0182 -0.4210
 7392SOL    HW133809   3.388   0.121   6.852  0.2891 -0.4626 -0.0454
 7392SOL    HW233810   3.370   0.248   6.922  2.1479 -1.2117  0.0321
 7393SOL     OW33811   0.324   0.247  10.332 -0.3723 -0.1773  0.3861
 7393SOL    HW133812   0.230   0.248  10.316  0.0537 -1.5813 -2.0899
 7393SOL    HW233813   0.343   0.202  10.415 -1.6992 -2.5604 -0.5995
 7394SOL     OW33814   2.891   1.199  13.309 -0.1213  0.1341  0.5658
 7394SOL    HW133815   2.799   1.202  13.282 -0.9210 -0.6723  3.1518
 7394SOL    HW233816   2.907   1.293  13.318 -0.0374  0.2804 -1.0654
 7395SOL     OW33817   4.087   0.903   6.704 -0.3746  0.3402  0.0013
 7395SOL    HW133818   4.052   0.904   6.615  1.7699 -0.0342 -0.8355
 7395SOL    HW233819   4.043   0.985   6.728 -0.8060  0.2360 -0.4238
 7396SOL     OW33820   0.002   0.438   1.855  0.4913  0.0072  0.3191
 7396SOL    HW133821   0.073   0.388   1.896 -0.7855 -0.8892  1.4565
 7396SOL    HW233822   0.036   0.449   1.766 -1.1839  0.5485 -0.2543
 7397SOL     OW33823   1.633   0.320   2.823  0.2054 -0.0867  0.2843
 7397SOL    HW133824   1.666   0.313   2.912  1.7771  0.9101 -0.2273
 7397SOL    HW233825   1.714   0.302   2.776 -0.2470  0.2005 -0.6200
 7398SOL     OW33826   0.420   2.638   2.482 -0.4833  0.0983  0.1505
 7398SOL    HW133827   0.347   2.697   2.500  0.5318  0.2085  3.8375
 7398SOL    HW233828   0.490   2.695   2.514  0.5319  0.5081 -2.7956
 7399SOL     OW33829   1.514   2.539  15.441  0.2444 -0.6391 -0.2057
 7399SOL    HW133830   1.546   2.452  15.416 -0.4868 -0.6537 -1.0808
 7399SOL    HW233831   1.566   2.584  15.374  0.7442 -3.6886 -1.8449
 7400SOL     OW33832   3.773   4.654  16.332  0.3680  0.0219  0.1890
 7400SOL    HW133833   3.787   0.012  16.344 -0.6531  0.1534  0.3546
 7400SOL    HW233834   3.786   4.642  16.238  1.2842 -0.4109  0.3754
 7401SOL     OW33835   0.958   0.957   1.533  0.2916  0.1909  0.2196
 7401SOL    HW133836   1.043   0.916   1.521 -0.1224 -0.8029  0.6808
 7401SOL    HW233837   0.898   0.886   1.555  1.3018 -0.9891 -0.8639
 7402SOL     OW33838   0.221   0.194  13.155 -0.3441  0.3623 -0.7461
 7402SOL    HW133839   0.304   0.196  13.109  0.2116  2.5873  0.3495
 7402SOL    HW233840   0.173   0.255  13.099 -0.5771  1.9802  1.2296
 7403SOL     OW33841   1.586   0.200   1.090  0.0067  0.4057  0.1677
 7403SOL    HW133842   1.558   0.228   1.003  0.4362 -0.7183 -0.3265
 7403SOL    HW233843   1.645   0.273   1.109  0.2392 -0.3147  2.1390
 7404SOL     OW33844   4.072   0.373   2.694  0.5237  0.5252  0.0062
 7404SOL    HW133845   4.106   0.284   2.705 -0.0950  0.5036  1.7052
 7404SOL    HW233846   3.986   0.371   2.736  1.1663  1.4705  1.3591
 7405SOL     OW33847   4.302   2.745   7.858 -0.7195 -0.0089 -0.4802
 7405SOL    HW133848   4.384   2.795   7.854  0.1579 -1.4783 -1.1098
 7405SOL    HW233849   4.266   2.770   7.943  1.6907 -2.4781  1.2622
 7406SOL     OW33850   0.793   2.035  17.147  0.2704  0.1429 -0.0405
 7406SOL    HW133851   0.818   2.033  17.055 -0.8554 -0.9062 -0.3228
 7406SOL    HW233852   0.877   2.062  17.184  0.2582 -0.9049  0.7304
 7407SOL     OW33853   3.093   4.207   8.714  0.1813  0.4806  0.2493
 7407SOL    HW133854   3.179   4.202   8.756  1.3030  0.4046 -2.0502
 7407SOL    HW233855   3.047   4.131   8.750 -3.3732  1.4412 -2.3721
 7408SOL     OW33856   0.956   2.876   4.333  0.0592 -0.7858  0.1327
 7408SOL    HW133857   0.913   2.955   4.299  0.0270 -0.8597  0.0027
 7408SOL    HW233858   1.019   2.853   4.265 -1.7639 -3.3803 -0.6706
 7409SOL     OW33859   0.852   1.090  16.675  0.7001  0.3260  0.3591
 7409SOL    HW133860   0.816   1.002  16.669 -1.2062  1.0772  0.9669
 7409SOL    HW233861   0.774   1.139  16.650  1.2435  1.0961  0.1766
 7410SOL     OW33862   3.037   4.327   7.205  0.0870 -0.2996 -1.0490
 7410SOL    HW133863   3.125   4.324   7.169  0.7943 -1.7248  0.7984
 7410SOL    HW233864   2.999   4.385   7.139 -0.7538  0.4966  0.1433
 7411SOL     OW33865   3.590   1.478   5.804  0.2843  0.4009  0.1646
 7411SOL    HW133866   3.645   1.531   5.862 -0.6171  0.4409  0.9812
 7411SOL    HW233867   3.503   1.515   5.818  0.1963  0.3283 -0.1928
 7412SOL     OW33868   1.742   1.139   2.593 -0.6212  0.0436  0.1660
 7412SOL    HW133869   1.824   1.105   2.555 -0.2088 -0.9431  1.9401
 7412SOL    HW233870   1.724   1.215   2.538  0.7064  0.9003  0.9047
 7413SOL     OW33871   1.720   0.072   7.379  0.1666  0.4149 -0.0693
 7413SOL    HW133872   1.658   0.002   7.359  0.7292 -0.4008  0.9919
 7413SOL    HW233873   1.679   0.114   7.456  0.7066 -1.8711  1.4660
 7414SOL     OW33874   4.446   0.359   1.794 -0.4164 -0.3636 -0.2444
 7414SOL    HW133875   4.509   0.304   1.747 -0.1035  0.5261 -0.8710
 7414SOL    HW233876   4.461   0.339   1.887  2.7613 -0.7861 -0.8518
 7415SOL     OW33877   3.433   3.766   9.579  0.8808  0.4786 -0.1310
 7415SOL    HW133878   3.478   3.720   9.650  0.2781 -1.3538 -0.9338
 7415SOL    HW233879   3.481   3.725   9.507 -1.6769  0.5323 -1.8592
 7416SOL     OW33880   0.532   4.133   1.621  0.2876  0.2065 -0.1792
 7416SOL    HW133881   0.613   4.178   1.645  1.4044 -0.6178 -2.3398
 7416SOL    HW233882   0.474   4.186   1.675 -0.0963 -0.6626  0.2582
 7417SOL     OW33883   1.353   0.199   3.071  0.4037 -0.4781 -0.1768
 7417SOL    HW133884   1.348   0.129   3.006  1.3288  0.7558 -1.6173
 7417SOL    HW233885   1.428   0.173   3.124  0.0523 -0.6301  0.2410
 7418SOL     OW33886   3.982   0.137   2.556 -0.3110  0.5349 -0.0795
 7418SOL    HW133887   3.919   0.072   2.524  2.0265 -1.8264  0.1165
 7418SOL    HW233888   4.000   0.193   2.481  0.4923  3.3489  2.1915
 7419SOL     OW33889   2.212   4.637   1.674 -0.6609  0.5351  0.9212
 7419SOL    HW133890   2.213   4.730   1.698  1.2538  0.6587  0.3461
 7419SOL    HW233891   2.117   4.625   1.668 -0.3663 -2.7340  2.7903
 7420SOL     OW33892   1.473   2.777  15.647  0.4495  0.1799 -0.3975
 7420SOL    HW133893   1.525   2.750  15.571  1.0326 -0.8550  0.3699
 7420SOL    HW233894   1.423   2.844  15.601 -0.5692  0.0416  0.5074
 7421SOL     OW33895   4.420   4.708   7.417  0.1356 -0.1338  0.2719
 7421SOL    HW133896   4.402   4.669   7.503  0.2225 -0.0186  0.3423
 7421SOL    HW233897   4.486   0.041   7.431 -0.4587  0.8348 -1.7315
 7422SOL     OW33898   3.092   2.945   3.113 -0.1694  0.2039  0.2933
 7422SOL    HW133899   3.137   2.971   3.193  1.5010 -1.7971  0.0195
 7422SOL    HW233900   3.009   2.992   3.119 -0.8154 -1.3449  3.0232
 7423SOL     OW33901   1.395   1.196   8.867 -0.3518  0.1067  0.3543
 7423SOL    HW133902   1.365   1.266   8.926 -0.9764  0.2806 -0.1722
 7423SOL    HW233903   1.311   1.151   8.870 -0.2037 -0.0957  1.5452
 7424SOL     OW33904   2.563   2.559   3.739  0.2974  0.5373  0.0311
 7424SOL    HW133905   2.474   2.584   3.763  0.1747 -1.1196  1.2652
 7424SOL    HW233906   2.541   2.523   3.653  3.1546 -0.6967 -0.1588
 7425SOL     OW33907   1.865   2.618  12.031 -0.2912  0.3263 -0.4216
 7425SOL    HW133908   1.897   2.658  11.951 -0.1636  1.0969  0.0112
 7425SOL    HW233909   1.829   2.683  12.092  0.3070 -0.3627  0.6818
 7426SOL     OW33910   2.443   4.170   1.747  0.6142  0.1002 -0.3712
 7426SOL    HW133911   2.417   4.181   1.839  2.4326  2.3950 -0.1051
 7426SOL    HW233912   2.368   4.216   1.710  0.9019  0.1860 -0.8350
 7427SOL     OW33913   1.713   1.393   7.279  0.1428 -0.4602 -1.3704
 7427SOL    HW133914   1.666   1.474   7.259  1.0322  0.5339  0.5240
 7427SOL    HW233915   1.659   1.331   7.230  0.8694 -0.8070 -1.7412
 7428SOL     OW33916   3.309   1.969   6.733 -0.6127  0.2619  0.1470
 7428SOL    HW133917   3.327   1.933   6.820 -2.4363 -1.9905 -0.4309
 7428SOL    HW233918   3.357   1.914   6.672 -1.9838 -1.0406  0.2331
 7429SOL     OW33919   0.594   0.695   6.046  0.2488 -0.8448 -0.1275
 7429SOL    HW133920   0.612   0.638   6.121  2.9696 -0.4597 -0.4759
 7429SOL    HW233921   0.653   0.659   5.979  2.1286 -0.3098  1.2268
 7430SOL     OW33922   0.804   4.245   1.043 -0.0910 -0.1637  0.2004
 7430SOL    HW133923   0.863   4.170   1.051 -0.6222 -0.7555 -1.4608
 7430SOL    HW233924   0.725   4.192   1.054 -0.6358  0.6672  0.2325
 7431SOL     OW33925   0.116   2.516   7.444  0.9101 -0.4143 -0.0818
 7431SOL    HW133926   0.148   2.517   7.534 -1.9178  0.9065  0.9084
 7431SOL    HW233927   0.150   2.596   7.402  1.2909  0.5580  2.0995
 7432SOL     OW33928   0.362   0.434   7.744 -0.5729  0.2616 -0.3474
 7432SOL    HW133929   0.429   0.501   7.729 -0.6935  0.6110  0.6905
 7432SOL    HW233930   0.416   0.357   7.765 -0.5002  1.3359  3.3247
 7433SOL     OW33931   1.428   4.453  16.533 -0.3668  0.1121 -0.0413
 7433SOL    HW133932   1.473   4.536  16.550  0.1346  0.2687 -2.2175
 7433SOL    HW233933   1.498   4.390  16.550 -2.2738 -1.8020  0.7841
 7434SOL     OW33934   4.537   1.767  16.833 -0.4441 -0.0566 -0.0913
 7434SOL    HW133935   4.537   1.858  16.862  0.6457  0.3698 -1.4344
 7434SOL    HW233936   4.452   1.756  16.791  0.4386 -0.1628 -1.8450
 7435SOL     OW33937   1.072   3.883   2.708  0.4883  0.5821 -0.3390
 7435SOL    HW133938   1.000   3.942   2.686  0.1403 -0.0737 -0.9913
 7435SOL    HW233939   1.066   3.874   2.803  1.3305 -0.5493 -0.3938
 7436SOL     OW33940   2.587   1.926   3.341 -0.7443 -0.2268 -0.3020
 7436SOL    HW133941   2.589   2.021   3.340 -0.7431 -0.2156  0.8515
 7436SOL    HW233942   2.576   1.908   3.248  0.9462 -2.4873 -0.0876
 7437SOL     OW33943   1.848   1.731  12.185  0.1856 -0.2594 -0.4106
 7437SOL    HW133944   1.819   1.657  12.132 -1.7714  0.6835 -0.6422
 7437SOL    HW233945   1.905   1.684  12.246 -0.1093  2.2717  1.8091
 7438SOL     OW33946   0.719   0.720  11.891  0.6099 -0.4101 -0.6183
 7438SOL    HW133947   0.805   0.730  11.931  0.5610 -0.8018 -0.4113
 7438SOL    HW233948   0.744   0.683  11.806 -0.1899 -1.0719 -0.5661
 7439SOL     OW33949   0.622   4.045   4.271  0.0907 -0.3539 -0.0170
 7439SOL    HW133950   0.562   4.118   4.254 -0.1085 -0.0375  2.0043
 7439SOL    HW233951   0.631   4.019   4.180  2.1764  2.0167 -0.4962
 7440SOL     OW33952   2.897   1.137   4.827 -0.5154 -0.4949  0.0624
 7440SOL    HW133953   2.951   1.137   4.748 -0.7211  0.6502 -0.0823
 7440SOL    HW233954   2.833   1.069   4.807 -1.2559  0.9499 -2.5179
 7441SOL     OW33955   0.690   1.076  10.387  0.3235 -0.1775 -0.2960
 7441SOL    HW133956   0.603   1.044  10.363 -0.7374  4.1517 -2.2899
 7441SOL    HW233957   0.704   1.025  10.467 -3.7526 -1.1397 -0.2138
 7442SOL     OW33958   0.764   0.196  11.750  0.3663 -0.5234  0.3309
 7442SOL    HW133959   0.746   0.140  11.826 -1.3144 -0.7079 -0.2192
 7442SOL    HW233960   0.807   0.272  11.790 -1.3721  0.4592  0.3312
 7443SOL     OW33961   3.683   0.270  11.742 -0.2796 -0.1306 -0.6026
 7443SOL    HW133962   3.646   0.355  11.719 -0.8658 -0.3524 -0.4859
 7443SOL    HW233963   3.768   0.296  11.777  0.2805  0.0716 -2.1330
 7444SOL     OW33964   3.711   3.237   5.953  0.2222 -0.4444 -0.1432
 7444SOL    HW133965   3.789   3.290   5.968 -1.1295  0.8873  2.2343
 7444SOL    HW233966   3.744   3.174   5.889  0.5578  0.0021 -0.4097
 7445SOL     OW33967   3.648   1.344  13.187  0.5638  0.1954  0.4925
 7445SOL    HW133968   3.555   1.364  13.187  0.5070 -0.1177  2.2150
 7445SOL    HW233969   3.683   1.428  13.158  2.9859 -0.5706  1.2075
 7446SOL     OW33970   1.492   3.112   0.719 -0.0333  0.0710  0.9812
 7446SOL    HW133971   1.521   3.145   0.804 -0.0511 -1.7502  1.6934
 7446SOL    HW233972   1.573   3.075   0.686 -1.1909 -1.4298 -0.1780
 7447SOL     OW33973   1.270   0.328   8.768  0.5875 -0.1951  0.1108
 7447SOL    HW133974   1.245   0.336   8.860  0.6684 -0.7192  0.1784
 7447SOL    HW233975   1.288   0.234   8.765  0.7169 -0.2423  2.9880
 7448SOL     OW33976   3.808   4.302   6.427 -0.4950 -0.1711  0.0155
 7448SOL    HW133977   3.894   4.278   6.393  0.1976  0.5396  1.2208
 7448SOL    HW233978   3.772   4.361   6.362 -0.8857  1.0232  1.3121
 7449SOL     OW33979   2.689   0.375   3.687 -0.3545  0.1685  0.9596
 7449SOL    HW133980   2.781   0.357   3.665 -0.6314 -1.7001  1.3033
 7449SOL    HW233981   2.653   0.302   3.738  4.0473 -2.4277  0.3783
 7450SOL     OW33982   1.402   0.291   7.957 -0.5390  0.2877  0.1645
 7450SOL    HW133983   1.494   0.305   7.932 -0.4513 -1.6604 -0.6134
 7450SOL    HW233984   1.375   0.381   7.976  0.7901  0.7736 -0.1925
 7451SOL     OW33985   3.358   4.050  15.213  0.1954 -0.2183 -0.8858
 7451SOL    HW133986   3.294   4.100  15.264  0.4412  1.1554 -1.9310
 7451SOL    HW233987   3.369   4.102  15.134  0.5563  1.4235  0.2523
 7452SOL     OW33988   1.085   2.931   6.398 -0.0548 -0.1605 -0.1764
 7452SOL    HW133989   1.149   2.987   6.354  0.0190 -0.5307 -0.5471
 7452SOL    HW233990   1.049   2.889   6.320 -0.4083  0.4708 -0.3519
 7453SOL     OW33991   0.549   4.618  13.432 -0.0054 -0.3184 -0.1066
 7453SOL    HW133992   0.482   4.668  13.386 -0.6575 -0.8324  0.2940
 7453SOL    HW233993   0.518   4.528  13.426  3.1834 -1.2117 -3.0129
 7454SOL     OW33994   3.614   0.597   5.171  0.5132  0.2861 -0.7729
 7454SOL    HW133995   3.664   0.666   5.127 -2.0232  2.1644 -0.7359
 7454SOL    HW233996   3.597   0.538   5.098  2.9803 -0.5958 -0.6347
 7455SOL     OW33997   2.734   2.870  16.135  0.5181 -0.1396  0.3512
 7455SOL    HW133998   2.642   2.875  16.159  0.4159 -0.6835  0.0617
 7455SOL    HW233999   2.733   2.845  16.043 -1.0121 -0.4034  0.4438
 7456SOL     OW34000   1.510   3.745  17.615  0.3669  0.2421 -0.8896
 7456SOL    HW134001   1.435   3.796  17.583 -0.2686 -0.9022 -1.2185
 7456SOL    HW234002   1.482   3.663  17.575  0.8207  0.1501 -1.0105
 7457SOL     OW34003   1.918   1.894  12.602  0.4063 -0.0876  0.5851
 7457SOL    HW134004   1.859   1.916  12.530 -1.6517 -2.5305  1.5243
 7457SOL    HW234005   1.859   1.845  12.660 -0.9168  0.2810 -0.4506
 7458SOL     OW34006   1.830   3.736   9.772  0.1525 -0.3534  0.2094
 7458SOL    HW134007   1.800   3.752   9.861 -0.2214  1.9528 -0.3296
 7458SOL    HW234008   1.802   3.820   9.735  1.6841 -0.6298 -1.5939
 7459SOL     OW34009   4.004   1.022   2.502 -0.6015  0.4620 -0.0732
 7459SOL    HW134010   4.046   1.048   2.419 -2.3830  1.2749 -0.7180
 7459SOL    HW234011   4.062   0.954   2.534 -0.0887  0.7109 -0.4623
 7460SOL     OW34012   1.740   1.357  17.148  0.2548 -0.6388  0.4037
 7460SOL    HW134013   1.780   1.385  17.066 -2.4531  0.3499 -0.5680
 7460SOL    HW234014   1.825   1.330  17.184  0.9056 -0.4851 -1.0358
 7461SOL     OW34015   1.734   2.539   6.181 -0.2189 -0.3018  0.3146
 7461SOL    HW134016   1.673   2.466   6.183  0.0179 -0.5080 -0.0894
 7461SOL    HW234017   1.729   2.574   6.270 -0.1070  1.0983 -0.2191
 7462SOL     OW34018   2.450   0.193   9.274 -0.5249 -0.8060 -0.2069
 7462SOL    HW134019   2.387   0.243   9.327  2.0314  1.5964  0.5404
 7462SOL    HW234020   2.398   0.161   9.201 -5.4368  1.3306  2.2976
 7463SOL     OW34021   3.037   3.862  11.141  0.1005  0.2718  0.4559
 7463SOL    HW134022   3.034   3.897  11.051 -1.0877 -0.6630  0.1324
 7463SOL    HW234023   2.967   3.908  11.186 -2.6145 -1.3054 -2.1530
 7464SOL     OW34024   1.455   2.503   3.399  0.1562 -0.0507 -0.4371
 7464SOL    HW134025   1.497   2.541   3.321 -0.2779 -2.5108 -1.8827
 7464SOL    HW234026   1.535   2.467   3.437 -0.9919 -0.7512  1.2770
 7465SOL     OW34027   2.520   3.706   8.725  0.4682 -0.2372  0.1643
 7465SOL    HW134028   2.424   3.705   8.726  0.4350  1.1953 -0.6593
 7465SOL    HW234029   2.534   3.612   8.726  0.4357 -0.2508 -1.1022
 7466SOL     OW34030   0.753   2.612   7.214  0.0582  0.0077  0.2827
 7466SOL    HW134031   0.803   2.641   7.138 -0.2413  1.3603  0.6093
 7466SOL    HW234032   0.757   2.517   7.200 -1.2733 -0.0819  0.4971
 7467SOL     OW34033   1.608   2.357   5.279 -0.0865 -0.1966  0.2211
 7467SOL    HW134034   1.635   2.441   5.316 -0.7098 -0.1552  0.5898
 7467SOL    HW234035   1.670   2.299   5.323 -1.8579 -1.7165  0.7253
 7468SOL     OW34036   2.414   4.525   7.124 -0.2274  0.1884 -0.6866
 7468SOL    HW134037   2.492   4.484   7.162 -1.4026 -1.4788 -0.0698
 7468SOL    HW234038   2.360   4.448   7.111 -0.1839  0.0403 -0.0239
 7469SOL     OW34039   0.286   2.753  15.170 -0.6170 -0.7342  0.0864
 7469SOL    HW134040   0.324   2.731  15.255 -0.8175 -2.0476 -0.1717
 7469SOL    HW234041   0.214   2.810  15.197  1.5878  1.7212  0.8515
 7470SOL     OW34042   3.610   3.742  16.640 -0.4460 -0.0460  0.4826
 7470SOL    HW134043   3.700   3.741  16.672  0.6707  1.0053 -2.5917
 7470SOL    HW234044   3.609   3.668  16.579  0.8902 -0.2839  0.7497
 7471SOL     OW34045   2.404   4.525   1.502  0.1887  0.3373  0.0060
 7471SOL    HW134046   2.336   4.461   1.483 -0.2328  1.4155 -2.0990
 7471SOL    HW234047   2.348   4.596   1.532 -1.3823 -0.9018  0.0275
 7472SOL     OW34048   4.707   3.738   2.224 -0.4019 -0.3996 -0.1640
 7472SOL    HW134049   4.698   3.833   2.214  1.0268 -0.3034 -0.6732
 7472SOL    HW234050   4.639   3.705   2.165 -1.7907  0.7943  0.7824
 7473SOL     OW34051   3.956   4.734   5.362  0.0533  0.6527 -0.1383
 7473SOL    HW134052   4.048   0.018   5.381  0.1491  1.4687 -1.3889
 7473SOL    HW234053   3.904   0.041   5.430 -0.5936 -2.2136  1.1443
 7474SOL     OW34054   0.256   3.340   6.480 -0.3442  0.0327 -0.3316
 7474SOL    HW134055   0.221   3.292   6.555 -0.7370  0.2567 -0.3693
 7474SOL    HW234056   0.183   3.373   6.428  0.5361  0.9327 -0.9962
 7475SOL     OW34057   4.183   0.523   6.495  0.0831  0.2768  0.9838
 7475SOL    HW134058   4.175   0.441   6.545 -0.5098  0.4295  1.1327
 7475SOL    HW234059   4.107   0.522   6.438  0.3947  1.2779  0.5513
 7476SOL     OW34060   0.630   3.435   8.902  0.3534  0.0751 -0.1335
 7476SOL    HW134061   0.626   3.448   8.997 -2.0932 -0.3270 -0.1650
 7476SOL    HW234062   0.705   3.376   8.896  0.2064 -0.3019  1.8198
 7477SOL     OW34063   1.941   1.805  13.630  0.5332  0.5230  0.2486
 7477SOL    HW134064   1.892   1.752  13.567  0.9652 -1.3513  1.4858
 7477SOL    HW234065   1.964   1.739  13.695 -1.1621 -0.8965 -0.6023
 7478SOL     OW34066   4.275   3.192   7.072 -0.1232  0.2315  0.5471
 7478SOL    HW134067   4.279   3.257   7.142  1.6299  0.4969  0.2062
 7478SOL    HW234068   4.299   3.119   7.128 -1.0600 -1.3921 -1.1870
 7479SOL     OW34069   1.671   4.660   6.023  0.6768 -0.3399  0.3738
 7479SOL    HW134070   1.668   4.718   6.099  0.4065 -0.0551  0.1458
 7479SOL    HW234071   1.745   4.607   6.051  0.5202 -0.2753  0.9094
 7480SOL     OW34072   3.552   0.733   7.372  0.1187 -0.5491 -0.6531
 7480SOL    HW134073   3.502   0.713   7.451  1.4580  2.8186  1.0178
 7480SOL    HW234074   3.568   0.650   7.326 -0.2378 -1.3923  0.7559
 7481SOL     OW34075   3.853   1.199   2.762  0.1348  0.4087  0.5146
 7481SOL    HW134076   3.783   1.134   2.773  0.0042  0.8815  2.3640
 7481SOL    HW234077   3.923   1.144   2.798 -0.5723 -0.2492  0.8839
 7482SOL     OW34078   2.973   0.861   8.689  0.0556  0.1171 -0.1858
 7482SOL    HW134079   2.977   0.834   8.780  0.0524  1.5044  0.2125
 7482SOL    HW234080   2.943   0.951   8.698  0.1666  0.3350 -1.8385
 7483SOL     OW34081   2.849   3.304   1.783  0.6584  0.1172 -0.0042
 7483SOL    HW134082   2.822   3.396   1.777  1.2872  0.2540 -0.6867
 7483SOL    HW234083   2.773   3.276   1.834 -0.5637  4.0614  0.3676
 7484SOL     OW34084   1.226   3.242   2.584  0.2859  0.2676 -0.3429
 7484SOL    HW134085   1.295   3.199   2.635 -1.1828  0.4136  1.7562
 7484SOL    HW234086   1.269   3.326   2.566 -1.1922  1.1871  0.3639
 7485SOL     OW34087   2.989   3.708   3.330  0.3420  0.1702  0.1153
 7485SOL    HW134088   2.911   3.751   3.296 -0.9453 -0.1396  2.7164
 7485SOL    HW234089   2.987   3.626   3.281 -2.1345 -0.8030  1.8586
 7486SOL     OW34090   3.518   0.274   7.767  0.6161 -0.0495 -0.3219
 7486SOL    HW134091   3.521   0.232   7.854  2.1377  0.5604 -0.0812
 7486SOL    HW234092   3.497   0.200   7.711  0.3849 -0.1399 -0.1162
 7487SOL     OW34093   0.003   1.237   5.322  0.1762  0.0280  0.3090
 7487SOL    HW134094   4.687   1.310   5.355  0.5591  1.4328 -2.2950
 7487SOL    HW234095   4.700   1.234   5.235  1.2741 -1.1931 -0.1400
 7488SOL     OW34096   4.443   3.376   2.280  0.6650 -0.1988 -0.0588
 7488SOL    HW134097   4.500   3.301   2.300 -0.2235 -1.5344 -2.5328
 7488SOL    HW234098   4.438   3.403   2.372  3.0489  0.8442 -0.2358
 7489SOL     OW34099   0.276   3.868   8.273 -0.2448 -0.3597 -0.7308
 7489SOL    HW134100   0.334   3.856   8.348 -1.2561 -0.1818  0.0869
 7489SOL    HW234101   0.236   3.951   8.298 -0.9348 -1.0893  0.5979
 7490SOL     OW34102   3.422   1.767   1.279 -0.1169  0.0081  0.1954
 7490SOL    HW134103   3.441   1.792   1.369  1.0184 -0.5749  0.1211
 7490SOL    HW234104   3.407   1.851   1.236  2.2672  0.4611  0.2222
 7491SOL     OW34105   0.335   0.380   7.454  0.1690  0.2198 -0.1186
 7491SOL    HW134106   0.396   0.441   7.412  2.9682 -1.8903  0.8901
 7491SOL    HW234107   0.329   0.408   7.545 -0.0863 -2.1563  0.6140
 7492SOL     OW34108   2.259   3.480  17.114 -0.2043 -0.1207 -0.3669
 7492SOL    HW134109   2.248   3.464  17.208 -3.6994  0.4690 -0.6842
 7492SOL    HW234110   2.197   3.551  17.098 -1.2754 -0.6846  1.2588
 7493SOL     OW34111   3.836   2.474   7.681  0.3050 -0.0660  0.5344
 7493SOL    HW134112   3.892   2.532   7.631  1.7739 -1.5240  0.4983
 7493SOL    HW234113   3.872   2.388   7.659  0.7714  1.0705 -3.1009
 7494SOL     OW34114   1.321   0.625   4.170  0.4707 -0.1117 -0.6403
 7494SOL    HW134115   1.309   0.707   4.218 -1.3890 -0.3191 -0.7562
 7494SOL    HW234116   1.324   0.643   4.076  1.7573  1.9629 -0.2094
 7495SOL     OW34117   4.391   1.057   4.169 -0.1524 -0.6332  0.2723
 7495SOL    HW134118   4.418   0.971   4.137 -0.1133 -0.6692  0.4032
 7495SOL    HW234119   4.312   1.073   4.116  0.8718  2.3295 -0.3630
 7496SOL     OW34120   2.774   1.467   8.466  0.1702  0.1353  0.0602
 7496SOL    HW134121   2.790   1.520   8.388  0.9687 -1.0107 -0.5447
 7496SOL    HW234122   2.822   1.513   8.535 -3.6685  4.1605  0.0750
 7497SOL     OW34123   3.085   3.638  11.261 -0.2287 -0.5044  0.9553
 7497SOL    HW134124   3.000   3.638  11.305 -0.8136  0.4501 -0.1776
 7497SOL    HW234125   3.073   3.711  11.200 -0.1872  0.0114  1.5605
 7498SOL     OW34126   2.016   0.244   9.576  0.2613  0.2418 -0.2527
 7498SOL    HW134127   2.046   0.190   9.649 -2.2516 -1.4697 -0.4921
 7498SOL    HW234128   1.923   0.260   9.593  0.2650 -0.5911  0.5311
 7499SOL     OW34129   1.482   0.859   2.089  0.6840 -0.2216 -0.6239
 7499SOL    HW134130   1.478   0.903   2.004  0.6936 -1.1154 -1.0869
 7499SOL    HW234131   1.497   0.938   2.141 -1.4548  0.7297 -1.4652
 7500SOL     OW34132   0.567   0.226   6.175  0.1524  0.6046 -0.1982
 7500SOL    HW134133   0.616   0.225   6.092 -1.3463  0.5115 -1.0822
 7500SOL    HW234134   0.491   0.170   6.160  1.0734 -1.0089  1.1962
 7501SOL     OW34135   1.463   1.525   8.719  0.0170 -0.0776 -0.3925
 7501SOL    HW134136   1.456   1.476   8.637 -0.7037 -0.5822 -0.0319
 7501SOL    HW234137   1.375   1.561   8.720  0.7519  1.6966  0.0334
 7502SOL     OW34138   3.022   0.079   3.437  0.0844 -0.2127  0.0039
 7502SOL    HW134139   3.020   0.035   3.352  0.7878  1.6066 -0.9573
 7502SOL    HW234140   2.940   0.041   3.469  0.0623  1.0142  1.4333
 7503SOL     OW34141   1.238   2.341   5.345  0.0358 -0.0676  0.1411
 7503SOL    HW134142   1.234   2.355   5.250  0.4561  2.2376  0.4507
 7503SOL    HW234143   1.178   2.411   5.370 -0.6212 -1.2291  1.7734
 7504SOL     OW34144   4.132   2.922   6.311  0.1130  0.5055  0.4155
 7504SOL    HW134145   4.055   2.955   6.265  2.0774 -1.2928 -4.1884
 7504SOL    HW234146   4.109   2.834   6.342  0.1705 -0.1921 -1.5376
 7505SOL     OW34147   1.475   4.271   4.568  0.3087  0.0366 -0.1055
 7505SOL    HW134148   1.443   4.349   4.614 -0.4207  0.2324 -0.9588
 7505SOL    HW234149   1.551   4.316   4.531  1.3781  0.2301  2.3140
 7506SOL     OW34150   0.324   3.423  13.822  0.6151 -0.0782  0.5716
 7506SOL    HW134151   0.302   3.428  13.915 -0.3576  0.3292  0.3245
 7506SOL    HW234152   0.322   3.332  13.792  1.0800 -0.2709  1.1334
 7507SOL     OW34153   4.473   4.356   9.117 -0.2213  1.3645 -0.1695
 7507SOL    HW134154   4.426   4.411   9.179 -1.8349  1.9862 -1.9488
 7507SOL    HW234155   4.557   4.346   9.162 -1.2280  1.6859  1.7523
 7508SOL     OW34156   1.872   1.304   5.629  0.3064  0.3973  0.0522
 7508SOL    HW134157   1.852   1.236   5.564  1.0105 -0.8227  1.1188
 7508SOL    HW234158   1.911   1.249   5.696 -1.5069  0.8965  1.5298
 7509SOL     OW34159   1.928   4.582   6.886 -0.0012  0.0915  0.0951
 7509SOL    HW134160   1.912   4.674   6.864 -0.0945 -0.2217 -1.1048
 7509SOL    HW234161   2.017   4.579   6.853  0.0395 -2.4235  0.4612
 7510SOL     OW34162   1.028   1.035   2.066  0.3722 -0.0940  0.0268
 7510SOL    HW134163   1.114   1.022   2.105  0.5352  2.1058  0.4171
 7510SOL    HW234164   1.052   1.089   1.991  0.2090 -1.1164 -0.7701
 7511SOL     OW34165   3.567   2.288  16.365  0.2207  0.1923 -0.4228
 7511SOL    HW134166   3.523   2.246  16.439  0.3882 -1.9941 -1.5541
 7511SOL    HW234167   3.608   2.363  16.408  0.0878 -0.1536  0.3101
 7512SOL     OW34168   0.559   1.188   0.921 -0.6149 -0.0004 -0.2656
 7512SOL    HW134169   0.526   1.121   0.860  2.2463 -2.2137  0.6362
 7512SOL    HW234170   0.560   1.261   0.859  1.4402 -0.4635 -0.7820
 7513SOL     OW34171   1.683   2.830  15.463  0.5756 -0.5532  0.3312
 7513SOL    HW134172   1.725   2.851  15.546 -1.9338 -0.8940  1.6909
 7513SOL    HW234173   1.750   2.773  15.424  0.0717 -1.8622  1.3878
 7514SOL     OW34174   3.124   2.255   6.371 -0.7299 -0.2457  0.5539
 7514SOL    HW134175   3.198   2.308   6.401  0.7253 -1.4951 -0.8392
 7514SOL    HW234176   3.051   2.274   6.430 -1.4552 -0.7408 -0.1830
 7515SOL     OW34177   1.069   4.687  17.027 -0.0765  0.3823  0.0546
 7515SOL    HW134178   1.043   4.624  16.960  2.5023 -0.3683 -0.2261
 7515SOL    HW234179   1.108   0.017  16.968  0.1793 -0.2904 -0.5071
 7516SOL     OW34180   3.631   3.546   5.563 -0.4306 -0.2071 -0.1382
 7516SOL    HW134181   3.682   3.600   5.503 -1.6788 -1.4399 -2.3104
 7516SOL    HW234182   3.561   3.515   5.506 -2.2527  0.8780  1.5018
 7517SOL     OW34183   3.666   3.800   6.593  0.2225  0.1272 -0.5677
 7517SOL    HW134184   3.642   3.762   6.677  0.9133 -0.4171 -0.6233
 7517SOL    HW234185   3.580   3.790   6.552  0.6586  0.0840 -1.4608
 7518SOL     OW34186   4.355   2.321   0.805 -0.8884 -0.4687  0.6217
 7518SOL    HW134187   4.440   2.311   0.848 -0.7959 -0.8117  0.3641
 7518SOL    HW234188   4.380   2.267   0.729  0.0615  1.5229 -0.4795
 7519SOL     OW34189   1.766   0.222   3.447 -0.5068  0.4343 -0.3373
 7519SOL    HW134190   1.690   0.186   3.493  1.3284 -1.5534  1.1339
 7519SOL    HW234191   1.783   0.154   3.382  1.6629  2.0109 -1.4055
 7520SOL     OW34192   4.640   0.290   7.455  0.5687 -0.1592 -0.0948
 7520SOL    HW134193   4.721   0.266   7.411 -0.6288 -2.6907 -0.9538
 7520SOL    HW234194   4.593   0.319   7.377 -1.1315  1.8041  1.6645
 7521SOL     OW34195   1.491   4.170  17.665 -0.1571  0.1994 -0.0918
 7521SOL    HW134196   1.457   4.173   0.015  0.3244  0.5121  0.0812
 7521SOL    HW234197   1.553   4.097  17.671 -1.5509 -1.2210 -2.9530
 7522SOL     OW34198   2.398   4.207   7.664 -0.0644 -0.7626  0.0769
 7522SOL    HW134199   2.342   4.271   7.620 -0.7821 -0.3329  1.5825
 7522SOL    HW234200   2.325   4.150   7.690 -0.0917 -1.8598 -2.4469
 7523SOL     OW34201   4.392   3.137  14.094  0.7802 -0.4309  0.2700
 7523SOL    HW134202   4.432   3.115  14.178  1.6712 -1.3234 -0.3811
 7523SOL    HW234203   4.470   3.168  14.047 -0.3593 -0.4930 -1.6999
 7524SOL     OW34204   2.415   2.285  13.527  0.4487  0.1704 -0.1415
 7524SOL    HW134205   2.388   2.230  13.454 -1.0739  0.1991  0.4002
 7524SOL    HW234206   2.339   2.342  13.541  1.4805  1.7229 -0.8059
 7525SOL     OW34207   3.729   4.197   1.677 -0.1217  0.4881 -0.2204
 7525SOL    HW134208   3.801   4.197   1.614  1.4792 -0.4056  1.6206
 7525SOL    HW234209   3.688   4.115   1.648 -0.0271 -0.0232  1.1119
 7526SOL     OW34210   0.860   4.392   2.774 -0.1325 -0.4054 -0.2574
 7526SOL    HW134211   0.869   4.352   2.687  0.6717 -1.7862  0.4696
 7526SOL    HW234212   0.766   4.412   2.776 -0.5244 -2.3292  0.4543
 7527SOL     OW34213   2.716   1.562   2.776 -0.0170  0.4677 -0.3627
 7527SOL    HW134214   2.746   1.607   2.854  0.1878 -2.3785  1.2100
 7527SOL    HW234215   2.657   1.495   2.811 -0.6557  0.8372 -0.7321
 7528SOL     OW34216   0.880   2.685   6.504 -0.2503  0.1262  0.0182
 7528SOL    HW134217   0.833   2.669   6.422 -0.0293  0.8285 -0.2473
 7528SOL    HW234218   0.916   2.771   6.480 -0.2625 -0.6099 -2.6540
 7529SOL     OW34219   2.829   2.563  14.251  0.6675 -0.9900 -0.2143
 7529SOL    HW134220   2.736   2.583  14.242  1.0989  1.5586  1.0026
 7529SOL    HW234221   2.861   2.643  14.210  2.5814 -1.9655 -0.6316
 7530SOL     OW34222   0.992   0.475   4.772 -0.0468 -0.2853  0.1997
 7530SOL    HW134223   0.928   0.521   4.719  0.4144  0.1402  0.0125
 7530SOL    HW234224   1.043   0.546   4.812 -0.2903  0.9336 -1.7090
 7531SOL     OW34225   0.828   3.988   3.294 -0.9670 -0.3071  0.0652
 7531SOL    HW134226   0.855   4.079   3.280  0.5314 -0.8830 -0.9121
 7531SOL    HW234227   0.774   3.992   3.372  0.0266  0.7215  0.7112
 7532SOL     OW34228   2.688   2.249   0.723 -0.1246 -0.0550  0.1572
 7532SOL    HW134229   2.642   2.320   0.768  0.1439  0.2285 -0.0127
 7532SOL    HW234230   2.649   2.257   0.636  1.0367  2.7042 -0.0942
 7533SOL     OW34231   0.220   0.645   6.611  0.9588 -0.0070  0.2106
 7533SOL    HW134232   0.157   0.608   6.550  0.8335  1.5681 -0.6142
 7533SOL    HW234233   0.186   0.734   6.624  0.6759 -0.3514  1.7933
 7534SOL     OW34234   2.601   1.905   7.624  0.1865  0.2872 -0.0512
 7534SOL    HW134235   2.583   1.811   7.621  1.6904 -0.0262  0.6322
 7534SOL    HW234236   2.693   1.898   7.599  0.3073 -0.7463  0.6824
 7535SOL     OW34237   1.465   0.788   3.369  0.0895 -0.2185 -0.6276
 7535SOL    HW134238   1.479   0.766   3.462  1.0279 -0.0695 -0.7399
 7535SOL    HW234239   1.513   0.718   3.325  3.5995  0.4803  2.1027
 7536SOL     OW34240   1.512   3.425   2.387  0.5559 -0.6887 -0.3046
 7536SOL    HW134241   1.419   3.438   2.406  0.1701 -1.1088 -1.8671
 7536SOL    HW234242   1.534   3.497   2.328  1.1860  2.0602  3.3094
 7537SOL     OW34243   0.955   4.130   8.309 -0.0770  0.1759  0.3957
 7537SOL    HW134244   0.862   4.108   8.312 -0.3194  1.3241  1.0111
 7537SOL    HW234245   0.978   4.103   8.220  0.6266 -0.2929  0.7156
 7538SOL     OW34246   0.186   2.110   6.969 -0.1248  0.0164  0.1398
 7538SOL    HW134247   0.162   2.037   6.912  0.5664 -0.3644  0.3336
 7538SOL    HW234248   0.104   2.156   6.988 -1.4467 -1.3684 -2.2104
 7539SOL     OW34249   4.045   1.792  15.159 -0.3952  0.3963  0.5371
 7539SOL    HW134250   4.059   1.704  15.123 -0.9943  0.7228 -0.4922
 7539SOL    HW234251   4.047   1.842  15.077 -1.6445  0.5020  0.5704
 7540SOL     OW34252   4.691   4.734   8.354 -0.0488  0.0424  0.5991
 7540SOL    HW134253   0.036   0.050   8.341  0.3242 -0.5714  0.5201
 7540SOL    HW234254   4.684   4.719   8.448 -1.8992 -0.2929  0.4031
 7541SOL     OW34255   2.899   2.710   7.416  0.2934  0.4195  0.3478
 7541SOL    HW134256   2.931   2.626   7.449  0.7626  1.4094  2.3886
 7541SOL    HW234257   2.980   2.748   7.450  1.2335 -0.7861 -0.5344
 7542SOL     OW34258   1.225   4.080  14.313 -0.6326 -0.3113  0.1642
 7542SOL    HW134259   1.176   4.024  14.373 -0.7202 -0.9444 -0.5014
 7542SOL    HW234260   1.158   4.088  14.246  0.8932  1.9867 -1.0647
 7543SOL     OW34261   0.342   0.833   2.839 -0.2059 -1.0353 -0.3447
 7543SOL    HW134262   0.392   0.905   2.879  1.0012 -3.1344  1.9250
 7543SOL    HW234263   0.343   0.870   2.750 -1.2090 -0.5924 -0.1762
 7544SOL     OW34264   2.106   2.287   8.792  0.3893  0.3078  0.3460
 7544SOL    HW134265   2.141   2.198   8.798  0.8646  0.4709 -0.0082
 7544SOL    HW234266   2.167   2.335   8.848 -0.3110  2.2946 -0.5858
 7545SOL     OW34267   2.264   3.491  10.018  0.0944 -0.3133  0.4415
 7545SOL    HW134268   2.306   3.471   9.934  0.3434  0.3413  0.4115
 7545SOL    HW234269   2.217   3.574  10.010 -0.2698 -0.5549  0.1172
 7546SOL     OW34270   1.462   3.830   1.164 -0.1201 -0.3601  0.0323
 7546SOL    HW134271   1.512   3.905   1.130 -1.9536  0.5338 -0.7035
 7546SOL    HW234272   1.525   3.794   1.226 -1.6370 -0.3639  1.5489
 7547SOL     OW34273   1.040   2.820   0.470 -0.1910 -0.2704 -0.3328
 7547SOL    HW134274   0.978   2.854   0.535 -0.5856 -0.3157 -0.6871
 7547SOL    HW234275   0.972   2.782   0.414 -0.5632  2.8062 -1.9950
 7548SOL     OW34276   1.552   1.774   3.478 -0.0596  0.3296  0.1896
 7548SOL    HW134277   1.507   1.697   3.443 -1.1090  0.8827  0.3103
 7548SOL    HW234278   1.506   1.784   3.562 -1.6037 -1.0716 -0.5085
 7549SOL     OW34279   2.954   1.305   2.832 -0.7377 -0.8608 -0.1528
 7549SOL    HW134280   3.012   1.365   2.878 -2.0215  0.8685 -0.7976
 7549SOL    HW234281   2.927   1.354   2.754  2.3705  0.2604 -0.5252
 7550SOL     OW34282   3.757   1.733   5.646  0.1889  0.5762  0.6671
 7550SOL    HW134283   3.842   1.768   5.619  0.2996  0.3624  0.7369
 7550SOL    HW234284   3.739   1.680   5.569  4.0724 -1.1450  0.9505
 7551SOL     OW34285   4.617   2.504   8.837 -0.7603 -0.2379 -0.6923
 7551SOL    HW134286   4.608   2.561   8.761 -0.5677 -1.7145 -1.8313
 7551SOL    HW234287   4.708   2.527   8.853 -1.6120  3.2966 -1.0102
 7552SOL     OW34288   1.201   1.724   6.015  0.4497  0.1466  0.4820
 7552SOL    HW134289   1.169   1.648   6.064 -3.2952  1.5001  0.1501
 7552SOL    HW234290   1.238   1.673   5.943 -2.0797  0.8010 -1.3033
 7553SOL     OW34291   3.927   2.442   0.352  0.4077  0.9324 -0.3407
 7553SOL    HW134292   3.998   2.394   0.394 -0.9545 -0.7426  0.0467
 7553SOL    HW234293   3.852   2.383   0.358  0.4131  0.5665 -3.7020
 7554SOL     OW34294   1.115   2.580  11.353 -0.5107 -0.6474 -0.1133
 7554SOL    HW134295   1.063   2.500  11.351 -2.1749  0.5567 -2.9985
 7554SOL    HW234296   1.048   2.639  11.320  1.6820  1.8068 -0.1453
 7555SOL     OW34297   2.396   0.729  12.512 -0.3448 -0.1795  0.1776
 7555SOL    HW134298   2.476   0.698  12.553  1.2593  1.6784 -1.5575
 7555SOL    HW234299   2.394   0.676  12.432  1.9654  0.2636 -0.1727
 7556SOL     OW34300   3.506   2.870  16.068 -0.5610  0.0373 -1.0197
 7556SOL    HW134301   3.442   2.846  16.001 -2.4355  0.1000  0.7642
 7556SOL    HW234302   3.588   2.828  16.041 -1.2970 -1.0627 -1.5518
 7557SOL     OW34303   1.033   4.371  17.117 -0.1338 -0.1374  0.1387
 7557SOL    HW134304   1.100   4.418  17.167  1.6687 -1.0050 -1.4227
 7557SOL    HW234305   1.059   4.401  17.029  0.8925  0.2202  0.5610
 7558SOL     OW34306   1.138   3.634  17.371  0.1351  0.6989 -0.1701
 7558SOL    HW134307   1.066   3.574  17.391  4.3893 -3.9671  1.0828
 7558SOL    HW234308   1.163   3.648  17.462  0.4218 -0.0690 -0.1296
 7559SOL     OW34309   2.906   0.448   6.710 -0.1136 -0.4333 -0.1430
 7559SOL    HW134310   2.927   0.390   6.783  0.4302  0.5899  0.5188
 7559SOL    HW234311   2.884   0.395   6.633  2.5274 -0.8430 -0.6135
 7560SOL     OW34312   0.649   3.996   8.597  0.3590 -0.1311  0.1716
 7560SOL    HW134313   0.672   4.084   8.626 -2.8400  0.1590  1.7809
 7560SOL    HW234314   0.729   3.944   8.604  1.7941  2.0359 -0.0813
 7561SOL     OW34315   0.880   0.061   5.595  0.1155 -0.0028 -0.6203
 7561SOL    HW134316   0.805   0.009   5.625  1.1656  0.7234  3.2770
 7561SOL    HW234317   0.920   0.071   5.682 -0.2891 -0.6501 -0.3546
 7562SOL     OW34318   1.672   3.969   8.875  0.3455  0.0816 -0.6179
 7562SOL    HW134319   1.624   3.961   8.958  1.9479  2.1223  0.4836
 7562SOL    HW234320   1.684   4.063   8.866  2.5271 -0.1282  0.3117
 7563SOL     OW34321   0.798   1.622   6.845  0.0701  0.3743  0.4732
 7563SOL    HW134322   0.837   1.683   6.908  1.8684  0.0550 -0.3512
 7563SOL    HW234323   0.822   1.668   6.765  1.9852 -0.1290  0.7798
 7564SOL     OW34324   4.685   3.722   6.609  0.1809  0.0801  0.0918
 7564SOL    HW134325   4.650   3.783   6.675 -2.4239 -1.8113  0.5044
 7564SOL    HW234326   4.710   3.647   6.664 -0.7104  0.2998  0.8103
 7565SOL     OW34327   2.641   1.040   5.271 -0.4629 -0.6839  0.1139
 7565SOL    HW134328   2.589   0.979   5.219 -0.3822  0.4742 -1.3286
 7565SOL    HW234329   2.646   1.111   5.206 -0.3416 -0.8842 -0.0919
 7566SOL     OW34330   4.573   2.588  15.813 -0.2178  0.3811  0.1657
 7566SOL    HW134331   4.485   2.625  15.816 -0.5079 -0.2308 -0.6749
 7566SOL    HW234332   4.549   2.501  15.780 -0.8535  0.1288  1.3234
 7567SOL     OW34333   0.131   1.522  14.108  0.2752  0.6670 -0.3811
 7567SOL    HW134334   0.135   1.485  14.197  1.0879  1.9876  0.1338
 7567SOL    HW234335   0.196   1.592  14.121 -0.5499  1.2583  0.5775
 7568SOL     OW34336   0.386   0.649  15.116  0.3596  0.6564  0.1835
 7568SOL    HW134337   0.427   0.632  15.201 -0.0089 -1.1661  0.0051
 7568SOL    HW234338   0.404   0.566  15.071 -1.0670  1.3038 -1.5847
 7569SOL     OW34339   1.317   1.489   9.293  0.4194 -0.2117  0.0524
 7569SOL    HW134340   1.350   1.553   9.357 -0.8772 -1.5994  2.1256
 7569SOL    HW234341   1.354   1.409   9.331  1.5387  0.4178  0.2953
 7570SOL     OW34342   3.174   4.564   7.966  0.0235  0.7783  0.3251
 7570SOL    HW134343   3.252   4.521   8.000 -0.9781 -0.0863  1.5054
 7570SOL    HW234344   3.139   4.502   7.902 -0.6325  2.1944 -0.7209
 7571SOL     OW34345   3.435   0.137   3.737  0.0808 -0.0139 -0.0800
 7571SOL    HW134346   3.478   0.052   3.726  1.7127  0.9793 -1.3468
 7571SOL    HW234347   3.408   0.161   3.649 -0.2221 -1.9957 -0.5359
 7572SOL     OW34348   1.449   3.635   6.276 -0.2503 -0.4315  0.3738
 7572SOL    HW134349   1.446   3.557   6.221 -0.0478  0.5956 -1.0682
 7572SOL    HW234350   1.363   3.627   6.319 -1.9800  3.4108 -2.3236
 7573SOL     OW34351   2.120   1.951  10.595  0.3589 -0.1366 -0.4811
 7573SOL    HW134352   2.160   1.874  10.635 -2.4924 -0.6027  1.4315
 7573SOL    HW234353   2.087   1.923  10.510 -1.0943 -1.6023  0.5742
 7574SOL     OW34354   4.142   2.219   5.604  0.3293 -0.1673  0.6065
 7574SOL    HW134355   4.063   2.271   5.589  1.6706  1.2274 -1.6175
 7574SOL    HW234356   4.142   2.212   5.700  0.4277  1.6316  0.7275
 7575SOL     OW34357   2.129   1.399  12.271 -0.6234 -0.3440 -0.7252
 7575SOL    HW134358   2.159   1.374  12.183 -1.1485 -1.9501 -0.4450
 7575SOL    HW234359   2.155   1.321  12.320  1.4799  2.4636  2.5901
 7576SOL     OW34360   2.542   3.040   4.927  0.7091 -0.0047 -0.0920
 7576SOL    HW134361   2.568   2.956   4.965 -0.2659 -0.2168  0.1231
 7576SOL    HW234362   2.501   3.017   4.843 -0.6623  1.0529  0.2855
 7577SOL     OW34363   1.475   2.012  17.198  0.2158  0.2097  0.2007
 7577SOL    HW134364   1.499   2.092  17.151  0.0468  0.7119  0.9680
 7577SOL    HW234365   1.469   2.053  17.284  0.5066  0.6370  0.0135
 7578SOL     OW34366   0.979   2.496   5.502  0.3884 -0.7638 -0.0362
 7578SOL    HW134367   0.892   2.519   5.469 -0.3075  0.0838  2.3776
 7578SOL    HW234368   0.953   2.412   5.540  0.1193 -0.3038  0.7950
 7579SOL     OW34369   2.782   0.717   3.032 -0.4162  0.4460 -0.4542
 7579SOL    HW134370   2.785   0.661   3.110  0.1186  0.4410 -0.4792
 7579SOL    HW234371   2.695   0.755   3.019  0.5891  2.5428 -1.0478
 7580SOL     OW34372   1.716   4.295  16.834 -0.5023  0.2087  0.0912
 7580SOL    HW134373   1.676   4.382  16.838  0.4393  0.6656 -0.6663
 7580SOL    HW234374   1.686   4.262  16.750  2.2725  1.3687 -1.3359
 7581SOL     OW34375   1.131   3.236  17.285  0.0184 -0.2777 -0.0306
 7581SOL    HW134376   1.198   3.262  17.349 -0.8085 -0.6256  0.9808
 7581SOL    HW234377   1.147   3.142  17.282 -0.3131 -0.3718  1.1954
 7582SOL     OW34378   4.139   2.251   0.455 -0.5645  0.4389  0.5096
 7582SOL    HW134379   4.188   2.185   0.406  0.7150  0.3317  1.9425
 7582SOL    HW234380   4.127   2.203   0.537 -1.8940 -0.5508 -0.2562
 7583SOL     OW34381   2.982   3.470   5.075  0.4778 -0.4031  0.7713
 7583SOL    HW134382   2.969   3.560   5.106  2.2309  0.4011 -0.8242
 7583SOL    HW234383   2.993   3.475   4.980  0.8675  1.8315  0.9441
 7584SOL     OW34384   4.164   4.523   6.136  0.2926  0.0449 -0.1816
 7584SOL    HW134385   4.086   4.562   6.175 -0.9976 -1.7510 -0.9813
 7584SOL    HW234386   4.207   4.497   6.217 -1.5509  2.2744  1.4915
 7585SOL     OW34387   3.751   0.709   5.442 -0.0081 -0.2091  0.0531
 7585SOL    HW134388   3.671   0.660   5.424 -0.5221  0.0032  1.7475
 7585SOL    HW234389   3.820   0.645   5.430 -0.3238 -0.9570  2.1920
 7586SOL     OW34390   2.751   2.571   5.094  0.6528 -0.5108 -0.0323
 7586SOL    HW134391   2.695   2.494   5.101  0.5001 -0.6580 -2.8825
 7586SOL    HW234392   2.838   2.532   5.088  0.6901 -0.1646 -1.6954
 7587SOL     OW34393   2.034   4.254  12.385 -0.0286  0.3017  0.3246
 7587SOL    HW134394   2.115   4.236  12.337 -0.8516  1.2340 -1.4294
 7587SOL    HW234395   2.071   4.246  12.473 -0.5634 -0.2457  0.4976
 7588SOL     OW34396   3.720   0.468   4.128  0.4209  0.2539  0.8673
 7588SOL    HW134397   3.716   0.403   4.058 -0.0033  0.4010  0.7552
 7588SOL    HW234398   3.807   0.448   4.163  0.7725 -1.3217 -0.9256
 7589SOL     OW34399   2.547   3.584  13.085 -0.0960 -0.1798  0.6346
 7589SOL    HW134400   2.570   3.540  13.004 -1.3481  0.2094  0.0597
 7589SOL    HW234401   2.578   3.525  13.153 -0.8992  1.5759  2.5402
 7590SOL     OW34402   2.984   0.113   8.830  0.2928 -0.4464  0.4561
 7590SOL    HW134403   2.909   0.144   8.780  1.5193  0.4966 -0.7851
 7590SOL    HW234404   3.049   0.183   8.836  1.2316 -1.5210  2.8760
 7591SOL     OW34405   3.476   1.790   9.978  0.3692  0.4943  0.5141
 7591SOL    HW134406   3.428   1.872   9.988 -0.8276 -0.3465  1.5716
 7591SOL    HW234407   3.454   1.748  10.061 -2.2905  2.7353  0.9470
 7592SOL     OW34408   0.674   2.862   0.392  0.7434 -0.4054  0.0939
 7592SOL    HW134409   0.624   2.859   0.473  1.0012 -1.8199  0.1952
 7592SOL    HW234410   0.727   2.783   0.404  1.3877  0.2078  1.3687
 7593SOL     OW34411   3.181   3.966   8.536  0.6730  0.3731 -0.2225
 7593SOL    HW134412   3.217   3.956   8.624  1.9419  1.2747 -0.6539
 7593SOL    HW234413   3.097   3.923   8.554  0.8163 -0.0762 -0.6379
 7594SOL     OW34414   0.160   4.321  15.422  0.0876 -0.3473 -0.4581
 7594SOL    HW134415   0.222   4.303  15.492 -2.2176 -1.7259  1.1913
 7594SOL    HW234416   0.149   4.414  15.441 -1.9862 -0.6468 -0.2109
 7595SOL     OW34417   4.694   2.560  17.046 -0.0036  0.5303 -0.2777
 7595SOL    HW134418   0.019   2.583  17.117 -1.7500 -0.6496  1.5983
 7595SOL    HW234419   4.715   2.616  16.971 -0.2242  2.3472  1.0089
 7596SOL     OW34420   3.973   1.936   0.504  0.0663 -0.2817 -0.0446
 7596SOL    HW134421   3.889   1.894   0.485 -0.8640  1.3525  0.4024
 7596SOL    HW234422   4.023   1.899   0.432 -1.3355 -0.2856 -1.0158
 7597SOL     OW34423   4.313   2.286   5.346  0.7936 -0.0858  0.2301
 7597SOL    HW134424   4.378   2.346   5.382  1.0234  0.3945 -0.9790
 7597SOL    HW234425   4.283   2.251   5.430 -2.0128  0.2326 -0.6203
 7598SOL     OW34426   4.270   1.760   7.053  0.1378  0.4967  0.0257
 7598SOL    HW134427   4.283   1.768   7.147  0.2274 -1.1678  0.1620
 7598SOL    HW234428   4.350   1.793   7.011  0.2565 -2.0047 -1.7143
 7599SOL     OW34429   2.639   2.485   7.665  0.8678 -0.8221  0.0562
 7599SOL    HW134430   2.573   2.436   7.714  0.6484 -0.3551  0.2337
 7599SOL    HW234431   2.580   2.535   7.609  0.4529 -2.5081 -1.0110
 7600SOL     OW34432   2.672   2.977  15.561 -0.4774  0.2388 -0.6943
 7600SOL    HW134433   2.666   3.021  15.476  1.9966 -2.1365 -2.1253
 7600SOL    HW234434   2.733   3.032  15.611  2.1197 -0.4139 -3.1104
 7601SOL     OW34435   2.976   2.208   3.280  0.2726  0.0312 -0.2156
 7601SOL    HW134436   2.972   2.285   3.336 -1.3724 -1.4652  1.7081
 7601SOL    HW234437   2.929   2.143   3.331  0.9128 -1.7749 -1.9215
 7602SOL     OW34438   1.555   2.971   8.080  0.7068 -0.2052  0.0091
 7602SOL    HW134439   1.635   2.970   8.134  0.3562  0.1617  0.5338
 7602SOL    HW234440   1.595   2.997   7.997 -1.0821 -0.6316 -0.9673
 7603SOL     OW34441   3.916   4.670  10.876 -0.3389 -0.4618 -0.0803
 7603SOL    HW134442   3.821   4.669  10.867 -0.6360 -0.0482  3.2470
 7603SOL    HW234443   3.937   4.704  10.789 -1.6539  0.6983  0.0462
 7604SOL     OW34444   2.514   0.696   6.349 -0.0230 -0.2838  0.2776
 7604SOL    HW134445   2.509   0.766   6.284  2.3556 -2.7812 -2.5953
 7604SOL    HW234446   2.427   0.699   6.389  0.5012 -0.2565  1.4269
 7605SOL     OW34447   4.488   0.138   4.422 -0.5250  0.2948 -0.7546
 7605SOL    HW134448   4.422   0.164   4.487 -0.1389  3.0331 -1.4331
 7605SOL    HW234449   4.561   0.182   4.464 -3.4294  3.0460  1.4613
 7606SOL     OW34450   0.203   0.699   3.125  0.2252  0.0229 -0.1938
 7606SOL    HW134451   0.271   0.654   3.075 -0.6680 -0.8529 -0.6190
 7606SOL    HW234452   0.131   0.637   3.136 -0.2266 -0.2290 -4.5698
 7607SOL     OW34453   2.092   2.661   3.403 -0.4965 -0.4357  0.2415
 7607SOL    HW134454   2.041   2.591   3.363 -1.9636  1.3849 -1.0876
 7607SOL    HW234455   2.033   2.726   3.442  0.2579  1.0632 -1.1500
 7608SOL     OW34456   2.672   3.008   5.198  0.0594 -0.0540  0.2496
 7608SOL    HW134457   2.746   2.950   5.181  0.1112  0.7219 -2.1672
 7608SOL    HW234458   2.699   3.081   5.142  0.1664 -0.2676  0.0237
 7609SOL     OW34459   0.944   3.977   3.630 -0.6876 -0.3117 -0.2808
 7609SOL    HW134460   0.929   4.020   3.546  2.5309 -0.0953 -0.7357
 7609SOL    HW234461   1.021   4.023   3.663  0.3679  0.0586 -3.2788
 7610SOL     OW34462   1.998   2.899  13.697 -0.1722 -0.2055 -0.1091
 7610SOL    HW134463   2.046   2.981  13.686  1.5239 -1.1377  0.1965
 7610SOL    HW234464   2.000   2.877  13.790 -2.6513 -0.6219 -0.1689
 7611SOL     OW34465   4.433   0.394   5.336 -0.1002 -0.2604  0.1554
 7611SOL    HW134466   4.453   0.399   5.242  0.9809 -1.9617  0.2995
 7611SOL    HW234467   4.489   0.461   5.375 -0.3646 -0.1750  0.3932
 7612SOL     OW34468   1.398   0.156  13.339 -0.2929  0.1707 -0.6322
 7612SOL    HW134469   1.433   0.130  13.424 -0.7008  0.8598 -0.2470
 7612SOL    HW234470   1.338   0.088  13.308  0.5886 -1.3182  0.9328
 7613SOL     OW34471   3.362   1.110   3.410  0.3127 -0.5013 -0.3481
 7613SOL    HW134472   3.311   1.160   3.474  0.9682  0.8001 -0.8449
 7613SOL    HW234473   3.296   1.091   3.343  0.1424 -1.0084 -0.0396
 7614SOL     OW34474   0.454   4.355  13.463 -0.1227 -0.7549 -0.3782
 7614SOL    HW134475   0.474   4.284  13.402  0.3648 -1.0164  0.0817
 7614SOL    HW234476   0.361   4.361  13.443 -0.7210  2.9252  3.5967
 7615SOL     OW34477   3.128   2.289  10.058  0.7646  0.7732 -0.2008
 7615SOL    HW134478   3.183   2.326  10.127  1.4902  1.9535 -1.4067
 7615SOL    HW234479   3.070   2.227  10.101  0.7271  0.5499 -0.5751
 7616SOL     OW34480   0.095   0.983   0.993 -0.0804 -0.1336  0.3544
 7616SOL    HW134481   0.040   1.029   1.057  0.6143  0.0780  0.7921
 7616SOL    HW234482   0.146   1.053   0.953 -0.6346  0.1106  0.0799
 7617SOL     OW34483   1.574   2.249   2.273  0.5066  0.2417 -0.4114
 7617SOL    HW134484   1.573   2.202   2.189 -3.2151 -0.7560  0.1761
 7617SOL    HW234485   1.509   2.188   2.309  0.8523 -1.3138 -2.4037
 7618SOL     OW34486   2.565   1.972   5.176  0.0146  0.2391  0.3498
 7618SOL    HW134487   2.609   1.951   5.259 -1.7732  1.7021  1.6783
 7618SOL    HW234488   2.628   1.936   5.115  0.2184 -1.6031  1.6326
 7619SOL     OW34489   2.054   3.656  15.872 -0.6682 -0.0462  0.3698
 7619SOL    HW134490   2.007   3.577  15.842 -0.2249 -0.1332 -0.1027
 7619SOL    HW234491   1.983   3.701  15.919 -1.1077 -0.3251 -0.0216
 7620SOL     OW34492   1.767   3.997   5.505 -0.3264  0.2317  0.6828
 7620SOL    HW134493   1.819   4.019   5.583  0.5309  2.8072 -0.6578
 7620SOL    HW234494   1.835   3.956   5.452 -1.1684 -1.0087  0.5421
 7621SOL     OW34495   0.481   0.022   1.416 -0.2151 -0.6308  0.2058
 7621SOL    HW134496   0.409   0.058   1.468  0.4602 -0.3674  0.9527
 7621SOL    HW234497   0.533   0.103   1.416 -0.5314 -0.4383 -1.6462
 7622SOL     OW34498   3.375   1.564   6.745  0.0735  0.0346 -0.1726
 7622SOL    HW134499   3.299   1.553   6.803  0.1275 -2.2246 -0.5114
 7622SOL    HW234500   3.423   1.620   6.805  1.7366 -2.3918  0.7748
 7623SOL     OW34501   1.651   1.978   7.909 -0.0979  0.1553  0.0967
 7623SOL    HW134502   1.629   2.068   7.933 -1.3528 -0.2723  0.5350
 7623SOL    HW234503   1.697   1.993   7.826  0.2125  1.0573  0.4263
 7624SOL     OW34504   4.541   3.633   7.223  0.2559 -0.3537 -0.3411
 7624SOL    HW134505   4.584   3.641   7.138  0.5882 -2.5115 -0.3688
 7624SOL    HW234506   4.486   3.712   7.223  3.7429  2.0457 -0.5694
 7625SOL     OW34507   2.876   0.896   6.889 -0.2787 -0.1824  0.6303
 7625SOL    HW134508   2.915   0.852   6.965 -0.3342  0.2858  0.9341
 7625SOL    HW234509   2.834   0.818   6.852 -0.0068  0.5307 -1.1463
 7626SOL     OW34510   4.322   0.837   7.902 -0.1694 -0.3202 -0.8310
 7626SOL    HW134511   4.228   0.821   7.893  0.1324 -1.2619 -2.2374
 7626SOL    HW234512   4.343   0.904   7.837 -1.0626 -0.4063 -1.2043
 7627SOL     OW34513   1.903   4.564   6.164 -0.1221  0.6299  0.1411
 7627SOL    HW134514   1.986   4.609   6.181 -0.5932  0.7901  1.9419
 7627SOL    HW234515   1.883   4.524   6.248 -0.2384  0.7582  0.1729
 7628SOL     OW34516   0.997   1.215   8.986  0.0054  0.2153  0.2887
 7628SOL    HW134517   0.908   1.186   9.004 -0.0923  0.6567  0.5203
 7628SOL    HW234518   1.050   1.137   8.967 -0.0922  0.0725  0.6043
 7629SOL     OW34519   3.482   2.214   4.328 -0.0731 -0.0612  0.0931
 7629SOL    HW134520   3.481   2.308   4.346 -0.4586 -0.0655  0.1032
 7629SOL    HW234521   3.516   2.177   4.410 -2.0628  0.7011  1.2533
 7630SOL     OW34522   2.912   1.147  12.921 -0.0344  0.3170 -0.7800
 7630SOL    HW134523   2.975   1.219  12.922  1.4365 -0.9638 -1.6449
 7630SOL    HW234524   2.829   1.181  12.955 -0.3918  0.1362 -1.4919
 7631SOL     OW34525   0.100   1.140   8.200  0.3775  0.3815  0.6309
 7631SOL    HW134526   0.088   1.054   8.159 -0.3265  1.0303 -0.5532
 7631SOL    HW234527   0.040   1.140   8.274 -0.4985  2.1211 -0.0511
 7632SOL     OW34528   3.835   4.523   0.088  0.8128  0.7495  0.0139
 7632SOL    HW134529   3.907   4.584   0.074  1.3973  0.0878  0.1156
 7632SOL    HW234530   3.761   4.574   0.120  1.5488  2.1349 -0.5133
 7633SOL     OW34531   4.403   0.467   2.943  0.3149 -0.1267  0.1145
 7633SOL    HW134532   4.335   0.404   2.967 -0.8534  1.9113  2.1170
 7633SOL    HW234533   4.467   0.448   3.012  0.8313  0.9277 -0.0783
 7634SOL     OW34534   2.394   2.081   8.640  0.4721  0.3741  0.5615
 7634SOL    HW134535   2.343   2.095   8.560  1.3130  1.5307  0.2225
 7634SOL    HW234536   2.321   2.056   8.696 -1.3971  1.3444 -1.4086
 7635SOL     OW34537   1.595   0.171   7.166  0.0279  1.0215 -0.3991
 7635SOL    HW134538   1.640   0.144   7.246  1.0624  2.6147 -0.4462
 7635SOL    HW234539   1.566   0.259   7.189 -0.4050  1.4462 -2.6272
 7636SOL     OW34540   3.286   1.674   6.084  0.2057 -0.0391 -0.1846
 7636SOL    HW134541   3.369   1.692   6.130  0.5339  0.7552 -1.0757
 7636SOL    HW234542   3.219   1.708   6.143 -0.0148 -1.2071  0.2256
 7637SOL     OW34543   1.962   0.774   4.528 -0.3734  0.1744 -0.4014
 7637SOL    HW134544   1.908   0.847   4.555  0.2506 -0.2539  1.9761
 7637SOL    HW234545   1.920   0.704   4.578 -0.9942  1.6090  1.0417
 7638SOL     OW34546   4.158   2.613   4.188 -0.4123  0.4524 -0.2933
 7638SOL    HW134547   4.246   2.648   4.202 -1.3277  1.5313  2.6980
 7638SOL    HW234548   4.153   2.615   4.093  0.4381 -1.9874 -0.3977
 7639SOL     OW34549   0.258   1.290   1.153  0.2882 -0.1086  0.1950
 7639SOL    HW134550   0.313   1.348   1.205 -1.3051  0.4204  1.2910
 7639SOL    HW234551   0.174   1.326   1.180  1.2151  1.0783  1.4871
 7640SOL     OW34552   2.361   2.852   4.389 -0.0149 -0.1892  0.2001
 7640SOL    HW134553   2.379   2.758   4.395  1.1673  0.1742  2.2171
 7640SOL    HW234554   2.270   2.867   4.413 -0.1188 -4.3805  2.4491
 7641SOL     OW34555   3.663   2.334   9.865 -0.7088 -0.3730 -0.2114
 7641SOL    HW134556   3.620   2.411   9.903  0.1789 -0.4516  0.9585
 7641SOL    HW234557   3.758   2.348   9.863 -0.6787 -0.6099 -0.5676
 7642SOL     OW34558   3.415   1.545   0.290  0.3267  0.5597  0.1693
 7642SOL    HW134559   3.335   1.493   0.295 -0.1771  1.1261 -1.9698
 7642SOL    HW234560   3.447   1.547   0.380  0.3406  0.6953  0.1628
 7643SOL     OW34561   1.056   2.404   6.674 -0.3778  0.6126 -0.6480
 7643SOL    HW134562   1.079   2.496   6.688 -1.1356  1.1623 -2.9544
 7643SOL    HW234563   0.961   2.399   6.689 -0.0045 -1.2132  1.0780
 7644SOL     OW34564   1.222   0.374   7.600 -0.0725  0.3214  0.5445
 7644SOL    HW134565   1.215   0.428   7.521 -0.5337 -1.2519 -0.4970
 7644SOL    HW234566   1.299   0.415   7.640  0.7538 -0.1553 -0.5610
 7645SOL     OW34567   0.339   1.313   3.258 -0.0108  0.5011  0.4068
 7645SOL    HW134568   0.434   1.323   3.272  0.6078 -1.7636 -2.1246
 7645SOL    HW234569   0.312   1.285   3.345  0.5906  1.5542  0.9326
 7646SOL     OW34570   1.840   3.726   0.582  0.2485 -0.4403 -0.0323
 7646SOL    HW134571   1.783   3.669   0.634 -0.4301  0.8106  0.5675
 7646SOL    HW234572   1.862   3.673   0.505  2.3161  2.2569 -1.2935
 7647SOL     OW34573   3.562   4.359   2.897  0.2413  0.0358  0.4568
 7647SOL    HW134574   3.519   4.355   2.811 -0.7059 -1.6446  1.0003
 7647SOL    HW234575   3.595   4.449   2.902  2.0856 -0.4747 -2.3685
 7648SOL     OW34576   2.511   0.065   2.362 -0.3555 -0.1288 -0.0514
 7648SOL    HW134577   2.603   0.043   2.380 -0.8151 -0.4428  1.9512
 7648SOL    HW234578   2.465   4.717   2.354  1.6651 -0.9846 -2.8712
 7649SOL     OW34579   0.640   0.525   8.332  0.1418 -0.6093  0.2246
 7649SOL    HW134580   0.603   0.605   8.294  2.1218 -0.3433 -1.1180
 7649SOL    HW234581   0.734   0.526   8.314  0.6620 -0.0638  2.9030
 7650SOL     OW34582   0.674   2.928   8.757  0.4730  0.6607  0.2758
 7650SOL    HW134583   0.648   2.916   8.848  1.1184  0.8902  0.4937
 7650SOL    HW234584   0.638   2.848   8.717 -0.3717 -0.4799  3.3160
 7651SOL     OW34585   4.467   1.733   6.179  0.1719 -0.0903  0.5660
 7651SOL    HW134586   4.440   1.791   6.250 -1.4567  0.6924 -0.7004
 7651SOL    HW234587   4.514   1.660   6.220  0.9809  0.4430  0.5917
 7652SOL     OW34588   0.563   2.896   3.878  0.2974 -0.2124  0.0715
 7652SOL    HW134589   0.542   2.931   3.791  1.6558 -0.1642 -0.2269
 7652SOL    HW234590   0.565   2.802   3.858  0.4452  0.0353 -1.0511
 7653SOL     OW34591   2.990   4.694  11.270 -0.3741 -0.1170 -0.7649
 7653SOL    HW134592   3.004   4.681  11.176 -0.4735  2.3110 -1.1041
 7653SOL    HW234593   2.907   4.648  11.278 -0.8431  0.4284 -2.5282
 7654SOL     OW34594   1.747   1.137  12.785  0.0626  0.3699  0.0703
 7654SOL    HW134595   1.680   1.072  12.803  1.0240 -0.7125 -0.2624
 7654SOL    HW234596   1.695   1.218  12.789 -1.1449 -0.3229 -2.0160
 7655SOL     OW34597   2.685   3.491   4.857 -0.1135  0.0908 -0.1947
 7655SOL    HW134598   2.627   3.419   4.881 -1.3366  1.9914  2.5116
 7655SOL    HW234599   2.672   3.550   4.931  0.3577  0.1862 -0.1865
 7656SOL     OW34600   2.461   1.509  10.931  0.1451 -0.3075 -0.2341
 7656SOL    HW134601   2.398   1.448  10.970 -0.1332 -0.1899 -0.5061
 7656SOL    HW234602   2.515   1.449  10.880  2.0543  0.9557  0.2966
 7657SOL     OW34603   4.048   4.352  11.742  0.0236 -0.0957  0.7391
 7657SOL    HW134604   4.050   4.267  11.697  0.9705 -1.3696  3.2288
 7657SOL    HW234605   4.006   4.319  11.821 -1.2127 -0.5613 -0.1020
 7658SOL     OW34606   2.238   0.647  12.217 -0.0099  0.2467  0.2114
 7658SOL    HW134607   2.167   0.694  12.261  0.0388 -1.1560  1.7902
 7658SOL    HW234608   2.198   0.560  12.221 -0.7684  0.4768 -2.5593
 7659SOL     OW34609   1.009   2.609   3.418  0.1523  0.5734  0.0745
 7659SOL    HW134610   1.038   2.518   3.413 -0.2334  0.6853 -3.5541
 7659SOL    HW234611   1.003   2.632   3.326  0.0921 -0.3534 -0.1456
 7660SOL     OW34612   0.518   0.564  13.032 -0.0745  0.0855 -0.2237
 7660SOL    HW134613   0.592   0.590  12.977  0.1750 -1.1634 -0.4556
 7660SOL    HW234614   0.559   0.524  13.108 -1.7827 -0.5467  0.3661
 7661SOL     OW34615   0.251   3.668  11.632  0.0995 -0.0847 -0.3725
 7661SOL    HW134616   0.244   3.592  11.690  2.6028  0.9352  1.2810
 7661SOL    HW234617   0.222   3.620  11.555  0.0611 -0.8035  0.0857
 7662SOL     OW34618   0.799   4.038   6.153 -0.4693  0.0414 -0.2882
 7662SOL    HW134619   0.742   4.115   6.147 -1.0134 -0.2498  1.0822
 7662SOL    HW234620   0.876   4.074   6.195  0.3215 -1.7135 -0.2129
 7663SOL     OW34621   1.434   2.998   1.807  0.2357 -0.5094  0.5306
 7663SOL    HW134622   1.480   2.914   1.801 -0.2056 -0.6805 -0.3769
 7663SOL    HW234623   1.378   2.986   1.884 -1.4656  3.0681 -0.1488
 7664SOL     OW34624   1.339   0.825   5.854  0.1031  0.3163 -0.0920
 7664SOL    HW134625   1.394   0.760   5.810  0.6429  0.1534  0.8324
 7664SOL    HW234626   1.338   0.805   5.947 -4.6058 -0.5511 -0.3221
 7665SOL     OW34627   1.316   3.143   9.676 -0.7621 -1.0363  0.4795
 7665SOL    HW134628   1.248   3.106   9.620 -1.1155  1.3269 -0.6565
 7665SOL    HW234629   1.263   3.169   9.752 -1.0708 -0.0988 -0.0619
 7666SOL     OW34630   3.639   3.472   2.112 -0.0011 -0.1772  0.1549
 7666SOL    HW134631   3.698   3.407   2.149 -1.6432 -0.9016  1.5005
 7666SOL    HW234632   3.580   3.485   2.186  1.2205 -1.0890  1.2707
 7667SOL     OW34633   3.006   4.161   6.653 -0.0603 -0.2985 -0.0282
 7667SOL    HW134634   3.029   4.251   6.676  0.9845  0.4216 -3.7710
 7667SOL    HW234635   3.094   4.125   6.653  0.4716  0.9768 -2.0211
 7668SOL     OW34636   0.056   1.070   0.711 -0.4379  0.2966 -0.1312
 7668SOL    HW134637   0.129   1.090   0.770  0.6017  1.0183 -1.6654
 7668SOL    HW234638   0.044   0.975   0.709  1.5318  0.0352 -0.2944
 7669SOL     OW34639   4.383   3.037   4.881  0.6594 -0.5411  0.8259
 7669SOL    HW134640   4.428   3.090   4.815 -0.1156  0.5435  1.1743
 7669SOL    HW234641   4.462   3.013   4.930  1.5615  2.3634  0.8378
 7670SOL     OW34642   0.924   1.985  10.652  0.1477 -0.3554  0.1703
 7670SOL    HW134643   0.945   2.018  10.565  0.0249  1.9108  1.0159
 7670SOL    HW234644   0.891   2.066  10.690 -0.6706 -1.6724  2.2983
 7671SOL     OW34645   3.261   1.866  10.733 -0.1206 -0.1658 -0.1575
 7671SOL    HW134646   3.230   1.818  10.810  0.3001 -1.7970 -1.0022
 7671SOL    HW234647   3.349   1.892  10.759 -0.2958  0.5641 -0.2738
 7672SOL     OW34648   4.198   3.840   3.358  0.2618 -0.1040 -0.1059
 7672SOL    HW134649   4.247   3.823   3.439 -2.2645 -1.9767  1.0166
 7672SOL    HW234650   4.117   3.791   3.368  0.1483  0.3320  1.1171
 7673SOL     OW34651   0.245   1.515   2.754  0.6733 -0.2133 -0.1117
 7673SOL    HW134652   0.198   1.598   2.752  1.3040  0.1369 -0.5452
 7673SOL    HW234653   0.314   1.519   2.689 -0.5392  0.7829 -1.3265
 7674SOL     OW34654   3.559   2.071   9.246 -0.0396  0.2080 -0.4811
 7674SOL    HW134655   3.544   2.103   9.335 -1.9687 -0.9387 -0.3813
 7674SOL    HW234656   3.591   2.148   9.199  1.2047 -0.2424 -0.3689
 7675SOL     OW34657   1.592   2.709   5.495 -0.2978 -0.5426  0.6893
 7675SOL    HW134658   1.660   2.750   5.549 -1.2620  0.0910  1.4013
 7675SOL    HW234659   1.632   2.707   5.408  1.6415 -1.0025  1.5773
 7676SOL     OW34660   3.543   0.162  12.012  0.3337 -0.2389  0.4876
 7676SOL    HW134661   3.600   0.224  11.966 -0.9170  0.8112  0.3246
 7676SOL    HW234662   3.550   0.095  11.944  0.3064  0.8095 -0.5599
 7677SOL     OW34663   3.879   0.942  16.659  0.6640  0.6547 -0.2876
 7677SOL    HW134664   3.913   0.910  16.743  1.1096  0.0948 -0.6768
 7677SOL    HW234665   3.939   1.007  16.622  0.5233  0.0137 -1.6378
 7678SOL     OW34666   4.087   0.509   3.085 -0.2588  0.4322 -0.2563
 7678SOL    HW134667   4.130   0.510   3.171 -1.1721 -1.6861  0.2228
 7678SOL    HW234668   4.130   0.434   3.044 -0.1588  0.4526 -0.1889
 7679SOL     OW34669   3.430   0.819  15.399  0.0917  0.1242 -0.4584
 7679SOL    HW134670   3.487   0.853  15.330 -0.5645  1.9070 -0.1287
 7679SOL    HW234671   3.341   0.822  15.365 -0.7429  3.2530  1.9913
 7680SOL     OW34672   0.969   3.171  16.067  0.1635  0.0289  0.3423
 7680SOL    HW134673   1.055   3.139  16.037  0.1150 -0.6421  0.9244
 7680SOL    HW234674   0.984   3.218  16.149  0.5535 -1.7203  1.2866
 7681SOL     OW34675   3.648   2.775   1.277 -0.1467  0.0351 -0.0978
 7681SOL    HW134676   3.644   2.868   1.254  2.8672  0.0119 -0.6067
 7681SOL    HW234677   3.664   2.733   1.192  1.0371 -0.9557  0.6183
 7682SOL     OW34678   2.665   4.594   5.539 -0.0103 -0.0617 -0.8525
 7682SOL    HW134679   2.727   4.630   5.476 -0.2496  1.5150 -0.1873
 7682SOL    HW234680   2.621   4.528   5.485 -1.8597  0.5934 -0.1520
 7683SOL     OW34681   2.528   2.433   0.842  0.2307 -0.2347  0.1925
 7683SOL    HW134682   2.435   2.458   0.840  0.1132 -0.6051  1.0492
 7683SOL    HW234683   2.567   2.475   0.918 -2.0174 -0.6813  1.6036
 7684SOL     OW34684   0.313   0.945   1.987  0.1549  0.3767  0.4876
 7684SOL    HW134685   0.333   0.865   1.939 -2.0145 -0.4263  0.9179
 7684SOL    HW234686   0.218   0.943   1.978  0.2024  0.4244 -0.0575
 7685SOL     OW34687   0.647   1.385   7.381  0.1352 -0.1396 -0.2116
 7685SOL    HW134688   0.607   1.328   7.447 -0.8331  0.7140 -0.0682
 7685SOL    HW234689   0.631   1.327   7.307  2.8675  1.3323 -1.9347
 7686SOL     OW34690   4.577   4.067  10.177  0.2882  0.1096  0.2956
 7686SOL    HW134691   4.635   4.105  10.243  1.6014 -0.2030 -0.6780
 7686SOL    HW234692   4.641   4.043  10.111  0.3539  0.8518  0.0871
 7687SOL     OW34693   4.078   0.050   2.235  0.0102 -0.9632  0.4965
 7687SOL    HW134694   3.988   0.026   2.254  0.2058 -0.8335  1.6075
 7687SOL    HW234695   4.073   0.145   2.235 -1.7954 -1.0562  2.2008
 7688SOL     OW34696   3.104   4.669   1.205  0.0028  0.2755  0.0296
 7688SOL    HW134697   3.075   4.589   1.163  1.5540 -0.6575  0.7388
 7688SOL    HW234698   3.199   4.658   1.198  0.0275  0.4978  0.0072
 7689SOL     OW34699   0.855   1.367  17.284 -0.4703 -0.3270  0.5924
 7689SOL    HW134700   0.814   1.281  17.281  1.5102 -1.2433 -0.6882
 7689SOL    HW234701   0.785   1.426  17.258 -1.5898 -1.2197  1.6328
 7690SOL     OW34702   2.865   3.864   9.070  0.0682  0.1171 -0.3584
 7690SOL    HW134703   2.867   3.814   8.988 -0.9597 -0.9650  0.2757
 7690SOL    HW234704   2.801   3.818   9.125 -0.2617  2.3882  1.1239
 7691SOL     OW34705   2.076   2.887   8.518 -0.3722 -0.4139  0.1039
 7691SOL    HW134706   2.054   2.806   8.566  0.9978 -0.0575  1.3130
 7691SOL    HW234707   1.990   2.924   8.496  1.0783  0.3192 -4.2942
 7692SOL     OW34708   4.336   0.018   1.873  0.2085  0.6242 -0.3384
 7692SOL    HW134709   4.299   4.725   1.957  3.8485 -1.6467  0.5374
 7692SOL    HW234710   4.402   0.078   1.905  0.2903  0.3936 -0.0683
 7693SOL     OW34711   1.675   1.244   7.650 -0.9336 -0.0160 -0.4601
 7693SOL    HW134712   1.712   1.330   7.670 -1.8375  0.2149  0.2326
 7693SOL    HW234713   1.587   1.265   7.621 -0.5785 -0.2202 -1.6573
 7694SOL     OW34714   3.449   1.014   7.056  0.1694  0.3312 -0.2603
 7694SOL    HW134715   3.531   1.058   7.077  0.1292 -0.0200  0.6148
 7694SOL    HW234716   3.451   0.996   6.962 -0.0597 -1.2184  0.0308
 7695SOL     OW34717   2.559   4.601   6.890 -0.1652  0.3820 -0.3276
 7695SOL    HW134718   2.621   4.657   6.938  0.1572 -1.1004  0.9620
 7695SOL    HW234719   2.521   4.551   6.962  0.1315 -0.6775 -0.9094
 7696SOL     OW34720   0.954   1.906   5.680  0.2392 -0.1799  0.3073
 7696SOL    HW134721   1.014   1.899   5.754  0.1155  2.1999  0.6338
 7696SOL    HW234722   0.936   1.813   5.667  1.1136 -0.2974 -0.0969
 7697SOL     OW34723   0.437   0.137   2.677 -0.1975  0.0363 -0.5157
 7697SOL    HW134724   0.449   0.123   2.583 -2.7555 -1.1596 -0.6797
 7697SOL    HW234725   0.341   0.132   2.682 -0.1955  1.0654  0.3857
 7698SOL     OW34726   4.418   0.999   2.677  0.7935 -0.0747 -0.6385
 7698SOL    HW134727   4.331   0.963   2.660  0.7023 -0.1962  0.1178
 7698SOL    HW234728   4.471   0.921   2.693 -0.7609 -0.5887  2.0486
 7699SOL     OW34729   0.635   0.489   7.546  0.2187 -0.0450 -0.1091
 7699SOL    HW134730   0.714   0.519   7.590 -0.5284  2.3835 -0.4044
 7699SOL    HW234731   0.644   0.510   7.453  2.3499  0.2957  0.1877
 7700SOL     OW34732   4.079   1.021   1.485 -0.2649 -0.2936  0.1044
 7700SOL    HW134733   4.132   0.942   1.488  0.3909  0.1258 -0.4388
 7700SOL    HW234734   4.022   1.005   1.409  1.4527  0.3646 -1.3264
 7701SOL     OW34735   2.434   3.137  11.858 -0.0957  0.4496  0.0886
 7701SOL    HW134736   2.377   3.134  11.935 -0.1019 -0.3036  0.0485
 7701SOL    HW234737   2.458   3.048  11.831 -1.6623 -0.3754  1.4402
 7702SOL     OW34738   0.126   2.449   6.093  0.0436 -0.7732 -0.4848
 7702SOL    HW134739   0.212   2.473   6.059 -0.3631 -1.4994 -2.0161
 7702SOL    HW234740   0.077   2.479   6.017 -0.0109  2.2402  0.7429
 7703SOL     OW34741   0.001   3.629   2.955  0.1300 -0.3102  0.0365
 7703SOL    HW134742   4.727   3.714   2.911 -3.7646 -1.2347 -0.9014
 7703SOL    HW234743   4.656   3.614   3.004  0.1522  0.5717  0.3524
 7704SOL     OW34744   0.601   0.060   0.329  0.3075 -0.2606 -0.2915
 7704SOL    HW134745   0.603   0.103   0.415  1.3549 -2.9580  1.0070
 7704SOL    HW234746   0.511   0.080   0.304  0.0642  1.1222  1.7558
 7705SOL     OW34747   1.338   1.440   9.690  0.0498 -0.4068 -0.3433
 7705SOL    HW134748   1.350   1.417   9.598  2.0777  0.4461 -0.2901
 7705SOL    HW234749   1.246   1.414   9.700 -0.1155  0.6521  0.9299
 7706SOL     OW34750   0.829   0.158   2.309  0.1410 -0.5244 -0.1528
 7706SOL    HW134751   0.886   0.231   2.285 -1.9398  0.7018 -1.3995
 7706SOL    HW234752   0.825   0.092   2.240  3.0207 -1.5773  0.7116
 7707SOL     OW34753   2.171   0.451   6.961  0.4038 -0.6525 -0.0872
 7707SOL    HW134754   2.152   0.398   7.038 -2.2951  1.0173  0.4245
 7707SOL    HW234755   2.266   0.465   6.962  0.1873  1.0695 -1.9354
 7708SOL     OW34756   0.003   4.249   6.806 -0.4354 -0.0789  0.9112
 7708SOL    HW134757   4.689   4.294   6.738 -0.5938  1.9775  2.3756
 7708SOL    HW234758   4.732   4.313   6.877  0.9896  1.3147 -0.2402
 7709SOL     OW34759   2.168   4.649   9.842 -0.1849 -0.0551 -0.2648
 7709SOL    HW134760   2.091   4.677   9.892 -0.7273 -0.0860 -1.0849
 7709SOL    HW234761   2.190   4.733   9.802  2.1593  0.1097  1.3973
 7710SOL     OW34762   2.641   0.634   3.657 -0.2292  0.1789  0.5970
 7710SOL    HW134763   2.662   0.545   3.685 -2.4232  0.4518  3.1604
 7710SOL    HW234764   2.653   0.682   3.739 -0.3488 -0.6805  1.1114
 7711SOL     OW34765   0.756   1.440   2.485 -0.0589 -0.0222 -0.2437
 7711SOL    HW134766   0.693   1.502   2.449 -0.1259  0.8350  1.3858
 7711SOL    HW234767   0.765   1.377   2.413  3.2943 -0.3954  0.5277
 7712SOL     OW34768   4.102   1.859  14.686 -0.7514  0.7599 -0.0944
 7712SOL    HW134769   4.021   1.809  14.670  0.5634 -0.8483 -1.7163
 7712SOL    HW234770   4.130   1.871  14.595  0.6073 -0.9647  0.0915
 7713SOL     OW34771   3.458   0.960   9.104 -0.2376 -0.0759  1.0162
 7713SOL    HW134772   3.480   1.024   9.036  0.4956 -0.4387  0.9104
 7713SOL    HW234773   3.524   0.980   9.170  2.0277 -1.8347 -0.7190
 7714SOL     OW34774   2.584   0.655   2.741 -0.3935  0.2651  0.8851
 7714SOL    HW134775   2.556   0.664   2.832 -0.5771  0.5962  0.7962
 7714SOL    HW234776   2.660   0.601   2.760  0.4145  1.8638  2.1588
 7715SOL     OW34777   2.366   1.395   2.589 -0.0551 -0.3861  0.2733
 7715SOL    HW134778   2.370   1.343   2.509 -0.3684  0.7739 -0.5074
 7715SOL    HW234779   2.336   1.479   2.554 -0.1347 -1.1301 -1.4621
 7716SOL     OW34780   2.413   3.359   7.331  0.1912  0.3460  0.0451
 7716SOL    HW134781   2.478   3.429   7.340 -0.3525  0.8276  0.2662
 7716SOL    HW234782   2.425   3.339   7.238  0.5048  0.4222  0.0701
 7717SOL     OW34783   0.539   1.112  10.964  0.6550  0.4988 -0.4686
 7717SOL    HW134784   0.508   1.071  10.884 -2.1660  2.2580 -0.2974
 7717SOL    HW234785   0.576   1.036  11.008 -0.8233  0.7514  1.2101
 7718SOL     OW34786   0.140   1.589  13.070 -0.0268 -0.0975 -0.0941
 7718SOL    HW134787   0.232   1.563  13.077  0.3658  0.8103 -1.8565
 7718SOL    HW234788   0.107   1.538  13.144  1.1135  0.3047  0.6906
 7719SOL     OW34789   1.204   0.599   3.146  0.8694 -0.2831 -0.1568
 7719SOL    HW134790   1.196   0.506   3.170  2.9613  0.1827  2.2850
 7719SOL    HW234791   1.222   0.595   3.052  2.1375 -0.8685  0.1127
 7720SOL     OW34792   1.335   1.029  11.683 -0.1566  0.0650 -0.9291
 7720SOL    HW134793   1.256   1.013  11.632 -0.4383 -1.8364  0.0955
 7720SOL    HW234794   1.330   0.966  11.755  2.9753 -1.1070 -1.7002
 7721SOL     OW34795   3.230   3.803   5.003  0.0101  0.1255 -0.2856
 7721SOL    HW134796   3.239   3.723   5.055  0.1146 -0.7634 -1.6460
 7721SOL    HW234797   3.199   3.762   4.922 -0.1137 -1.2438  0.4485
 7722SOL     OW34798   3.766   4.465  15.597 -0.4031 -0.2668 -0.2598
 7722SOL    HW134799   3.822   4.388  15.607  0.6687  0.5725  0.1826
 7722SOL    HW234800   3.711   4.444  15.521  1.7752 -0.0064 -1.8854
 7723SOL     OW34801   2.384   2.948   5.239 -0.0214 -0.0500  0.6695
 7723SOL    HW134802   2.333   3.022   5.207 -2.3265 -0.8055  2.6075
 7723SOL    HW234803   2.474   2.979   5.237 -0.4028  0.9056 -1.3192
 7724SOL     OW34804   2.576   4.322   1.134  0.4967 -0.3357  0.0552
 7724SOL    HW134805   2.591   4.241   1.182 -1.1038 -1.3975 -1.2285
 7724SOL    HW234806   2.600   4.380   1.206 -1.2595 -2.5089  2.3638
 7725SOL     OW34807   2.236   2.736   2.909 -0.1294  0.1280  0.0303
 7725SOL    HW134808   2.148   2.699   2.919  0.2379 -0.3529  1.5261
 7725SOL    HW234809   2.275   2.718   2.995  0.4148 -2.6510 -0.7941
 7726SOL     OW34810   4.264   3.469   4.179  0.4006 -0.4918  0.1177
 7726SOL    HW134811   4.257   3.561   4.205 -0.3329 -0.5461  0.0952
 7726SOL    HW234812   4.297   3.476   4.090  2.3063 -1.2523  0.7649
 7727SOL     OW34813   0.805   4.589   3.764 -0.0804  0.0696 -0.0037
 7727SOL    HW134814   0.897   4.601   3.788 -0.1849 -2.5979  1.7049
 7727SOL    HW234815   0.772   4.552   3.846  1.4109 -1.4575 -0.1004
 7728SOL     OW34816   2.170   1.955  12.503 -0.3243 -0.2770 -0.7378
 7728SOL    HW134817   2.139   1.995  12.422 -0.6450  1.6497  0.3325
 7728SOL    HW234818   2.089   1.921  12.542  0.2520 -0.8998 -0.0942
 7729SOL     OW34819   3.101   3.589   0.340  0.0869  0.2955  0.6510
 7729SOL    HW134820   3.168   3.602   0.407  0.9578 -0.0242 -0.1702
 7729SOL    HW234821   3.030   3.646   0.370  0.5740 -0.0035  2.3533
 7730SOL     OW34822   0.564   4.307   0.737 -0.6671  0.0482  0.5694
 7730SOL    HW134823   0.598   4.221   0.763  1.0867  0.5839  0.0277
 7730SOL    HW234824   0.522   4.299   0.652 -0.2636  0.5825  0.3244
 7731SOL     OW34825   3.925   4.195  15.206 -0.2533  0.6028 -0.0003
 7731SOL    HW134826   3.940   4.285  15.235 -0.7552  0.2323  1.4051
 7731SOL    HW234827   3.835   4.182  15.236 -0.0979  1.8611  1.0104
 7732SOL     OW34828   1.068   3.062  11.926  0.8360  0.4219 -0.3816
 7732SOL    HW134829   1.154   3.022  11.919  2.2106  3.3456 -0.3116
 7732SOL    HW234830   1.087   3.142  11.876 -2.3959  0.7609 -1.0655
 7733SOL     OW34831   0.632   1.535   8.571 -0.0790 -0.3275  0.4083
 7733SOL    HW134832   0.547   1.535   8.527 -0.5484  1.4743  1.3134
 7733SOL    HW234833   0.638   1.619   8.616 -3.5871 -0.2761  0.8081
 7734SOL     OW34834   2.385   3.394   9.765  0.1936 -0.1364 -0.4039
 7734SOL    HW134835   2.361   3.341   9.689  2.0007  0.9980 -1.7538
 7734SOL    HW234836   2.480   3.381   9.773 -0.4963 -4.1910  1.5403
 7735SOL     OW34837   4.107   2.287   7.258 -0.0469  0.0870  0.0834
 7735SOL    HW134838   4.080   2.256   7.344 -0.4147  0.3711  0.0660
 7735SOL    HW234839   4.116   2.199   7.221 -0.0218  1.4136 -3.0622
 7736SOL     OW34840   0.487   4.276  14.395 -0.1026  0.4960  0.0987
 7736SOL    HW134841   0.530   4.348  14.349 -0.7497  1.1028  0.4397
 7736SOL    HW234842   0.543   4.271  14.472  0.5840  1.5055 -0.3309
 7737SOL     OW34843   1.436   1.551   3.316  0.2295 -0.2149 -0.3653
 7737SOL    HW134844   1.376   1.569   3.243 -3.0597 -2.6785  1.7226
 7737SOL    HW234845   1.473   1.466   3.292  1.5037  0.2814 -0.1690
 7738SOL     OW34846   3.772   4.161  12.865  0.2196  0.9239 -0.1634
 7738SOL    HW134847   3.787   4.158  12.959  1.5610  0.7167 -0.3789
 7738SOL    HW234848   3.861   4.164  12.829  0.4829 -2.2910  0.2364
 7739SOL     OW34849   1.905   1.980  11.426 -0.0507  0.4597  0.1965
 7739SOL    HW134850   1.886   2.023  11.509  2.6098  2.5454 -0.2876
 7739SOL    HW234851   1.969   2.036  11.383  0.3937  0.1473  0.4502
 7740SOL     OW34852   3.454   2.377   4.669 -0.3868  0.0266 -0.0923
 7740SOL    HW134853   3.487   2.407   4.753  1.4121 -1.3970 -0.2741
 7740SOL    HW234854   3.505   2.299   4.646 -0.4138 -0.5036  1.6535
 7741SOL     OW34855   0.503   1.932   1.663  0.2311  0.6298  0.2945
 7741SOL    HW134856   0.519   1.854   1.611 -0.0957  0.2330  0.7900
 7741SOL    HW234857   0.481   1.899   1.750 -0.2030  0.0790 -0.0232
 7742SOL     OW34858   4.015   2.846   2.614 -0.4236 -0.1455  0.3634
 7742SOL    HW134859   4.000   2.802   2.698 -2.0584  0.0363  0.1734
 7742SOL    HW234860   3.949   2.915   2.623 -0.6699 -0.1725 -1.3149
 7743SOL     OW34861   2.858   2.612   4.107  0.0756  0.8176 -0.2234
 7743SOL    HW134862   2.875   2.695   4.063 -2.0183  1.7582  0.7078
 7743SOL    HW234863   2.916   2.555   4.058  1.6966  3.3417 -1.2320
 7744SOL     OW34864   3.460   3.248   8.462 -0.2155 -0.3335 -0.7541
 7744SOL    HW134865   3.374   3.275   8.427 -0.5209 -1.0342 -0.5443
 7744SOL    HW234866   3.458   3.155   8.483 -0.5440  0.7088  3.7608
 7745SOL     OW34867   2.689   1.260  13.008  0.0599  0.3864 -0.3601
 7745SOL    HW134868   2.674   1.249  13.102 -0.8979 -0.9896 -0.6953
 7745SOL    HW234869   2.648   1.346  12.995  1.1395  1.1960  1.5477
 7746SOL     OW34870   2.409   1.149   4.819  0.7160 -0.2220  0.1469
 7746SOL    HW134871   2.471   1.196   4.765 -0.4953  0.0642 -0.9994
 7746SOL    HW234872   2.456   1.164   4.902  1.8868 -1.0603 -0.3738
 7747SOL     OW34873   2.299   1.344   2.316  0.2355  0.0573 -0.1639
 7747SOL    HW134874   2.238   1.416   2.299  0.0464 -0.0574  0.0290
 7747SOL    HW234875   2.320   1.304   2.232  1.2374 -2.3365  1.2411
 7748SOL     OW34876   2.245   4.254  17.562  0.1634 -0.0863 -0.5095
 7748SOL    HW134877   2.169   4.196  17.554  0.0688  0.0350 -0.4795
 7748SOL    HW234878   2.244   4.283  17.471 -0.9625  1.7999  0.0974
 7749SOL     OW34879   2.867   3.061   6.443 -0.1068  0.2295  0.4143
 7749SOL    HW134880   2.890   2.968   6.436 -1.0415  0.0079  0.3048
 7749SOL    HW234881   2.908   3.078   6.528  0.0778 -1.2062  0.6204
 7750SOL     OW34882   1.501   3.404  16.499  0.3086  0.4506 -0.5994
 7750SOL    HW134883   1.412   3.433  16.517  0.3330  1.5387 -2.2128
 7750SOL    HW234884   1.477   3.381  16.409  0.0238 -0.1265 -0.3778
 7751SOL     OW34885   3.237   4.603   3.822 -0.2504  0.4160  0.1279
 7751SOL    HW134886   3.186   4.540   3.873  0.3155 -0.8457 -0.8681
 7751SOL    HW234887   3.242   4.564   3.735 -0.8222  2.3824 -0.7969
 7752SOL     OW34888   4.081   1.070   4.839 -0.8506  0.4268 -0.4915
 7752SOL    HW134889   4.085   1.095   4.746 -1.3022  2.0630 -0.0611
 7752SOL    HW234890   4.005   1.121   4.866  0.5438  0.1836  3.8590
 7753SOL     OW34891   4.348   1.867   5.297 -0.3964  0.5038 -0.4282
 7753SOL    HW134892   4.413   1.799   5.275  1.9930  2.4235  0.7048
 7753SOL    HW234893   4.287   1.857   5.224 -0.7666 -0.4733  0.0106
 7754SOL     OW34894   2.169   1.210   2.601 -0.6426 -0.0255 -0.4107
 7754SOL    HW134895   2.233   1.272   2.637 -0.6966  0.2692 -0.8199
 7754SOL    HW234896   2.108   1.269   2.556 -0.2509 -0.1533 -1.1179
 7755SOL     OW34897   0.906   0.265   4.935  0.7286 -0.3400  0.0760
 7755SOL    HW134898   0.934   0.305   4.853  0.5148 -0.4205 -0.0383
 7755SOL    HW234899   0.988   0.240   4.977  1.4974  0.4877 -0.9360
 7756SOL     OW34900   2.610   3.179   2.699  0.0148 -0.3886 -0.2452
 7756SOL    HW134901   2.657   3.255   2.665 -1.1360  0.8045  0.8228
 7756SOL    HW234902   2.588   3.127   2.622 -1.9166  0.5143 -0.3156
 7757SOL     OW34903   0.433   1.388   6.218  0.1130 -0.4536  0.5842
 7757SOL    HW134904   0.401   1.402   6.129 -0.2983  1.0826  0.9815
 7757SOL    HW234905   0.507   1.447   6.231  0.3269 -0.8338  1.0974
 7758SOL     OW34906   0.601   3.468  11.238 -0.7626 -0.5061  0.9763
 7758SOL    HW134907   0.573   3.497  11.324 -1.9108  0.1791  0.3783
 7758SOL    HW234908   0.656   3.540  11.208 -0.2939  0.3595  3.9586
 7759SOL     OW34909   2.727   1.589   8.198 -0.0255  0.0400 -0.1305
 7759SOL    HW134910   2.646   1.633   8.224 -0.7859 -0.8149 -1.1014
 7759SOL    HW234911   2.779   1.654   8.150  0.4489  0.4779  0.9613
 7760SOL     OW34912   2.485   3.493   1.844  0.1877 -0.4770  0.0756
 7760SOL    HW134913   2.439   3.426   1.794  0.0938 -0.2303 -0.1677
 7760SOL    HW234914   2.497   3.456   1.932  0.2983 -2.4953 -0.7876
 7761SOL     OW34915   2.070   0.823   7.175  0.3196 -0.3786 -0.6294
 7761SOL    HW134916   2.028   0.829   7.089  1.2438  0.1018 -1.0506
 7761SOL    HW234917   2.043   0.907   7.212  1.2818 -0.1317 -0.4747
 7762SOL     OW34918   3.422   4.181   7.744  0.4140 -0.3742 -0.4577
 7762SOL    HW134919   3.412   4.174   7.649  2.0031 -0.3839 -0.6163
 7762SOL    HW234920   3.347   4.137   7.784 -0.7567  2.5183  0.5252
 7763SOL     OW34921   1.897   0.884   3.948 -0.1847 -0.5863 -0.4676
 7763SOL    HW134922   1.897   0.844   4.035  0.3904 -0.0188 -0.2087
 7763SOL    HW234923   1.923   0.807   3.899 -0.0713 -1.9322  1.6803
 7764SOL     OW34924   3.374   0.932   6.541 -0.5299  0.1288 -0.5469
 7764SOL    HW134925   3.381   0.960   6.633  0.5168  0.0225 -0.5849
 7764SOL    HW234926   3.441   0.991   6.506  2.3334 -2.6762  0.1689
 7765SOL     OW34927   3.215   2.791   6.590  0.3043  0.2364 -0.4813
 7765SOL    HW134928   3.276   2.832   6.652  0.9502 -1.4949  0.0442
 7765SOL    HW234929   3.229   2.851   6.517 -0.7913  0.3895 -0.5587
 7766SOL     OW34930   2.001   2.461  15.060 -0.2049 -0.5296 -0.4158
 7766SOL    HW134931   2.049   2.382  15.036 -2.8531 -2.4496  0.5715
 7766SOL    HW234932   1.966   2.479  14.972 -1.4409 -1.4022 -0.0940
 7767SOL     OW34933   3.208   3.747   2.303 -0.2240  0.0730 -0.9621
 7767SOL    HW134934   3.148   3.784   2.239 -0.9605  0.1678 -0.2195
 7767SOL    HW234935   3.154   3.684   2.351 -0.9305  1.6788  0.3697
 7768SOL     OW34936   1.781   1.916   8.276 -0.6991 -0.0424  0.3204
 7768SOL    HW134937   1.815   1.827   8.281 -1.2298 -0.1981  1.2339
 7768SOL    HW234938   1.696   1.895   8.238 -0.8071 -0.7092  0.9360
 7769SOL     OW34939   3.968   0.092   4.123 -0.1830 -0.8687  0.5736
 7769SOL    HW134940   4.021   0.019   4.155 -0.0987 -1.2224 -0.3901
 7769SOL    HW234941   4.031   0.145   4.074 -1.7651 -1.2001 -1.8259
 7770SOL     OW34942   1.581   2.501   1.068 -0.0762 -0.5162 -0.1513
 7770SOL    HW134943   1.510   2.474   1.011  0.3025  0.3255 -1.0359
 7770SOL    HW234944   1.594   2.426   1.125 -2.6676 -1.4251 -0.7841
 7771SOL     OW34945   3.577   2.983   0.025  0.6039 -0.3959 -0.4810
 7771SOL    HW134946   3.560   3.064   0.074 -0.8909 -2.3713  2.2781
 7771SOL    HW234947   3.629   3.028  17.697 -0.1016  1.5908  0.2941
 7772SOL     OW34948   3.728   2.031   1.101 -0.2254  0.0469  0.5507
 7772SOL    HW134949   3.760   2.086   1.029 -1.0674  1.3289  1.1544
 7772SOL    HW234950   3.813   1.991   1.121 -0.2296  0.2770  1.0434
 7773SOL     OW34951   2.486   3.811   3.908 -0.4495 -0.2082 -0.1062
 7773SOL    HW134952   2.495   3.848   3.995 -0.4173  0.7514 -0.5155
 7773SOL    HW234953   2.431   3.735   3.924 -2.9669  1.4628 -0.8331
 7774SOL     OW34954   2.816   2.784   5.230 -0.2668  0.0134  0.2550
 7774SOL    HW134955   2.880   2.741   5.287  0.8260 -1.5095 -2.1050
 7774SOL    HW234956   2.799   2.707   5.175  1.6618 -0.8579  0.8759
 7775SOL     OW34957   1.578   0.999  11.965  0.2238  0.1486  0.3546
 7775SOL    HW134958   1.540   1.010  12.052  0.4026 -0.2706  0.4856
 7775SOL    HW234959   1.658   1.050  11.977  0.2806  0.0442  0.4189
 7776SOL     OW34960   0.010   3.884  16.564 -0.2069  0.2794 -0.2686
 7776SOL    HW134961   4.708   3.848  16.645  0.5250 -1.8813 -0.9083
 7776SOL    HW234962   4.675   3.939  16.530 -1.7053  0.1495  2.5389
 7777SOL     OW34963   1.588   2.425   7.384 -0.1979 -0.2936  0.4698
 7777SOL    HW134964   1.512   2.367   7.370 -0.2309  0.5834 -3.0258
 7777SOL    HW234965   1.619   2.387   7.467 -1.2756  1.8635  1.8459
 7778SOL     OW34966   3.453   2.643   5.850 -0.2759 -0.2879 -0.6476
 7778SOL    HW134967   3.419   2.605   5.931 -0.3514  1.0968 -0.0339
 7778SOL    HW234968   3.385   2.699   5.813 -0.2480 -0.1883 -0.5491
 7779SOL     OW34969   0.026   3.956   3.438  0.2646  0.0429  0.3144
 7779SOL    HW134970   4.725   3.954   3.349 -1.0816 -0.4627  0.8708
 7779SOL    HW234971   0.109   3.910   3.428 -0.6569 -1.3035 -1.0801
 7780SOL     OW34972   1.323   1.310   6.846 -0.2847 -0.1083 -0.0639
 7780SOL    HW134973   1.245   1.257   6.866  0.2869 -0.7505  0.4446
 7780SOL    HW234974   1.345   1.334   6.936  0.0571 -0.1737 -0.1329
 7781SOL     OW34975   2.786   3.593  17.638 -0.0373 -0.2505  0.0093
 7781SOL    HW134976   2.858   3.532  17.617 -0.2455 -1.0942  1.7719
 7781SOL    HW234977   2.762   3.631  17.553  0.2270 -0.7254 -0.2826
 7782SOL     OW34978   3.730   0.595   8.229  0.0277 -0.0726  0.1581
 7782SOL    HW134979   3.775   0.558   8.305  0.6363 -1.1857 -0.7541
 7782SOL    HW234980   3.648   0.624   8.268  0.2757 -0.7415  1.1849
 7783SOL     OW34981   1.116   1.273   1.563  0.4779  0.4965  0.4116
 7783SOL    HW134982   1.139   1.263   1.655  1.6673 -0.0296  0.0518
 7783SOL    HW234983   1.185   1.331   1.532 -1.1315  0.9069 -2.4653
 7784SOL     OW34984   3.085   4.428  11.161  0.2387 -0.3592  0.6541
 7784SOL    HW134985   3.164   4.413  11.110 -0.9518  1.3232 -1.7218
 7784SOL    HW234986   3.045   4.502  11.115 -2.2863 -1.6552  0.7360
 7785SOL     OW34987   1.288   0.016  15.150  0.2442 -0.1292  0.0557
 7785SOL    HW134988   1.321   4.666  15.180 -0.5526 -0.4594 -0.0176
 7785SOL    HW234989   1.262   0.001  15.059 -0.2279 -0.9234  0.3206
 7786SOL     OW34990   1.304   2.183  10.737  0.5363  0.0865 -0.5906
 7786SOL    HW134991   1.240   2.226  10.794  0.1757  1.8007 -2.2913
 7786SOL    HW234992   1.263   2.098  10.722 -1.1775  0.8180 -0.0160
 7787SOL     OW34993   3.818   3.313   2.223 -0.1413 -0.8873  0.3940
 7787SOL    HW134994   3.905   3.344   2.196 -1.1264  2.9233  1.6278
 7787SOL    HW234995   3.809   3.388   2.282 -0.4577  0.5561 -1.4917
 7788SOL     OW34996   2.415   3.653   9.035  0.7847 -0.8137 -0.3240
 7788SOL    HW134997   2.355   3.599   9.085 -0.5330  1.9228  1.0371
 7788SOL    HW234998   2.361   3.722   8.996  1.1253 -0.6020 -0.4284
 7789SOL     OW34999   1.431   4.073   8.242 -0.2606 -0.3606 -0.1365
 7789SOL    HW135000   1.368   4.145   8.253 -0.6446 -0.5349 -1.2645
 7789SOL    HW235001   1.387   4.026   8.172 -3.1623  1.7365  0.2519
 7790SOL     OW35002   2.121   4.126  12.833  0.1785  0.3215  0.2267
 7790SOL    HW135003   2.125   4.187  12.760  1.0272 -0.0019  0.0009
 7790SOL    HW235004   2.175   4.053  12.801 -1.9612 -0.0060 -2.6238
 7791SOL     OW35005   2.047   4.000   0.985 -0.4409  0.0281 -0.0879
 7791SOL    HW135006   2.122   4.040   0.940  1.4091 -1.2798  1.8555
 7791SOL    HW235007   2.081   3.912   0.997 -1.5146 -0.4226 -0.3762
 7792SOL     OW35008   4.250   2.507   2.870  0.1461 -0.2508 -0.6612
 7792SOL    HW135009   4.326   2.479   2.818 -0.1939 -1.1533 -0.6704
 7792SOL    HW235010   4.227   2.432   2.925 -1.2731 -0.0820 -1.0310
 7793SOL     OW35011   1.380   1.559   3.003  0.3616  0.4563  0.2316
 7793SOL    HW135012   1.312   1.598   2.948  1.0674  0.7155 -0.4652
 7793SOL    HW235013   1.328   1.485   3.033  0.6723  1.3395  2.9280
 7794SOL     OW35014   3.871   0.428   2.888 -0.1946 -0.3481  0.4197
 7794SOL    HW135015   3.785   0.469   2.888 -0.0791 -0.1149 -0.7231
 7794SOL    HW235016   3.900   0.478   2.965 -0.7911 -1.1766  1.1830
 7795SOL     OW35017   0.544   4.545   7.642  0.3975 -0.1713  0.2011
 7795SOL    HW135018   0.634   4.512   7.646  1.5840  2.7940 -2.0243
 7795SOL    HW235019   0.508   4.521   7.727  1.3327  0.3394  0.7448
 7796SOL     OW35020   1.912   4.475  11.209  0.2860 -0.2387 -0.7175
 7796SOL    HW135021   1.949   4.387  11.205 -2.1908 -1.2516 -0.9120
 7796SOL    HW235022   1.988   4.529  11.184  1.3601 -1.0054  0.8986
 7797SOL     OW35023   2.291   2.817   5.435  0.0651  0.1470 -0.1268
 7797SOL    HW135024   2.334   2.871   5.368  0.0702 -0.3930 -0.5633
 7797SOL    HW235025   2.264   2.751   5.372  0.0386 -0.5130  0.5804
 7798SOL     OW35026   3.350   0.072   7.933 -0.6143  0.0867  0.2745
 7798SOL    HW135027   3.273   0.015   7.943 -1.5089  1.3399  0.5882
 7798SOL    HW235028   3.311   0.153   7.897 -2.2735 -0.6268  0.4573
 7799SOL     OW35029   2.019   4.460  11.856 -0.0377  0.7162 -0.4140
 7799SOL    HW135030   2.049   4.551  11.852  1.0172  0.3985  0.2132
 7799SOL    HW235031   2.097   4.414  11.823 -0.5097  0.1098 -0.6897
 7800SOL     OW35032   2.367   2.752  10.803  0.9194  0.2383  0.9613
 7800SOL    HW135033   2.274   2.760  10.823  1.1554 -0.6993  2.4628
 7800SOL    HW235034   2.398   2.711  10.884  2.1102  0.3267  0.5522
 7801SOL     OW35035   3.060   4.394   7.771  0.8286 -0.0061 -0.4602
 7801SOL    HW135036   2.975   4.437   7.769  0.4134 -0.7384  1.3955
 7801SOL    HW235037   3.049   4.329   7.701 -0.0069  0.2316 -0.5411
 7802SOL     OW35038   1.611   4.003   9.864  0.2151 -1.0899  0.0628
 7802SOL    HW135039   1.662   4.080   9.837  1.4134 -1.7550  0.3997
 7802SOL    HW235040   1.603   3.959   9.780 -2.3999 -1.0842  0.3142
 7803SOL     OW35041   4.412   0.578   8.262  0.5564 -0.2618 -0.2987
 7803SOL    HW135042   4.375   0.524   8.331 -0.3882  1.0130  0.1714
 7803SOL    HW235043   4.506   0.561   8.275  1.1068  0.8143 -2.7766
 7804SOL     OW35044   4.324   0.086   5.088  0.3578  0.8274 -0.1395
 7804SOL    HW135045   4.391   0.149   5.113  0.1548  2.0416 -2.6455
 7804SOL    HW235046   4.269   0.082   5.166  0.0876 -0.7519 -0.4232
 7805SOL     OW35047   3.635   0.611   2.848 -0.2687 -0.6444 -0.4339
 7805SOL    HW135048   3.642   0.665   2.927 -0.0490 -1.1942 -0.0689
 7805SOL    HW235049   3.554   0.626   2.800  1.6984 -0.2316 -3.5951
 7806SOL     OW35050   4.164   3.390   2.318 -0.1930 -0.6693 -0.1942
 7806SOL    HW135051   4.133   3.318   2.373  1.0523  0.2354  1.6985
 7806SOL    HW235052   4.253   3.363   2.295 -0.6559 -1.6096 -0.8704
 7807SOL     OW35053   4.037   4.248  12.740  0.3644  0.4464 -0.3140
 7807SOL    HW135054   4.004   4.301  12.813 -2.3734 -1.5017 -0.1440
 7807SOL    HW235055   4.129   4.246  12.767  0.6436  0.0245 -1.3413
 7808SOL     OW35056   1.683   3.692   0.065  0.0517 -0.1961  0.1735
 7808SOL    HW135057   1.709   3.601   0.075 -0.4288 -0.2711  0.7254
 7808SOL    HW235058   1.609   3.689   0.004  1.6379 -0.6006 -1.7009
 7809SOL     OW35059   0.892   3.926  13.108 -0.0609 -0.2660  0.0260
 7809SOL    HW135060   0.901   3.851  13.049 -0.6232 -1.6414  1.6937
 7809SOL    HW235061   0.985   3.946  13.116 -0.2337  0.0785  1.1239
 7810SOL     OW35062   2.404   0.860   8.232 -0.2574  0.2811 -0.5159
 7810SOL    HW135063   2.471   0.829   8.293 -1.3740 -1.6575 -0.2592
 7810SOL    HW235064   2.399   0.951   8.258 -0.5904  0.9633 -2.9481
 7811SOL     OW35065   3.467   3.501  14.663 -0.1803  0.4295 -0.1677
 7811SOL    HW135066   3.468   3.549  14.746  0.5490  1.7938 -0.9619
 7811SOL    HW235067   3.462   3.576  14.604  0.1714 -0.5424 -1.4358
 7812SOL     OW35068   2.415   0.281   4.979 -0.0202 -0.7049  0.2682
 7812SOL    HW135069   2.343   0.238   5.026 -1.7212  0.2432 -1.4808
 7812SOL    HW235070   2.383   0.371   4.970 -1.0392 -1.1955 -0.9348
 7813SOL     OW35071   0.146   2.984   9.434  0.0363  0.9472 -0.8958
 7813SOL    HW135072   0.142   3.012   9.526 -0.1533 -0.9945 -0.3243
 7813SOL    HW235073   0.166   2.891   9.441 -0.1816  1.0399  1.1103
 7814SOL     OW35074   4.005   2.631   2.807 -0.0973 -0.1501  0.0903
 7814SOL    HW135075   3.970   2.551   2.768 -0.3349  0.7279 -1.5034
 7814SOL    HW235076   4.097   2.611   2.828 -0.2063  1.1225  1.7630
 7815SOL     OW35077   2.491   0.521  14.761 -0.2537 -0.6556  0.9429
 7815SOL    HW135078   2.544   0.540  14.683 -0.7756  0.3358  0.8318
 7815SOL    HW235079   2.517   0.582  14.831  1.1043 -0.6222  0.4181
 7816SOL     OW35080   0.751   1.110   9.058  0.3774  0.1576 -0.1719
 7816SOL    HW135081   0.749   1.075   8.969 -1.8351  2.4890 -1.0215
 7816SOL    HW235082   0.791   1.039   9.109 -1.6300 -0.4685  0.5236
 7817SOL     OW35083   2.276   4.258   3.464  0.3874  0.8375  0.5483
 7817SOL    HW135084   2.233   4.344   3.456  1.4619  1.3874  0.6476
 7817SOL    HW235085   2.243   4.222   3.546 -0.2956 -0.0456 -0.1204
 7818SOL     OW35086   2.305   4.211   2.425 -0.3545 -0.6607 -0.1920
 7818SOL    HW135087   2.383   4.180   2.471  1.1983  1.9824 -1.0746
 7818SOL    HW235088   2.242   4.138   2.434 -0.6050 -0.3830  0.3078
 7819SOL     OW35089   0.098   2.012   4.540  0.4578  0.3145  0.0325
 7819SOL    HW135090   0.032   1.948   4.514  0.5633  0.2816 -0.1509
 7819SOL    HW235091   0.160   2.014   4.468  1.2796  0.1247  0.7415
 7820SOL     OW35092   3.009   2.043   9.634 -0.2683  1.0751 -0.4047
 7820SOL    HW135093   2.970   2.130   9.626  1.0470  1.8440  1.4983
 7820SOL    HW235094   2.934   1.986   9.654  1.2370 -0.3448  1.1958
 7821SOL     OW35095   1.487   0.071  10.878  0.4664 -0.3745 -0.2206
 7821SOL    HW135096   1.433   0.140  10.838  0.7100 -0.5504 -0.8596
 7821SOL    HW235097   1.437   0.052  10.957 -0.0701  3.3923  0.3404
 7822SOL     OW35098   2.593   4.053   6.951 -0.2154  0.7326  0.5733
 7822SOL    HW135099   2.669   4.055   7.009 -0.8985  2.4450  1.3906
 7822SOL    HW235100   2.632   4.088   6.871 -1.0130  1.1504  0.3678
 7823SOL     OW35101   3.085   1.112   0.360  0.0153 -0.1040 -0.0106
 7823SOL    HW135102   3.026   1.066   0.419 -0.2996 -1.0046 -1.0214
 7823SOL    HW235103   3.045   1.092   0.275  2.1630 -1.2152 -0.7661
 7824SOL     OW35104   1.847   0.279   6.605  0.3105 -0.6213  0.0566
 7824SOL    HW135105   1.882   0.291   6.517 -2.0968 -1.5310 -1.0078
 7824SOL    HW235106   1.840   0.368   6.638 -1.2211 -1.1969  1.3096
 7825SOL     OW35107   4.697   1.995   5.782 -0.8089  0.3284 -0.6106
 7825SOL    HW135108   0.025   2.054   5.823  1.6532 -0.9941 -2.4854
 7825SOL    HW235109   4.689   1.926   5.849  0.0899 -0.4219 -1.2752
 7826SOL     OW35110   2.854   1.977   3.415 -0.2035 -0.1525  0.1277
 7826SOL    HW135111   2.786   1.914   3.389 -1.3227  1.8138 -1.7034
 7826SOL    HW235112   2.798   2.031   3.471 -0.6495  1.6536 -2.0391
 7827SOL     OW35113   3.882   0.705   8.554  0.1241 -0.2854 -0.0481
 7827SOL    HW135114   3.900   0.796   8.530  1.5851 -0.4174  0.5198
 7827SOL    HW235115   3.947   0.665   8.496 -1.9839  1.1454 -3.4198
 7828SOL     OW35116   1.804   4.280   2.092  0.1301  0.2901 -0.4843
 7828SOL    HW135117   1.830   4.263   2.001  1.2726  0.7961 -0.2399
 7828SOL    HW235118   1.773   4.370   2.083  1.1105  0.7433  0.7184
 7829SOL     OW35119   4.528   4.476   1.190 -0.1489  0.0154 -0.1392
 7829SOL    HW135120   4.515   4.570   1.197 -1.0636 -0.0359 -1.1247
 7829SOL    HW235121   4.451   4.438   1.232  0.2409  0.5981  1.0886
 7830SOL     OW35122   3.911   0.647  17.363  0.1661 -0.5883  0.3685
 7830SOL    HW135123   3.896   0.645  17.269 -0.9251 -0.9099  0.5513
 7830SOL    HW235124   3.992   0.697  17.369 -0.2116  0.0323  0.2652
 7831SOL     OW35125   3.959   3.450   8.657  0.4516  0.2867 -0.5276
 7831SOL    HW135126   3.877   3.413   8.626  1.0930 -1.0871 -0.5714
 7831SOL    HW235127   3.991   3.496   8.578  3.0673 -0.3892  0.1279
 7832SOL     OW35128   2.442   2.989   4.681 -0.2446  0.0896  0.2086
 7832SOL    HW135129   2.444   2.934   4.602 -0.6404  1.4622 -0.7592
 7832SOL    HW235130   2.354   3.027   4.678  0.3836  1.8032  4.1676
 7833SOL     OW35131   4.104   3.193   7.833  0.7933 -0.0680 -0.1979
 7833SOL    HW135132   4.076   3.107   7.865  1.9920 -0.1259  0.6604
 7833SOL    HW235133   4.196   3.194   7.857  0.1978 -0.2407  2.1362
 7834SOL     OW35134   4.376   3.985  12.436 -0.0448 -0.0311 -0.2703
 7834SOL    HW135135   4.284   4.003  12.418  0.3322  4.2974  2.0219
 7834SOL    HW235136   4.402   4.077  12.429 -0.0140 -0.0365 -0.2318
 7835SOL     OW35137   1.779   2.049   4.265 -0.1606  0.0282 -0.4556
 7835SOL    HW135138   1.851   1.994   4.233 -0.4307 -1.9838  2.4098
 7835SOL    HW235139   1.708   2.026   4.205  2.4532 -1.1559 -3.1077
 7836SOL     OW35140   1.363   1.749   7.072  0.3793 -0.0413 -0.2279
 7836SOL    HW135141   1.363   1.780   7.162 -0.4967 -2.2138  0.5173
 7836SOL    HW235142   1.428   1.812   7.039  0.9313 -0.6990 -0.4015
 7837SOL     OW35143   0.811   0.825  15.096  0.3351  0.2311  1.3338
 7837SOL    HW135144   0.765   0.891  15.148 -0.5035  0.4604  0.3150
 7837SOL    HW235145   0.759   0.745  15.105 -1.5252  1.2520 -0.2697
 7838SOL     OW35146   1.918   1.385   2.264 -0.1260 -0.3499  0.1484
 7838SOL    HW135147   1.964   1.318   2.213 -0.8099 -1.0305  0.4143
 7838SOL    HW235148   1.840   1.403   2.212  0.5181 -0.6983 -0.9274
 7839SOL     OW35149   0.569   4.282   7.348  0.1531 -0.0618 -0.1229
 7839SOL    HW135150   0.658   4.272   7.315 -0.3495  3.1106 -2.4772
 7839SOL    HW235151   0.590   4.247   7.435  2.2264  1.6573  0.0557
 7840SOL     OW35152   4.445   0.375   1.313  0.3703 -0.0774 -0.1487
 7840SOL    HW135153   4.453   0.319   1.390 -1.5709 -1.5728 -1.0366
 7840SOL    HW235154   4.350   0.388   1.309  0.2739 -1.2408 -1.2907
 7841SOL     OW35155   4.509   2.535  14.592  1.2816  0.1140 -0.0529
 7841SOL    HW135156   4.598   2.500  14.591  0.4809 -1.9246 -0.4084
 7841SOL    HW235157   4.458   2.454  14.593  0.2580  0.8029  3.5967
 7842SOL     OW35158   3.532   0.155   8.226 -0.2569  0.1258 -0.1681
 7842SOL    HW135159   3.498   0.232   8.181  1.2054  0.7873 -0.1711
 7842SOL    HW235160   3.627   0.170   8.224  0.2875 -3.2172 -0.1284
 7843SOL     OW35161   4.621   2.340  15.152  0.3998 -0.7738  0.1390
 7843SOL    HW135162   4.577   2.424  15.164  0.7584 -0.4230 -0.9501
 7843SOL    HW235163   4.677   2.350  15.229  0.0860 -0.5780  0.3410
 7844SOL     OW35164   4.501   3.558   3.064  0.0534 -0.1183 -0.1801
 7844SOL    HW135165   4.458   3.520   2.987 -0.9485  0.2179  0.2156
 7844SOL    HW235166   4.422   3.586   3.110 -0.0328 -2.4085  1.0195
 7845SOL     OW35167   2.734   0.821   1.502 -0.1567  0.3171  0.0001
 7845SOL    HW135168   2.824   0.794   1.517  0.4648  1.9666 -0.6990
 7845SOL    HW235169   2.733   0.822   1.407  1.6235 -1.5377 -0.0268
 7846SOL     OW35170   1.166   2.065   3.709 -0.3155  0.1254  0.0122
 7846SOL    HW135171   1.122   2.109   3.637  2.1088 -1.1776 -2.2803
 7846SOL    HW235172   1.149   1.972   3.692  1.6616  0.1949 -2.3452
 7847SOL     OW35173   1.773   3.270   7.425  0.0782  0.3686 -0.6057
 7847SOL    HW135174   1.826   3.311   7.494  2.0807 -0.5964 -1.5732
 7847SOL    HW235175   1.741   3.349   7.381 -2.0565  0.3221  0.8890
 7848SOL     OW35176   4.011   4.057   6.949 -0.1494  0.1114  0.1802
 7848SOL    HW135177   3.983   4.084   6.861 -1.5905  1.5975  1.0918
 7848SOL    HW235178   3.989   4.137   6.997 -1.0066 -0.7447  1.2154
 7849SOL     OW35179   3.177   1.227  11.502  0.0552 -0.4246 -0.0647
 7849SOL    HW135180   3.205   1.136  11.497  0.5672 -0.1964 -1.2623
 7849SOL    HW235181   3.125   1.226  11.422  0.0167  1.1256 -0.0580
 7850SOL     OW35182   4.569   1.638  13.126  0.2219  0.0114  0.1447
 7850SOL    HW135183   4.654   1.667  13.093 -1.2121  3.7020 -0.3741
 7850SOL    HW235184   4.536   1.598  13.046  1.4007  1.3556 -1.0064
 7851SOL     OW35185   0.120   2.854   3.215 -0.4841 -0.1080  0.9250
 7851SOL    HW135186   0.197   2.870   3.271  0.2481 -0.7755  0.1020
 7851SOL    HW235187   0.062   2.895   3.279 -1.1642 -0.2730  0.4022
 7852SOL     OW35188   3.159   2.747   6.989 -0.0124  0.4959  0.1340
 7852SOL    HW135189   3.244   2.704   6.979 -0.2400  0.0782 -0.0013
 7852SOL    HW235190   3.092   2.679   6.977  0.4684  0.0483  0.0120
 7853SOL     OW35191   2.100   3.329   7.195  0.2453  0.5357  0.2883
 7853SOL    HW135192   2.177   3.366   7.153  0.8367 -0.1552  0.7680
 7853SOL    HW235193   2.029   3.342   7.132  0.5247  1.4038  0.1606
 7854SOL     OW35194   1.366   3.304  16.114  0.0036  0.1122  0.2673
 7854SOL    HW135195   1.402   3.333  16.030 -0.9739 -1.6062 -0.7373
 7854SOL    HW235196   1.447   3.275  16.155  1.0040 -0.6299 -2.2506
 7855SOL     OW35197   2.072   2.733   6.414 -0.0301 -0.3214  0.3398
 7855SOL    HW135198   2.099   2.643   6.395  0.8087  0.0036 -0.0130
 7855SOL    HW235199   2.150   2.772   6.452  1.1946 -3.5350  1.0571
 7856SOL     OW35200   1.770   4.309   5.961  0.1786  0.0146  0.6058
 7856SOL    HW135201   1.858   4.293   5.994 -0.0107 -0.6823  0.7848
 7856SOL    HW235202   1.752   4.383   6.019  0.1337  0.5787 -0.1320
 7857SOL     OW35203   3.543   1.088   0.352  0.2247 -0.0049 -0.0310
 7857SOL    HW135204   3.504   1.123   0.272 -0.8763 -2.1372 -0.4330
 7857SOL    HW235205   3.501   1.151   0.411 -0.0317 -0.1596 -0.0481
 7858SOL     OW35206   0.759   0.358   1.917  0.3133 -0.3043 -0.1629
 7858SOL    HW135207   0.671   0.354   1.955  0.9253 -0.5339  1.2304
 7858SOL    HW235208   0.811   0.372   1.997  0.8284  0.5202 -0.6446
 7859SOL     OW35209   1.616   2.192   8.597 -0.0061  0.5700 -0.5304
 7859SOL    HW135210   1.529   2.205   8.634  0.9961  0.1754  1.9406
 7859SOL    HW235211   1.667   2.255   8.649  0.7011  1.2361 -2.0215
 7860SOL     OW35212   0.390   4.290  17.609 -0.0757 -0.2655  0.9175
 7860SOL    HW135213   0.424   4.208  17.644  2.6904 -0.5240 -2.4083
 7860SOL    HW235214   0.464   4.351  17.606  0.7468 -1.3492 -0.6391
 7861SOL     OW35215   1.146   4.254   7.230 -0.5232 -0.4035 -0.0907
 7861SOL    HW135216   1.091   4.242   7.152 -0.8196 -2.7288  0.4809
 7861SOL    HW235217   1.201   4.176   7.234  1.0875  0.6858 -0.7963
 7862SOL     OW35218   1.536   1.888   8.134 -0.2454  0.2178  0.3874
 7862SOL    HW135219   1.444   1.890   8.107 -0.2209 -1.8591  0.1375
 7862SOL    HW235220   1.580   1.925   8.058 -1.2723 -0.9706 -0.7818
 7863SOL     OW35221   2.592   4.406   1.689 -0.1845 -0.2375  0.5886
 7863SOL    HW135222   2.544   4.437   1.613 -0.0853 -3.0553 -0.6017
 7863SOL    HW235223   2.565   4.315   1.689 -2.2643  0.3844 -1.5590
 7864SOL     OW35224   4.677   3.359   5.351 -0.2234 -0.1015  0.1440
 7864SOL    HW135225   4.664   3.433   5.411 -1.3007  0.3719 -0.6706
 7864SOL    HW235226   4.626   3.383   5.274  1.3850  1.9806 -0.2973
 7865SOL     OW35227   3.853   3.131   4.383  0.0535  0.8287 -0.1203
 7865SOL    HW135228   3.897   3.183   4.315  0.9146 -0.8544 -0.8655
 7865SOL    HW235229   3.904   3.050   4.385  2.0847  2.0640 -1.3865
 7866SOL     OW35230   4.458   2.191   0.577  0.5111  0.1941 -0.5816
 7866SOL    HW135231   4.478   2.112   0.527 -2.9682  0.0942 -1.8169
 7866SOL    HW235232   4.545   2.229   0.588  0.7321 -1.0855  2.1685
 7867SOL     OW35233   3.115   0.932   1.909  0.4009 -0.1053 -0.0504
 7867SOL    HW135234   3.140   0.856   1.961  2.1913 -0.0691 -0.8622
 7867SOL    HW235235   3.198   0.976   1.891 -0.3335  1.4504  0.3756
 7868SOL     OW35236   1.518   3.435   8.059  0.0458 -0.3913 -0.0425
 7868SOL    HW135237   1.591   3.496   8.071  0.6196 -0.6827 -2.0212
 7868SOL    HW235238   1.529   3.382   8.137  0.8148  0.3516  0.3592
 7869SOL     OW35239   3.983   2.517   3.644 -0.5874 -0.2780  0.1298
 7869SOL    HW135240   4.079   2.523   3.652 -0.4751 -1.6656 -0.1683
 7869SOL    HW235241   3.965   2.606   3.614  3.0657 -0.3652 -2.3860
 7870SOL     OW35242   3.766   1.124   5.492  0.5121  0.2972  0.3174
 7870SOL    HW135243   3.813   1.050   5.531  1.1403  1.9834  2.7059
 7870SOL    HW235244   3.704   1.086   5.430  0.3050  0.6484  0.3105
 7871SOL     OW35245   1.106   4.528  17.539  0.4902  0.1179  0.3440
 7871SOL    HW135246   1.169   4.566  17.478  1.1875 -0.4878  0.6849
 7871SOL    HW235247   1.018   4.563  17.527  1.3019  2.1624  0.1833
 7872SOL     OW35248   2.005   2.680  10.677 -0.0510 -0.2973 -0.2177
 7872SOL    HW135249   2.032   2.748  10.739  0.4765  1.4292 -2.3054
 7872SOL    HW235250   1.941   2.734  10.629 -0.6236 -0.8938 -0.1148
 7873SOL     OW35251   2.693   0.127   6.736 -0.4639 -0.2121 -0.4470
 7873SOL    HW135252   2.731   0.091   6.816 -2.0518  1.1871  0.9190
 7873SOL    HW235253   2.614   0.161   6.776  0.1218  1.8035 -1.0112
 7874SOL     OW35254   1.143   2.474   8.260 -0.2176  0.1507 -0.1406
 7874SOL    HW135255   1.104   2.406   8.205  1.4260 -0.4242 -0.5852
 7874SOL    HW235256   1.084   2.548   8.243  0.2960  0.4241 -0.7424
 7875SOL     OW35257   1.470   3.927  14.453  0.2344  0.2972  0.3160
 7875SOL    HW135258   1.433   3.986  14.387 -0.8818 -1.3019 -0.4790
 7875SOL    HW235259   1.513   3.864  14.394 -0.4929  1.1278 -1.1121
 7876SOL     OW35260   3.150   2.884   7.442 -0.2646  0.2195 -0.4440
 7876SOL    HW135261   3.229   2.869   7.494 -0.8056 -1.9025 -0.2009
 7876SOL    HW235262   3.156   2.979   7.435 -1.0707  0.3500  0.6549
 7877SOL     OW35263   1.333   0.752   2.320 -0.0496 -0.0021 -0.4205
 7877SOL    HW135264   1.388   0.784   2.248  0.8493 -3.7451 -1.3935
 7877SOL    HW235265   1.269   0.823   2.318 -0.4880 -0.3829  0.2128
 7878SOL     OW35266   4.419   0.548   5.865  0.1291  0.1547  0.3834
 7878SOL    HW135267   4.510   0.560   5.893  0.4121 -0.6677 -0.1999
 7878SOL    HW235268   4.433   0.469   5.813 -1.2747  1.2079 -1.5734
 7879SOL     OW35269   1.203   2.553  14.794  0.6679  0.3698  0.3979
 7879SOL    HW135270   1.212   2.635  14.745  0.6044  0.5796  0.7428
 7879SOL    HW235271   1.240   2.501  14.722  1.6060  0.4944  0.7924
 7880SOL     OW35272   3.429   1.411   3.390  0.3529 -0.4921 -0.1056
 7880SOL    HW135273   3.452   1.503   3.373 -0.5338  0.1217  1.9282
 7880SOL    HW235274   3.511   1.390   3.433  0.2882  0.4700  0.5067
 7881SOL     OW35275   1.690   3.320   8.260 -0.4874 -0.1132 -0.1335
 7881SOL    HW135276   1.658   3.333   8.349 -0.1171  0.6152 -0.1000
 7881SOL    HW235277   1.684   3.226   8.246 -1.3539 -0.1637  0.5793
 7882SOL     OW35278   1.914   4.431   0.595  0.0131 -0.4858 -0.1106
 7882SOL    HW135279   1.906   4.414   0.689 -0.5716  1.2794  0.1707
 7882SOL    HW235280   1.996   4.480   0.586 -0.5372  0.3652 -0.5171
 7883SOL     OW35281   2.726   4.174   0.450  0.1658 -0.2067  0.0514
 7883SOL    HW135282   2.728   4.269   0.434  0.6602 -0.3231 -0.5538
 7883SOL    HW235283   2.632   4.155   0.447  0.3128 -1.3618  2.9091
 7884SOL     OW35284   1.575   3.443  15.471 -0.0444 -0.0926  0.1323
 7884SOL    HW135285   1.581   3.395  15.389 -1.3884  0.5346 -0.3375
 7884SOL    HW235286   1.659   3.488  15.476 -0.8728  1.2780  1.9333
 7885SOL     OW35287   2.349   3.626   1.359  0.5497  0.0374  0.2345
 7885SOL    HW135288   2.290   3.651   1.430 -0.0583 -2.4944  0.6057
 7885SOL    HW235289   2.310   3.544   1.330  0.6421 -0.7150  2.2631
 7886SOL     OW35290   3.407   3.812  15.130  0.6656  0.1471  0.4270
 7886SOL    HW135291   3.386   3.896  15.172  0.4808 -0.4756  1.5701
 7886SOL    HW235292   3.483   3.837  15.076  2.0111 -2.6939  1.0345
 7887SOL     OW35293   1.484   0.130   5.200  0.3043 -0.9044 -0.3774
 7887SOL    HW135294   1.460   0.152   5.290  1.7034 -0.7233 -0.0517
 7887SOL    HW235295   1.415   0.068   5.179 -2.7417  2.7400 -1.1032
 7888SOL     OW35296   3.354   4.728  16.336 -0.7494  0.0386  0.1030
 7888SOL    HW135297   3.416   4.703  16.405  0.3776  1.1628 -0.5026
 7888SOL    HW235298   3.288   0.034  16.391 -0.9711 -1.4858  0.9857
 7889SOL     OW35299   3.752   0.181   2.265 -0.4805  0.3655  0.6268
 7889SOL    HW135300   3.807   0.123   2.318  0.0025  2.1126  2.0096
 7889SOL    HW235301   3.738   0.255   2.323  0.5989  2.0940 -1.3181
 7890SOL     OW35302   0.358   4.566   1.071  0.1030 -0.6420 -0.0415
 7890SOL    HW135303   0.451   4.589   1.075  0.5331 -2.4521  0.6026
 7890SOL    HW235304   0.353   4.491   1.011 -1.9951 -0.2278 -0.3774
 7891SOL     OW35305   2.252   3.578   4.683  0.3197 -0.3081  0.1939
 7891SOL    HW135306   2.275   3.534   4.764 -0.8548  0.4111  0.9207
 7891SOL    HW235307   2.320   3.550   4.621 -0.0028  1.0040 -0.7548
 7892SOL     OW35308   1.113   3.364   7.721  0.2973  0.1277  0.6080
 7892SOL    HW135309   1.068   3.446   7.742 -0.0765 -0.3432  1.6382
 7892SOL    HW235310   1.166   3.352   7.799  2.2157  1.0285 -0.5464
 7893SOL     OW35311   3.174   2.785   4.521  0.1448  0.2418  0.6241
 7893SOL    HW135312   3.132   2.870   4.510  0.9935  0.7046  0.9235
 7893SOL    HW235313   3.099   2.725   4.529  0.7395 -0.5111  0.5712
 7894SOL     OW35314   0.345   1.989  17.230  0.2015 -0.2686 -0.0964
 7894SOL    HW135315   0.274   1.928  17.250  1.8367 -2.0474  0.2761
 7894SOL    HW235316   0.407   1.966  17.299 -0.4025 -1.8113 -0.0860
 7895SOL     OW35317   0.856   3.945   7.086  0.6846  0.6151  0.5560
 7895SOL    HW135318   0.871   3.946   6.992  1.8077 -2.0677  0.7068
 7895SOL    HW235319   0.931   3.890   7.107 -0.2766 -1.4854 -1.5165
 7896SOL     OW35320   2.081   0.473  16.720  0.0215  0.1781  0.7949
 7896SOL    HW135321   2.028   0.497  16.644  1.1323 -0.0483 -0.0625
 7896SOL    HW235322   2.029   0.424  16.784 -0.1661  0.4328  0.8348
 7897SOL     OW35323   4.228   4.551  15.819 -0.4674 -0.0681  0.0069
 7897SOL    HW135324   4.132   4.554  15.819 -0.4218  1.1497  0.3733
 7897SOL    HW235325   4.261   4.513  15.738 -1.2282  1.4329 -1.0100
 7898SOL     OW35326   0.622   3.728   2.307 -0.0769 -0.5357  0.2963
 7898SOL    HW135327   0.623   3.655   2.246  1.0108  0.2553 -0.6318
 7898SOL    HW235328   0.558   3.699   2.373  0.3467 -0.9853  0.5066
 7899SOL     OW35329   0.606   0.556   3.492  0.1138  0.3188  0.6115
 7899SOL    HW135330   0.677   0.497   3.466  0.4276 -0.2798  2.7560
 7899SOL    HW235331   0.656   0.633   3.517 -0.3814  1.2646 -1.3269
 7900SOL     OW35332   2.152   2.617   0.109  0.2558  0.1752  0.2980
 7900SOL    HW135333   2.113   2.532   0.091 -1.6952  1.0223  0.4535
 7900SOL    HW235334   2.208   2.634   0.034 -0.9450 -2.6881 -1.2225
 7901SOL     OW35335   1.430   1.016  12.674 -0.3160 -0.4733  0.2595
 7901SOL    HW135336   1.482   0.939  12.649 -1.2298 -0.0983 -2.7896
 7901SOL    HW235337   1.442   1.008  12.769 -5.5736  1.2485  1.0418
 7902SOL     OW35338   0.582   4.624  17.328 -0.0009 -0.4827  0.3364
 7902SOL    HW135339   0.642   4.571  17.274 -0.9472 -0.6520 -0.5422
 7902SOL    HW235340   0.503   4.570  17.325 -2.3700  3.0314  0.8991
 7903SOL     OW35341   1.205   1.640   2.118 -0.1609 -0.3865  0.1353
 7903SOL    HW135342   1.260   1.643   2.040 -0.3576  2.3999  0.0986
 7903SOL    HW235343   1.173   1.550   2.106 -0.7661  0.0450 -1.5302
 7904SOL     OW35344   2.593   1.899   6.608 -0.3710 -0.0878 -0.1705
 7904SOL    HW135345   2.531   1.931   6.541 -0.4067  2.9327  1.2914
 7904SOL    HW235346   2.619   1.984   6.644  1.0070 -0.0270 -1.3306
 7905SOL     OW35347   4.720   3.533  15.286  0.0434 -0.0342 -0.3420
 7905SOL    HW135348   4.648   3.470  15.279  0.5226 -0.5224 -0.8377
 7905SOL    HW235349   0.003   3.552  15.194 -1.1861 -0.3068 -0.6456
 7906SOL     OW35350   3.221   0.367   7.321  0.0533 -0.3035 -0.2900
 7906SOL    HW135351   3.298   0.365   7.377 -1.3546 -1.5482  1.6166
 7906SOL    HW235352   3.160   0.327   7.383  0.6905  0.3644  0.7640
 7907SOL     OW35353   1.883   2.667   8.224  0.7756 -0.5797  0.3987
 7907SOL    HW135354   1.804   2.718   8.207  0.6435 -0.2302  1.9994
 7907SOL    HW235355   1.840   2.582   8.232 -0.7223  0.4146  3.0559
 7908SOL     OW35356   3.294   1.046   4.611 -1.1697  0.7107 -0.1803
 7908SOL    HW135357   3.213   1.007   4.577 -0.5735 -0.2662 -0.4820
 7908SOL    HW235358   3.337   1.082   4.534  1.7189  1.8323  1.9489
 7909SOL     OW35359   4.016   4.323   5.183  0.3091 -0.4849 -0.9290
 7909SOL    HW135360   3.977   4.297   5.266  0.7131  0.5038 -0.4325
 7909SOL    HW235361   3.961   4.285   5.115 -0.9821 -0.7889  0.2977
 7910SOL     OW35362   2.629   4.016   6.376  0.1564 -0.5658  0.5156
 7910SOL    HW135363   2.539   3.998   6.401  0.2836  0.3649  1.6504
 7910SOL    HW235364   2.677   3.998   6.457  1.4360 -0.8124 -0.3047
 7911SOL     OW35365   4.066   1.934   3.401  0.5810 -0.4592 -0.1282
 7911SOL    HW135366   4.083   1.958   3.310  2.3446 -1.2887 -0.0164
 7911SOL    HW235367   3.978   1.966   3.422  1.1875 -0.6425  2.7207
 7912SOL     OW35368   3.411   4.165   5.419  0.3087 -0.4068  0.6325
 7912SOL    HW135369   3.456   4.227   5.476  1.3553 -0.9045  0.3478
 7912SOL    HW235370   3.446   4.085   5.459  1.0024 -1.1066 -1.3875
 7913SOL     OW35371   0.546   0.441  17.236 -0.0759 -0.7524  0.4913
 7913SOL    HW135372   0.485   0.513  17.223  1.1141  0.3963  1.2436
 7913SOL    HW235373   0.616   0.482  17.287 -1.0504  1.8240 -0.2341
 7914SOL     OW35374   0.083   3.737   3.864 -0.6545  0.0531 -1.4423
 7914SOL    HW135375   0.079   3.819   3.914  2.4624 -0.1993 -0.7777
 7914SOL    HW235376   0.179   3.732   3.869 -0.7188  0.1992 -0.0652
 7915SOL     OW35377   2.950   4.600  11.008  0.6756 -0.8303  0.3054
 7915SOL    HW135378   2.886   4.671  11.000  2.9993  1.0653 -1.5060
 7915SOL    HW235379   2.946   4.572  10.916 -1.6022  1.4230 -0.2750
 7916SOL     OW35380   0.698   0.433   5.481  0.2272  0.5691 -0.2455
 7916SOL    HW135381   0.725   0.344   5.457  1.6689  1.0654 -0.4925
 7916SOL    HW235382   0.783   0.477   5.479  0.3485  0.3699  0.3260
 7917SOL     OW35383   4.296   0.352  10.998  0.7034  0.1188  0.7675
 7917SOL    HW135384   4.350   0.286  11.042  0.1923  0.7298  2.3028
 7917SOL    HW235385   4.228   0.375  11.062 -0.3037 -2.8086  0.7867
 7918SOL     OW35386   2.322   4.531   2.123 -0.3701 -0.0313  0.2926
 7918SOL    HW135387   2.290   4.444   2.144 -0.4345 -0.2579 -0.7745
 7918SOL    HW235388   2.344   4.527   2.030 -0.9597  0.7480  0.1115
 7919SOL     OW35389   0.445   2.143   8.293  0.2257  0.2078  0.4859
 7919SOL    HW135390   0.540   2.152   8.288 -0.2333  3.1575 -3.0651
 7919SOL    HW235391   0.430   2.083   8.365 -2.5030  0.7176  0.3246
 7920SOL     OW35392   4.506   2.965   6.951 -0.8444  0.0940 -0.0850
 7920SOL    HW135393   4.466   2.879   6.942  0.8647 -0.7723  0.5403
 7920SOL    HW235394   4.467   3.014   6.879  1.7913  1.0544 -0.8665
 7921SOL     OW35395   4.523   2.971   6.155 -0.0857 -0.5043  0.0741
 7921SOL    HW135396   4.455   2.940   6.095  0.2682  2.3630 -1.7814
 7921SOL    HW235397   4.472   3.010   6.226 -0.8696 -2.1644  0.4327
 7922SOL     OW35398   3.794   0.373   2.469  0.0251 -0.2501 -0.1709
 7922SOL    HW135399   3.793   0.457   2.422 -3.2277 -0.0878  0.1861
 7922SOL    HW235400   3.888   0.360   2.477 -0.0421 -1.5592 -1.4208
 7923SOL     OW35401   4.439   0.818  16.533  0.0781 -0.4461 -0.2482
 7923SOL    HW135402   4.432   0.912  16.548  1.2732 -0.0702 -2.0277
 7923SOL    HW235403   4.347   0.793  16.542  0.2605 -0.5938  1.2013
 7924SOL     OW35404   0.251   3.181   5.688 -0.3200 -0.1618  0.1492
 7924SOL    HW135405   0.314   3.127   5.735 -0.4254 -0.7701 -0.4205
 7924SOL    HW235406   0.286   3.270   5.688 -2.0512  0.5258 -0.7389
 7925SOL     OW35407   1.553   3.700   6.897 -0.1832  0.5350 -0.1963
 7925SOL    HW135408   1.517   3.649   6.824  1.9278  2.7951 -2.8298
 7925SOL    HW235409   1.550   3.788   6.860  2.7672  1.1150  0.9720
 7926SOL     OW35410   3.202   3.305   5.640  0.3212 -0.0451 -0.3830
 7926SOL    HW135411   3.124   3.321   5.692  1.7189 -0.1180  1.7568
 7926SOL    HW235412   3.190   3.219   5.599 -2.7992  0.1596  0.1254
 7927SOL     OW35413   4.499   4.028   6.447 -0.0617 -0.3985  0.5309
 7927SOL    HW135414   4.524   4.029   6.355 -1.0462 -0.1794  0.2706
 7927SOL    HW235415   4.589   4.023   6.481 -0.7410 -1.4309  2.1846
 7928SOL     OW35416   0.568   2.098   6.221 -0.0698 -0.2021 -0.1721
 7928SOL    HW135417   0.617   2.181   6.221  2.0130 -1.4323  0.7223
 7928SOL    HW235418   0.482   2.140   6.217 -0.9492 -1.9629  0.2950
 7929SOL     OW35419   1.680   0.306   0.162 -0.2508  0.2800 -0.2883
 7929SOL    HW135420   1.611   0.367   0.188 -0.5243 -0.1813  0.0724
 7929SOL    HW235421   1.662   0.240   0.230  0.6983 -1.8045 -2.0501
 7930SOL     OW35422   3.791   1.068   2.165  0.2885  0.1431 -0.8731
 7930SOL    HW135423   3.874   1.052   2.121  1.2574 -0.3903  1.1883
 7930SOL    HW235424   3.765   1.155   2.134  1.5644  0.7489 -0.2295
 7931SOL     OW35425   1.458   1.532   5.039  0.6068  0.1439 -0.2507
 7931SOL    HW135426   1.405   1.574   4.971 -0.2429 -1.0117 -0.2928
 7931SOL    HW235427   1.406   1.453   5.054  0.5873  0.2250  0.1184
 7932SOL     OW35428   0.048   4.454  14.601 -0.2116  0.4143  0.0232
 7932SOL    HW135429   0.029   4.487  14.689 -0.5087 -0.8650  0.4358
 7932SOL    HW235430   0.041   4.359  14.606  1.2393  0.3240  0.4924
 7933SOL     OW35431   2.652   0.189  16.552 -0.3574  0.4120 -0.0031
 7933SOL    HW135432   2.603   0.107  16.554  0.7569 -0.2801 -0.9040
 7933SOL    HW235433   2.609   0.232  16.626  2.2491  0.8908  1.2449
 7934SOL     OW35434   0.612   0.593   0.660 -0.1958 -0.0781  0.4371
 7934SOL    HW135435   0.610   0.552   0.574  1.0242 -0.2514  0.4949
 7934SOL    HW235436   0.657   0.532   0.719  1.7329 -1.0871 -2.1008
 7935SOL     OW35437   3.601   3.333  14.441 -0.1542  0.1650  0.0436
 7935SOL    HW135438   3.674   3.392  14.421 -1.5891  1.9346  0.0588
 7935SOL    HW235439   3.535   3.393  14.475 -0.0190  0.0388  0.5350
 7936SOL     OW35440   4.360   3.050   6.690  0.6386  0.0475 -0.2148
 7936SOL    HW135441   4.336   2.957   6.685 -0.3146  0.4114 -2.4475
 7936SOL    HW235442   4.313   3.085   6.614 -0.9624 -0.8935  0.3453
 7937SOL     OW35443   2.012   4.235   7.545  0.3612  0.3838  0.3932
 7937SOL    HW135444   1.996   4.298   7.615 -1.4324  0.6010 -0.2098
 7937SOL    HW235445   2.078   4.185   7.593  0.4023  0.5258  0.4850
 7938SOL     OW35446   3.212   2.095  14.981  0.1299  0.7081  0.0319
 7938SOL    HW135447   3.167   2.081  15.065 -0.4157 -0.4644 -0.4674
 7938SOL    HW235448   3.195   2.014  14.933 -0.8051  0.7598  0.2669
 7939SOL     OW35449   4.108   3.351  15.024 -0.5903 -0.1124 -0.1603
 7939SOL    HW135450   4.181   3.311  15.071  1.4169  0.6164 -2.6854
 7939SOL    HW235451   4.145   3.416  14.964 -0.1253  0.2503  0.5264
 7940SOL     OW35452   4.415   2.293   7.156 -0.3943 -0.0271 -0.1502
 7940SOL    HW135453   4.354   2.363   7.135  1.3649  1.3341 -0.6719
 7940SOL    HW235454   4.415   2.301   7.251 -0.6028 -1.8949  0.0157
 7941SOL     OW35455   3.854   0.940   9.122  0.1076  0.3016  0.0378
 7941SOL    HW135456   3.827   0.930   9.214  2.2940 -0.0834  0.6279
 7941SOL    HW235457   3.851   1.036   9.117  1.6696  0.2645 -1.4107
 7942SOL     OW35458   3.079   0.251   3.962  0.7656  0.3856  0.2086
 7942SOL    HW135459   3.059   0.345   3.970 -1.4895  0.0964 -1.7660
 7942SOL    HW235460   2.994   0.227   3.998  0.0624  0.0691 -1.6704
 7943SOL     OW35461   2.546   3.737   8.200 -0.0909 -0.1355 -0.1411
 7943SOL    HW135462   2.605   3.673   8.240  0.0351  0.1460  0.1190
 7943SOL    HW235463   2.601   3.815   8.203 -0.1261 -0.1383  0.5790
 7944SOL     OW35464   1.036   1.154  12.663  0.7087  0.7436  0.3855
 7944SOL    HW135465   0.964   1.200  12.622 -0.1241 -1.9883 -1.1699
 7944SOL    HW235466   0.982   1.128  12.737  3.3291  0.8274  2.3518
 7945SOL     OW35467   4.168   3.958   8.599  0.8386 -0.0384  0.1360
 7945SOL    HW135468   4.080   3.962   8.635  0.7332  3.9048 -0.5121
 7945SOL    HW235469   4.221   3.978   8.677  3.2815  0.3035 -1.5934
 7946SOL     OW35470   0.699   1.190  11.370 -0.1449  0.4728  0.1437
 7946SOL    HW135471   0.608   1.171  11.391 -0.3822  1.3465 -0.0996
 7946SOL    HW235472   0.678   1.249  11.297 -0.7373 -0.0108 -0.0774
 7947SOL     OW35473   1.864   2.821  14.660 -0.3079 -0.2461  0.1157
 7947SOL    HW135474   1.958   2.822  14.645 -0.5962  0.4917 -1.5540
 7947SOL    HW235475   1.844   2.733  14.629  0.8733 -0.0509 -1.1851
 7948SOL     OW35476   1.142   0.155   5.084  0.4031 -0.5594  0.0005
 7948SOL    HW135477   1.096   0.073   5.067 -0.0676 -0.0413 -1.1963
 7948SOL    HW235478   1.172   0.177   4.996 -0.6768  0.5222 -0.1064
 7949SOL     OW35479   0.799   0.795   5.728 -0.8846 -0.0586 -0.2227
 7949SOL    HW135480   0.843   0.805   5.644 -0.6399  0.8342  0.0154
 7949SOL    HW235481   0.758   0.880   5.739 -1.4790 -0.5526  1.3887
 7950SOL     OW35482   3.954   0.831  13.128 -0.1017 -0.3624  0.6160
 7950SOL    HW135483   4.047   0.850  13.140 -0.5020  1.1461  1.4024
 7950SOL    HW235484   3.920   0.900  13.185 -0.9492 -2.2259  2.3791
 7951SOL     OW35485   3.478   2.139   3.027 -0.2728 -0.0957 -0.2760
 7951SOL    HW135486   3.391   2.150   3.066 -0.7888  0.9636 -1.7248
 7951SOL    HW235487   3.458   2.126   2.934 -0.0695  0.9952 -0.4820
 7952SOL     OW35488   2.504   2.423   0.304  0.1927 -0.3044  0.6869
 7952SOL    HW135489   2.566   2.368   0.352 -0.7613 -2.1913 -0.2366
 7952SOL    HW235490   2.527   2.390   0.217 -1.0305 -0.5280  0.4502
 7953SOL     OW35491   3.734   4.572  11.900 -0.2950 -0.6264 -0.2991
 7953SOL    HW135492   3.754   4.587  11.992 -1.7275 -1.9255  0.2177
 7953SOL    HW235493   3.654   4.623  11.893  0.1579 -0.0425 -1.3207
 7954SOL     OW35494   3.406   4.602   1.148  0.0186 -0.0997  0.0418
 7954SOL    HW135495   3.480   4.593   1.207  0.6366 -0.2523 -0.7604
 7954SOL    HW235496   3.452   4.612   1.064  2.1500 -1.1444  1.1023
 7955SOL     OW35497   0.994   3.794   1.314 -0.2197  0.1418  0.4778
 7955SOL    HW135498   0.959   3.706   1.297  0.5552  0.3115 -2.0665
 7955SOL    HW235499   0.952   3.819   1.396  1.2104  1.1471  0.9152
 7956SOL     OW35500   2.210   3.632   1.593 -0.3701 -0.1925 -0.0847
 7956SOL    HW135501   2.196   3.543   1.625 -1.0472 -0.9571 -2.5215
 7956SOL    HW235502   2.135   3.674   1.635 -0.9706 -0.9024 -0.4520
 7957SOL     OW35503   2.297   3.078   6.358 -0.0534  0.3717 -0.2843
 7957SOL    HW135504   2.285   3.169   6.384  2.2311  0.1453  1.5635
 7957SOL    HW235505   2.349   3.076   6.277 -1.9970 -0.6793 -1.5269
 7958SOL     OW35506   1.259   4.499  17.222  0.7390 -0.3915  0.3719
 7958SOL    HW135507   1.235   4.567  17.285 -0.2869  0.7485 -1.2552
 7958SOL    HW235508   1.347   4.479  17.253  1.0714 -1.7977 -1.4803
 7959SOL     OW35509   2.302   1.164   5.161  0.4379 -0.7342  0.4077
 7959SOL    HW135510   2.265   1.083   5.197 -1.6221  0.2195  0.4703
 7959SOL    HW235511   2.254   1.176   5.079  0.0046 -1.6830  0.5266
 7960SOL     OW35512   0.676   2.142  11.022  0.2399 -0.3875  0.1954
 7960SOL    HW135513   0.610   2.094  10.973  0.9514 -0.6691 -0.4915
 7960SOL    HW235514   0.675   2.098  11.107  0.9420 -0.9079 -0.0705
 7961SOL     OW35515   3.723   2.420   2.097 -0.6409 -0.1988  0.1208
 7961SOL    HW135516   3.703   2.508   2.065  1.6510 -0.0276 -0.8388
 7961SOL    HW235517   3.656   2.392   2.159  0.5979 -0.9335  1.1367
 7962SOL     OW35518   3.538   2.837   3.754 -0.0024  0.0066  0.1948
 7962SOL    HW135519   3.539   2.855   3.848 -2.0276  1.6302 -0.0985
 7962SOL    HW235520   3.537   2.926   3.717  0.4796  0.2958  0.8831
 7963SOL     OW35521   3.791   2.641  13.221 -0.0463  0.9521 -0.3993
 7963SOL    HW135522   3.752   2.696  13.154 -0.2273  0.8347 -0.3900
 7963SOL    HW235523   3.828   2.567  13.173 -1.6528  0.4036 -0.7627
 7964SOL     OW35524   2.973   3.446  15.409 -0.1328  0.1376  0.0909
 7964SOL    HW135525   3.051   3.501  15.399  0.1410 -0.3299 -0.3641
 7964SOL    HW235526   3.001   3.406  15.491  0.5931 -1.0719 -0.7321
 7965SOL     OW35527   3.819   1.966   3.136 -0.4795 -0.3966 -0.2197
 7965SOL    HW135528   3.850   1.892   3.189  0.5500 -0.8028 -1.3856
 7965SOL    HW235529   3.778   1.922   3.061 -0.7881 -2.1238  0.9504
 7966SOL     OW35530   0.594   1.840   8.389  0.1355  0.9341 -0.4271
 7966SOL    HW135531   0.634   1.895   8.322  1.0780  1.8977  0.9302
 7966SOL    HW235532   0.629   1.876   8.470 -1.4425 -0.8454  1.0689
 7967SOL     OW35533   4.080   4.160   5.542 -0.2538  0.2894  0.4076
 7967SOL    HW135534   4.123   4.117   5.616  2.6364  0.9109 -0.8869
 7967SOL    HW235535   4.140   4.234   5.533 -0.4125  0.2148 -1.2845
 7968SOL     OW35536   4.337   0.779  14.204  0.1308 -0.1580 -0.0865
 7968SOL    HW135537   4.325   0.829  14.123 -3.1573  0.5419  0.8114
 7968SOL    HW235538   4.269   0.714  14.187  0.8339 -1.0125  0.3939
 7969SOL     OW35539   0.199   1.100   0.474  0.4834 -0.5490 -0.0159
 7969SOL    HW135540   0.168   1.137   0.557  0.5198 -0.7756  0.0967
 7969SOL    HW235541   0.224   1.009   0.488 -0.7885 -0.8451  0.3191
 7970SOL     OW35542   3.979   1.990   1.645 -0.0285  0.4736  0.1674
 7970SOL    HW135543   3.935   2.024   1.723 -0.1737 -0.7790  0.6320
 7970SOL    HW235544   3.935   2.031   1.571  0.6683 -0.7360 -0.9058
 7971SOL     OW35545   3.158   3.328  11.840 -0.0445 -0.9015 -0.2114
 7971SOL    HW135546   3.102   3.369  11.774  0.5640 -1.4436 -1.0617
 7971SOL    HW235547   3.238   3.378  11.829 -0.3479 -0.2476  0.5062
 7972SOL     OW35548   1.820   1.223   4.240 -0.3769 -0.4847 -0.3966
 7972SOL    HW135549   1.913   1.222   4.263 -0.5899  1.6631  0.5205
 7972SOL    HW235550   1.777   1.211   4.325  0.6320  0.9146  0.3087
 7973SOL     OW35551   1.284   1.780  17.730 -0.3189 -0.9401 -0.0068
 7973SOL    HW135552   1.354   1.732   0.036  0.4432 -0.2008 -0.4097
 7973SOL    HW235553   1.314   1.772  17.640  1.8154 -0.9105  0.6989
 7974SOL     OW35554   2.248   1.260   9.307  0.5641 -0.0987  0.0114
 7974SOL    HW135555   2.189   1.320   9.355  0.0937  0.4857 -1.3058
 7974SOL    HW235556   2.323   1.245   9.364  0.9865 -0.5857 -0.6889
 7975SOL     OW35557   4.632   0.235  17.305  0.4711 -0.2908 -0.2481
 7975SOL    HW135558   4.692   0.188  17.248 -0.9851 -1.7427 -0.5479
 7975SOL    HW235559   4.580   0.159  17.331  0.5873 -0.0333  0.7626
 7976SOL     OW35560   0.095   1.155   8.589 -0.2666 -0.2547 -0.0237
 7976SOL    HW135561   0.035   1.117   8.525 -0.8861  0.9095 -0.1540
 7976SOL    HW235562   0.171   1.170   8.533 -1.2699 -0.1624 -1.3502
 7977SOL     OW35563   4.508   3.306   7.795  0.0957 -0.2597  0.1670
 7977SOL    HW135564   4.531   3.390   7.835 -0.8316  0.7231 -1.3910
 7977SOL    HW235565   4.594   3.264   7.796  1.3404  2.3282  2.5461
 7978SOL     OW35566   0.512   3.826   8.407 -0.4284  0.1059 -0.8963
 7978SOL    HW135567   0.539   3.899   8.463  0.5144  1.0317 -2.5510
 7978SOL    HW235568   0.567   3.752   8.431  1.2299  1.6122 -0.0700
 7979SOL     OW35569   3.079   0.127  16.388  0.0284 -0.7276 -0.0914
 7979SOL    HW135570   3.060   0.160  16.475 -1.6915  0.0055 -0.7345
 7979SOL    HW235571   3.078   0.210  16.340  1.3121 -0.5697  0.1373
 7980SOL     OW35572   2.276   2.420  12.991 -0.1624 -0.6317  0.6578
 7980SOL    HW135573   2.261   2.509  13.024  1.7964  0.3754 -1.2211
 7980SOL    HW235574   2.268   2.428  12.896 -1.7390  0.3030  0.8743
 7981SOL     OW35575   0.796   4.268   1.379 -0.3063 -0.9378  0.1716
 7981SOL    HW135576   0.774   4.270   1.472  2.7776  0.8835  0.8563
 7981SOL    HW235577   0.718   4.312   1.345  1.0608 -0.0559 -1.8117
 7982SOL     OW35578   0.651   0.411   6.499 -0.2970  0.0179 -0.5843
 7982SOL    HW135579   0.581   0.346   6.498  1.4601 -1.8763  0.1270
 7982SOL    HW235580   0.612   0.478   6.554 -2.1408 -1.6537  0.1631
 7983SOL     OW35581   0.339   1.026   4.215  0.2301 -0.0645  0.3847
 7983SOL    HW135582   0.260   1.046   4.166  0.0732 -3.4880 -0.7907
 7983SOL    HW235583   0.399   1.083   4.167 -0.4460 -1.4569 -2.1192
 7984SOL     OW35584   1.593   2.008   4.834 -0.7042  0.7076 -0.0127
 7984SOL    HW135585   1.531   1.978   4.900 -2.0589 -0.1990 -1.6725
 7984SOL    HW235586   1.676   1.993   4.879 -0.7268 -0.7265 -0.4584
 7985SOL     OW35587   0.486   0.942   3.818  0.7301  0.4049  0.1085
 7985SOL    HW135588   0.505   0.902   3.903 -0.8118  0.2868  0.4000
 7985SOL    HW235589   0.521   1.031   3.828 -1.2996  1.5056 -2.4764
 7986SOL     OW35590   2.312   0.176   6.386  0.1414  0.5176  0.2602
 7986SOL    HW135591   2.331   0.215   6.471 -0.1752  0.1509  0.4933
 7986SOL    HW235592   2.323   0.085   6.412 -1.5283  0.1266 -0.4317
 7987SOL     OW35593   1.047   3.739   5.271  0.1221  0.2456  0.3442
 7987SOL    HW135594   1.138   3.727   5.299 -0.5442 -0.0817  2.4212
 7987SOL    HW235595   1.019   3.665   5.325 -2.3698  0.8036 -0.1846
 7988SOL     OW35596   3.222   2.824   4.903  0.7624 -0.3450  0.4999
 7988SOL    HW135597   3.170   2.761   4.853  1.0309  2.0992 -2.8349
 7988SOL    HW235598   3.166   2.901   4.896 -0.3238 -1.1905 -0.0596
 7989SOL     OW35599   3.629   1.160  11.710 -0.0743  0.0887 -0.5357
 7989SOL    HW135600   3.703   1.215  11.684  0.6372 -0.6304 -0.0206
 7989SOL    HW235601   3.655   1.139  11.800 -2.8648  3.5182  1.0987
 7990SOL     OW35602   3.553   0.427   4.926 -0.0001  0.1826  1.4062
 7990SOL    HW135603   3.532   0.333   4.926 -3.0947  0.8912 -1.9144
 7990SOL    HW235604   3.631   0.412   4.873 -0.7897 -1.0685  0.5916
 7991SOL     OW35605   3.253   1.667   4.568  0.0590  0.6033 -0.2074
 7991SOL    HW135606   3.186   1.612   4.608 -0.2260  0.3082 -1.1034
 7991SOL    HW235607   3.231   1.753   4.604  1.7901  0.1554  1.9672
 7992SOL     OW35608   0.214   2.307   8.847 -0.1256 -0.2486 -0.4635
 7992SOL    HW135609   0.207   2.383   8.905  0.2492 -0.6618  0.1189
 7992SOL    HW235610   0.181   2.348   8.767  1.7627 -0.9466 -1.5882
 7993SOL     OW35611   2.599   0.724  12.841 -0.0531 -0.0638 -0.4159
 7993SOL    HW135612   2.651   0.685  12.772 -1.0554  1.4589 -2.0194
 7993SOL    HW235613   2.587   0.653  12.905 -0.2204  1.0374  0.7817
 7994SOL     OW35614   1.571   1.247   5.463 -0.4391 -0.3112 -0.5418
 7994SOL    HW135615   1.527   1.163   5.449 -2.7612  0.6596  0.7919
 7994SOL    HW235616   1.588   1.262   5.370 -0.6054  1.4963 -0.2841
 7995SOL     OW35617   4.044   3.364  11.897 -0.4921 -0.2452  0.0593
 7995SOL    HW135618   4.082   3.444  11.862  0.1243 -0.0886  1.0897
 7995SOL    HW235619   4.027   3.315  11.817 -1.2121  0.1700 -0.0455
 7996SOL     OW35620   1.443   4.165  14.905 -0.0912 -0.1827  0.2875
 7996SOL    HW135621   1.409   4.076  14.895  2.5130 -1.3768  1.9490
 7996SOL    HW235622   1.484   4.174  14.819  1.0427 -2.1305  0.6136
 7997SOL     OW35623   0.211   4.585   6.372 -0.0574 -0.0424  0.6332
 7997SOL    HW135624   0.226   4.652   6.439 -0.3517 -2.4068  3.0718
 7997SOL    HW235625   0.120   4.573   6.400  0.1883 -1.8848  0.6103
 7998SOL     OW35626   3.632   1.151   6.117 -0.1210 -0.0277 -0.0567
 7998SOL    HW135627   3.603   1.061   6.128  1.7108 -0.6756 -0.5414
 7998SOL    HW235628   3.675   1.150   6.032 -0.5492  2.4497 -0.3031
 7999SOL     OW35629   1.546   0.577  13.207  0.1675  1.3655 -0.2807
 7999SOL    HW135630   1.599   0.499  13.223 -2.3055 -0.3844 -0.6415
 7999SOL    HW235631   1.458   0.544  13.227 -0.1028  0.9256 -2.1570
 8000SOL     OW35632   1.986   3.172   9.712  0.4218  0.6794  0.1796
 8000SOL    HW135633   1.980   3.252   9.660  2.3625  0.4532 -0.4057
 8000SOL    HW235634   2.005   3.206   9.799  0.0694  0.3320  0.3924
 8001SOL     OW35635   0.658   1.036   4.413  0.4887 -0.0100  0.3160
 8001SOL    HW135636   0.723   1.037   4.343 -0.8270  0.5614 -0.9059
 8001SOL    HW235637   0.618   1.123   4.408 -1.1805 -0.8735 -1.2229
 8002SOL     OW35638   2.863   4.003   1.871  0.1876 -0.0135  0.0721
 8002SOL    HW135639   2.895   3.913   1.879 -1.6060 -0.5984  0.5121
 8002SOL    HW235640   2.941   4.054   1.848  0.7906 -0.8726  0.2270
 8003SOL     OW35641   0.151   3.161   3.917 -0.4212 -0.0406 -0.4095
 8003SOL    HW135642   0.123   3.231   3.859  2.1777  1.0360 -0.3729
 8003SOL    HW235643   0.209   3.118   3.853 -0.5415 -1.1156  0.1936
 8004SOL     OW35644   1.744   0.141  16.782 -0.2148 -0.2051 -0.0914
 8004SOL    HW135645   1.799   0.151  16.704  0.2870 -0.4319  0.2338
 8004SOL    HW235646   1.791   0.199  16.842 -1.7439 -0.4802  1.3726
 8005SOL     OW35647   1.392   0.081   1.246  0.0903  0.3120  0.2318
 8005SOL    HW135648   1.458   0.134   1.202  0.9972 -1.1307 -0.1461
 8005SOL    HW235649   1.325   0.079   1.178 -0.1118  1.2592  0.4091
 8006SOL     OW35650   0.919   4.552   7.110  0.3957 -0.6632  0.2025
 8006SOL    HW135651   0.840   4.598   7.138  0.3192  0.4828 -1.8365
 8006SOL    HW235652   0.966   4.618   7.059 -0.1326 -2.7644 -3.0379
 8007SOL     OW35653   0.757   1.799  17.502  0.4688 -0.3620 -0.4917
 8007SOL    HW135654   0.810   1.766  17.430  2.0019 -0.0657  0.4829
 8007SOL    HW235655   0.765   1.726  17.564  0.3832  1.4836  1.6944
 8008SOL     OW35656   1.495   1.219   1.270  0.0505 -0.6905  0.6198
 8008SOL    HW135657   1.453   1.136   1.248  1.2426 -0.7695 -1.4270
 8008SOL    HW235658   1.465   1.264   1.191 -0.1787  1.3406  1.8656
 8009SOL     OW35659   1.039   1.774  11.530  0.1343  0.0904  0.2143
 8009SOL    HW135660   0.974   1.704  11.522  0.3260 -0.1274  0.5115
 8009SOL    HW235661   1.101   1.739  11.594  1.1005 -0.7221 -1.1809
 8010SOL     OW35662   2.944   0.377   0.912 -0.3406  0.5009  0.0343
 8010SOL    HW135663   2.907   0.456   0.873  1.3822  1.5279  0.4686
 8010SOL    HW235664   2.900   0.364   0.996 -0.5614 -2.1555 -0.4814
 8011SOL     OW35665   0.338   0.205  16.701 -0.6729  0.0088 -0.5279
 8011SOL    HW135666   0.392   0.137  16.661 -0.1554  1.1031 -1.6711
 8011SOL    HW235667   0.397   0.276  16.726 -0.1212 -0.5554 -0.2190
 8012SOL     OW35668   1.305   0.685  15.633  0.3596 -0.4758 -0.0153
 8012SOL    HW135669   1.257   0.623  15.688  0.0494 -1.2721 -1.1764
 8012SOL    HW235670   1.240   0.737  15.587 -0.9397 -2.8806 -0.8866
 8013SOL     OW35671   0.095   1.065   2.825  0.1360  0.0152  0.3007
 8013SOL    HW135672   0.138   1.082   2.909 -1.0221  2.0467  0.4806
 8013SOL    HW235673   0.125   1.138   2.770 -0.3372 -0.8267 -1.0658
 8014SOL     OW35674   0.337   1.505   1.859 -0.3593 -0.7515  0.3336
 8014SOL    HW135675   0.263   1.451   1.832 -2.7102  2.2073  0.8015
 8014SOL    HW235676   0.306   1.529   1.946 -0.4232 -2.0159  0.6535
 8015SOL     OW35677   4.539   3.160   6.444 -0.2540 -0.1673  1.2471
 8015SOL    HW135678   4.470   3.137   6.382  1.1093 -1.8841  0.3529
 8015SOL    HW235679   4.523   3.253   6.457 -0.2858  0.4752 -3.3105
 8016SOL     OW35680   3.478   0.393  10.923  0.2586 -0.3770 -0.9732
 8016SOL    HW135681   3.503   0.380  11.015  1.8722  1.6941 -1.1257
 8016SOL    HW235682   3.434   0.477  10.918  0.6743 -0.1531 -0.8886
 8017SOL     OW35683   3.835   3.395   5.067  0.1013  0.2785 -0.0201
 8017SOL    HW135684   3.845   3.390   4.972  0.3239 -4.0080  0.2642
 8017SOL    HW235685   3.883   3.323   5.107  0.4766  0.8398  0.5362
 8018SOL     OW35686   1.267   0.822   8.520  0.7163 -0.3629  0.1959
 8018SOL    HW135687   1.260   0.739   8.568 -1.1731 -0.5411 -0.3576
 8018SOL    HW235688   1.357   0.846   8.541  1.5704 -0.2482 -3.5229
 8019SOL     OW35689   1.902   3.472   8.237  0.0194  0.2883 -0.0426
 8019SOL    HW135690   1.820   3.423   8.236  0.5601 -0.6323  2.4295
 8019SOL    HW235691   1.860   3.557   8.223 -0.5466 -0.1228 -0.8750
 8020SOL     OW35692   4.160   2.035   8.950  0.6125  0.9720 -0.6075
 8020SOL    HW135693   4.073   2.041   8.989  0.0901 -0.5937 -1.4977
 8020SOL    HW235694   4.213   2.036   9.029  1.2115 -1.8113 -0.9635
 8021SOL     OW35695   1.479   0.510  11.849  0.1065 -0.3232  0.9241
 8021SOL    HW135696   1.429   0.447  11.901  1.7780 -1.7406  0.8155
 8021SOL    HW235697   1.472   0.580  11.914  0.3800 -0.2231  0.8440
 8022SOL     OW35698   3.000   2.372   5.730 -0.8362  0.5067 -0.0386
 8022SOL    HW135699   2.977   2.385   5.638  1.4053 -0.3398 -0.7157
 8022SOL    HW235700   3.095   2.361   5.728 -0.8892  0.0848 -0.2080
 8023SOL     OW35701   2.220   2.771  10.391  0.2042  0.1833 -0.3928
 8023SOL    HW135702   2.221   2.675  10.394 -2.5434  0.1891  0.6869
 8023SOL    HW235703   2.294   2.791  10.448  0.8714 -3.0875 -0.0880
 8024SOL     OW35704   2.886   0.922   5.323 -0.2872  0.1871 -0.0064
 8024SOL    HW135705   2.895   0.926   5.228 -0.2781 -1.8184 -0.0812
 8024SOL    HW235706   2.808   0.976   5.338 -0.4697 -0.2027  0.4553
 8025SOL     OW35707   1.566   4.660   0.267 -0.6480  0.5157  0.0623
 8025SOL    HW135708   1.504   4.593   0.295 -0.4788  0.6434  0.7450
 8025SOL    HW235709   1.564   4.650   0.172 -1.0026 -0.6219  0.1892
 8026SOL     OW35710   3.853   0.276   6.511  0.8652  0.2665  0.3102
 8026SOL    HW135711   3.787   0.338   6.481  1.6673  1.4449  0.9902
 8026SOL    HW235712   3.912   0.341   6.548  0.8326  2.0409 -2.7675
 8027SOL     OW35713   0.028   1.723   1.273 -0.0796 -0.0007 -0.4087
 8027SOL    HW135714   4.685   1.755   1.227 -0.5171  0.5756  0.7319
 8027SOL    HW235715   0.101   1.778   1.244 -0.4982  0.3366 -0.8329
 8028SOL     OW35716   3.837   0.167  16.416 -0.0631  0.1829 -0.0264
 8028SOL    HW135717   3.910   0.194  16.360  0.8388 -2.1165  0.0539
 8028SOL    HW235718   3.780   0.244  16.421 -0.4797 -0.1930  0.9635
 8029SOL     OW35719   2.007   1.296  12.631  0.6041  0.4121  0.2315
 8029SOL    HW135720   2.013   1.204  12.656  0.3169  0.1719 -0.5583
 8029SOL    HW235721   1.940   1.284  12.563  3.2126 -4.5742 -1.4436
 8030SOL     OW35722   0.620   4.047  14.910  0.2325  0.0275  0.3467
 8030SOL    HW135723   0.582   4.027  14.996 -2.9523 -3.7719 -1.9439
 8030SOL    HW235724   0.706   4.071  14.943  0.5837 -2.2219  1.0519
 8031SOL     OW35725   1.753   3.928   3.004 -0.0907  0.7839 -0.5590
 8031SOL    HW135726   1.786   3.923   3.094 -0.8966 -0.5139 -0.3463
 8031SOL    HW235727   1.787   3.848   2.965 -2.5794  0.4052 -1.9372
 8032SOL     OW35728   2.027   3.935   3.275  0.4624 -0.3146 -0.1621
 8032SOL    HW135729   1.933   3.931   3.258  0.5556  2.7813 -1.5308
 8032SOL    HW235730   2.053   4.025   3.252 -0.5751 -0.1301 -0.5959
 8033SOL     OW35731   3.738   4.079   3.170  0.0532 -0.4241  0.4033
 8033SOL    HW135732   3.771   4.093   3.259 -1.5292  0.3453  0.8802
 8033SOL    HW235733   3.652   4.122   3.170 -0.5376 -1.6213 -0.1575
 8034SOL     OW35734   0.147   4.665   8.835  0.3374 -0.0538 -0.1451
 8034SOL    HW135735   0.189   4.728   8.777  0.0881  0.7059  0.4955
 8034SOL    HW235736   0.212   4.594   8.835 -0.9565 -1.2476  0.7028
 8035SOL     OW35737   4.385   1.290   8.296 -0.4775 -0.4789  0.1972
 8035SOL    HW135738   4.440   1.354   8.342 -0.3982 -1.1843  1.1029
 8035SOL    HW235739   4.396   1.218   8.358 -3.4139 -0.3481  0.8701
 8036SOL     OW35740   3.260   3.936   8.811 -0.0762  0.3034 -0.2559
 8036SOL    HW135741   3.179   3.974   8.844  0.9836 -0.0988  2.8118
 8036SOL    HW235742   3.315   4.014   8.806 -1.2422  1.1371 -0.0095
 8037SOL     OW35743   3.804   1.932   8.166  0.0908  0.2559  0.3059
 8037SOL    HW135744   3.792   2.020   8.202 -0.5607 -0.1278  1.0434
 8037SOL    HW235745   3.842   1.896   8.246  1.0011 -0.7926 -0.5928
 8038SOL     OW35746   0.428   0.239   9.882 -0.8861 -0.0290  0.3098
 8038SOL    HW135747   0.410   0.332   9.867 -1.3029 -0.1483  0.0989
 8038SOL    HW235748   0.450   0.228   9.975  1.9035 -1.4093 -0.5077
 8039SOL     OW35749   2.700   2.346   6.941  0.5018  0.1340  0.1448
 8039SOL    HW135750   2.769   2.369   6.879  0.0738 -0.3589 -0.5156
 8039SOL    HW235751   2.646   2.424   6.928 -0.1065 -0.2151  0.5426
 8040SOL     OW35752   2.911   4.596  10.734 -0.7930  0.2599 -0.0415
 8040SOL    HW135753   2.897   4.690  10.732  0.1734  0.3997 -0.0405
 8040SOL    HW235754   2.850   4.562  10.669 -1.1750 -3.1551  2.0939
 8041SOL     OW35755   0.871   0.266   0.294 -0.2561 -0.7413 -0.5890
 8041SOL    HW135756   0.868   0.306   0.381 -0.6281 -0.8129 -0.5680
 8041SOL    HW235757   0.778   0.253   0.278 -0.2880 -0.3602 -0.7157
 8042SOL     OW35758   4.606   0.398  14.131 -0.3455  0.6014  1.1301
 8042SOL    HW135759   4.685   0.345  14.133  0.4958  1.9015  2.5632
 8042SOL    HW235760   4.640   0.480  14.164  1.1845  0.6168 -0.5228
 8043SOL     OW35761   1.775   0.914   8.127 -0.4031 -0.0189 -0.5562
 8043SOL    HW135762   1.730   0.844   8.175 -1.2277 -1.1108 -2.9164
 8043SOL    HW235763   1.865   0.892   8.153 -0.3280 -0.3972 -1.1169
 8044SOL     OW35764   0.307   2.503   9.350  0.1234  0.6471 -0.0996
 8044SOL    HW135765   0.292   2.452   9.270  0.1362 -0.3696  0.5470
 8044SOL    HW235766   0.361   2.441   9.400 -0.5809  0.8210  0.8834
 8045SOL     OW35767   3.053   3.550  16.748  0.2432  0.5917 -0.6940
 8045SOL    HW135768   3.146   3.549  16.772  0.0502 -0.2819  0.0263
 8045SOL    HW235769   3.036   3.466  16.791  0.2177 -1.3526 -4.4561
 8046SOL     OW35770   2.317   1.007   7.974 -0.4780  0.4921 -0.4764
 8046SOL    HW135771   2.255   1.059   7.923  0.0785  0.2772 -1.3855
 8046SOL    HW235772   2.281   1.033   8.059 -0.1653  0.9426 -0.4795
 8047SOL     OW35773   2.873   0.149   6.210 -0.2960  0.3301  0.2468
 8047SOL    HW135774   2.814   0.202   6.264 -3.7391 -1.5642 -1.6977
 8047SOL    HW235775   2.895   0.075   6.267 -2.1601 -1.8939 -1.9414
 8048SOL     OW35776   3.073   0.156   8.487  0.1696 -0.0694 -0.0108
 8048SOL    HW135777   3.145   0.161   8.550  1.1577 -1.1021 -1.0604
 8048SOL    HW235778   3.087   0.066   8.459  2.2204  1.4852 -3.8847
 8049SOL     OW35779   1.719   3.994   7.410 -0.1236  0.3471  0.0968
 8049SOL    HW135780   1.807   3.970   7.440 -0.1731  0.1568  0.0860
 8049SOL    HW235781   1.741   4.076   7.365 -0.1661  1.4301  2.0383
 8050SOL     OW35782   1.094   3.273   4.872 -0.0382 -0.2360 -0.0015
 8050SOL    HW135783   1.164   3.240   4.929  0.0269 -3.1845 -1.7521
 8050SOL    HW235784   1.145   3.310   4.800  2.2436 -0.7461  1.3240
 8051SOL     OW35785   2.106   2.471   9.633  0.3548  0.0779  0.3241
 8051SOL    HW135786   2.044   2.461   9.705 -0.2839 -2.9297 -0.6592
 8051SOL    HW235787   2.134   2.380   9.623 -0.9084 -0.3205  0.4404
 8052SOL     OW35788   1.543   2.786   9.929 -0.2906 -0.7151  0.5218
 8052SOL    HW135789   1.573   2.753   9.844  0.2499 -1.6734  1.0950
 8052SOL    HW235790   1.505   2.872   9.909  0.5286 -0.7291 -1.0557
 8053SOL     OW35791   2.933   0.030   9.572 -0.3422  0.5960  0.5181
 8053SOL    HW135792   2.968   4.676   9.571  0.0724  0.7572  0.7649
 8053SOL    HW235793   2.988   0.080   9.512  0.1064  0.0051  0.4403
 8054SOL     OW35794   1.157   0.842  14.351 -0.4931 -0.1016 -0.1947
 8054SOL    HW135795   1.092   0.898  14.308 -0.4229 -1.6456 -2.3029
 8054SOL    HW235796   1.151   0.882  14.438 -1.4807 -1.0418  0.1692
 8055SOL     OW35797   1.426   0.565   9.337 -0.0628 -0.1647 -0.5374
 8055SOL    HW135798   1.455   0.618   9.262  0.1676 -1.8539 -1.6420
 8055SOL    HW235799   1.388   0.490   9.292  0.6824 -1.2540  0.6781
 8056SOL     OW35800   2.162   4.231   1.881 -0.1215 -0.3972  0.2101
 8056SOL    HW135801   2.188   4.192   1.964 -0.7395 -0.4090  0.3928
 8056SOL    HW235802   2.223   4.305   1.881  0.4723 -0.8805  4.2661
 8057SOL     OW35803   3.266   2.559   8.256  0.1301  0.5779 -0.1747
 8057SOL    HW135804   3.312   2.476   8.257 -0.7074  0.1135 -0.0620
 8057SOL    HW235805   3.194   2.531   8.199 -0.9414 -1.1426  2.0538
 8058SOL     OW35806   2.234   2.038   0.182 -0.3346 -0.1611 -0.1030
 8058SOL    HW135807   2.203   1.997   0.101 -0.5950 -0.9597  0.3928
 8058SOL    HW235808   2.257   2.125   0.149  1.9647 -1.0541 -0.8795
 8059SOL     OW35809   1.505   3.203   4.397 -0.5323  1.0600 -0.3012
 8059SOL    HW135810   1.596   3.181   4.376 -1.6935 -1.9461 -2.1863
 8059SOL    HW235811   1.449   3.127   4.386  0.0816  0.4430  0.7912
 8060SOL     OW35812   0.453   1.812  11.648 -0.1034  0.4375  0.2096
 8060SOL    HW135813   0.509   1.752  11.697 -0.8334  0.3471  0.9257
 8060SOL    HW235814   0.366   1.772  11.659  0.7542 -1.7607 -1.0031
 8061SOL     OW35815   2.612   2.719   9.234 -0.0608 -0.1017  0.8234
 8061SOL    HW135816   2.601   2.629   9.265 -1.3518 -0.2483 -0.0659
 8061SOL    HW235817   2.661   2.697   9.155 -0.3603 -0.1557  0.6523
 8062SOL     OW35818   1.520   1.156   2.852 -0.3121 -0.0773 -0.2040
 8062SOL    HW135819   1.545   1.248   2.848 -0.8867  0.1174  0.6842
 8062SOL    HW235820   1.600   1.123   2.892 -0.7547 -1.3179 -0.3503
 8063SOL     OW35821   0.451   0.217   6.499  0.2167  0.1064 -0.4170
 8063SOL    HW135822   0.418   0.128   6.503  0.3873 -0.0184 -1.8662
 8063SOL    HW235823   0.384   0.257   6.444 -0.0770  0.9668  0.5606
 8064SOL     OW35824   3.429   1.888  12.805 -0.0432 -0.0873  0.6530
 8064SOL    HW135825   3.420   1.841  12.723  0.1194  0.8179  0.1098
 8064SOL    HW235826   3.346   1.937  12.808  0.1961  0.2480  2.2262
 8065SOL     OW35827   0.202   3.038   0.773  0.5014 -0.4404  0.4813
 8065SOL    HW135828   0.127   3.068   0.721  0.7885 -2.3100 -1.0178
 8065SOL    HW235829   0.256   3.001   0.703 -1.2014 -2.2856  0.1514
 8066SOL     OW35830   0.193   1.958   2.120 -0.0923 -0.2127  0.1850
 8066SOL    HW135831   0.288   1.961   2.131 -0.2324  0.9801  1.1107
 8066SOL    HW235832   0.187   1.924   2.031  1.8678 -0.7417  0.2716
 8067SOL     OW35833   1.066   1.711   7.601  0.5915 -0.3139  0.0172
 8067SOL    HW135834   1.053   1.719   7.506  0.1515  0.3923  0.1388
 8067SOL    HW235835   1.031   1.623   7.612  0.5600 -0.4619 -1.1906
 8068SOL     OW35836   2.442   3.434   7.746 -0.1658 -0.2064 -0.6927
 8068SOL    HW135837   2.501   3.382   7.691  0.2618  1.7556 -2.1104
 8068SOL    HW235838   2.499   3.509   7.765 -0.7527  0.8449 -3.0948
 8069SOL     OW35839   2.116   4.671   3.313 -0.0171 -0.2060 -0.3208
 8069SOL    HW135840   2.024   4.697   3.305 -0.2592 -0.5324  1.3588
 8069SOL    HW235841   2.125   4.584   3.273 -0.3374 -1.6035  2.6436
 8070SOL     OW35842   4.635   4.728   1.434 -0.0699  0.0768  0.1628
 8070SOL    HW135843   4.682   4.656   1.393 -0.9802  0.0423 -0.8442
 8070SOL    HW235844   4.582   0.018   1.358 -1.5015 -1.7691  0.5488
 8071SOL     OW35845   2.845   2.095   0.379  0.1244 -0.3528 -0.3972
 8071SOL    HW135846   2.849   2.004   0.409  0.3964  0.0129  0.6804
 8071SOL    HW235847   2.752   2.114   0.391 -0.0448 -1.2924 -0.2404
 8072SOL     OW35848   3.637   3.859  15.340 -0.2891  0.2510 -0.3160
 8072SOL    HW135849   3.661   3.942  15.300  3.0006  0.1394  1.4373
 8072SOL    HW235850   3.598   3.811  15.267  0.8985 -0.1451 -0.6905
 8073SOL     OW35851   3.520   3.918  16.472 -0.3721  0.1681 -0.5586
 8073SOL    HW135852   3.533   3.853  16.541  1.1192 -1.0803 -2.0134
 8073SOL    HW235853   3.548   4.003  16.507  2.3556 -0.1886 -1.8907
 8074SOL     OW35854   0.666   4.669   6.791 -0.0593 -0.3492 -1.0034
 8074SOL    HW135855   0.726   0.002   6.762  1.0518 -1.1481 -0.5860
 8074SOL    HW235856   0.716   4.589   6.779  0.9725  0.1713 -0.0599
 8075SOL     OW35857   0.871   4.166  17.037 -0.0343 -0.1062 -0.8184
 8075SOL    HW135858   0.805   4.139  17.100 -1.3385  2.2719 -1.1399
 8075SOL    HW235859   0.920   4.225  17.094 -1.4368 -0.2552  0.5366
 8076SOL     OW35860   3.950   3.975   4.513 -0.2547  0.0986 -0.2767
 8076SOL    HW135861   3.912   4.050   4.559  0.7605  1.1267 -1.1209
 8076SOL    HW235862   4.010   4.015   4.450 -0.9834  0.6616 -0.6126
 8077SOL     OW35863   1.037   1.036   8.639 -0.4901  0.0981 -0.4777
 8077SOL    HW135864   1.085   0.962   8.602 -0.6619 -0.5689  0.6311
 8077SOL    HW235865   1.086   1.107   8.597  2.7388 -2.1576 -0.5512
 8078SOL     OW35866   4.235   2.935   6.015 -0.1215  0.2022  0.6856
 8078SOL    HW135867   4.170   2.954   5.948  0.2244  0.5722  0.4505
 8078SOL    HW235868   4.185   2.894   6.086 -1.2638 -0.0409 -0.2735
 8079SOL     OW35869   4.485   3.404  13.199  0.2829  0.1753 -0.2804
 8079SOL    HW135870   4.570   3.448  13.195 -0.0291  0.7012 -1.0275
 8079SOL    HW235871   4.437   3.471  13.246  0.9012  1.4860 -1.5071
 8080SOL     OW35872   3.879   3.352   4.753  0.6122  0.2957 -0.0624
 8080SOL    HW135873   3.862   3.260   4.733 -0.5879  0.1980  1.4005
 8080SOL    HW235874   3.864   3.391   4.667  0.3825  0.1995 -0.0654
 8081SOL     OW35875   0.592   4.056  12.807  0.1583  0.1569  0.2931
 8081SOL    HW135876   0.622   3.975  12.765 -0.5503  0.5794 -1.0537
 8081SOL    HW235877   0.604   4.018  12.893  1.1220  0.3909  0.2563
 8082SOL     OW35878   3.387   1.749   6.532 -0.0625 -0.3579  0.0589
 8082SOL    HW135879   3.391   1.674   6.592 -1.5623  0.2223  0.8562
 8082SOL    HW235880   3.316   1.724   6.474  1.8546 -2.3853 -1.4494
 8083SOL     OW35881   4.140   0.025  11.562 -0.0015 -0.2074 -0.2051
 8083SOL    HW135882   4.159   0.055  11.474 -1.0263 -0.2104 -0.4254
 8083SOL    HW235883   4.179   4.672  11.560 -0.6628 -0.5000 -0.1803
 8084SOL     OW35884   2.911   1.564   7.026  0.1018  0.2488  0.5057
 8084SOL    HW135885   2.895   1.477   7.064  1.8795 -0.5568 -0.5660
 8084SOL    HW235886   2.822   1.597   7.034 -0.1362 -0.1512 -0.5273
 8085SOL     OW35887   1.815   1.510   6.725 -0.1944  0.3174  0.2126
 8085SOL    HW135888   1.749   1.573   6.695 -1.7880 -1.2729  0.3903
 8085SOL    HW235889   1.897   1.558   6.715 -0.3743  0.7568  0.7931
 8086SOL     OW35890   0.495   2.618   5.114  0.0068 -0.1380  0.5632
 8086SOL    HW135891   0.441   2.544   5.087  0.9537 -0.3318 -0.8007
 8086SOL    HW235892   0.477   2.618   5.208 -0.0949  1.2488  0.5436
 8087SOL     OW35893   3.714   3.338   8.207  0.4690 -0.3793  0.0056
 8087SOL    HW135894   3.725   3.430   8.232 -0.9662  0.0426 -0.9462
 8087SOL    HW235895   3.619   3.337   8.222  0.3858  1.2711 -0.3665
 8088SOL     OW35896   2.855   3.423   4.224 -0.0038 -0.7225 -0.1775
 8088SOL    HW135897   2.925   3.391   4.167  0.4760  1.0266 -0.5650
 8088SOL    HW235898   2.844   3.515   4.198  0.5875 -0.4376  0.6162
 8089SOL     OW35899   0.179   1.992   7.301  0.1790 -0.3095  0.1681
 8089SOL    HW135900   0.104   2.046   7.276 -1.1414 -1.1075  2.3807
 8089SOL    HW235901   0.243   2.012   7.233  1.0000  1.0228  1.3196
 8090SOL     OW35902   1.846   3.162  13.462  0.3383 -0.1156 -0.4619
 8090SOL    HW135903   1.921   3.199  13.508 -2.3543  2.4580  1.8138
 8090SOL    HW235904   1.818   3.088  13.515 -0.8573 -0.7464 -1.9547
 8091SOL     OW35905   3.902   0.970   8.485  0.0872  0.2775  0.0175
 8091SOL    HW135906   3.973   1.003   8.429 -2.0106 -0.7882 -3.3048
 8091SOL    HW235907   3.890   1.041   8.547  1.5461 -0.0743  0.7024
 8092SOL     OW35908   0.950   0.779   0.970 -0.6539 -0.1335 -0.1647
 8092SOL    HW135909   0.905   0.806   1.050 -0.3142 -0.9445  0.3145
 8092SOL    HW235910   0.893   0.815   0.903  1.1337  0.9528 -1.0775
 8093SOL     OW35911   0.260   4.416   7.420 -0.3035  0.3442  0.0713
 8093SOL    HW135912   0.206   4.490   7.446 -2.3631 -1.3116  0.5575
 8093SOL    HW235913   0.253   4.365   7.501  0.7526  0.7989  0.4455
 8094SOL     OW35914   4.630   3.243   8.213  0.2700 -0.0901  0.5937
 8094SOL    HW135915   4.557   3.268   8.270  0.4914  0.6772  0.5393
 8094SOL    HW235916   4.678   3.322   8.191 -0.8702 -0.0093 -1.5521
 8095SOL     OW35917   4.592   2.405   5.158 -0.0224  0.9577  0.3900
 8095SOL    HW135918   4.543   2.340   5.208  2.4316 -0.7073  0.6222
 8095SOL    HW235919   4.674   2.361   5.136 -0.5808  0.3739 -0.5059
 8096SOL     OW35920   4.076   3.434  14.403 -0.2769 -0.7200  0.0759
 8096SOL    HW135921   4.149   3.374  14.422  1.5006  1.4962  0.1570
 8096SOL    HW235922   4.041   3.439  14.492 -0.7824 -1.6801 -0.0725
 8097SOL     OW35923   3.626   4.525   8.678  0.2468 -0.0150 -0.4692
 8097SOL    HW135924   3.697   4.574   8.638  0.8186 -1.2184 -0.9428
 8097SOL    HW235925   3.674   4.463   8.734  2.3563  0.8979 -1.2851
 8098SOL     OW35926   3.644   3.561   3.447  0.1998 -0.4888  0.3701
 8098SOL    HW135927   3.646   3.555   3.351 -1.0202  0.3692  0.2822
 8098SOL    HW235928   3.629   3.656   3.444  2.3125 -0.1371  1.1074
 8099SOL     OW35929   2.807   3.157  15.708  0.3426  0.3852  0.0673
 8099SOL    HW135930   2.858   3.237  15.719 -0.6775  1.2034 -1.0745
 8099SOL    HW235931   2.795   3.121  15.796  1.5509  0.4520  0.2543
 8100SOL     OW35932   4.618   3.780   2.493 -0.2349 -0.5103  0.0281
 8100SOL    HW135933   4.622   3.686   2.511 -1.1860 -0.1416  2.1792
 8100SOL    HW235934   4.675   3.786   2.416 -1.3914  0.6729 -0.7406
 8101SOL     OW35935   3.521   4.397  15.738  0.6720 -0.4518 -0.2482
 8101SOL    HW135936   3.612   4.424  15.723  1.7256 -3.3099  0.9954
 8101SOL    HW235937   3.531   4.307  15.769 -1.2537 -0.4154  0.4384
 8102SOL     OW35938   1.558   2.620   7.695  0.0381  0.1407 -0.2050
 8102SOL    HW135939   1.528   2.624   7.605  2.6906  0.0189 -1.1013
 8102SOL    HW235940   1.550   2.525   7.701  1.0827  0.0118 -0.8532
 8103SOL     OW35941   4.024   2.632   9.701  0.2500  0.3332 -0.5021
 8103SOL    HW135942   4.020   2.584   9.784 -1.3087 -0.1510 -0.8548
 8103SOL    HW235943   3.930   2.628   9.684 -0.1446  1.2019  1.4148
 8104SOL     OW35944   1.235   0.673  16.666  0.1491 -0.4375  0.5747
 8104SOL    HW135945   1.324   0.677  16.702  0.1922 -0.8001  0.5071
 8104SOL    HW235946   1.181   0.689  16.744  1.2043  1.5363  0.8878
 8105SOL     OW35947   3.615   3.076  14.711  0.5308  0.7797 -0.5401
 8105SOL    HW135948   3.703   3.091  14.675  0.8099 -4.2252 -2.0285
 8105SOL    HW235949   3.586   3.164  14.735 -0.7284 -0.8537  3.9979
 8106SOL     OW35950   3.358   2.512   3.960 -0.1804 -0.2138 -0.5879
 8106SOL    HW135951   3.398   2.589   3.998 -0.3682 -0.5083  0.1958
 8106SOL    HW235952   3.282   2.548   3.915 -1.4040  0.2027  1.8258
 8107SOL     OW35953   2.866   3.565   1.425 -0.5623 -0.5248  0.1625
 8107SOL    HW135954   2.789   3.559   1.481 -1.7681  0.5158 -1.3771
 8107SOL    HW235955   2.857   3.480   1.382  0.5826 -0.5108 -0.0999
 8108SOL     OW35956   1.227   1.377  12.452  0.1291 -0.2329  0.3374
 8108SOL    HW135957   1.219   1.282  12.463 -0.5519 -0.0252  1.6750
 8108SOL    HW235958   1.321   1.390  12.465 -0.1243 -0.2531  2.2170
 8109SOL     OW35959   3.377   2.993   7.545 -0.5282  0.0803  0.2088
 8109SOL    HW135960   3.353   3.034   7.628  0.1722  0.1284  0.3879
 8109SOL    HW235961   3.472   3.003   7.548 -0.5370  0.2692 -0.2543
 8110SOL     OW35962   3.667   4.535   2.603  0.0704  0.1883  0.0619
 8110SOL    HW135963   3.718   4.456   2.622 -0.1496 -0.2891 -1.3188
 8110SOL    HW235964   3.656   4.576   2.689 -0.6510  0.8813 -0.3654
 8111SOL     OW35965   0.254   2.798   4.763  0.4097  0.3152  0.7186
 8111SOL    HW135966   0.285   2.783   4.673  1.6387  1.7639  0.9036
 8111SOL    HW235967   0.208   2.882   4.756  0.3497  0.2584  0.4167
 8112SOL     OW35968   1.338   2.472   6.549  0.1042  0.5638  0.1427
 8112SOL    HW135969   1.289   2.542   6.592 -1.9460  0.0540 -1.3697
 8112SOL    HW235970   1.268   2.407   6.551  0.9734 -0.3318  0.9720
 8113SOL     OW35971   4.415   2.432  14.892  0.2048 -0.1952  0.0711
 8113SOL    HW135972   4.331   2.386  14.897  0.9556 -1.5320  0.3180
 8113SOL    HW235973   4.456   2.396  14.813 -2.2275 -0.3295 -1.1184
 8114SOL     OW35974   1.665   2.716   1.213 -0.2997 -0.5217  0.3079
 8114SOL    HW135975   1.622   2.655   1.153 -0.5847  0.6849 -0.7152
 8114SOL    HW235976   1.706   2.656   1.276  1.0218 -1.4502 -1.4502
 8115SOL     OW35977   2.301   1.562   9.265  0.1338  0.4388  0.0401
 8115SOL    HW135978   2.280   1.518   9.348  0.6560  3.1682  1.6150
 8115SOL    HW235979   2.230   1.625   9.254  1.6473  2.3993  1.5378
 8116SOL     OW35980   1.841   3.694   6.835  0.0533  0.4199  0.1863
 8116SOL    HW135981   1.757   3.738   6.844  0.3311  1.0436 -0.2578
 8116SOL    HW235982   1.871   3.693   6.926  2.2775  0.4628 -0.5323
 8117SOL     OW35983   0.859   4.677   2.111 -0.4514  0.2531  0.1796
 8117SOL    HW135984   0.862   4.586   2.140 -0.1340  0.4447  0.7467
 8117SOL    HW235985   0.829   4.676   2.020  1.0986 -1.8111 -0.2972
 8118SOL     OW35986   2.025   2.499   1.246  0.1837  0.1301  0.5150
 8118SOL    HW135987   2.090   2.547   1.298  1.8796 -2.5973  0.9374
 8118SOL    HW235988   2.081   2.460   1.179 -0.0594  0.0951  0.3308
 8119SOL     OW35989   2.263   4.305   1.549 -0.0953 -0.4372 -0.0519
 8119SOL    HW135990   2.171   4.295   1.576  0.0942 -0.5475  0.5399
 8119SOL    HW235991   2.252   4.249   1.471  0.8579 -1.9082  0.8701
 8120SOL     OW35992   0.082   2.785   2.357 -0.3188 -0.4832  0.2103
 8120SOL    HW135993   0.146   2.827   2.414 -2.5192  0.4244  1.9803
 8120SOL    HW235994   0.055   2.723   2.425  2.6560 -3.6588 -1.4395
 8121SOL     OW35995   2.457   2.769   8.931  0.5236  0.4309  0.3577
 8121SOL    HW135996   2.407   2.794   9.009  1.9880  1.5247  0.9356
 8121SOL    HW235997   2.534   2.730   8.972 -0.4669 -0.4477  1.3875
 8122SOL     OW35998   1.779   0.980   0.851 -0.3140  0.1648  0.0825
 8122SOL    HW135999   1.823   0.967   0.935 -0.6988 -1.4848  0.0283
 8122SOL    HW236000   1.692   0.965   0.888 -0.7243  0.2804 -0.8336
 8123SOL     OW36001   1.411   2.800   2.799 -0.5567 -0.4909  0.2082
 8123SOL    HW136002   1.463   2.838   2.728 -0.8888 -0.3860  0.0236
 8123SOL    HW236003   1.455   2.717   2.819  1.2185  0.0549 -1.5013
 8124SOL     OW36004   1.643   0.878  11.143 -0.0557 -0.1836 -0.2328
 8124SOL    HW136005   1.607   0.905  11.059  2.5824 -2.3754 -2.0657
 8124SOL    HW236006   1.664   0.963  11.183 -1.8666  1.2704 -2.3393
 8125SOL     OW36007   2.991   0.035   5.264  0.9109  0.2296 -0.0209
 8125SOL    HW136008   2.964   0.115   5.308 -0.4366 -0.0986 -0.2362
 8125SOL    HW236009   3.035   4.720   5.332 -1.8642  0.1006  1.6865
 8126SOL     OW36010   0.401   0.163  10.814 -0.4147 -0.0427  0.1552
 8126SOL    HW136011   0.404   0.259  10.822 -1.1159  0.0128 -0.2174
 8126SOL    HW236012   0.314   0.147  10.850 -1.3499  0.2911 -1.9177
 8127SOL     OW36013   3.967   1.657   0.173  0.7791 -0.7051 -0.3070
 8127SOL    HW136014   3.983   1.566   0.146 -2.1842 -1.4874  0.6100
 8127SOL    HW236015   3.875   1.648   0.198  1.5428 -1.0968  2.4064
 8128SOL     OW36016   0.758   2.988   4.072  0.2831  0.4926 -0.3761
 8128SOL    HW136017   0.711   2.964   3.992  0.1638 -0.7754  0.0834
 8128SOL    HW236018   0.843   2.944   4.068  0.0799  0.2096 -1.6720
 8129SOL     OW36019   0.427   3.337   7.417 -0.4372  0.5346 -0.8674
 8129SOL    HW136020   0.440   3.260   7.363 -1.1567 -0.0286 -0.2372
 8129SOL    HW236021   0.337   3.364   7.396 -0.7106 -1.0780 -1.7528
 8130SOL     OW36022   3.847   0.650   4.700  0.3647  0.2912  0.2183
 8130SOL    HW136023   3.923   0.691   4.740  0.1029  0.0731  0.9290
 8130SOL    HW236024   3.796   0.721   4.662 -0.1568 -1.2749 -2.0970
 8131SOL     OW36025   3.832   1.204   5.931 -0.4697 -0.0803 -0.3843
 8131SOL    HW136026   3.902   1.194   5.866  1.8043  1.1978  1.8456
 8131SOL    HW236027   3.891   1.189   6.005  1.2739 -1.4202 -2.0260
 8132SOL     OW36028   0.927   0.436   6.568  0.4228 -0.3275  0.7135
 8132SOL    HW136029   0.953   0.437   6.660 -0.1715  0.5043  0.8768
 8132SOL    HW236030   0.833   0.418   6.574  0.2741  0.8493  2.0614
 8133SOL     OW36031   0.112   4.601   6.821 -0.0184 -0.5862 -0.1458
 8133SOL    HW136032   0.140   4.692   6.807 -0.5778 -0.4804 -0.5688
 8133SOL    HW236033   0.021   4.605   6.793 -0.2064 -0.2716  0.5166
 8134SOL     OW36034   1.399   2.391  17.499  0.1037  0.7757 -0.1321
 8134SOL    HW136035   1.320   2.337  17.501  0.7339 -0.1961 -1.1757
 8134SOL    HW236036   1.368   2.476  17.468  1.3825  1.4894  0.5382
 8135SOL     OW36037   1.514   1.959  16.370 -0.1334 -0.2616  0.1491
 8135SOL    HW136038   1.419   1.951  16.385 -0.3884  0.7701 -0.9363
 8135SOL    HW236039   1.503   2.004  16.287 -0.2356  1.2521  0.9756
 8136SOL     OW36040   0.642   0.146   5.813  0.0555 -0.4594 -0.0004
 8136SOL    HW136041   0.676   0.204   5.745 -0.4943  0.3306  0.3980
 8136SOL    HW236042   0.660   0.201   5.889  0.4825  1.0505 -1.1943
 8137SOL     OW36043   1.384   2.619   2.529 -0.2962 -0.0846 -0.3858
 8137SOL    HW136044   1.301   2.665   2.518 -0.4546  0.0882  1.5553
 8137SOL    HW236045   1.451   2.684   2.505  0.3083 -0.3836  0.4869
 8138SOL     OW36046   1.086   0.380  17.602  0.4027  0.3221  0.0314
 8138SOL    HW136047   1.062   0.395  17.693  0.4120 -1.7968  0.3788
 8138SOL    HW236048   1.000   0.362  17.566  0.9794 -1.4540 -0.4727
 8139SOL     OW36049   0.828   4.309   3.603  0.2916 -0.0104  0.3432
 8139SOL    HW136050   0.738   4.275   3.604 -0.0741  0.9846  0.8432
 8139SOL    HW236051   0.840   4.309   3.698  1.2552 -0.4508  0.2220
 8140SOL     OW36052   0.362   2.633   3.559 -0.5553 -0.8141  0.5193
 8140SOL    HW136053   0.378   2.626   3.465  0.9125 -1.4854  0.8145
 8140SOL    HW236054   0.321   2.547   3.568  0.2848 -1.4434 -1.6798
 8141SOL     OW36055   0.843   0.004   7.464 -0.2006  0.3991 -0.3505
 8141SOL    HW136056   0.806   0.092   7.464  1.4766  1.1125  0.8855
 8141SOL    HW236057   0.807   4.709   7.381 -0.0727  0.0757 -0.2899
 8142SOL     OW36058   1.132   2.331  14.247 -0.3698 -0.9712  0.2489
 8142SOL    HW136059   1.045   2.293  14.232  0.0702 -2.6266  1.8563
 8142SOL    HW236060   1.120   2.383  14.326  0.5234 -0.6670  0.1746
 8143SOL     OW36061   0.195   3.631   5.574 -0.0635  0.0644 -0.2808
 8143SOL    HW136062   0.185   3.584   5.657  0.5606  1.0740  0.3643
 8143SOL    HW236063   0.228   3.561   5.518  2.7277 -0.1056  1.5692
 8144SOL     OW36064   3.557   3.596   7.954 -0.1803  0.4391 -0.5627
 8144SOL    HW136065   3.543   3.690   7.967 -0.2838  0.3971 -0.3768
 8144SOL    HW236066   3.652   3.598   7.968 -0.7307  0.4283  3.1491
 8145SOL     OW36067   2.072   3.814   1.369 -0.1596  0.0448  0.0681
 8145SOL    HW136068   1.996   3.866   1.344 -0.3786 -0.9244 -1.2738
 8145SOL    HW236069   2.139   3.882   1.379 -0.7127  0.2383  2.5140
 8146SOL     OW36070   2.327   1.450   1.998 -0.5341  0.0686 -0.1546
 8146SOL    HW136071   2.370   1.523   1.953 -1.7456  0.6363 -0.3922
 8146SOL    HW236072   2.244   1.497   1.996 -1.5662 -1.7770 -0.3884
 8147SOL     OW36073   3.272   1.063   9.962  0.0493  0.4717 -0.1985
 8147SOL    HW136074   3.247   1.064   9.870 -1.6358 -0.8086  0.2186
 8147SOL    HW236075   3.358   1.103   9.962  1.6761 -2.9597  3.6587
 8148SOL     OW36076   1.962   0.405  15.364  0.4480 -0.0923 -0.0051
 8148SOL    HW136077   1.947   0.311  15.354  2.3122 -0.5658  1.6612
 8148SOL    HW236078   1.916   0.413  15.448 -1.3915 -0.2129 -0.9995
 8149SOL     OW36079   2.141   1.920   8.243 -0.2786  0.5180  0.3254
 8149SOL    HW136080   2.179   2.004   8.217 -1.2479  0.7768 -0.2686
 8149SOL    HW236081   2.141   1.921   8.339 -2.3614 -0.1485  0.3293
 8150SOL     OW36082   0.283   0.393   5.326  0.0140  0.4218 -0.1443
 8150SOL    HW136083   0.227   0.428   5.396 -0.5873 -0.4833 -0.1738
 8150SOL    HW236084   0.349   0.463   5.321 -2.1958  2.4440 -0.7734
 8151SOL     OW36085   2.648   4.473   8.141 -1.0294  0.4243  0.6935
 8151SOL    HW136086   2.634   4.384   8.173  0.3221 -0.7768 -2.0499
 8151SOL    HW236087   2.716   4.499   8.203 -0.0760  0.5039 -0.3820
 8152SOL     OW36088   4.227   3.068   8.293  0.5509 -0.0574  0.4917
 8152SOL    HW136089   4.319   3.048   8.310  0.7537  1.1886  0.8503
 8152SOL    HW236090   4.199   3.070   8.385 -0.9329 -2.3340  0.1015
 8153SOL     OW36091   3.475   2.111  14.864  0.0865 -0.2190 -0.8270
 8153SOL    HW136092   3.446   2.168  14.793 -0.5564  1.3788  0.7136
 8153SOL    HW236093   3.396   2.107  14.918  0.7796 -3.1277 -0.0368
 8154SOL     OW36094   2.757   0.817   9.278  0.3260  0.2382 -0.3826
 8154SOL    HW136095   2.791   0.738   9.236 -0.0178 -1.9581  3.4518
 8154SOL    HW236096   2.672   0.776   9.294 -0.9075  2.7789 -0.4156
 8155SOL     OW36097   3.696   3.258   2.840 -0.8104 -0.1910 -0.1275
 8155SOL    HW136098   3.667   3.304   2.761 -2.8461  0.0209  0.7551
 8155SOL    HW236099   3.612   3.230   2.876 -0.9148  0.3321  0.0393
 8156SOL     OW36100   1.304   0.505   7.105  0.3239 -0.1566 -0.4599
 8156SOL    HW136101   1.386   0.490   7.057  1.9397  2.2792  1.5185
 8156SOL    HW236102   1.326   0.591   7.141 -3.1878  0.3147  0.5177
 8157SOL     OW36103   2.340   3.089   7.337  0.3846 -0.8377  0.3344
 8157SOL    HW136104   2.426   3.057   7.363  0.9135  1.2195  1.0992
 8157SOL    HW236105   2.359   3.182   7.351  0.5520 -0.8695  0.3184
 8158SOL     OW36106   2.749   4.297   2.421 -1.1506 -0.7390 -0.6099
 8158SOL    HW136107   2.823   4.240   2.397  0.4857  0.1959  2.1204
 8158SOL    HW236108   2.798   4.369   2.461  0.4601 -0.6994 -2.6621
 8159SOL     OW36109   0.699   3.035   6.380 -0.3164  0.1315 -0.4645
 8159SOL    HW136110   0.605   3.041   6.359 -0.6707  2.0317  1.6626
 8159SOL    HW236111   0.705   3.022   6.475 -0.9267 -0.8665 -0.5647
 8160SOL     OW36112   4.140   1.037  10.745  0.6403 -0.4533 -0.5345
 8160SOL    HW136113   4.089   1.114  10.773  2.1376  0.3441 -0.0338
 8160SOL    HW236114   4.114   0.969  10.808 -0.7269  0.9737  0.4445
 8161SOL     OW36115   0.566   4.644   8.788  0.5124  0.0295 -0.0796
 8161SOL    HW136116   0.490   4.588   8.800 -1.1206  1.6397 -2.8361
 8161SOL    HW236117   0.595   4.646   8.879 -0.1701  0.3988  0.1265
 8162SOL     OW36118   3.738   0.147   6.261  0.5160  0.4493  0.2895
 8162SOL    HW136119   3.788   0.181   6.335  2.2487 -2.9028  0.6753
 8162SOL    HW236120   3.643   0.153   6.274  0.4007 -1.5539  0.4032
 8163SOL     OW36121   1.595   1.890   2.524  0.2168 -0.1844  0.0225
 8163SOL    HW136122   1.641   1.968   2.555 -1.1134  0.1583  1.1104
 8163SOL    HW236123   1.526   1.885   2.590 -0.6589 -1.1338 -0.9609
 8164SOL     OW36124   3.985   3.335   5.992  0.2092  0.5103 -0.3082
 8164SOL    HW136125   3.978   3.294   6.078 -0.5047  0.4373 -0.3997
 8164SOL    HW236126   4.080   3.347   5.991  0.3531 -0.5813 -0.4587
 8165SOL     OW36127   4.714   1.257  12.052 -0.6191 -0.7243 -0.0597
 8165SOL    HW136128   0.019   1.171  12.068  0.5431 -0.6268 -2.4598
 8165SOL    HW236129   0.026   1.296  12.126 -1.6439  1.1344 -0.3885
 8166SOL     OW36130   4.603   0.611  16.945 -0.0015 -0.6519  0.4283
 8166SOL    HW136131   4.634   0.560  16.870  1.0361  0.4873  0.0746
 8166SOL    HW236132   4.574   0.689  16.898  0.3271  0.1691  1.6118
 8167SOL     OW36133   3.148   3.455   1.332 -0.1702  0.0812  0.3642
 8167SOL    HW136134   3.068   3.466   1.383 -1.1620  1.1057 -1.3974
 8167SOL    HW236135   3.138   3.368   1.295 -1.2146  0.3094  0.1106
 8168SOL     OW36136   1.257   0.283  10.877 -0.1401 -0.1836  0.3175
 8168SOL    HW136137   1.262   0.355  10.939 -2.0439  0.9414 -0.8535
 8168SOL    HW236138   1.177   0.295  10.826  1.0320 -1.4210 -1.8130
 8169SOL     OW36139   2.271   0.845   5.945 -0.1244 -0.9350  0.0711
 8169SOL    HW136140   2.211   0.884   5.881  1.9631  1.0015 -0.6784
 8169SOL    HW236141   2.313   0.779   5.889  2.2554 -0.2201  0.9963
 8170SOL     OW36142   3.087   1.595   9.338 -0.7163 -0.0724 -0.2513
 8170SOL    HW136143   3.166   1.563   9.295 -0.3336 -0.1023  0.4786
 8170SOL    HW236144   3.120   1.673   9.383  1.0692 -0.9959  0.0457
 8171SOL     OW36145   4.587   0.009   6.942 -0.3743  0.1033  0.0669
 8171SOL    HW136146   4.663   0.067   6.948 -0.7368  0.5928 -0.1074
 8171SOL    HW236147   4.524   0.065   6.986 -1.0860 -0.4857 -0.2005
 8172SOL     OW36148   3.691   0.720   3.884 -0.2010 -0.0013 -0.1311
 8172SOL    HW136149   3.621   0.666   3.848 -0.0289 -1.4252  1.6370
 8172SOL    HW236150   3.702   0.785   3.814 -1.5477  2.3491  1.8347
 8173SOL     OW36151   0.730   2.421  10.121  0.0724  0.1221  0.6006
 8173SOL    HW136152   0.749   2.328  10.128 -1.4498 -0.4728 -3.0577
 8173SOL    HW236153   0.693   2.440  10.208 -0.0800  2.0526  0.1101
 8174SOL     OW36154   3.310   2.550  16.072  0.1765 -0.5891 -0.6542
 8174SOL    HW136155   3.330   2.601  16.150 -0.7387  0.0728 -0.8491
 8174SOL    HW236156   3.324   2.610  15.999  1.5306  0.1951  0.2704
 8175SOL     OW36157   1.663   4.282  10.469 -0.1033  0.4749 -0.1757
 8175SOL    HW136158   1.697   4.241  10.390 -1.8876 -1.2956 -0.0352
 8175SOL    HW236159   1.649   4.199  10.515  0.0532  0.7840  0.4353
 8176SOL     OW36160   1.829   3.668  14.055  0.0309  0.0333 -0.2392
 8176SOL    HW136161   1.750   3.614  14.050 -1.0854  1.6266 -0.0317
 8176SOL    HW236162   1.835   3.701  13.966 -2.2227  0.1660 -0.3512
 8177SOL     OW36163   4.254   0.901   7.055 -0.1627 -0.3875 -0.3879
 8177SOL    HW136164   4.330   0.922   7.110  0.1928  0.2249 -1.1275
 8177SOL    HW236165   4.251   0.979   6.999 -1.3589 -0.1084  0.0544
 8178SOL     OW36166   3.271   1.747   2.102  0.0893  0.0879 -0.2131
 8178SOL    HW136167   3.266   1.798   2.182  1.2667 -1.4410  0.8523
 8178SOL    HW236168   3.323   1.809   2.050  2.3789 -1.0290  0.7379
 8179SOL     OW36169   3.236   2.687   3.135  0.0904  0.2232 -0.3807
 8179SOL    HW136170   3.171   2.621   3.111 -1.2693  1.0109  1.1347
 8179SOL    HW236171   3.193   2.762   3.093 -0.4394  0.3565  0.4139
 8180SOL     OW36172   4.260   3.780  17.736  0.3266  0.6139  0.3247
 8180SOL    HW136173   4.208   3.815  17.664 -0.5856 -1.7259 -0.1583
 8180SOL    HW236174   4.297   3.701  17.695 -1.0741 -0.4851  1.1535
 8181SOL     OW36175   3.560   4.715  15.461 -0.1327  0.0795  0.8715
 8181SOL    HW136176   3.492   4.673  15.514  0.3855 -1.7059  0.1207
 8181SOL    HW236177   3.581   0.059  15.511  0.6524  0.6671 -0.4007
 8182SOL     OW36178   4.286   0.205   1.543 -0.2998  0.9664  1.0402
 8182SOL    HW136179   4.291   0.225   1.637  0.4328 -0.7766  1.3744
 8182SOL    HW236180   4.329   0.119   1.546  1.9173  2.0455 -0.3955
 8183SOL     OW36181   0.850   3.881   4.749 -0.2349 -0.1164 -0.4248
 8183SOL    HW136182   0.781   3.852   4.808 -1.0724 -2.1774 -2.4211
 8183SOL    HW236183   0.807   3.870   4.664 -0.0571 -0.7541 -0.4313
 8184SOL     OW36184   1.230   4.723   2.335 -0.0988  0.6898  0.0607
 8184SOL    HW136185   1.232   4.656   2.267 -1.6908  0.2868  0.4308
 8184SOL    HW236186   1.225   4.671   2.415 -1.2605 -1.3136 -1.3364
 8185SOL     OW36187   0.261   4.582   6.121 -0.2639  0.3480 -0.1749
 8185SOL    HW136188   0.257   4.591   6.217  0.6558 -2.7137  0.1815
 8185SOL    HW236189   0.311   4.500   6.118  1.3982  1.3398  0.7110
 8186SOL     OW36190   2.245   3.901  12.733 -0.6621 -0.0409 -0.2302
 8186SOL    HW136191   2.247   3.921  12.639 -1.0589 -2.6329 -0.7886
 8186SOL    HW236192   2.338   3.885  12.747 -0.8327  0.3195  1.2871
 8187SOL     OW36193   4.684   2.307   7.497  0.1009 -0.1261 -0.5444
 8187SOL    HW136194   4.646   2.356   7.570  0.9697 -0.2805  0.0113
 8187SOL    HW236195   0.008   2.371   7.457  0.3470  0.9014  1.4708
 8188SOL     OW36196   0.332   1.514   4.407 -0.1876  0.1788 -0.1249
 8188SOL    HW136197   0.344   1.498   4.314  1.9346  1.4422 -0.0900
 8188SOL    HW236198   0.312   1.424   4.430  1.6428  0.4576  2.6912
 8189SOL     OW36199   0.213   4.583   1.578  0.1294  0.1772  0.1673
 8189SOL    HW136200   0.217   4.674   1.547  0.9366  1.2887  3.6097
 8189SOL    HW236201   0.253   4.529   1.510  0.4039 -0.6325  0.9860
 8190SOL     OW36202   0.071   2.592   2.533 -0.2270 -0.1680  0.2709
 8190SOL    HW136203   0.067   2.500   2.508  1.2077  0.3302 -1.7591
 8190SOL    HW236204   0.046   2.578   2.624  3.5903  0.3849  1.4145
 8191SOL     OW36205   4.606   3.008   3.887 -0.0966  0.2720 -0.3730
 8191SOL    HW136206   4.571   2.925   3.855 -1.4562  0.3319  0.9359
 8191SOL    HW236207   4.527   3.061   3.886 -0.1584  0.2324  3.4494
 8192SOL     OW36208   3.176   0.353  16.116 -0.0458  0.4766  0.4173
 8192SOL    HW136209   3.135   0.297  16.050  1.1773  0.1792 -0.0723
 8192SOL    HW236210   3.101   0.366  16.174 -0.1279 -0.9426  0.6270
 8193SOL     OW36211   2.072   3.174   4.288 -0.2218  0.0288 -0.1333
 8193SOL    HW136212   2.077   3.079   4.285 -0.6259  0.0405 -0.9453
 8193SOL    HW236213   2.127   3.188   4.366 -0.5265 -0.5762  0.1871
 8194SOL     OW36214   1.832   3.358   3.722  0.0062  0.2708  0.1186
 8194SOL    HW136215   1.920   3.393   3.712 -0.3643  1.7058  2.0132
 8194SOL    HW236216   1.782   3.439   3.727 -2.2348 -1.0314 -0.9217
 8195SOL     OW36217   2.800   0.578   8.282 -0.0200  0.4066 -0.1225
 8195SOL    HW136218   2.828   0.490   8.310 -0.0651  0.8628  1.3272
 8195SOL    HW236219   2.839   0.631   8.351  0.4047  0.2803 -0.2690
 8196SOL     OW36220   3.555   3.685   1.580 -0.1826  0.5494 -0.1336
 8196SOL    HW136221   3.462   3.680   1.602  1.0665  0.6213  5.1082
 8196SOL    HW236222   3.558   3.638   1.497 -0.5740 -1.5425  1.0541
 8197SOL     OW36223   4.528   2.965   3.109  0.1594  0.1740 -0.5836
 8197SOL    HW136224   4.465   3.030   3.141 -1.4105 -1.4074 -0.4359
 8197SOL    HW236225   4.486   2.903   3.049 -0.8137 -0.0896  0.3642
 8198SOL     OW36226   0.459   4.233   6.495 -0.0840 -0.6244  0.1224
 8198SOL    HW136227   0.505   4.311   6.463 -1.2290 -0.5397 -1.3164
 8198SOL    HW236228   0.455   4.254   6.588  0.1029 -3.2027  0.7169
 8199SOL     OW36229   4.266   2.539   7.450  0.1193 -0.3390 -0.7095
 8199SOL    HW136230   4.323   2.462   7.458 -0.5128 -0.8116 -0.7859
 8199SOL    HW236231   4.333   2.607   7.440 -0.0619 -0.0669 -0.0846
 8200SOL     OW36232   3.315   0.676   8.873  0.1119 -0.1484  0.3349
 8200SOL    HW136233   3.289   0.726   8.950  2.6643 -1.2062  1.8689
 8200SOL    HW236234   3.309   0.737   8.799  0.1135 -1.2300 -0.5620
 8201SOL     OW36235   1.198   0.470  11.087 -0.3196  0.4128 -0.2621
 8201SOL    HW136236   1.144   0.490  11.011 -1.0525 -0.2499  0.0821
 8201SOL    HW236237   1.128   0.473  11.153  0.5378  2.0613  0.5765
 8202SOL     OW36238   4.144   1.811   0.327 -0.5029  0.2453  0.1625
 8202SOL    HW136239   4.101   1.760   0.258  1.1663 -0.0188 -0.6799
 8202SOL    HW236240   4.159   1.748   0.398  1.4672  1.1162  0.5203
 8203SOL     OW36241   2.354   1.483   5.674 -0.1546  0.1368 -0.4208
 8203SOL    HW136242   2.406   1.554   5.711  0.2715  0.0932 -0.9375
 8203SOL    HW236243   2.425   1.434   5.634  1.0604  0.6679  1.0824
 8204SOL     OW36244   1.503   0.125  17.333 -0.4930 -0.2070 -0.5925
 8204SOL    HW136245   1.494   0.175  17.252 -0.4344  0.5954 -0.1074
 8204SOL    HW236246   1.427   0.158  17.381 -1.1734  2.3614 -3.4185
 8205SOL     OW36247   2.865   2.302   5.952 -0.2004 -0.0063  0.0486
 8205SOL    HW136248   2.879   2.208   5.961  1.3465  0.1875 -0.3545
 8205SOL    HW236249   2.905   2.309   5.866 -0.3191 -0.2838 -0.0256
 8206SOL     OW36250   4.351   0.418   7.691 -0.4481  0.1794  0.2621
 8206SOL    HW136251   4.363   0.467   7.772 -2.9457  3.1529 -1.1488
 8206SOL    HW236252   4.284   0.471   7.647  0.1283  1.4184  0.8528
 8207SOL     OW36253   0.334   0.666   5.941 -0.8131 -0.4064 -0.2427
 8207SOL    HW136254   0.422   0.686   5.974 -1.4477  0.1527  1.0980
 8207SOL    HW236255   0.310   0.581   5.978  2.1794 -0.7495  0.9417
 8208SOL     OW36256   0.461   1.658  16.534 -0.0374 -0.2847 -0.3744
 8208SOL    HW136257   0.526   1.727  16.548 -0.8594 -0.0906  2.4375
 8208SOL    HW236258   0.496   1.581  16.578  1.2227  0.5163  0.0208
 8209SOL     OW36259   1.282   2.426   6.007  0.1724  0.0179 -1.1979
 8209SOL    HW136260   1.366   2.447   5.967 -0.6181  3.1774 -1.2167
 8209SOL    HW236261   1.251   2.361   5.944 -2.5829  0.2158 -0.0916
 8210SOL     OW36262   0.234   3.452  13.083 -0.3958 -0.3312  0.5266
 8210SOL    HW136263   0.219   3.357  13.081  0.0686 -0.4412  2.8527
 8210SOL    HW236264   0.218   3.485  13.172  3.5901  0.5342  0.9019
 8211SOL     OW36265   4.422   1.571   0.544 -0.1211 -0.3262 -0.1959
 8211SOL    HW136266   4.361   1.509   0.505 -0.8733  1.2975 -1.5685
 8211SOL    HW236267   4.506   1.528   0.527 -0.5608 -1.9057  1.6361
 8212SOL     OW36268   3.610   3.993   1.560 -0.2174 -0.0349 -0.1400
 8212SOL    HW136269   3.606   3.908   1.602  0.4371  0.5867  1.1737
 8212SOL    HW236270   3.519   4.017   1.545 -0.8079 -2.2900 -0.0972
 8213SOL     OW36271   3.605   1.816   9.255 -0.3647 -0.6820  0.3964
 8213SOL    HW136272   3.512   1.795   9.252 -0.7802  1.2770 -0.5301
 8213SOL    HW236273   3.586   1.909   9.242 -0.6241 -0.9588 -1.1689
 8214SOL     OW36274   2.987   4.420   5.312 -0.6669 -0.7572  0.4605
 8214SOL    HW136275   3.044   4.345   5.293  2.0461  1.1629  0.9797
 8214SOL    HW236276   3.046   4.461   5.377 -0.5418 -4.0623  2.4237
 8215SOL     OW36277   2.178   0.343   3.345  0.3613  0.4970 -0.6605
 8215SOL    HW136278   2.128   0.288   3.406  1.8513 -1.2835 -1.0486
 8215SOL    HW236279   2.268   0.336   3.375 -0.1713  1.5827  1.2050
 8216SOL     OW36280   1.179   4.616   6.350 -0.0279 -0.7453 -0.5650
 8216SOL    HW136281   1.174   4.599   6.444  4.3552  0.8033 -0.0205
 8216SOL    HW236282   1.247   4.555   6.322  0.4181  0.1154 -1.3957
 8217SOL     OW36283   0.207   1.293   4.887 -0.4418 -0.9939  0.4995
 8217SOL    HW136284   0.125   1.324   4.848  0.5188  1.1411  0.1358
 8217SOL    HW236285   0.241   1.377   4.919 -0.3209  0.0026 -2.2144
 8218SOL     OW36286   1.656   4.199   8.175 -0.1397  0.2315 -0.0504
 8218SOL    HW136287   1.627   4.263   8.110 -0.4497 -2.2279 -2.2968
 8218SOL    HW236288   1.579   4.144   8.191 -0.1155  0.2002 -0.0412
 8219SOL     OW36289   2.030   3.989   9.592  0.0975 -0.5070 -0.5550
 8219SOL    HW136290   2.092   3.986   9.664  0.1031  1.9696 -0.4541
 8219SOL    HW236291   2.086   3.946   9.527  0.5584  1.5980 -1.5502
 8220SOL     OW36292   4.694   4.280   1.537 -0.3946  0.8255  0.1161
 8220SOL    HW136293   4.696   4.371   1.566 -0.4867  0.4187  1.3912
 8220SOL    HW236294   4.638   4.243   1.606  1.4331 -2.9894 -0.4356
 8221SOL     OW36295   4.566   2.143  12.541 -0.6296 -0.4217  0.1798
 8221SOL    HW136296   4.612   2.150  12.624 -0.8000  0.1444  0.2257
 8221SOL    HW236297   4.630   2.193  12.491 -1.3367  2.4330  2.1724
 8222SOL     OW36298   3.134   1.013  13.072  0.1236 -0.0895 -0.0950
 8222SOL    HW136299   3.094   1.019  13.159 -0.9258  1.8454 -0.7113
 8222SOL    HW236300   3.063   1.054  13.021  0.1398  0.2260  0.1334
 8223SOL     OW36301   0.824   0.527   1.244  0.5459  0.8477  0.5262
 8223SOL    HW136302   0.852   0.579   1.320 -0.4201  0.9819  0.7859
 8223SOL    HW236303   0.787   0.598   1.192  0.1538  0.9718  0.9726
 8224SOL     OW36304   1.805   3.210   7.849 -0.3297  0.3594 -0.1461
 8224SOL    HW136305   1.864   3.250   7.913  0.6236 -3.1210  1.1454
 8224SOL    HW236306   1.861   3.221   7.772  1.1214 -1.8822  0.6029
 8225SOL     OW36307   4.681   1.644  17.052  0.3521  0.5039 -0.2533
 8225SOL    HW136308   4.719   1.730  17.069 -0.4903  0.7675  0.2974
 8225SOL    HW236309   4.629   1.665  16.974 -2.1195 -0.7596  1.0505
 8226SOL     OW36310   3.984   0.840   6.245  0.3006 -0.1689 -0.1489
 8226SOL    HW136311   4.078   0.844   6.265  0.2373 -0.0822  0.1304
 8226SOL    HW236312   3.949   0.837   6.334  1.5218  1.7533  0.3755
 8227SOL     OW36313   0.223   1.248   2.647  0.7628  0.1742 -0.0418
 8227SOL    HW136314   0.317   1.266   2.656  0.3046  2.3688  0.3484
 8227SOL    HW236315   0.203   1.330   2.692 -0.8197 -0.1728 -0.0962
 8228SOL     OW36316   2.151   3.804   8.993  0.4193  0.3715  0.4596
 8228SOL    HW136317   2.095   3.881   8.985 -1.5350 -1.2113 -0.9089
 8228SOL    HW236318   2.084   3.745   9.027 -1.0839  1.3949 -0.6910
 8229SOL     OW36319   3.645   0.688  10.636  0.3151  0.0956 -0.2695
 8229SOL    HW136320   3.666   0.779  10.654 -0.0040 -0.2774  2.0111
 8229SOL    HW236321   3.736   0.662  10.621 -0.4483 -2.6349 -0.2521
 8230SOL     OW36322   2.420   0.521   3.948  0.2788  0.0399  0.0291
 8230SOL    HW136323   2.334   0.529   3.990  1.0604 -2.4643  2.1549
 8230SOL    HW236324   2.408   0.584   3.877  0.5623 -1.0542 -0.9904
 8231SOL     OW36325   1.323   1.260   4.471 -0.1792  0.0776  0.2934
 8231SOL    HW136326   1.321   1.184   4.528 -0.6831 -0.6042 -0.6324
 8231SOL    HW236327   1.245   1.239   4.420  0.0296 -3.3958  1.4206
 8232SOL     OW36328   2.752   3.903   8.272  0.4550  0.1177  0.2736
 8232SOL    HW136329   2.840   3.915   8.238 -0.3637 -0.9846 -2.1905
 8232SOL    HW236330   2.772   3.859   8.355 -0.8952 -1.2252 -0.0920
 8233SOL     OW36331   3.933   0.613   5.042  0.1346 -0.2147  0.2042
 8233SOL    HW136332   3.977   0.669   4.977 -1.9180 -0.3131 -1.2609
 8233SOL    HW236333   3.850   0.659   5.051 -0.1612 -0.8113  0.4906
 8234SOL     OW36334   1.385   0.813  16.042  0.2204 -0.4793  0.6108
 8234SOL    HW136335   1.472   0.852  16.054 -0.4492  1.1556  0.0157
 8234SOL    HW236336   1.407   0.720  16.031  0.6871 -0.4764  1.4911
 8235SOL     OW36337   0.819   2.007   2.969 -0.5180  0.0730 -0.1021
 8235SOL    HW136338   0.754   2.075   2.990  0.9246  1.0844  1.0181
 8235SOL    HW236339   0.809   1.994   2.875 -1.3969 -1.8682  0.2518
 8236SOL     OW36340   1.486   0.249   4.050  0.9217 -0.1147  0.6729
 8236SOL    HW136341   1.445   0.177   4.002  3.5078 -1.1090 -0.0376
 8236SOL    HW236342   1.574   0.212   4.056  1.8318  1.9929  0.2366
 8237SOL     OW36343   0.213   4.540  17.602 -0.1857 -0.5610 -0.4648
 8237SOL    HW136344   0.189   4.543  17.509  0.4000 -2.1792 -0.6645
 8237SOL    HW236345   0.248   4.451  17.604 -2.5379 -1.5259 -1.6567
 8238SOL     OW36346   2.085   1.398   3.785 -0.0482 -0.2351 -0.8663
 8238SOL    HW136347   2.125   1.464   3.841  0.3727  0.0264 -1.4848
 8238SOL    HW236348   2.058   1.333   3.851 -2.2605  1.8993  0.3569
 8239SOL     OW36349   0.501   1.002   0.736 -0.2070 -0.3170  0.0929
 8239SOL    HW136350   0.458   0.922   0.767 -0.7202  0.2119  0.7469
 8239SOL    HW236351   0.465   1.009   0.648  2.7456 -1.4468 -1.1952
 8240SOL     OW36352   1.689   2.661   4.416  0.4134 -0.0888  0.5269
 8240SOL    HW136353   1.741   2.645   4.337 -0.4812  1.6912 -0.4209
 8240SOL    HW236354   1.761   2.681   4.475  1.2114 -1.0307 -0.1281
 8241SOL     OW36355   1.478   1.887   9.171 -0.2643  0.1081  0.2187
 8241SOL    HW136356   1.411   1.824   9.144 -2.0411  2.8488 -1.7562
 8241SOL    HW236357   1.502   1.936   9.092  0.2618  2.5770  1.8848
 8242SOL     OW36358   0.231   1.497   6.431 -0.1000 -0.4635  0.0489
 8242SOL    HW136359   0.267   1.451   6.356  0.7102  0.2143  0.0331
 8242SOL    HW236360   0.261   1.587   6.423 -0.0112 -0.4189  0.8991
 8243SOL     OW36361   0.009   3.121   6.094 -0.5517 -0.1707 -0.6295
 8243SOL    HW136362   4.672   3.069   6.130 -0.9615  2.0962  1.8518
 8243SOL    HW236363   4.723   3.089   6.006 -1.8916  0.4074 -0.5288
 8244SOL     OW36364   3.131   3.454   3.770 -0.1822  0.1238 -0.1610
 8244SOL    HW136365   3.096   3.456   3.681  1.3267  0.3700 -0.7397
 8244SOL    HW236366   3.172   3.541   3.772  0.0784  0.0111 -0.7550
 8245SOL     OW36367   0.214   1.797  11.051  0.3675 -0.2671  0.0203
 8245SOL    HW136368   0.223   1.891  11.035  0.8916  0.2628  3.5562
 8245SOL    HW236369   0.164   1.775  10.973  1.0457  1.1159 -0.8244
 8246SOL     OW36370   2.645   0.062   2.927 -0.0004 -0.5756  0.4792
 8246SOL    HW136371   2.630   0.051   2.833 -2.9913  0.5804  0.8155
 8246SOL    HW236372   2.740   0.051   2.930  0.2963  1.7512 -0.2446
 8247SOL     OW36373   4.559   1.896  10.440 -0.4822 -0.4418  0.1473
 8247SOL    HW136374   4.546   1.821  10.498 -0.6316  0.0045  0.6817
 8247SOL    HW236375   4.641   1.865  10.401 -0.6294 -1.3057  0.5077
 8248SOL     OW36376   2.628   4.106   9.769 -0.0929  0.0541  0.1209
 8248SOL    HW136377   2.657   4.071   9.685  0.3045 -0.5698  0.5169
 8248SOL    HW236378   2.713   4.100   9.813 -1.4893 -0.7624  2.7323
 8249SOL     OW36379   1.208   3.714   7.843  0.3773  0.1204 -0.4584
 8249SOL    HW136380   1.275   3.736   7.778  0.6881  0.3156 -0.0636
 8249SOL    HW236381   1.143   3.666   7.792 -1.4120  1.7208  0.3260
 8250SOL     OW36382   3.256   4.352  10.974  0.2239 -0.0966 -0.0202
 8250SOL    HW136383   3.328   4.291  10.990  0.0748 -0.3535 -0.3275
 8250SOL    HW236384   3.306   4.432  10.956 -1.1182  0.4122 -1.5024
 8251SOL     OW36385   1.946   2.439   2.771 -0.1164 -0.0428 -0.1787
 8251SOL    HW136386   1.924   2.388   2.693 -0.9573  1.0487 -0.6648
 8251SOL    HW236387   1.939   2.532   2.748 -0.1150  0.7100  2.9415
 8252SOL     OW36388   3.101   0.514   7.644  0.0757 -0.2159  0.1502
 8252SOL    HW136389   3.032   0.528   7.579  1.2071 -3.0742 -1.7024
 8252SOL    HW236390   3.057   0.562   7.714 -0.5216 -1.7475  0.8328
 8253SOL     OW36391   3.722   3.705  14.685  0.4991  0.3268 -0.0850
 8253SOL    HW136392   3.672   3.744  14.614  0.6230  1.8869  0.6767
 8253SOL    HW236393   3.794   3.768  14.689  1.6399 -1.0094  0.7096
 8254SOL     OW36394   1.434   3.264  17.277 -0.2030  0.2787  0.6845
 8254SOL    HW136395   1.428   3.172  17.250  1.5499  0.3427  0.0887
 8254SOL    HW236396   1.415   3.308  17.195  0.0256 -0.3461  0.2920
 8255SOL     OW36397   0.109   0.178   1.048 -0.2795 -0.0779 -0.0069
 8255SOL    HW136398   0.076   0.091   1.026 -2.0013  0.2718  1.2139
 8255SOL    HW236399   0.031   0.228   1.073 -0.0498 -0.4811  1.5226
 8256SOL     OW36400   0.550   0.497   5.729 -0.4190 -0.2507  0.5025
 8256SOL    HW136401   0.589   0.489   5.641 -4.0784  0.1855 -1.1396
 8256SOL    HW236402   0.631   0.496   5.780  1.1480 -2.4188 -2.0663
 8257SOL     OW36403   1.994   0.718   9.575 -0.6377 -0.3005  0.1625
 8257SOL    HW136404   2.000   0.813   9.573 -1.2268 -0.2887 -1.4325
 8257SOL    HW236405   1.945   0.704   9.494 -0.3660 -0.5570  0.0418
 8258SOL     OW36406   4.026   0.029   1.881  0.3580 -0.0130  0.0499
 8258SOL    HW136407   3.954   0.078   1.921 -1.6186 -1.3219 -1.9046
 8258SOL    HW236408   4.038   0.084   1.803  2.2733  1.3655  1.3203
 8259SOL     OW36409   3.896   1.060   3.880  0.2050  0.2523  0.6599
 8259SOL    HW136410   3.864   1.005   3.952 -2.3785  0.6001 -0.2237
 8259SOL    HW236411   3.828   1.052   3.814 -0.0128 -1.2398  1.0644
 8260SOL     OW36412   1.091   3.071   5.334 -0.5245 -0.1958 -0.2684
 8260SOL    HW136413   1.125   2.994   5.380 -0.0119  0.5850  0.6572
 8260SOL    HW236414   1.169   3.124   5.323  0.8267 -1.8323  1.3745
 8261SOL     OW36415   3.370   2.394   8.923  0.2256  0.3853  0.4021
 8261SOL    HW136416   3.368   2.476   8.973 -0.0011  0.2384  0.6310
 8261SOL    HW236417   3.447   2.400   8.867 -1.0158 -0.6315 -1.4277
 8262SOL     OW36418   1.039   1.485   8.212 -0.1575 -0.9414  0.5964
 8262SOL    HW136419   1.123   1.521   8.242 -0.7420  1.2866 -0.5038
 8262SOL    HW236420   0.984   1.536   8.272  0.3569  0.8979 -0.5250
 8263SOL     OW36421   0.967   2.206   5.580  0.5739  0.3204  0.1798
 8263SOL    HW136422   0.928   2.126   5.617  1.3940  0.5022  1.4101
 8263SOL    HW236423   0.950   2.189   5.487  2.1429 -0.0431 -0.0360
 8264SOL     OW36424   3.415   1.885   1.910 -0.6434 -0.0739 -0.0734
 8264SOL    HW136425   3.471   1.962   1.900  0.8714 -0.8747  2.0728
 8264SOL    HW236426   3.427   1.838   1.828  0.0766 -0.1955  0.1040
 8265SOL     OW36427   3.075   4.272   7.526 -0.5628 -0.5385  0.6340
 8265SOL    HW136428   3.104   4.312   7.444  2.0709  0.2140  1.9322
 8265SOL    HW236429   3.113   4.184   7.527 -1.1935 -0.8196 -0.1984
 8266SOL     OW36430   2.063   2.881  13.434 -0.2689 -0.3885  0.1440
 8266SOL    HW136431   2.052   2.869  13.528 -0.4764 -0.8720  0.0542
 8266SOL    HW236432   2.137   2.942  13.429 -0.6853  0.0205 -1.1511
 8267SOL     OW36433   3.739   2.713   2.868 -0.5419 -0.1791  0.4471
 8267SOL    HW136434   3.714   2.718   2.961 -1.5552  1.5972  0.0828
 8267SOL    HW236435   3.834   2.709   2.877 -0.7563 -1.2071  2.2849
 8268SOL     OW36436   3.832   3.041   3.107 -0.0161 -0.0913  0.0357
 8268SOL    HW136437   3.770   2.980   3.068 -0.3959  0.3278 -0.0248
 8268SOL    HW236438   3.777   3.113   3.138 -0.7501 -1.6442  2.3232
 8269SOL     OW36439   2.187   0.194  10.291 -0.4622  0.2074  0.0287
 8269SOL    HW136440   2.185   0.289  10.290 -0.9959  0.1955 -1.3958
 8269SOL    HW236441   2.282   0.184  10.296 -0.1504  2.7545 -1.0487
 8270SOL     OW36442   4.640   0.795   5.691  0.1714 -0.6415  0.0013
 8270SOL    HW136443   4.589   0.851   5.749 -0.1622 -0.5546 -0.3800
 8270SOL    HW236444   4.729   0.809   5.723 -0.4838 -1.5124  2.2130
 8271SOL     OW36445   4.161   2.835   7.635  1.1096  0.0893  0.4992
 8271SOL    HW136446   4.151   2.862   7.726 -1.2978  2.4853 -0.4624
 8271SOL    HW236447   4.187   2.744   7.652  4.7371  0.7990 -1.3692
 8272SOL     OW36448   1.080   2.426   7.816 -0.1203  0.4516  0.2125
 8272SOL    HW136449   1.078   2.403   7.723  1.7944 -0.7525  0.4604
 8272SOL    HW236450   1.087   2.342   7.862 -0.2458 -0.4241 -1.3691
 8273SOL     OW36451   2.162   0.103  16.937 -0.2591  0.4227  0.7893
 8273SOL    HW136452   2.189   0.123  16.847 -0.4735 -1.1782  0.3546
 8273SOL    HW236453   2.246   0.083  16.978  0.5283 -1.4528 -1.6703
 8274SOL     OW36454   0.039   2.849   8.422  0.1846 -0.0277  0.0111
 8274SOL    HW136455   0.120   2.800   8.409  0.5453  0.8770 -1.1453
 8274SOL    HW236456   0.019   2.867   8.330 -1.9284  0.1793  0.4992
 8275SOL     OW36457   3.192   3.517   8.763 -0.3093 -0.2476 -0.5317
 8275SOL    HW136458   3.116   3.570   8.740 -0.4799  0.0825  0.8170
 8275SOL    HW236459   3.271   3.567   8.743 -0.2592 -0.5047 -0.9929
 8276SOL     OW36460   4.659   2.353  12.302  0.4712 -0.3498 -0.2319
 8276SOL    HW136461   4.677   2.322  12.213 -0.8069  1.1672 -1.0233
 8276SOL    HW236462   4.574   2.318  12.328 -0.5874  1.1624 -1.6227
 8277SOL     OW36463   2.655   2.177   8.848 -0.0371 -0.6677  0.1405
 8277SOL    HW136464   2.703   2.214   8.774 -0.4122  0.1823  0.3273
 8277SOL    HW236465   2.608   2.107   8.803  0.2283 -1.6137  1.3358
 8278SOL     OW36466   1.823   4.258  17.666 -0.6066  0.0308 -0.2784
 8278SOL    HW136467   1.816   4.323  17.736  0.3491 -0.5300  0.3327
 8278SOL    HW236468   1.782   4.181  17.705 -0.9383  0.6731  0.6421
 8279SOL     OW36469   3.064   4.527   9.567 -0.2493 -0.0474  0.0459
 8279SOL    HW136470   3.025   4.483   9.642  1.6517 -1.6165  0.1139
 8279SOL    HW236471   3.148   4.481   9.568  0.8407  1.9573  0.8962
 8280SOL     OW36472   0.036   4.553   1.254 -0.9362  0.0684 -0.3266
 8280SOL    HW136473   0.101   4.485   1.269 -1.4400 -0.6452 -1.4330
 8280SOL    HW236474   4.697   4.506   1.216  0.9637 -1.3601 -2.3058
 8281SOL     OW36475   1.788   4.406   5.668 -0.3105 -0.1550 -0.0343
 8281SOL    HW136476   1.789   4.358   5.751  2.4502 -1.1622 -0.6670
 8281SOL    HW236477   1.882   4.424   5.661 -0.2068 -0.3554  0.8046
 8282SOL     OW36478   1.461   3.374   6.190 -0.1284 -0.1759  0.5075
 8282SOL    HW136479   1.369   3.352   6.202  0.1263 -0.9008  1.1200
 8282SOL    HW236480   1.476   3.321   6.111 -4.3169 -3.0353  1.6359
 8283SOL     OW36481   3.347   0.540   9.709 -0.4019  0.1662 -0.5369
 8283SOL    HW136482   3.411   0.512   9.774 -0.1760  0.3203 -0.6930
 8283SOL    HW236483   3.270   0.486   9.726 -0.1367  0.1614  0.6292
 8284SOL     OW36484   0.615   2.550   1.921  0.5094 -0.0538 -0.5950
 8284SOL    HW136485   0.602   2.585   2.010  2.3817  1.3383 -0.8597
 8284SOL    HW236486   0.674   2.619   1.892  1.4984 -0.5830  0.1439
 8285SOL     OW36487   0.867   3.539   5.380  0.4917 -0.6887  0.1905
 8285SOL    HW136488   0.776   3.537   5.411  0.4158  1.4965  0.1094
 8285SOL    HW236489   0.849   3.494   5.298 -0.6379 -3.0042  1.7264
 8286SOL     OW36490   4.224   4.358   5.917 -0.2096  0.2115  0.0314
 8286SOL    HW136491   4.305   4.409   5.917 -0.5198  0.6988 -0.9105
 8286SOL    HW236492   4.192   4.371   6.006  0.5469 -0.7157  0.4336
 8287SOL     OW36493   0.277   0.107  13.395 -0.4465  0.4127  0.2452
 8287SOL    HW136494   0.201   0.048  13.401 -2.1814  2.3161 -3.0340
 8287SOL    HW236495   0.260   0.146  13.310 -1.8689  1.2326  0.8993
 8288SOL     OW36496   2.106   1.562   0.660  0.4586  0.0015  0.5080
 8288SOL    HW136497   2.141   1.521   0.739 -0.0726 -0.8134  0.3276
 8288SOL    HW236498   2.091   1.650   0.692  0.7392 -0.3274  1.5308
 8289SOL     OW36499   3.514   0.649   6.278 -0.5221  0.4782 -0.2512
 8289SOL    HW136500   3.422   0.652   6.305 -0.5999  4.0651 -0.9457
 8289SOL    HW236501   3.495   0.612   6.192 -2.0534 -1.5423  0.9602
 8290SOL     OW36502   1.283   3.447  16.688  0.3821  0.6197  0.1310
 8290SOL    HW136503   1.265   3.451  16.782  1.8132  2.2509  0.3527
 8290SOL    HW236504   1.323   3.533  16.671 -1.4722  1.5338  0.4163
 8291SOL     OW36505   4.587   3.169   2.341 -0.7501 -0.0409  0.2303
 8291SOL    HW136506   4.597   3.111   2.417  0.7599  0.2260  0.2344
 8291SOL    HW236507   4.651   3.147   2.274  0.6096  0.1900  1.4496
 8292SOL     OW36508   4.663   2.885   7.389  0.0563  0.0226  0.1449
 8292SOL    HW136509   4.667   2.976   7.418  1.2691 -0.0163  0.1078
 8292SOL    HW236510   0.012   2.887   7.344 -0.3648  0.9012 -0.5977
 8293SOL     OW36511   1.104   1.963   5.990 -0.5280  0.0697 -0.7795
 8293SOL    HW136512   1.190   1.992   5.960 -0.0616 -0.6805 -0.1608
 8293SOL    HW236513   1.136   1.873   5.999 -1.3976 -0.3442 -1.7781
 8294SOL     OW36514   4.430   1.593   3.786 -0.2852  0.1808  0.7276
 8294SOL    HW136515   4.378   1.539   3.727  3.7649 -2.3743 -0.5082
 8294SOL    HW236516   4.366   1.636   3.842  0.5994  2.7603 -0.2128
 8295SOL     OW36517   2.265   3.196  10.397  0.0413  0.0593 -0.6545
 8295SOL    HW136518   2.238   3.272  10.347 -1.7318 -1.2434 -1.6945
 8295SOL    HW236519   2.257   3.120  10.339  0.5786 -0.2452 -0.3397
 8296SOL     OW36520   1.539   4.064   1.055  0.2234 -0.0839 -0.2805
 8296SOL    HW136521   1.612   4.069   0.994 -0.0688 -0.9125 -0.7034
 8296SOL    HW236522   1.500   4.152   1.053  1.2276  0.3476 -0.5266
 8297SOL     OW36523   4.175   1.301  11.527  0.6893  0.3615  0.5981
 8297SOL    HW136524   4.110   1.356  11.570  0.8570  1.6951 -0.8327
 8297SOL    HW236525   4.131   1.270  11.448  2.1509 -0.4227  0.0884
 8298SOL     OW36526   4.318   3.278   8.645  0.0181  0.3992 -0.1443
 8298SOL    HW136527   4.265   3.356   8.660  1.0970  0.9571  0.7536
 8298SOL    HW236528   4.248   3.212   8.640  1.4793 -1.1809  0.3058
 8299SOL     OW36529   0.964   0.468   7.968  0.3990  0.0308  0.3336
 8299SOL    HW136530   1.021   0.393   7.953  0.9895  1.0711 -2.5258
 8299SOL    HW236531   1.023   0.535   8.003 -0.1836  1.9686 -2.4266
 8300SOL     OW36532   2.735   3.659   4.162 -0.4527  0.3054 -0.0600
 8300SOL    HW136533   2.705   3.663   4.253  0.4163  0.8770  0.2099
 8300SOL    HW236534   2.686   3.728   4.119  0.8194  0.9335 -0.5170
 8301SOL     OW36535   3.516   3.103   3.651 -0.6447 -0.0737  0.5171
 8301SOL    HW136536   3.513   3.193   3.681  0.6443 -0.0098  0.4788
 8301SOL    HW236537   3.575   3.116   3.577  1.4414  0.7594  2.3220
 8302SOL     OW36538   3.437   0.692   8.315  0.3041 -0.5848 -0.3983
 8302SOL    HW136539   3.426   0.787   8.315  0.5266 -0.5582 -0.7187
 8302SOL    HW236540   3.344   0.672   8.301 -0.3729  1.2555  1.5669
 8303SOL     OW36541   0.014   1.354   2.257  0.2424  0.0027 -0.1145
 8303SOL    HW136542   0.056   1.275   2.224  0.5832 -0.1854  0.7997
 8303SOL    HW236543   0.079   1.407   2.302  0.6286 -0.0789 -0.5763
 8304SOL     OW36544   0.688   3.428  17.152 -0.3334 -0.4353  0.1553
 8304SOL    HW136545   0.768   3.376  17.158 -0.9802 -1.3647  0.8387
 8304SOL    HW236546   0.695   3.455  17.061  2.4631  0.6731  0.7097
 8305SOL     OW36547   3.183   1.494  10.780  0.2944 -0.0076  0.2010
 8305SOL    HW136548   3.199   1.586  10.799  2.0667 -0.4022  0.6546
 8305SOL    HW236549   3.238   1.482  10.703 -1.1812 -4.4059 -0.1727
 8306SOL     OW36550   4.396   4.459   5.283 -0.2522  0.4694 -0.2076
 8306SOL    HW136551   4.455   4.506   5.224 -0.1712  2.1059  1.1870
 8306SOL    HW236552   4.405   4.367   5.260  1.2473  0.2327  1.3128
 8307SOL     OW36553   1.113   2.249   6.464  0.3681  0.3213 -0.1298
 8307SOL    HW136554   1.069   2.172   6.498  0.9684 -0.8923 -2.1126
 8307SOL    HW236555   1.098   2.316   6.531 -1.8894  0.1687 -0.5012
 8308SOL     OW36556   4.714   2.123   3.046 -0.1897  0.1821  0.0316
 8308SOL    HW136557   0.009   2.036   3.018 -0.9635 -0.3115  0.7348
 8308SOL    HW236558   0.030   2.124   3.127 -1.6465 -2.3193  0.9845
 8309SOL     OW36559   4.619   0.535   7.635  0.4361  0.1793 -0.4165
 8309SOL    HW136560   4.656   0.449   7.657  1.6679  1.0365  0.8319
 8309SOL    HW236561   4.527   0.510   7.640  0.5518 -0.0163  0.8353
 8310SOL     OW36562   4.484   1.024  12.325  0.2459  0.1770  0.4413
 8310SOL    HW136563   4.433   1.099  12.356  0.2510  0.6926 -0.7991
 8310SOL    HW236564   4.579   1.033  12.334  0.4012 -0.8324 -0.1707
 8311SOL     OW36565   1.429   3.536   7.677 -0.1554  0.6140  0.6664
 8311SOL    HW136566   1.410   3.488   7.758 -1.5101 -0.1306 -0.0984
 8311SOL    HW236567   1.500   3.595   7.704  1.5129 -0.9609 -0.3007
 8312SOL     OW36568   0.420   0.971   8.673 -0.8527  0.4023  0.6711
 8312SOL    HW136569   0.437   1.030   8.600 -1.4444  0.0647  0.2537
 8312SOL    HW236570   0.371   0.898   8.635  1.4061 -0.4256 -0.6497
 8313SOL     OW36571   1.599   2.446   6.615  0.5626 -0.1996  0.3061
 8313SOL    HW136572   1.506   2.452   6.595  0.1302 -0.7311  2.0794
 8313SOL    HW236573   1.635   2.517   6.563  1.6445  0.1231  1.4974
 8314SOL     OW36574   0.330   0.269  13.750  0.7037  0.1762  0.4724
 8314SOL    HW136575   0.308   0.254  13.842 -3.2913  0.3569 -0.4498
 8314SOL    HW236576   0.386   0.192  13.739 -0.9297 -0.8439 -0.8426
 8315SOL     OW36577   1.989   1.945   4.787  0.1996  0.0157 -0.1406
 8315SOL    HW136578   2.082   1.924   4.789 -0.2055 -1.8228 -0.1916
 8315SOL    HW236579   1.978   1.985   4.873 -0.3972 -0.9237  0.2241
 8316SOL     OW36580   3.161   4.346   3.253 -0.5583  0.1939  0.1209
 8316SOL    HW136581   3.109   4.371   3.329 -0.6951  0.8560 -0.1924
 8316SOL    HW236582   3.231   4.412   3.256 -0.8932  0.5752 -0.4945
 8317SOL     OW36583   3.728   1.670   6.313 -0.2792 -0.7474  0.6818
 8317SOL    HW136584   3.768   1.601   6.261  0.0559  0.7980 -1.1094
 8317SOL    HW236585   3.789   1.740   6.291 -3.1649  1.8007  0.6300
 8318SOL     OW36586   3.839   4.719   4.473 -0.1172  0.0269  0.2112
 8318SOL    HW136587   3.926   4.692   4.503  0.4331  0.3959 -1.0424
 8318SOL    HW236588   3.823   4.652   4.407 -0.3264  1.5967 -1.3397
 8319SOL     OW36589   4.627   0.211   3.006  0.0078  0.0089 -0.6450
 8319SOL    HW136590   4.650   0.267   2.932 -2.0521  0.8803 -0.6387
 8319SOL    HW236591   4.606   0.280   3.069  1.0261 -0.7363  0.5196
 8320SOL     OW36592   0.113   2.956  16.841 -0.6382 -0.6429  0.0664
 8320SOL    HW136593   0.023   2.929  16.860 -0.6865  1.4364  2.7656
 8320SOL    HW236594   0.106   3.024  16.775  1.0076 -0.4926  0.0491
 8321SOL     OW36595   0.409   3.567   6.597  0.0704  0.5983 -0.3506
 8321SOL    HW136596   0.317   3.555   6.618  0.9388  0.7851  3.4948
 8321SOL    HW236597   0.404   3.639   6.533  1.2978  1.9091  1.0346
 8322SOL     OW36598   3.584   1.793   2.669 -0.0448 -0.6168  0.0510
 8322SOL    HW136599   3.553   1.714   2.624 -2.1844  1.3238 -1.8373
 8322SOL    HW236600   3.510   1.852   2.656 -0.4224 -1.4326 -1.5716
 8323SOL     OW36601   0.975   0.383   6.852  0.4261 -0.0071  0.4023
 8323SOL    HW136602   0.906   0.445   6.876 -2.3474 -2.2182 -1.7927
 8323SOL    HW236603   0.957   0.322   6.924 -0.7053  1.0453  1.0063
 8324SOL     OW36604   3.633   0.712   5.738 -0.1252  0.8084  0.0557
 8324SOL    HW136605   3.584   0.751   5.666 -0.1114 -0.0107 -0.4054
 8324SOL    HW236606   3.657   0.786   5.794  0.0450  1.0839 -0.3851
 8325SOL     OW36607   3.854   1.249  16.380 -0.2368 -0.2182  0.1775
 8325SOL    HW136608   3.862   1.154  16.376 -1.3857 -0.3769  2.1489
 8325SOL    HW236609   3.872   1.266  16.472  1.6733  2.6750 -0.7051
 8326SOL     OW36610   4.229   2.162   5.850 -0.3736  0.0977 -0.2042
 8326SOL    HW136611   4.259   2.224   5.917 -1.3523  2.3752 -1.8781
 8326SOL    HW236612   4.276   2.084   5.881 -1.3229  0.4316  2.0710
 8327SOL     OW36613   0.607   0.091   9.479 -0.4256 -0.3157 -0.4986
 8327SOL    HW136614   0.596   0.041   9.398 -0.5145 -0.1312 -0.6017
 8327SOL    HW236615   0.563   0.177   9.472 -0.3909 -0.0457  2.3539
 8328SOL     OW36616   2.223   0.687  15.226 -0.6128 -0.4338 -0.2946
 8328SOL    HW136617   2.315   0.711  15.216 -0.7831  1.3740  2.2810
 8328SOL    HW236618   2.215   0.595  15.202 -0.8098 -0.9204  1.6636
 8329SOL     OW36619   0.281   0.028   6.568  0.4679 -0.3691  0.2288
 8329SOL    HW136620   0.343   4.712   6.620  1.4396  1.6716  1.0512
 8329SOL    HW236621   0.252   0.095   6.629  1.3832 -2.3392  2.8251
 8330SOL     OW36622   3.484   2.925   8.307 -0.3204 -0.1465 -0.0509
 8330SOL    HW136623   3.411   2.921   8.245 -0.3056 -3.3881  0.0899
 8330SOL    HW236624   3.562   2.893   8.261 -0.3887 -1.0852  0.4929
 8331SOL     OW36625   4.513   4.035   2.103 -0.5290  0.0274  0.5035
 8331SOL    HW136626   4.440   4.053   2.162 -0.8077  0.9136 -0.1122
 8331SOL    HW236627   4.473   3.999   2.025  0.1541 -0.7552  0.5073
 8332SOL     OW36628   0.622   1.961  11.228  0.0787  0.7112  0.0642
 8332SOL    HW136629   0.675   1.927  11.299  2.1891  0.7297 -1.4986
 8332SOL    HW236630   0.540   1.954  11.276  1.1235  0.8999  1.8677
 8333SOL     OW36631   4.609   3.393  16.079  0.1610 -0.4185 -0.1037
 8333SOL    HW136632   4.692   3.348  16.088 -0.6163 -1.6457  0.8417
 8333SOL    HW236633   4.565   3.350  16.005 -1.2616  0.7052  0.0904
 8334SOL     OW36634   1.039   4.593  16.006  0.0991  0.4312 -0.0716
 8334SOL    HW136635   1.041   4.672  15.953 -1.0373  1.5115  1.4883
 8334SOL    HW236636   1.086   4.633  16.080 -0.2046  1.3489 -0.3778
 8335SOL     OW36637   1.047   3.019  14.780 -0.4596  0.2445 -0.5855
 8335SOL    HW136638   0.975   3.083  14.781 -0.7567 -0.1170  1.3511
 8335SOL    HW236639   1.108   3.054  14.845 -0.4991 -0.2831 -0.2629
 8336SOL     OW36640   0.480   2.535   3.972  0.0915 -0.2333  0.9175
 8336SOL    HW136641   0.514   2.560   3.887 -2.3886 -1.5251 -0.4542
 8336SOL    HW236642   0.551   2.553   4.033 -0.9843 -1.3821  2.5247
 8337SOL     OW36643   0.393   3.072   3.148  0.0766  0.2701  0.5405
 8337SOL    HW136644   0.459   3.019   3.104  0.6777  0.4568  1.2133
 8337SOL    HW236645   0.424   3.160   3.125  0.1680 -0.7491 -3.1024
 8338SOL     OW36646   1.610   1.517   6.074 -0.6435 -0.4771 -0.7476
 8338SOL    HW136647   1.561   1.505   5.993 -0.2541 -0.6567 -0.9556
 8338SOL    HW236648   1.701   1.497   6.053  0.0831  0.2504  1.7212
 8339SOL     OW36649   2.861   0.260   5.353  0.5134  0.5920 -0.5213
 8339SOL    HW136650   2.773   0.230   5.374 -0.3285  1.2841 -3.1283
 8339SOL    HW236651   2.861   0.352   5.380 -1.1213  0.2633  0.6131
 8340SOL     OW36652   2.296   0.727   6.982 -0.4211 -0.0262  0.6810
 8340SOL    HW136653   2.279   0.704   7.073  0.8790  1.7383  1.3729
 8340SOL    HW236654   2.218   0.777   6.959 -0.6803  0.5495  2.7991
 8341SOL     OW36655   0.101   2.533   4.336  0.3455 -0.1860 -0.1646
 8341SOL    HW136656   0.071   2.616   4.374 -0.0149  0.9426 -2.9500
 8341SOL    HW236657   0.146   2.565   4.259  0.1388 -0.9606 -0.6090
 8342SOL     OW36658   0.773   4.402   1.891 -0.1748  0.3211  0.0697
 8342SOL    HW136659   0.724   4.354   1.958  1.5522 -1.8722 -0.2786
 8342SOL    HW236660   0.754   4.496   1.901 -1.2716  0.4084 -2.6809
 8343SOL     OW36661   1.498   2.636  14.530  0.0014  0.9401  0.5095
 8343SOL    HW136662   1.565   2.613  14.595 -0.5199 -2.2412 -0.0832
 8343SOL    HW236663   1.545   2.603  14.454 -0.5823  0.3782  0.3919
 8344SOL     OW36664   1.573   1.664   4.159 -0.2452  0.7944  0.2732
 8344SOL    HW136665   1.499   1.611   4.128 -0.2002  0.0573  1.4265
 8344SOL    HW236666   1.631   1.644   4.086 -0.8019  0.2382 -0.0160
 8345SOL     OW36667   1.253   4.488   2.165 -1.0744  0.0618  0.6387
 8345SOL    HW136668   1.349   4.490   2.171 -1.1141  0.4553  1.1617
 8345SOL    HW236669   1.241   4.413   2.107 -1.5325  0.4263  0.2566
 8346SOL     OW36670   3.645   2.178  16.730  0.0403 -0.3115 -0.3095
 8346SOL    HW136671   3.629   2.110  16.795  0.2682  0.1848  0.2630
 8346SOL    HW236672   3.560   2.180  16.688 -0.3900  2.2422  0.6392
 8347SOL     OW36673   0.245   0.408   4.830 -0.0176  0.6939 -0.1596
 8347SOL    HW136674   0.181   0.472   4.797 -0.7760  0.2594  0.4785
 8347SOL    HW236675   0.278   0.378   4.746 -1.7125 -0.7902 -0.2973
 8348SOL     OW36676   0.940   2.192   6.005  0.4057 -0.0940  0.0906
 8348SOL    HW136677   0.957   2.230   6.091 -1.9068  4.1120 -1.2772
 8348SOL    HW236678   0.973   2.103   6.013 -2.9961 -1.5754 -2.3210
 8349SOL     OW36679   2.758   4.700   2.405 -0.0694 -0.3600  0.1197
 8349SOL    HW136680   2.800   4.734   2.326  0.7837 -4.3037 -1.1148
 8349SOL    HW236681   2.809   4.622   2.422  0.5226  0.6369  3.0363
 8350SOL     OW36682   4.304   4.380   3.697  0.1047 -0.3584  0.5250
 8350SOL    HW136683   4.349   4.455   3.661  0.3441 -1.0421 -0.5991
 8350SOL    HW236684   4.275   4.336   3.617  1.4797  1.3183 -0.8693
 8351SOL     OW36685   0.283   0.111   5.490 -0.2684 -0.4381 -0.3373
 8351SOL    HW136686   0.202   0.142   5.529 -0.4314  0.1298 -1.1312
 8351SOL    HW236687   0.299   0.181   5.426 -0.7295 -0.7484 -0.7847
 8352SOL     OW36688   2.929   2.792   6.626  0.0232 -0.4251 -0.5808
 8352SOL    HW136689   3.020   2.798   6.656 -0.2083 -0.0590  0.0377
 8352SOL    HW236690   2.944   2.768   6.535 -0.3428  0.4555 -0.8723
 8353SOL     OW36691   2.891   2.571  10.788 -0.3918 -0.2448 -0.3104
 8353SOL    HW136692   2.822   2.511  10.813  0.2012 -0.3255  1.1134
 8353SOL    HW236693   2.844   2.648  10.755 -1.0780 -0.7422 -0.4956
 8354SOL     OW36694   3.643   2.485   6.610 -0.0028  0.0864 -0.7635
 8354SOL    HW136695   3.627   2.391   6.605 -1.5420  0.2414  1.0450
 8354SOL    HW236696   3.628   2.512   6.519 -0.4586 -0.7954 -0.9481
 8355SOL     OW36697   0.536   4.330   8.313  0.5195 -0.4086  0.9455
 8355SOL    HW136698   0.575   4.409   8.349 -0.2142 -0.0133  0.8662
 8355SOL    HW236699   0.544   4.270   8.388  0.3589 -0.9385  0.5390
 8356SOL     OW36700   1.550   0.611   0.870  0.3062 -0.4094 -0.3298
 8356SOL    HW136701   1.486   0.651   0.928  1.7577  2.0717 -0.4184
 8356SOL    HW236702   1.500   0.612   0.788 -2.5786 -1.6568  1.4544
 8357SOL     OW36703   4.651   2.137   4.241  0.3626  0.5446 -0.0848
 8357SOL    HW136704   4.670   2.050   4.276  0.2029  0.2602 -0.7070
 8357SOL    HW236705   4.710   2.122   4.167  1.0003 -0.8316  0.6807
 8358SOL     OW36706   4.667   3.182   3.679 -0.3389  0.3423 -0.0598
 8358SOL    HW136707   0.003   3.132   3.639  0.3210 -0.1161  1.6861
 8358SOL    HW236708   4.661   3.139   3.764  0.8248  2.0286  0.8869
 8359SOL     OW36709   1.892   2.404   5.661  0.3966  0.3352  0.1706
 8359SOL    HW136710   1.864   2.313   5.669 -0.2169  0.4371 -0.8718
 8359SOL    HW236711   1.859   2.437   5.745 -0.1817  0.0740  0.0473
 8360SOL     OW36712   1.381   3.828   7.646 -0.3642  0.0159  0.2788
 8360SOL    HW136713   1.417   3.912   7.674  2.3725 -0.1637 -2.6786
 8360SOL    HW236714   1.318   3.856   7.579 -0.1373 -2.0055 -0.7560
 8361SOL     OW36715   1.743   3.606   2.580  0.8846  0.3109  0.2904
 8361SOL    HW136716   1.756   3.649   2.496  1.5943 -1.4479 -0.4903
 8361SOL    HW236717   1.803   3.538   2.552  1.6230  0.6982  0.9064
 8362SOL     OW36718   4.692   2.159   7.268 -0.1662 -0.1792  0.0683
 8362SOL    HW136719   4.673   2.223   7.200  1.9402 -1.0030 -1.2796
 8362SOL    HW236720   4.694   2.217   7.345  0.1679  1.9905 -1.5800
 8363SOL     OW36721   3.148   1.838   9.871  0.6699  0.1261 -0.1841
 8363SOL    HW136722   3.194   1.912   9.910  0.8387  0.8418 -1.7275
 8363SOL    HW236723   3.061   1.848   9.909  1.3557  2.1793  0.8091
 8364SOL     OW36724   0.197   0.351   2.810  0.0944 -0.3302  0.0469
 8364SOL    HW136725   0.284   0.373   2.843 -1.2413  2.2854  1.8109
 8364SOL    HW236726   0.136   0.422   2.828 -0.8711 -1.6175  1.8660
 8365SOL     OW36727   4.298   1.686  12.344  0.2212 -0.6719  0.0045
 8365SOL    HW136728   4.259   1.667  12.259 -0.0361 -2.2759  0.4720
 8365SOL    HW236729   4.274   1.778  12.339 -0.9093 -0.8496  2.0857
 8366SOL     OW36730   0.187   3.466   7.391  0.5313 -0.4720  0.7086
 8366SOL    HW136731   0.093   3.485   7.386  0.9412  1.5536  0.7476
 8366SOL    HW236732   0.174   3.380   7.431  2.9475 -0.2737  1.8860
 8367SOL     OW36733   1.369   1.200  15.555  0.5038 -0.1049  0.3717
 8367SOL    HW136734   1.345   1.149  15.478  0.0580  1.5568 -0.5914
 8367SOL    HW236735   1.341   1.286  15.525 -0.8094 -1.4467 -2.2489
 8368SOL     OW36736   3.397   2.254   6.631 -0.6434 -0.1638  0.5454
 8368SOL    HW136737   3.374   2.275   6.721  1.6292  1.2882  0.7817
 8368SOL    HW236738   3.380   2.160   6.625 -1.8222  0.0908 -0.1709
 8369SOL     OW36739   3.369   2.236  14.647  0.1495 -0.3070  0.3564
 8369SOL    HW136740   3.395   2.186  14.570  0.5812 -0.1785  0.4210
 8369SOL    HW236741   3.368   2.325  14.614 -0.5430 -1.4640 -2.6906
 8370SOL     OW36742   1.004   2.756   4.604 -0.4273  0.2944  0.6592
 8370SOL    HW136743   1.001   2.794   4.516 -0.2607 -0.2450  0.4213
 8370SOL    HW236744   0.917   2.782   4.636 -0.5449  1.4237 -0.5910
 8371SOL     OW36745   1.717   4.586   7.798  0.2444 -0.4807  0.4521
 8371SOL    HW136746   1.721   4.588   7.702 -1.4680  0.7144  0.3928
 8371SOL    HW236747   1.625   4.606   7.817  0.2254  0.4343 -0.5641
 8372SOL     OW36748   0.974   3.349   6.472  0.2520 -0.0892  0.3478
 8372SOL    HW136749   0.920   3.424   6.448  0.6264  0.5913  1.6892
 8372SOL    HW236750   0.924   3.308   6.543  2.4600  0.7383  2.3520
 8373SOL     OW36751   3.128   3.657   4.792  0.0367 -0.1009 -0.2540
 8373SOL    HW136752   3.087   3.572   4.806 -0.7625  0.2016 -0.8147
 8373SOL    HW236753   3.064   3.700   4.736 -1.0739 -0.7287  0.5508
 8374SOL     OW36754   0.388   3.738   1.382 -0.4383 -0.0558 -0.8437
 8374SOL    HW136755   0.392   3.829   1.410  0.9580 -1.0798  2.3241
 8374SOL    HW236756   0.322   3.746   1.313  1.1768  0.5681 -2.2988
 8375SOL     OW36757   2.670   1.463   9.597 -0.5688 -0.5743  0.9341
 8375SOL    HW136758   2.632   1.412   9.669 -0.5986  0.7074  1.8168
 8375SOL    HW236759   2.704   1.396   9.537  0.4729  0.6327  0.1927
 8376SOL     OW36760   0.846   0.355   3.534  0.0584 -0.5263  0.0523
 8376SOL    HW136761   0.799   0.303   3.468 -0.8255  1.3103 -0.7553
 8376SOL    HW236762   0.873   0.283   3.591  2.6497 -1.3076 -2.1555
 8377SOL     OW36763   0.001   2.499   1.628 -0.7660  0.3716  0.1396
 8377SOL    HW136764   4.719   2.405   1.621  0.9190 -0.0302  1.4682
 8377SOL    HW236765   4.698   2.521   1.713 -0.3530  2.3967 -0.2116
 8378SOL     OW36766   1.878   3.360  10.353 -0.2562  0.1364  0.4940
 8378SOL    HW136767   1.971   3.345  10.334 -0.6314 -2.5493  0.6782
 8378SOL    HW236768   1.889   3.364  10.448 -2.7283 -0.4383  0.7919
 8379SOL     OW36769   1.058   1.410  13.021  0.1611  0.3133  0.2117
 8379SOL    HW136770   1.024   1.455  12.944  3.1286 -1.4631 -2.1138
 8379SOL    HW236771   0.990   1.430  13.085  0.1096  0.8964 -0.0318
 8380SOL     OW36772   0.083   0.851   8.067 -0.4167  0.1556 -0.3002
 8380SOL    HW136773   0.171   0.876   8.038  0.4670 -1.1821  1.2713
 8380SOL    HW236774   0.101   0.762   8.098 -0.7028  0.9443  2.1092
 8381SOL     OW36775   3.420   3.955   3.189  0.2927 -0.3053  0.2642
 8381SOL    HW136776   3.426   4.046   3.160 -2.6545 -1.0810 -2.7891
 8381SOL    HW236777   3.393   3.907   3.110 -1.0021 -0.4080  0.7558
 8382SOL     OW36778   4.599   0.073  11.903  0.1305 -0.2495 -1.1419
 8382SOL    HW136779   4.649   0.017  11.963  0.8965 -0.6334 -2.1497
 8382SOL    HW236780   4.667   0.111  11.848  0.0666 -0.6656 -1.5027
 8383SOL     OW36781   3.940   0.507  13.373 -0.0282 -0.1601  0.2705
 8383SOL    HW136782   3.895   0.569  13.430  0.1604 -0.6379  0.9449
 8383SOL    HW236783   3.890   0.514  13.292 -0.8159 -1.5100  0.6327
 8384SOL     OW36784   3.366   4.575   3.226  0.0275  0.4281 -0.6297
 8384SOL    HW136785   3.431   4.632   3.184 -0.3750  0.6933 -0.8935
 8384SOL    HW236786   3.318   4.547   3.148  0.0673 -0.7171 -0.2513
 8385SOL     OW36787   4.720   2.561   2.799 -0.0297  0.4126 -0.2417
 8385SOL    HW136788   4.733   2.574   2.893  0.0494  0.1300 -0.2125
 8385SOL    HW236789   0.004   2.469   2.779 -1.0216 -0.5042  3.0102
 8386SOL     OW36790   0.556   4.028   6.354 -0.3879  0.0976 -0.2842
 8386SOL    HW136791   0.503   4.081   6.413  1.7424  0.9871  0.8216
 8386SOL    HW236792   0.569   4.085   6.278  0.6859  0.5500  0.2495
 8387SOL     OW36793   1.870   4.340   6.709  0.3735 -0.1975  0.1501
 8387SOL    HW136794   1.905   4.382   6.787  0.3724 -0.0274  0.0590
 8387SOL    HW236795   1.873   4.255   6.752 -0.3696 -0.8888 -1.1565
 8388SOL     OW36796   1.765   0.534   2.634 -0.4562 -0.3683 -0.0495
 8388SOL    HW136797   1.854   0.531   2.670 -1.1231 -0.0922  1.6302
 8388SOL    HW236798   1.761   0.462   2.571  0.2418 -1.8605  1.6152
 8389SOL     OW36799   3.188   2.074   2.356  0.4728 -0.0470  0.5004
 8389SOL    HW136800   3.213   2.065   2.264  2.3328 -1.4462  1.1422
 8389SOL    HW236801   3.094   2.089   2.345  0.6597  0.4712 -0.4820
 8390SOL     OW36802   4.016   0.565   6.291  0.1789 -0.1167 -0.2821
 8390SOL    HW136803   3.978   0.650   6.268 -0.0196 -0.5356 -1.4660
 8390SOL    HW236804   4.082   0.565   6.223  1.1773 -0.3047  0.6945
 8391SOL     OW36805   2.413   1.430   5.238 -0.8060  0.0096 -0.0018
 8391SOL    HW136806   2.404   1.450   5.145  1.0353  3.2604  0.5198
 8391SOL    HW236807   2.359   1.351   5.245 -0.0954 -0.4565  0.2688
 8392SOL     OW36808   4.147   3.332   1.867  0.0600  0.2947 -0.4323
 8392SOL    HW136809   4.105   3.376   1.941 -0.5635 -0.2491 -0.4646
 8392SOL    HW236810   4.232   3.313   1.905 -0.7308  0.5716  1.4564
 8393SOL     OW36811   0.237   1.582   4.923 -0.2267 -0.3125  0.6917
 8393SOL    HW136812   0.229   1.625   4.838 -1.6516 -2.2479 -0.1484
 8393SOL    HW236813   0.273   1.656   4.972  2.5469 -0.0035 -1.8449
 8394SOL     OW36814   0.110   3.795   4.253  0.3694 -0.4634  0.1471
 8394SOL    HW136815   0.201   3.820   4.272 -0.3992  0.7679  2.3180
 8394SOL    HW236816   0.110   3.706   4.286 -0.0904 -0.7061 -0.5164
 8395SOL     OW36817   1.358   1.787   1.041 -0.4164  0.0824 -0.3257
 8395SOL    HW136818   1.386   1.727   1.110 -0.5653  1.1400  0.6552
 8395SOL    HW236819   1.439   1.838   1.036  1.5372 -2.9154  1.1176
 8396SOL     OW36820   2.792   0.888   7.655  0.0530 -0.1459 -0.0483
 8396SOL    HW136821   2.713   0.913   7.704 -1.3255 -2.2076 -1.2137
 8396SOL    HW236822   2.769   0.795   7.655  1.4692 -0.4944  1.2042
 8397SOL     OW36823   3.630   3.668   3.756  0.0128  0.1425  0.1411
 8397SOL    HW136824   3.710   3.649   3.805 -1.2522  0.1097  2.1589
 8397SOL    HW236825   3.643   3.637   3.666  1.7233  0.3425  0.3172
 8398SOL     OW36826   2.363   1.920   9.053 -0.5748 -0.9819  0.1170
 8398SOL    HW136827   2.429   1.918   9.122  0.3351 -0.0244 -0.7278
 8398SOL    HW236828   2.413   1.888   8.977 -1.1252 -0.6312 -0.3919
 8399SOL     OW36829   2.850   4.061   4.471  0.4913  0.4504  0.0543
 8399SOL    HW136830   2.917   3.999   4.441 -0.3996  0.4954 -2.0378
 8399SOL    HW236831   2.909   4.134   4.490  0.2610  0.7549 -0.3960
 8400SOL     OW36832   2.214   4.153   9.098  0.1453 -0.5170 -0.0215
 8400SOL    HW136833   2.267   4.220   9.141 -0.3468  0.8615 -1.5703
 8400SOL    HW236834   2.127   4.163   9.137  0.7350 -0.8667  1.4136
 8401SOL     OW36835   0.667   3.030   6.973 -0.0655 -0.4568 -0.1129
 8401SOL    HW136836   0.633   3.113   6.939 -2.3816  0.1075  3.5951
 8401SOL    HW236837   0.748   3.061   7.013 -0.8571  1.7398 -0.1818
 8402SOL     OW36838   4.059   1.146   5.726  0.7268 -0.3982  0.5457
 8402SOL    HW136839   4.079   1.087   5.798  0.2826 -0.6158  0.4859
 8402SOL    HW236840   4.047   1.085   5.653  1.7862  0.1904 -0.1380
 8403SOL     OW36841   3.618   1.317   0.061 -0.1646 -0.3771 -0.8171
 8403SOL    HW136842   3.549   1.251   0.052 -0.2218 -0.1981 -1.6747
 8403SOL    HW236843   3.668   1.276   0.132 -0.5583 -2.7360 -1.8939
 8404SOL     OW36844   1.489   4.048   9.373  0.0908 -0.3821 -0.1212
 8404SOL    HW136845   1.507   4.138   9.399  2.0093 -0.2185 -2.0917
 8404SOL    HW236846   1.444   4.021   9.454  0.9019  0.1807  0.5088
 8405SOL     OW36847   3.676   4.686  13.219  0.5309 -0.2489 -0.4920
 8405SOL    HW136848   3.705   0.001  13.295 -0.4760 -0.0226 -0.2519
 8405SOL    HW236849   3.588   4.669  13.254  1.2301  0.4421  1.5951
 8406SOL     OW36850   3.834   4.022  16.287 -0.6117 -0.7755 -0.1482
 8406SOL    HW136851   3.778   3.952  16.253  1.3402 -2.8469  0.9315
 8406SOL    HW236852   3.897   4.031  16.215  0.4435  0.1290  0.8945
 8407SOL     OW36853   2.751   0.008   0.111 -0.2489 -0.5813  0.3458
 8407SOL    HW136854   2.668   4.701   0.088 -0.1593 -0.7220  0.2852
 8407SOL    HW236855   2.732   0.042   0.199  2.6296  2.1424 -0.0860
 8408SOL     OW36856   3.695   0.673   3.383 -0.3778  0.0855  0.2411
 8408SOL    HW136857   3.615   0.623   3.368  0.9117 -1.8803  0.0043
 8408SOL    HW236858   3.746   0.661   3.303 -0.9331 -0.6122 -0.0102
 8409SOL     OW36859   1.387   0.275  17.108 -0.1326 -0.2342  0.3506
 8409SOL    HW136860   1.411   0.348  17.049  0.6264 -0.9989 -0.2875
 8409SOL    HW236861   1.308   0.315  17.145  1.2512  1.8342  1.1031
 8410SOL     OW36862   1.732   0.653  17.426  0.1103  0.4545  0.9120
 8410SOL    HW136863   1.659   0.592  17.436 -0.8126  1.4363  0.1039
 8410SOL    HW236864   1.799   0.602  17.379 -0.1556  0.6636  0.3101
 8411SOL     OW36865   2.218   0.006   2.274  0.3457 -0.4655  0.8005
 8411SOL    HW136866   2.248   4.686   2.346  2.0067 -3.2362 -2.0125
 8411SOL    HW236867   2.253   4.698   2.196 -1.3867 -1.8880  0.8347
 8412SOL     OW36868   3.889   3.180   7.652  0.2744 -0.3567  0.1454
 8412SOL    HW136869   3.962   3.148   7.705 -1.1392 -3.1544  0.4029
 8412SOL    HW236870   3.839   3.211   7.728  1.7017 -1.5239  1.5709
 8413SOL     OW36871   1.487   0.840  15.716 -0.0064  0.0093 -0.0856
 8413SOL    HW136872   1.437   0.915  15.748 -1.9227 -0.9314 -0.9392
 8413SOL    HW236873   1.417   0.776  15.706  1.3409 -1.2813 -1.3300
 8414SOL     OW36874   4.200   3.277   3.727 -0.2909 -0.0252 -0.0079
 8414SOL    HW136875   4.283   3.299   3.685 -0.0479  0.9467  0.9893
 8414SOL    HW236876   4.145   3.307   3.655  0.2072 -0.7530 -0.6946
 8415SOL     OW36877   1.500   2.080  10.359 -0.0867  0.5283 -0.8244
 8415SOL    HW136878   1.535   2.088  10.448 -2.1907  0.7362 -0.0031
 8415SOL    HW236879   1.440   2.155  10.358 -0.5493  0.1707  0.8825
 8416SOL     OW36880   3.101   2.141   1.323 -0.5187  0.6838 -0.4061
 8416SOL    HW136881   3.188   2.099   1.326 -1.9166 -1.8982  3.6973
 8416SOL    HW236882   3.100   2.151   1.228  0.4173  0.3168 -0.4593
 8417SOL     OW36883   3.832   4.675  15.369 -0.0021  0.1177  0.5101
 8417SOL    HW136884   3.743   4.681  15.403 -1.1940 -1.1373 -2.3482
 8417SOL    HW236885   3.846   4.586  15.337 -0.3228  1.0875 -2.3468
 8418SOL     OW36886   4.057   0.780   2.163 -0.5802 -0.2366  0.6220
 8418SOL    HW136887   4.144   0.752   2.133 -0.7516 -0.6129  0.4678
 8418SOL    HW236888   4.055   0.874   2.147  1.7662 -0.5227 -1.3322
 8419SOL     OW36889   3.222   3.382   8.056  0.2018  0.1555 -0.2709
 8419SOL    HW136890   3.259   3.389   7.968 -0.8662 -1.0727 -0.8207
 8419SOL    HW236891   3.135   3.347   8.036  1.0576 -2.4145  0.5349
 8420SOL     OW36892   3.440   2.057   8.107 -0.3337 -0.1999 -0.0786
 8420SOL    HW136893   3.351   2.039   8.138 -0.1432 -0.5484  0.2594
 8420SOL    HW236894   3.417   2.060   8.014 -1.6169  0.2563  0.2474
 8421SOL     OW36895   2.293   1.588  16.451  0.8897  0.0530  0.3335
 8421SOL    HW136896   2.205   1.570  16.417 -0.1243 -1.2413  3.6223
 8421SOL    HW236897   2.346   1.588  16.372 -0.7267 -0.7659 -0.7550
 8422SOL     OW36898   3.476   1.299   5.540  0.0167 -0.3103 -0.4354
 8422SOL    HW136899   3.462   1.227   5.601 -2.5890 -0.2914 -1.0194
 8422SOL    HW236900   3.563   1.326   5.567 -0.0889 -1.0893  0.7067
 8423SOL     OW36901   1.161   0.929  14.609 -0.2074 -0.3862 -0.2059
 8423SOL    HW136902   1.172   0.954  14.701 -1.5787 -1.0531  0.1408
 8423SOL    HW236903   1.204   0.844  14.607  1.4298  0.4472 -0.1883
 8424SOL     OW36904   4.693   2.507   5.872 -0.4413 -0.0070 -0.5618
 8424SOL    HW136905   4.611   2.463   5.846 -2.8595  2.3822  2.9682
 8424SOL    HW236906   4.709   2.551   5.789  2.3480 -0.2239 -0.1209
 8425SOL     OW36907   2.680   3.831   5.504  0.1657 -0.0708  0.0126
 8425SOL    HW136908   2.775   3.827   5.497  0.0558 -2.2283 -0.2216
 8425SOL    HW236909   2.673   3.904   5.565  1.3348  1.3343 -1.5657
 8426SOL     OW36910   0.271   0.148   8.708  0.3511 -0.2699  0.6033
 8426SOL    HW136911   0.289   0.225   8.654 -1.0224 -0.5057 -0.1845
 8426SOL    HW236912   0.358   0.129   8.743  1.0291 -0.4945 -1.1786
 8427SOL     OW36913   4.357   2.363   3.855  0.5358  0.0975  0.1731
 8427SOL    HW136914   4.435   2.383   3.907 -1.3624  0.1975  3.0001
 8427SOL    HW236915   4.400   2.327   3.777  0.8276 -1.3720  1.0040
 8428SOL     OW36916   2.812   3.707   6.325 -0.4582  0.6153 -0.1080
 8428SOL    HW136917   2.816   3.622   6.368  0.3278 -0.2122 -1.8247
 8428SOL    HW236918   2.754   3.756   6.383  0.6454  0.8057  0.8240
 8429SOL     OW36919   3.059   2.072  10.727  0.1549 -0.0314  0.6783
 8429SOL    HW136920   3.140   2.026  10.706  1.1817  2.3635 -0.6051
 8429SOL    HW236921   3.057   2.080  10.822 -1.6774 -2.2090  0.8180
 8430SOL     OW36922   1.053   4.418  11.947  0.6421 -0.3480  0.0051
 8430SOL    HW136923   1.080   4.497  11.899 -0.1221 -1.0280 -1.5685
 8430SOL    HW236924   1.084   4.432  12.036 -1.7022  1.6299  0.4931
 8431SOL     OW36925   2.066   2.163  11.302  0.6777  0.3130 -0.0531
 8431SOL    HW136926   2.128   2.207  11.362  2.3845 -2.2747  0.0700
 8431SOL    HW236927   2.006   2.232  11.273 -0.5609 -1.0270 -0.6541
 8432SOL     OW36928   3.614   0.659   4.416  0.6940  0.0194  0.1968
 8432SOL    HW136929   3.669   0.734   4.440 -2.0733  1.8177  0.9338
 8432SOL    HW236930   3.595   0.668   4.323 -0.1971 -0.5450  0.3208
 8433SOL     OW36931   0.011   3.248  15.436  0.1996  0.6482  0.2147
 8433SOL    HW136932   0.086   3.307  15.447 -0.3098  1.8472 -2.5727
 8433SOL    HW236933   0.061   3.173  15.403 -0.7128 -0.2852  0.9872
 8434SOL     OW36934   1.323   2.758   4.779 -0.1085  0.1413 -0.0228
 8434SOL    HW136935   1.248   2.701   4.795  0.7037 -1.2314 -1.0081
 8434SOL    HW236936   1.364   2.731   4.697  1.5367  2.5860  0.0081
 8435SOL     OW36937   1.483   0.455   4.301  0.2685  0.1485 -0.3411
 8435SOL    HW136938   1.411   0.425   4.356  0.8341  0.2593  0.4554
 8435SOL    HW236939   1.446   0.536   4.264  1.7120  0.8602 -0.2610
 8436SOL     OW36940   2.372   2.727   5.103 -0.4102  0.0452  0.0872
 8436SOL    HW136941   2.450   2.732   5.047  1.8116  0.6676  3.2653
 8436SOL    HW236942   2.386   2.812   5.144 -1.5678  0.7381 -0.9429
 8437SOL     OW36943   3.620   1.103  11.340  0.0363 -0.0334  0.7016
 8437SOL    HW136944   3.559   1.176  11.352  0.2003  0.3316 -0.5981
 8437SOL    HW236945   3.684   1.105  11.410  0.7145  1.8641  0.0286
 8438SOL     OW36946   1.618   4.582   3.275  0.0933  0.4415 -0.1715
 8438SOL    HW136947   1.564   4.506   3.251  0.3418 -0.2371  1.3953
 8438SOL    HW236948   1.651   4.548   3.358  1.9930  0.9157 -0.7484
 8439SOL     OW36949   3.982   3.352   9.304 -0.3820  0.1611  0.4336
 8439SOL    HW136950   3.953   3.333   9.215  1.1898 -2.7817  0.5485
 8439SOL    HW236951   4.076   3.336   9.306 -0.5176 -0.4783  1.8520
 8440SOL     OW36952   4.293   0.690   2.410 -0.7503  0.5121 -0.1470
 8440SOL    HW136953   4.340   0.686   2.327  0.2961  0.7793  0.4369
 8440SOL    HW236954   4.254   0.602   2.410 -1.1534  0.6891  0.3891
 8441SOL     OW36955   1.444   2.937   8.461 -0.0613  0.4332  0.1393
 8441SOL    HW136956   1.501   3.004   8.498 -0.9035  1.5433 -0.5587
 8441SOL    HW236957   1.417   2.898   8.544  2.0488 -3.1524 -0.9055
 8442SOL     OW36958   3.971   3.769   3.094  0.1346  0.4220 -0.1387
 8442SOL    HW136959   3.880   3.766   3.065  0.0702  1.6704 -0.0481
 8442SOL    HW236960   3.959   3.715   3.172  0.5943  0.3309 -0.1326
 8443SOL     OW36961   1.727   3.658   8.133  0.0267 -0.2999  0.4238
 8443SOL    HW136962   1.706   3.735   8.081  1.5253 -0.3955 -0.3194
 8443SOL    HW236963   1.675   3.675   8.212 -0.9737 -1.5414  0.0335
 8444SOL     OW36964   1.796   4.689   0.513  0.1756  0.2624 -0.0510
 8444SOL    HW136965   1.782   4.595   0.524  2.1271 -0.2159 -1.8554
 8444SOL    HW236966   1.880   4.687   0.468 -0.1930  1.1890 -0.7969
 8445SOL     OW36967   1.855   1.666  13.315  0.3126  0.4594  0.5293
 8445SOL    HW136968   1.856   1.618  13.398 -1.2089  0.3678  0.5015
 8445SOL    HW236969   1.762   1.678  13.295 -0.1632 -1.3263  1.6755
 8446SOL     OW36970   0.686   4.509   3.997 -0.0140 -0.3325  0.5280
 8446SOL    HW136971   0.717   4.564   4.069  0.3158  1.6478 -1.1237
 8446SOL    HW236972   0.603   4.469   4.025 -0.4819  2.0643  2.6617
 8447SOL     OW36973   0.863   1.526   3.066  1.0573  0.1528  0.1983
 8447SOL    HW136974   0.827   1.615   3.074 -0.0366 -0.4294  1.8924
 8447SOL    HW236975   0.866   1.513   2.972 -0.1784  2.6656 -0.1864
 8448SOL     OW36976   3.854   0.856  11.588  0.2082 -0.3760 -0.3148
 8448SOL    HW136977   3.886   0.945  11.573  1.6280 -0.9032 -0.3771
 8448SOL    HW236978   3.854   0.837  11.494  0.7265 -1.6193 -0.0508
 8449SOL     OW36979   4.007   1.218   8.334 -0.4327 -0.4788  0.0832
 8449SOL    HW136980   4.063   1.188   8.263 -1.3334  1.0561 -1.2625
 8449SOL    HW236981   3.918   1.228   8.300 -0.8267 -1.0381  0.9467
 8450SOL     OW36982   2.081   0.108   2.497 -0.5491  0.0425  0.6050
 8450SOL    HW136983   2.056   0.075   2.411  0.4678  1.3468 -0.1934
 8450SOL    HW236984   2.126   0.192   2.486  0.5697 -0.5956  0.3287
 8451SOL     OW36985   3.290   2.917  11.423  0.3543  0.0261  0.0722
 8451SOL    HW136986   3.210   2.867  11.437 -0.7821  2.5760  2.6775
 8451SOL    HW236987   3.267   2.996  11.472 -0.0451  0.8301 -1.4083
 8452SOL     OW36988   2.680   1.850   5.404  0.1261 -0.0751 -0.5230
 8452SOL    HW136989   2.629   1.834   5.484  0.7597  1.1695  0.1274
 8452SOL    HW236990   2.716   1.764   5.383  2.1358  0.2082  1.7763
 8453SOL     OW36991   4.624   2.469   6.706 -0.2472  0.1079  0.4702
 8453SOL    HW136992   4.558   2.438   6.769  0.2002 -1.0039  0.3927
 8453SOL    HW236993   4.673   2.388   6.692  0.8072  1.0048 -0.9735
 8454SOL     OW36994   4.593   4.353   4.299  0.3320 -0.1864 -0.7102
 8454SOL    HW136995   4.598   4.298   4.377  1.7722  0.7102 -0.1670
 8454SOL    HW236996   4.529   4.420   4.323  0.8077  0.1082 -0.2934
 8455SOL     OW36997   4.718   0.784   0.845 -0.0262  0.3885  0.1926
 8455SOL    HW136998   0.011   0.853   0.905 -0.4106 -0.1832  1.0212
 8455SOL    HW236999   4.638   0.829   0.818  1.5427  2.7510 -0.5834
 8456SOL     OW37000   0.520   2.182   7.548 -0.9024 -0.0050 -0.5410
 8456SOL    HW137001   0.582   2.128   7.598 -2.6405  0.1233  1.7058
 8456SOL    HW237002   0.485   2.242   7.613  1.6577  2.6834 -1.6466
 8457SOL     OW37003   0.186   2.662  16.415 -0.0722 -0.4944 -0.2456
 8457SOL    HW137004   0.201   2.641  16.507 -0.4929 -1.9212 -0.5132
 8457SOL    HW237005   0.269   2.707  16.401  0.3053 -0.3080  2.4818
 8458SOL     OW37006   4.079   3.910   0.542 -0.3327  0.3509 -0.6023
 8458SOL    HW137007   4.119   3.833   0.502  0.2007  0.9559 -1.2430
 8458SOL    HW237008   4.067   3.965   0.464  0.6832  2.0003  0.4068
 8459SOL     OW37009   2.271   0.594   9.282  0.0121 -0.4308 -0.8355
 8459SOL    HW137010   2.200   0.633   9.335 -1.7209 -1.1683 -2.6289
 8459SOL    HW237011   2.217   0.538   9.227  2.1069 -1.3378 -1.9186
 8460SOL     OW37012   1.847   2.323   8.723  0.6588 -0.9862  0.5258
 8460SOL    HW137013   1.868   2.367   8.641 -2.9777  3.3476  1.8838
 8460SOL    HW237014   1.938   2.308   8.749  0.9107  0.4256  0.4885
 8461SOL     OW37015   0.551   0.939   7.637 -0.0987  0.1870  0.4407
 8461SOL    HW137016   0.625   0.938   7.698  1.1231 -0.5534 -1.0450
 8461SOL    HW237017   0.605   0.969   7.563 -0.1609 -1.0578 -0.1066
 8462SOL     OW37018   1.613   0.320   8.422  0.0477  0.5454 -0.4095
 8462SOL    HW137019   1.530   0.274   8.425  0.1395  0.6906  3.9020
 8462SOL    HW237020   1.647   0.311   8.333 -0.4840 -0.2132 -0.5264
 8463SOL     OW37021   2.246   4.726   4.681  0.5894  0.5777 -1.1014
 8463SOL    HW137022   2.177   0.053   4.658 -0.0799 -0.2735 -1.3794
 8463SOL    HW237023   2.305   0.040   4.738 -0.3144  1.6822 -1.1117
 8464SOL     OW37024   0.921   3.216   3.391 -0.1682  0.7130 -0.2542
 8464SOL    HW137025   0.969   3.294   3.364 -1.9264  2.5870  2.0951
 8464SOL    HW237026   0.833   3.254   3.387  0.0443  1.2949  0.7391
 8465SOL     OW37027   0.094   0.949  11.074 -0.0671  0.5877  0.1809
 8465SOL    HW137028   0.027   0.922  11.012  0.1217 -2.1894  1.1662
 8465SOL    HW237029   0.072   0.883  11.139  0.7041 -1.2435 -1.4056
 8466SOL     OW37030   2.543   1.396   5.477  0.3479  0.6027 -0.4065
 8466SOL    HW137031   2.525   1.451   5.401 -0.0396  2.0264  0.7113
 8466SOL    HW237032   2.576   1.314   5.440 -1.9583  0.3479 -1.9239
 8467SOL     OW37033   0.883   0.149   9.023 -0.3662 -0.8413 -0.3062
 8467SOL    HW137034   0.877   0.074   8.963 -2.5000 -0.9829  0.0595
 8467SOL    HW237035   0.791   0.173   9.011 -0.4988 -1.5019 -0.6149
 8468SOL     OW37036   3.193   3.634  11.521  0.0115  0.5390 -0.1846
 8468SOL    HW137037   3.164   3.665  11.435  1.0534 -0.0557 -0.7473
 8468SOL    HW237038   3.163   3.700  11.584  1.2950  1.0016 -0.0467
 8469SOL     OW37039   0.508   2.371   2.583 -0.3206 -0.8672  0.4398
 8469SOL    HW137040   0.456   2.450   2.565  0.4862 -0.4528 -0.0964
 8469SOL    HW237041   0.477   2.346   2.670 -1.0413  0.1718  0.4790
 8470SOL     OW37042   4.335   3.635   5.539  0.2595  0.5533 -0.1866
 8470SOL    HW137043   4.315   3.593   5.455 -1.0196  1.9336 -0.5801
 8470SOL    HW237044   4.427   3.616   5.553  0.4518  1.6851  0.1368
 8471SOL     OW37045   4.694   2.103   1.340 -0.4062 -0.7551 -1.0443
 8471SOL    HW137046   0.047   2.101   1.377 -0.3559  0.7333 -1.0809
 8471SOL    HW237047   4.659   2.022   1.377  0.0554 -0.4706  0.0196
 8472SOL     OW37048   3.744   2.631   3.195  0.2522  0.1517 -0.4566
 8472SOL    HW137049   3.721   2.571   3.266 -1.8612  0.9516 -0.4735
 8472SOL    HW237050   3.666   2.685   3.179 -0.0801  0.6560  2.7486
 8473SOL     OW37051   0.311   0.904   7.933 -0.6639  0.5294 -0.4532
 8473SOL    HW137052   0.265   0.976   7.890  1.8478  2.6067  0.3411
 8473SOL    HW237053   0.344   0.867   7.851 -1.3560  1.2349 -1.0416
 8474SOL     OW37054   0.781   2.393   6.780 -0.0734  0.4257  0.0712
 8474SOL    HW137055   0.735   2.467   6.742 -2.0859 -0.6943  0.3405
 8474SOL    HW237056   0.726   2.365   6.853 -1.0453 -0.6917 -1.0879
 8475SOL     OW37057   2.439   2.862  10.180 -0.1218  0.0097  0.1070
 8475SOL    HW137058   2.405   2.773  10.185 -0.2912 -0.0064 -1.2372
 8475SOL    HW237059   2.356   2.910  10.176  1.5033  2.6465 -2.3702
 8476SOL     OW37060   2.263   3.761   5.988  0.3603  0.4553  0.0536
 8476SOL    HW137061   2.358   3.747   5.980  0.5960  0.2223  3.2010
 8476SOL    HW237062   2.243   3.756   6.082  2.5462 -0.5654  0.4751
 8477SOL     OW37063   1.574   0.756  12.328 -0.0645 -0.3679 -0.7518
 8477SOL    HW137064   1.504   0.817  12.304 -1.3896 -0.6712  2.2760
 8477SOL    HW237065   1.587   0.778  12.420  1.1390  0.4135 -1.1143
 8478SOL     OW37066   0.810   1.220   2.632 -0.0109  0.2875 -0.6769
 8478SOL    HW137067   0.813   1.299   2.579  0.1425  1.0449  0.4596
 8478SOL    HW237068   0.887   1.233   2.687 -1.6964  0.0133  1.7469
 8479SOL     OW37069   0.112   2.537  13.675  0.4145 -1.0100  0.4158
 8479SOL    HW137070   0.023   2.504  13.684  0.9936 -2.9719 -0.9702
 8479SOL    HW237071   0.168   2.461  13.691 -1.0768 -1.6715  2.5056
 8480SOL     OW37072   4.527   0.838   9.124 -0.3030  0.2040 -0.4979
 8480SOL    HW137073   4.605   0.867   9.171 -0.6323 -2.3104  1.6557
 8480SOL    HW237074   4.515   0.746   9.150 -2.4246  0.6889  0.2801
 8481SOL     OW37075   0.985   3.444   8.459 -0.7588  0.2999  0.1893
 8481SOL    HW137076   0.992   3.518   8.399  1.0480  1.5678  1.9369
 8481SOL    HW237077   1.065   3.433   8.511 -1.9327 -0.0488  1.9398
 8482SOL     OW37078   3.774   3.799  11.612 -0.0520  0.1436 -0.2399
 8482SOL    HW137079   3.753   3.884  11.572  2.9664  1.4954  1.0396
 8482SOL    HW237080   3.753   3.739  11.541 -0.7583  0.4692 -0.3093
 8483SOL     OW37081   2.420   4.126   8.269  0.0266 -0.1873 -0.7454
 8483SOL    HW137082   2.491   4.189   8.256  0.2534 -0.1818  0.5484
 8483SOL    HW237083   2.427   4.103   8.361 -1.2232 -0.6876 -0.7760
 8484SOL     OW37084   2.051   3.279   8.336 -0.4711  0.3355 -0.2476
 8484SOL    HW137085   1.998   3.340   8.285 -0.9730 -0.1399 -0.2844
 8484SOL    HW237086   2.029   3.317   8.421 -0.4830  0.5680 -0.3542
 8485SOL     OW37087   4.363   2.966   7.205  0.5820 -0.7931 -0.4767
 8485SOL    HW137088   4.396   3.010   7.283  0.0909 -0.5152 -0.4296
 8485SOL    HW237089   4.444   2.929   7.169  2.4579  0.1829  2.7136
 8486SOL     OW37090   2.136   3.865   7.020 -0.2838 -0.1206 -0.3476
 8486SOL    HW137091   2.181   3.790   7.059 -0.3081  0.2060  0.3211
 8486SOL    HW237092   2.057   3.866   7.074 -0.5442  0.8721 -0.7542
 8487SOL     OW37093   0.559   3.676   6.864  0.0379 -0.6883 -0.2414
 8487SOL    HW137094   0.532   3.622   6.790 -0.2795  2.0582 -2.1718
 8487SOL    HW237095   0.652   3.679   6.842 -0.1268 -1.7128 -1.0670
 8488SOL     OW37096   3.763   3.807   4.573  0.2279  0.1440  0.0118
 8488SOL    HW137097   3.728   3.792   4.485 -0.2283 -0.4905  0.3022
 8488SOL    HW237098   3.824   3.875   4.546  1.2258 -1.0734 -0.7664
 8489SOL     OW37099   3.642   1.209   3.910 -0.2405 -0.1333 -0.0644
 8489SOL    HW137100   3.716   1.269   3.905 -1.2611  1.2320  1.1936
 8489SOL    HW237101   3.622   1.219   4.004  0.8796 -0.2195  0.1785
 8490SOL     OW37102   4.696   3.343   4.534 -0.1873  0.1868  0.1099
 8490SOL    HW137103   0.050   3.325   4.505  0.5672  1.5232  1.5749
 8490SOL    HW237104   4.662   3.388   4.457 -1.3696 -0.3398  0.3217
 8491SOL     OW37105   4.567   1.379   4.878 -0.3138  0.2890  0.5279
 8491SOL    HW137106   4.603   1.467   4.889 -0.5350  0.3652  0.6302
 8491SOL    HW237107   4.583   1.354   4.787 -2.6193 -0.8544  0.4380
 8492SOL     OW37108   2.388   3.250   4.994 -0.5252  0.0883 -0.0237
 8492SOL    HW137109   2.414   3.258   5.086 -1.4156 -1.4441  0.3665
 8492SOL    HW237110   2.435   3.167   4.987 -1.7614 -0.5158 -1.1232
 8493SOL     OW37111   0.974   2.270  12.465  0.7142 -0.5962 -0.2611
 8493SOL    HW137112   0.961   2.319  12.546 -0.7349 -0.9124 -0.3110
 8493SOL    HW237113   1.033   2.198  12.488  1.3724  0.0097 -0.0305
 8494SOL     OW37114   3.140   0.115   5.640 -0.1426  0.2047 -0.1202
 8494SOL    HW137115   3.138   0.036   5.694 -1.0862 -1.1022 -2.1127
 8494SOL    HW237116   3.047   0.131   5.629  0.3429  1.5208 -2.4047
 8495SOL     OW37117   3.678   1.798   8.784  0.4491 -0.1413  0.3008
 8495SOL    HW137118   3.683   1.799   8.688 -2.8289  2.1625  0.1663
 8495SOL    HW237119   3.596   1.753   8.803  0.4444 -0.1029  0.3750
 8496SOL     OW37120   1.862   2.462   7.279 -0.1658  0.0680  0.2814
 8496SOL    HW137121   1.889   2.370   7.291 -0.7422 -0.4686 -2.7188
 8496SOL    HW237122   1.771   2.458   7.309 -0.2456 -0.2184  0.0015
 8497SOL     OW37123   0.086   2.143   3.290  0.0457  0.2838 -0.1611
 8497SOL    HW137124   0.177   2.112   3.291  0.4408  1.3404 -2.4071
 8497SOL    HW237125   0.043   2.103   3.365  2.0327 -3.6920 -1.1297
 8498SOL     OW37126   2.367   2.042   4.201  0.7129 -0.0676  0.0754
 8498SOL    HW137127   2.377   2.119   4.145  2.0248  0.6702  1.3211
 8498SOL    HW237128   2.411   1.976   4.148  0.5168  0.4493 -0.7369
 8499SOL     OW37129   3.850   1.558   3.475  0.0476 -0.0931  0.0022
 8499SOL    HW137130   3.835   1.570   3.569 -0.0232  2.9252 -0.3965
 8499SOL    HW237131   3.901   1.477   3.475 -2.8408 -1.8960 -2.0269
 8500SOL     OW37132   1.139   2.992   4.148  0.3679  0.3675 -0.3035
 8500SOL    HW137133   1.222   2.945   4.140  0.6570  0.7160  0.6714
 8500SOL    HW237134   1.126   3.006   4.054 -1.1267  0.0500 -0.1384
 8501SOL     OW37135   3.193   1.372   3.518 -0.4430  0.0125  0.0962
 8501SOL    HW137136   3.288   1.372   3.507 -0.4643  1.9658 -0.1994
 8501SOL    HW237137   3.170   1.465   3.515  0.3983  0.1780 -1.4513
 8502SOL     OW37138   3.282   3.124  16.370 -0.3239 -0.3204  0.0729
 8502SOL    HW137139   3.337   3.165  16.437 -1.9255 -0.0010  1.1981
 8502SOL    HW237140   3.254   3.207  16.331 -1.1503 -0.9304 -0.6259
 8503SOL     OW37141   1.663   0.333   7.872  0.4484  0.1599  1.1432
 8503SOL    HW137142   1.717   0.263   7.836 -0.4496 -0.0788  0.2684
 8503SOL    HW237143   1.694   0.402   7.812 -0.3854 -0.2107  0.2854
 8504SOL     OW37144   1.073   1.508   3.281 -0.1460 -0.3383 -0.0241
 8504SOL    HW137145   1.000   1.474   3.229 -0.1547  0.8050 -0.7765
 8504SOL    HW237146   1.150   1.461   3.247  0.6444  1.0420 -0.1553
 8505SOL     OW37147   2.740   2.602   9.042 -0.6833 -0.0047 -0.8754
 8505SOL    HW137148   2.834   2.608   9.023 -0.3622  0.8114  1.0569
 8505SOL    HW237149   2.708   2.542   8.974 -0.2084  1.1712 -2.1511
 8506SOL     OW37150   2.873   0.494   7.493  0.0575  0.2513 -0.7572
 8506SOL    HW137151   2.786   0.510   7.531  1.6380  2.4261  1.9884
 8506SOL    HW237152   2.851   0.464   7.405 -5.0309 -3.1322  1.6571
 8507SOL     OW37153   4.061   4.318   3.829  0.0219 -0.2284 -0.7939
 8507SOL    HW137154   4.140   4.320   3.775  1.2917  0.7145  1.0827
 8507SOL    HW237155   4.030   4.234   3.796 -1.8358 -0.7148  2.1776
 8508SOL     OW37156   3.584   1.528   8.108  0.1090 -1.0828  0.1999
 8508SOL    HW137157   3.603   1.621   8.117 -0.1865 -0.9784 -0.2727
 8508SOL    HW237158   3.663   1.502   8.060 -0.8700 -0.4032 -1.7650
 8509SOL     OW37159   3.629   4.702   4.682 -0.0152  0.3399  0.5245
 8509SOL    HW137160   3.678   4.733   4.606  0.4683  0.9536  1.0805
 8509SOL    HW237161   3.682   4.727   4.758 -0.7582  0.2065  1.0907
 8510SOL     OW37162   3.757   1.230   2.412 -0.0597  0.2034 -0.9293
 8510SOL    HW137163   3.735   1.163   2.477 -0.3506  0.3572 -0.8703
 8510SOL    HW237164   3.730   1.202   2.325 -2.1777 -1.3021  0.1967
 8511SOL     OW37165   3.762   2.377   7.058 -0.0760  0.2959 -0.3409
 8511SOL    HW137166   3.802   2.432   6.991 -1.7653  2.7772  0.6723
 8511SOL    HW237167   3.754   2.445   7.125  1.0529 -0.2920  0.3884
 8512SOL     OW37168   3.635   1.505   9.431 -0.6993 -0.4173  0.0700
 8512SOL    HW137169   3.573   1.446   9.388  1.5023 -1.0111 -2.2895
 8512SOL    HW237170   3.595   1.539   9.511  0.0329  0.9497 -0.1489
 8513SOL     OW37171   3.738   2.319  11.711 -0.1151 -0.2206  0.2251
 8513SOL    HW137172   3.817   2.270  11.687 -0.4677 -0.5709 -0.2205
 8513SOL    HW237173   3.664   2.275  11.669  1.2015 -2.0770 -0.1333
 8514SOL     OW37174   2.351   1.993   9.583  0.5431  0.5018 -0.3780
 8514SOL    HW137175   2.339   1.913   9.532 -0.7031  1.8813 -2.2972
 8514SOL    HW237176   2.405   2.044   9.521 -0.5002  1.7747 -0.2417
 8515SOL     OW37177   0.204   2.324   8.535  0.4342 -0.4631 -0.3333
 8515SOL    HW137178   0.123   2.338   8.487 -0.2588  2.3182  1.5748
 8515SOL    HW237179   0.203   2.232   8.512  0.4604 -0.5951  0.1989
 8516SOL     OW37180   4.684   3.793   5.006  0.1756 -0.1195  0.3089
 8516SOL    HW137181   0.027   3.844   4.987 -0.2241  1.3922  2.6825
 8516SOL    HW237182   4.704   3.777   5.099 -0.5802 -3.0804 -0.0303
 8517SOL     OW37183   1.221   2.438   4.475  0.1564 -0.1631 -0.1119
 8517SOL    HW137184   1.294   2.489   4.511  1.2476 -1.8670  0.0818
 8517SOL    HW237185   1.255   2.348   4.478  2.4054  0.6410 -0.8852
 8518SOL     OW37186   3.785   3.502  11.820  0.7052  0.4864  0.2311
 8518SOL    HW137187   3.867   3.462  11.848 -0.0570  0.6440  2.6915
 8518SOL    HW237188   3.809   3.595  11.821 -1.3485  1.0259 -0.5311
 8519SOL     OW37189   4.395   2.657   8.475  0.2567  0.2260 -0.2613
 8519SOL    HW137190   4.420   2.565   8.483  1.2432  0.3037 -2.4191
 8519SOL    HW237191   4.395   2.672   8.380  0.2108  1.3772 -0.0822
 8520SOL     OW37192   0.576   2.849   2.577 -0.6072  0.5254  0.5170
 8520SOL    HW137193   0.524   2.909   2.630 -0.6965  0.5435  0.4080
 8520SOL    HW237194   0.643   2.909   2.544  0.8277 -1.0559  0.5686
 8521SOL     OW37195   2.398   1.670  11.253 -0.3610 -0.8073 -0.6210
 8521SOL    HW137196   2.338   1.696  11.323  0.5009  0.6609 -0.4373
 8521SOL    HW237197   2.390   1.749  11.200 -1.5616 -0.1942  0.4605
 8522SOL     OW37198   4.202   1.945   5.077  0.4391  0.0373  0.2645
 8522SOL    HW137199   4.255   2.024   5.075 -0.4712  0.6338 -0.3647
 8522SOL    HW237200   4.189   1.917   4.987  0.0875  0.2804  0.2381
 8523SOL     OW37201   1.065   0.533   0.367 -0.4294 -0.1248 -0.1404
 8523SOL    HW137202   1.018   0.536   0.284 -1.3064  1.0386  0.4089
 8523SOL    HW237203   1.136   0.472   0.345  0.6238  1.0357  0.0478
 8524SOL     OW37204   1.426   4.036   5.208  0.0047 -0.1904  0.0835
 8524SOL    HW137205   1.462   3.960   5.255 -1.8997 -0.4434  1.1379
 8524SOL    HW237206   1.336   4.032   5.240 -0.3281 -0.3615 -0.8696
 8525SOL     OW37207   3.298   2.725   4.300 -0.1711 -0.1681 -0.0811
 8525SOL    HW137208   3.269   2.638   4.273  1.1112 -0.2962 -1.0530
 8525SOL    HW237209   3.239   2.741   4.373 -1.6025  0.7927 -1.4478
 8526SOL     OW37210   1.237   4.315   4.215  0.2633 -0.1765  0.2395
 8526SOL    HW137211   1.180   4.246   4.250  0.2146 -0.5163 -0.5157
 8526SOL    HW237212   1.186   4.395   4.216  1.1744  0.4229 -3.2434
 8527SOL     OW37213   3.682   0.572   7.794 -0.5098 -0.1514 -0.3686
 8527SOL    HW137214   3.655   0.661   7.769 -1.5351 -0.5586 -0.7136
 8527SOL    HW237215   3.597   0.531   7.810 -0.6101  0.0860 -0.2908
 8528SOL     OW37216   4.333   0.319   6.647 -0.2573  0.2822  0.7102
 8528SOL    HW137217   4.352   0.411   6.662  0.1963  0.4508 -0.8453
 8528SOL    HW237218   4.400   0.300   6.581  0.6171  0.1578  1.6381
 8529SOL     OW37219   1.541   1.451   2.823  0.1285  0.1651  0.1282
 8529SOL    HW137220   1.625   1.496   2.834  0.5449 -0.3560 -0.9688
 8529SOL    HW237221   1.492   1.482   2.899  0.5610 -0.2048  0.5578
 8530SOL     OW37222   0.499   2.628   2.162  0.7176  0.4404  0.3426
 8530SOL    HW137223   0.425   2.687   2.151  0.5861  0.2733  0.3316
 8530SOL    HW237224   0.462   2.568   2.227 -0.8231  0.7708 -0.2375
 8531SOL     OW37225   3.864   2.048   4.919 -0.4632 -0.1780 -0.1591
 8531SOL    HW137226   3.946   2.010   4.887  0.1138 -0.2649  1.4476
 8531SOL    HW237227   3.801   2.006   4.860  0.3974 -0.6268 -0.7460
 8532SOL     OW37228   4.452   2.075   3.434  0.9004 -0.2238  0.1910
 8532SOL    HW137229   4.376   2.116   3.393  0.5093 -1.0374  0.1030
 8532SOL    HW237230   4.482   2.011   3.370 -1.5698 -0.3455 -0.8062
 8533SOL     OW37231   3.889   1.039   5.107  0.0440 -0.5669  0.0861
 8533SOL    HW137232   3.919   0.967   5.162  0.8359 -0.6983 -0.5184
 8533SOL    HW237233   3.801   1.005   5.095 -0.5380  1.0074 -0.1841
 8534SOL     OW37234   1.405   3.150  15.355  0.2601  0.0311  0.4354
 8534SOL    HW137235   1.328   3.207  15.359 -0.1535 -0.4798 -0.2339
 8534SOL    HW237236   1.464   3.193  15.294 -2.4051 -0.1414 -2.2680
 8535SOL     OW37237   2.373   1.762   2.273  0.3728 -0.5127 -0.1102
 8535SOL    HW137238   2.456   1.717   2.289  0.8833  0.8930  1.1571
 8535SOL    HW237239   2.385   1.814   2.193 -0.3614 -1.5189 -0.8784
 8536SOL     OW37240   1.776   0.849   7.262 -0.1540 -0.7268 -0.3761
 8536SOL    HW137241   1.817   0.845   7.348 -0.7147  0.6036 -0.0369
 8536SOL    HW237242   1.830   0.915   7.219 -2.5365  0.6693 -1.2653
 8537SOL     OW37243   4.589   0.026   6.271 -0.6061  0.1789 -0.0170
 8537SOL    HW137244   4.498   4.730   6.265 -1.4979  2.7490  0.2650
 8537SOL    HW237245   4.624   4.711   6.345 -4.2021  0.9015  2.1829
 8538SOL     OW37246   1.182   4.605  11.819  0.1259  0.5697 -0.3263
 8538SOL    HW137247   1.105   4.610  11.762  0.3443  2.9845 -0.4157
 8538SOL    HW237248   1.221   4.691  11.801  0.3941  0.0673 -2.2202
 8539SOL     OW37249   3.367   4.605  15.626 -0.5807 -0.0483  0.3023
 8539SOL    HW137250   3.410   4.535  15.676  0.0318  0.5934  0.6750
 8539SOL    HW237251   3.314   4.640  15.698  1.8639  1.7743  1.2155
 8540SOL     OW37252   1.445   3.353   4.145  0.1074  0.0129  0.0569
 8540SOL    HW137253   1.530   3.329   4.109 -1.8402 -2.3583 -2.9853
 8540SOL    HW237254   1.457   3.316   4.232  0.7387  1.8581  0.7432
 8541SOL     OW37255   4.465   3.318   9.730  0.5519  0.2048 -0.2615
 8541SOL    HW137256   4.391   3.270   9.767 -0.8759  0.9235 -2.1474
 8541SOL    HW237257   4.504   3.248   9.678 -0.9984 -0.9566  0.1249
 8542SOL     OW37258   2.895   2.791   0.430  0.7513  0.3037  0.6660
 8542SOL    HW137259   2.875   2.698   0.431  1.3679  0.1926  2.6785
 8542SOL    HW237260   2.808   2.823   0.406  0.2087 -1.4265  0.3659
 8543SOL     OW37261   0.551   0.116   8.625 -0.0109 -0.1192  0.3209
 8543SOL    HW137262   0.639   0.152   8.621  0.3085 -0.8279  1.0225
 8543SOL    HW237263   0.566   0.045   8.687 -3.9288  0.1681  1.6458
 8544SOL     OW37264   3.583   2.946   3.056 -0.1183 -0.8103 -0.6436
 8544SOL    HW137265   3.529   3.013   3.017  0.0527 -1.0931 -1.3609
 8544SOL    HW237266   3.549   2.864   3.020 -2.0706  1.0146 -2.8809
 8545SOL     OW37267   0.134   1.722   7.210 -0.2227 -0.1124 -0.0529
 8545SOL    HW137268   0.039   1.730   7.217 -0.0306  0.7725  1.5950
 8545SOL    HW237269   0.172   1.810   7.206  0.0958 -0.2497 -0.0120
 8546SOL     OW37270   1.449   3.674   8.763 -0.5192 -0.1591 -0.3459
 8546SOL    HW137271   1.392   3.750   8.774 -1.0306 -0.7081  0.7381
 8546SOL    HW237272   1.481   3.694   8.675  0.0187 -0.8794 -0.3102
 8547SOL     OW37273   1.403   2.588   8.290  0.7902 -0.1541  1.0834
 8547SOL    HW137274   1.328   2.528   8.291  1.9800 -1.6335 -1.9216
 8547SOL    HW237275   1.375   2.667   8.245  1.9012  0.7371  1.9439
 8548SOL     OW37276   1.198   0.964   6.799 -0.3424 -0.4612 -0.5079
 8548SOL    HW137277   1.203   1.020   6.723  0.2406  0.4990  0.2381
 8548SOL    HW237278   1.173   1.021   6.871 -0.3060  0.0559 -0.9118
 8549SOL     OW37279   1.188   2.081  17.694  0.1021 -0.3861  1.0237
 8549SOL    HW137280   1.215   1.994  17.663  0.2274  0.2129 -0.5047
 8549SOL    HW237281   1.216   2.083   0.047 -1.5583 -0.7882  1.5392
 8550SOL     OW37282   3.409   4.605   4.915  0.8364 -0.1195 -0.1335
 8550SOL    HW137283   3.326   4.630   4.956  0.3554  0.5798 -1.5408
 8550SOL    HW237284   3.454   4.573   4.993  1.5863 -0.6270 -0.7717
 8551SOL     OW37285   4.706   2.006   3.560 -0.4391  0.1569 -0.1774
 8551SOL    HW137286   4.715   1.913   3.583 -1.2949 -0.3660 -1.9644
 8551SOL    HW237287   4.610   2.016   3.560 -0.2413  2.1392  2.6988
 8552SOL     OW37288   0.409   1.916  11.384  0.8601 -0.1136  0.4979
 8552SOL    HW137289   0.418   1.872  11.468 -0.1311 -0.7092  0.3001
 8552SOL    HW237290   0.327   1.882  11.348  1.5379 -2.2798  1.0192
 8553SOL     OW37291   0.546   1.197   5.752  0.1513 -0.2516  0.5242
 8553SOL    HW137292   0.518   1.136   5.685 -0.1704 -0.9691  1.3139
 8553SOL    HW237293   0.621   1.151   5.792  0.1604 -0.7343 -0.0497
 8554SOL     OW37294   1.925   4.185   8.118 -0.7938 -0.0951  0.5420
 8554SOL    HW137295   1.887   4.197   8.031  0.4412  1.2786  0.1710
 8554SOL    HW237296   1.847   4.192   8.172  0.2027 -0.2418  2.0000
 8555SOL     OW37297   0.346   3.703   3.822 -0.1769  0.7531 -0.1211
 8555SOL    HW137298   0.439   3.728   3.820  0.2639 -0.6046  3.4094
 8555SOL    HW237299   0.361   3.609   3.817 -0.5291  0.6364  0.9134
 8556SOL     OW37300   1.144   2.282   3.046 -0.1779 -0.6806 -0.0556
 8556SOL    HW137301   1.118   2.190   3.044  2.1528 -1.3583 -0.0229
 8556SOL    HW237302   1.232   2.276   3.007  0.0441 -0.1413  0.3575
 8557SOL     OW37303   2.043   1.186   2.132  0.0849  0.2846 -0.3506
 8557SOL    HW137304   1.984   1.122   2.173 -0.6479 -0.8515 -3.0978
 8557SOL    HW237305   2.118   1.131   2.108  0.3371  0.2952  0.4193
 8558SOL     OW37306   1.688   2.332  16.234 -0.1283  0.6532  0.5069
 8558SOL    HW137307   1.710   2.374  16.150  0.9515  0.3104  0.6230
 8558SOL    HW237308   1.772   2.321  16.278  0.1001 -0.0291 -0.1115
 8559SOL     OW37309   1.171   0.759   0.607  0.0772 -0.2086 -0.2580
 8559SOL    HW137310   1.127   0.717   0.681 -0.9235 -0.4308 -0.9762
 8559SOL    HW237311   1.226   0.684   0.581  0.8208  0.4998 -0.7183
 8560SOL     OW37312   0.608   0.942   6.912 -0.5376  0.2080  0.6008
 8560SOL    HW137313   0.691   0.973   6.949  0.6961 -0.0738 -1.9535
 8560SOL    HW237314   0.556   1.021   6.902 -1.9295 -0.5794  1.4674
 8561SOL     OW37315   0.299   4.559   2.498  0.0873  0.1902 -0.7308
 8561SOL    HW137316   0.343   4.644   2.494  1.4165 -0.4733  0.1826
 8561SOL    HW237317   0.257   4.557   2.412 -1.2951 -0.3012 -0.0435
 8562SOL     OW37318   1.985   1.481   7.409  0.1192 -0.3312 -0.7458
 8562SOL    HW137319   1.957   1.501   7.498 -0.5128  0.0269 -1.0266
 8562SOL    HW237320   1.902   1.474   7.361  0.6459  0.3097 -1.7586
 8563SOL     OW37321   1.354   2.914   8.964 -0.1839  0.3675  0.0529
 8563SOL    HW137322   1.315   2.857   9.029 -0.7448  2.5211  1.5948
 8563SOL    HW237323   1.324   3.004   8.978  0.4987  0.3158  1.7979
 8564SOL     OW37324   2.967   3.337   5.756 -0.0737 -0.2778  0.2189
 8564SOL    HW137325   2.953   3.341   5.850 -0.8423  0.0426  0.0892
 8564SOL    HW237326   2.892   3.293   5.715 -0.6835  0.8682  0.0909
 8565SOL     OW37327   0.730   3.459   7.930 -0.2940 -0.0986 -0.1455
 8565SOL    HW137328   0.640   3.432   7.944 -0.3528 -0.2800 -0.9007
 8565SOL    HW237329   0.733   3.503   7.845 -0.0819  0.4799  0.1615
 8566SOL     OW37330   4.467   4.240   3.067  0.1223  0.2731 -0.1315
 8566SOL    HW137331   4.546   4.290   3.044  1.4146 -1.9214 -0.4728
 8566SOL    HW237332   4.473   4.231   3.162 -2.3185 -1.1929 -0.1425
 8567SOL     OW37333   3.505   2.946   5.587 -0.3081 -0.4341 -0.3304
 8567SOL    HW137334   3.584   2.990   5.618 -1.7969  1.3298  0.9089
 8567SOL    HW237335   3.524   2.950   5.493  0.6603 -1.6851 -0.1974
 8568SOL     OW37336   0.522   0.462   1.730 -0.6056  0.1001 -0.2287
 8568SOL    HW137337   0.509   0.464   1.635 -2.0966  0.1975 -0.0135
 8568SOL    HW237338   0.604   0.511   1.732 -1.0801  0.7908  1.8694
 8569SOL     OW37339   0.438   3.679   2.511 -0.0582 -0.0886 -0.0930
 8569SOL    HW137340   0.361   3.646   2.464 -0.7914 -0.5829  1.4512
 8569SOL    HW237341   0.409   3.694   2.601 -1.8868 -0.9246 -0.5439
 8570SOL     OW37342   3.855   4.215   7.727  0.6212 -0.1096 -0.6170
 8570SOL    HW137343   3.828   4.220   7.636 -2.6283  0.6496  0.3900
 8570SOL    HW237344   3.883   4.307   7.731  1.6617 -0.4352 -0.3099
 8571SOL     OW37345   0.772   0.872  10.575  0.6300  0.0253 -0.2959
 8571SOL    HW137346   0.724   0.907  10.649  1.2742 -0.6818  0.4601
 8571SOL    HW237347   0.763   0.778  10.592  2.0289 -0.6384 -3.1542
 8572SOL     OW37348   2.125   1.967  13.505  1.0425  0.9117  0.2556
 8572SOL    HW137349   2.073   1.955  13.425  2.6137 -0.2398 -0.6011
 8572SOL    HW237350   2.078   1.895  13.548 -0.9061  1.7918 -0.3940
 8573SOL     OW37351   1.211   4.709   4.386 -0.2245 -0.2322  0.0901
 8573SOL    HW137352   1.243   4.667   4.466  0.1126  0.2864  0.2271
 8573SOL    HW237353   1.293   0.012   4.354 -1.1678 -0.3238 -2.4815
 8574SOL     OW37354   2.655   1.100   2.760 -0.0569  0.2214 -0.0158
 8574SOL    HW137355   2.693   1.124   2.845 -0.7017 -0.1922  0.3938
 8574SOL    HW237356   2.733   1.087   2.706  1.5922  3.5240  1.5548
 8575SOL     OW37357   1.155   0.522   1.286 -0.7491 -0.5089 -0.3560
 8575SOL    HW137358   1.104   0.442   1.296  1.4394 -1.4859  2.9455
 8575SOL    HW237359   1.128   0.549   1.198  0.0764  0.9913 -0.1568
 8576SOL     OW37360   1.438   3.908   1.720 -0.7144  0.0586  0.4337
 8576SOL    HW137361   1.400   3.824   1.695  0.2866 -0.9247  2.2199
 8576SOL    HW237362   1.477   3.937   1.637  0.3852  3.0824  2.0114
 8577SOL     OW37363   2.709   3.752  17.406 -0.4497 -0.3750  0.2650
 8577SOL    HW137364   2.671   3.830  17.367  0.2642 -0.2471 -0.1733
 8577SOL    HW237365   2.799   3.784  17.411  0.5915 -3.0004 -1.6263
 8578SOL     OW37366   3.961   4.466  15.247  0.0389 -0.3802 -0.3162
 8578SOL    HW137367   3.963   4.538  15.184  1.7186  0.8393  1.1456
 8578SOL    HW237368   4.055   4.448  15.247  0.2031  0.4247 -1.9310
 8579SOL     OW37369   1.636   3.658   9.295 -0.2638  0.1210 -0.4156
 8579SOL    HW137370   1.635   3.582   9.236 -0.8120  0.4533 -0.8270
 8579SOL    HW237371   1.555   3.657   9.345  0.2816 -0.0601  0.4595
 8580SOL     OW37372   3.044   4.445  17.096 -0.6285  0.0264  0.2163
 8580SOL    HW137373   2.964   4.394  17.092 -0.7783  0.1074  2.3737
 8580SOL    HW237374   3.035   4.473  17.187  3.2047 -2.3195  1.3298
 8581SOL     OW37375   3.253   3.799   9.130 -0.6287 -0.2544 -0.1805
 8581SOL    HW137376   3.271   3.812   9.037  3.2461  0.7962  0.7110
 8581SOL    HW237377   3.253   3.705   9.149 -1.2584 -0.2673 -0.2480
 8582SOL     OW37378   3.643   2.279   9.093  0.5844 -0.1967  0.3232
 8582SOL    HW137379   3.643   2.285   8.997  0.6140  0.2820  0.3554
 8582SOL    HW237380   3.665   2.368   9.121  1.5052 -0.3597  0.1363
 8583SOL     OW37381   0.166   2.851   7.598 -0.3728  0.0694 -0.4278
 8583SOL    HW137382   0.248   2.899   7.615 -0.4644 -0.5319  1.6020
 8583SOL    HW237383   0.189   2.806   7.516 -0.1478 -1.4127  0.4518
 8584SOL     OW37384   3.917   2.704   8.910  0.2509 -0.0017  0.2977
 8584SOL    HW137385   3.888   2.795   8.913  2.7534  0.8152 -0.5196
 8584SOL    HW237386   3.995   2.695   8.964  0.2647  1.1616  0.4610
 8585SOL     OW37387   4.379   3.996   5.054 -0.3184  0.3803 -0.3167
 8585SOL    HW137388   4.284   3.995   5.065 -0.2579  1.5145  0.2324
 8585SOL    HW237389   4.384   3.913   5.005  0.9173 -0.1823  0.7525
 8586SOL     OW37390   2.465   1.401  12.330 -0.2110 -0.0929 -0.0280
 8586SOL    HW137391   2.424   1.479  12.367 -0.4635  1.2646 -3.1910
 8586SOL    HW237392   2.388   1.345  12.346  0.1475 -1.0374 -1.6932
 8587SOL     OW37393   4.528   2.130   1.926 -0.0951  0.0778 -0.0083
 8587SOL    HW137394   4.550   2.090   2.010 -1.2927 -0.3069  0.1163
 8587SOL    HW237395   4.440   2.166   1.941  0.0183  1.1768 -1.9386
 8588SOL     OW37396   1.713   0.243   8.712  0.4338 -0.7157  0.0711
 8588SOL    HW137397   1.749   0.198   8.636 -0.9988 -0.8163 -0.5423
 8588SOL    HW237398   1.650   0.173   8.728  0.5071 -0.4024  1.8002
 8589SOL     OW37399   3.431   1.863   4.821  0.1513  0.3280  0.0888
 8589SOL    HW137400   3.413   1.943   4.871 -0.0674  0.1829  0.2394
 8589SOL    HW237401   3.383   1.881   4.740 -1.7502  1.8530  1.5637
 8590SOL     OW37402   3.711   0.289  10.828 -0.6434  0.2737  0.0501
 8590SOL    HW137403   3.646   0.356  10.848  0.9772  1.6959  0.5527
 8590SOL    HW237404   3.657   0.224  10.783  1.5385 -1.7967  0.3990
 8591SOL     OW37405   3.258   3.685  12.399  0.2577 -0.8072 -0.7803
 8591SOL    HW137406   3.273   3.610  12.340  0.5325 -3.2117  2.3278
 8591SOL    HW237407   3.336   3.739  12.408 -0.8579  0.8710 -1.2610
 8592SOL     OW37408   3.361   2.047   1.313 -0.1519 -0.3465  0.0568
 8592SOL    HW137409   3.448   2.076   1.342  0.4750 -0.4971 -1.6254
 8592SOL    HW237410   3.383   2.051   1.220 -1.2592 -1.3554 -0.2406
 8593SOL     OW37411   2.954   1.841  16.991  0.1437  0.3982  0.1542
 8593SOL    HW137412   2.931   1.844  17.084 -0.2751 -2.2142  0.1225
 8593SOL    HW237413   3.047   1.865  16.998  0.0448  1.1318 -0.9551
 8594SOL     OW37414   4.110   3.823   7.368 -0.4224  0.2689  0.7233
 8594SOL    HW137415   4.020   3.796   7.347 -0.1834 -0.2477  0.3676
 8594SOL    HW237416   4.122   3.773   7.449  0.5246 -2.0474 -0.8683
 8595SOL     OW37417   0.854   0.893   9.179  0.9676 -0.0257  0.7288
 8595SOL    HW137418   0.883   0.848   9.259 -2.1297 -1.3118  1.1443
 8595SOL    HW237419   0.816   0.822   9.127  0.3455  0.4439  0.5546
 8596SOL     OW37420   2.755   3.563   3.641 -0.0191  0.1084  0.6931
 8596SOL    HW137421   2.731   3.655   3.655 -0.1538  0.2120 -0.2668
 8596SOL    HW237422   2.793   3.541   3.726  0.3090  1.1503  0.8191
 8597SOL     OW37423   3.968   3.910   7.963  0.3553 -0.1872  0.0273
 8597SOL    HW137424   3.980   3.890   8.056 -3.8629  0.3112  0.6582
 8597SOL    HW237425   4.033   3.852   7.922  1.7717  0.6996  1.0096
 8598SOL     OW37426   3.324   3.321   2.438 -0.2408  0.1389 -0.1322
 8598SOL    HW137427   3.379   3.316   2.516  0.2946 -1.1437 -0.5980
 8598SOL    HW237428   3.331   3.235   2.398  1.3688 -0.7644  2.1146
 8599SOL     OW37429   2.656   0.557  17.554  0.0186  0.2671  0.5164
 8599SOL    HW137430   2.661   0.487  17.619  0.2596  0.2386  0.4650
 8599SOL    HW237431   2.749   0.576  17.546 -0.1016 -0.0770 -1.6204
 8600SOL     OW37432   3.769   3.033   5.768 -0.7315 -0.1982  0.0197
 8600SOL    HW137433   3.808   2.984   5.695 -2.2586 -3.7763  1.5956
 8600SOL    HW237434   3.711   2.961   5.791 -4.0533  2.8888  1.1083
 8601SOL     OW37435   3.455   0.571  15.530  0.2661  0.4012 -0.4319
 8601SOL    HW137436   3.535   0.577  15.478  0.7770  1.2226  0.4312
 8601SOL    HW237437   3.412   0.653  15.503 -0.4149  0.0189 -0.5072
 8602SOL     OW37438   3.430   4.480   5.174  0.8239 -0.5872 -0.6777
 8602SOL    HW137439   3.474   4.483   5.260 -1.4205  2.0677  0.3733
 8602SOL    HW237440   3.347   4.525   5.187  0.8145 -1.1707  1.3006
 8603SOL     OW37441   0.402   1.001   1.182 -0.2343 -0.1011  0.7610
 8603SOL    HW137442   0.344   0.930   1.154  0.0130  0.2501 -0.6293
 8603SOL    HW237443   0.339   1.073   1.179  0.6143  0.5629 -0.8754
 8604SOL     OW37444   1.333   3.044   6.222 -0.0727  0.1833 -0.3934
 8604SOL    HW137445   1.364   3.035   6.132  1.2217  2.8664 -0.2140
 8604SOL    HW237446   1.394   2.987   6.269 -0.9391 -0.4560 -0.0373
 8605SOL     OW37447   2.872   3.023  17.188  0.1076  0.7573 -0.2554
 8605SOL    HW137448   2.849   2.956  17.124 -0.4092 -0.6507  1.4223
 8605SOL    HW237449   2.886   3.097  17.129  0.9931 -0.3682 -1.4546
 8606SOL     OW37450   4.010   0.640   8.146 -0.0183 -0.1850 -0.2603
 8606SOL    HW137451   4.035   0.642   8.238  2.1554  2.0824 -0.8898
 8606SOL    HW237452   3.917   0.620   8.162 -0.1505  1.3156  0.8145
 8607SOL     OW37453   1.346   0.119   8.964 -0.0443  0.3401 -0.0782
 8607SOL    HW137454   1.275   0.055   8.954  1.9973 -1.5877 -2.2545
 8607SOL    HW237455   1.421   0.081   8.917  1.4162  0.6201  1.9966
 8608SOL     OW37456   4.225   0.110   7.240 -0.2633 -0.2962 -0.1050
 8608SOL    HW137457   4.160   0.065   7.293  0.6947  0.1362  1.4287
 8608SOL    HW237458   4.302   0.068   7.278  1.1643  1.3503 -1.1779
 8609SOL     OW37459   2.891   0.702   5.898  0.5095 -0.1323 -0.8413
 8609SOL    HW137460   2.939   0.728   5.977 -0.9166  1.6500 -0.5596
 8609SOL    HW237461   2.876   0.783   5.850 -0.5544 -2.1579 -3.8976
 8610SOL     OW37462   1.935   1.432   7.679  0.4085  0.1970  0.1233
 8610SOL    HW137463   1.863   1.491   7.699  0.2693 -1.3544  4.1885
 8610SOL    HW237464   1.971   1.403   7.762  1.6465  2.3324  0.3112
 8611SOL     OW37465   0.046   2.890  10.519  0.5667 -0.2791  0.3398
 8611SOL    HW137466   0.039   2.966  10.461  1.3918 -2.2284 -2.3473
 8611SOL    HW237467   4.704   2.902  10.574 -1.9984 -1.0425 -3.0655
 8612SOL     OW37468   1.526   0.758   8.799  0.4698  0.4719 -0.3559
 8612SOL    HW137469   1.574   0.676   8.808 -1.5612 -0.4468  2.1162
 8612SOL    HW237470   1.570   0.800   8.725 -0.2536  1.0065 -0.4855
 8613SOL     OW37471   0.661   0.061  11.952  0.0264  0.0015  0.0271
 8613SOL    HW137472   0.650   0.124  12.024  0.5987 -0.3878  0.4520
 8613SOL    HW237473   0.672   4.714  12.000  1.5768  1.3221  1.9563
 8614SOL     OW37474   1.795   2.710   3.036  0.1518 -0.1470 -0.2246
 8614SOL    HW137475   1.785   2.777   3.104 -1.4505 -0.8404  0.2160
 8614SOL    HW237476   1.703   2.684   3.035 -0.0676  0.4952  1.5382
 8615SOL     OW37477   3.405   3.407  15.333  0.6815 -0.3760  0.0383
 8615SOL    HW137478   3.367   3.405  15.245 -1.5983 -2.0062  1.0720
 8615SOL    HW237479   3.455   3.325  15.326  1.6266  0.1680  0.3562
 8616SOL     OW37480   3.590   1.181   5.817 -0.0464 -0.6463  0.2117
 8616SOL    HW137481   3.563   1.273   5.817  1.1659 -0.2964 -0.9927
 8616SOL    HW237482   3.685   1.191   5.829 -0.1756  1.5828 -0.6039
 8617SOL     OW37483   3.410   3.692   2.483 -0.6831  0.0964 -0.4810
 8617SOL    HW137484   3.434   3.671   2.393  0.9044 -3.0056  0.6678
 8617SOL    HW237485   3.331   3.641   2.495 -1.0388  0.2961 -1.9670
 8618SOL     OW37486   2.379   0.985   4.076  0.0971 -0.0945  0.2447
 8618SOL    HW137487   2.406   0.895   4.093 -0.8588  0.0954  2.7364
 8618SOL    HW237488   2.322   1.004   4.150  0.8430  1.4959  0.4252
 8619SOL     OW37489   4.364   2.652   2.582  0.2310  0.2267  0.0300
 8619SOL    HW137490   4.352   2.747   2.577 -0.4088 -0.0106 -2.5532
 8619SOL    HW237491   4.411   2.653   2.666 -1.1552 -1.1771  0.8266
 8620SOL     OW37492   3.079   2.280   7.731 -0.0814 -0.5809  0.2901
 8620SOL    HW137493   2.985   2.290   7.749  0.2376  2.5739  0.2145
 8620SOL    HW237494   3.078   2.197   7.683  0.1637  0.4774 -1.5339
 8621SOL     OW37495   3.605   4.025   7.292 -0.0037  0.0052 -0.5726
 8621SOL    HW137496   3.658   4.096   7.328 -0.4027  1.1441 -2.2559
 8621SOL    HW237497   3.595   3.961   7.363 -0.0182 -0.1229 -0.6895
 8622SOL     OW37498   0.899   0.670  14.176 -0.5110  0.8474  0.1906
 8622SOL    HW137499   0.906   0.766  14.173 -1.3185  0.9378  1.0108
 8622SOL    HW237500   0.812   0.655  14.138  0.1929 -0.5255 -0.8856
 8623SOL     OW37501   3.246   1.945  16.960  0.9461  0.3957 -0.2530
 8623SOL    HW137502   3.211   1.936  16.871 -0.4321 -0.7635  0.3934
 8623SOL    HW237503   3.334   1.910  16.953  0.3612 -1.5597  1.8792
 8624SOL     OW37504   4.088   4.190   9.148 -0.2895  0.3110  0.3285
 8624SOL    HW137505   4.107   4.263   9.206 -1.0983  1.9377 -1.4514
 8624SOL    HW237506   4.008   4.159   9.189 -0.3243  0.0598  0.0708
 8625SOL     OW37507   4.140   1.712   4.864  0.2666  0.1338  0.4763
 8625SOL    HW137508   4.186   1.781   4.816  1.2243 -0.1249  1.0146
 8625SOL    HW237509   4.052   1.722   4.829 -0.8698  0.6800  3.4409
 8626SOL     OW37510   1.020   4.159  16.644 -0.1540 -0.3747 -0.2324
 8626SOL    HW137511   0.996   4.204  16.563 -1.7299  0.5208  0.7230
 8626SOL    HW237512   0.960   4.201  16.705 -1.4225 -0.1781 -1.6282
 8627SOL     OW37513   0.069   4.254   9.860 -0.0685  0.9343 -0.0753
 8627SOL    HW137514   4.731   4.288   9.911  0.0680 -0.2983  0.9321
 8627SOL    HW237515   0.063   4.164   9.892 -0.5727  0.9506 -0.1222
 8628SOL     OW37516   2.948   1.679   3.986 -0.2143 -0.4551 -0.1484
 8628SOL    HW137517   2.954   1.662   3.892 -2.9659 -0.0791 -0.3761
 8628SOL    HW237518   2.877   1.744   3.984 -1.7625 -2.2029 -1.4386
 8629SOL     OW37519   3.392   0.016  14.313  0.4604  0.3150  0.0367
 8629SOL    HW137520   3.421   4.670  14.270  0.6912 -0.7788  2.2831
 8629SOL    HW237521   3.297   0.007  14.311  0.1604  2.6722  4.0838
 8630SOL     OW37522   3.427   3.082   7.259 -0.0324 -0.0829 -0.1791
 8630SOL    HW137523   3.419   3.054   7.350 -0.7882  0.3199 -0.1210
 8630SOL    HW237524   3.503   3.031   7.230  3.5780  3.4851  3.0107
 8631SOL     OW37525   2.506   1.673   7.622 -0.6277 -0.4841  0.2877
 8631SOL    HW137526   2.463   1.602   7.670  1.2093 -0.6597  1.6905
 8631SOL    HW237527   2.523   1.642   7.533  2.4229  0.2764  0.6040
 8632SOL     OW37528   0.385   2.591   5.473  0.2846 -0.0048  0.2892
 8632SOL    HW137529   0.352   2.678   5.494 -1.5249 -0.1312 -2.0226
 8632SOL    HW237530   0.471   2.621   5.441  1.0221 -0.0743  2.2037
 8633SOL     OW37531   2.074   2.034   5.780 -0.0700 -0.2714  0.2148
 8633SOL    HW137532   2.042   1.984   5.856  0.7259 -0.2985  0.5286
 8633SOL    HW237533   2.118   1.967   5.729 -1.4817 -0.6369 -0.5227
 8634SOL     OW37534   3.972   0.155  15.476  0.4425 -0.0703  0.2137
 8634SOL    HW137535   3.921   0.080  15.448  1.3501 -0.4765 -0.3361
 8634SOL    HW237536   4.044   0.114  15.524  2.0099  1.8813 -0.4646
 8635SOL     OW37537   4.624   1.226   5.604  0.0453  0.2509 -0.3315
 8635SOL    HW137538   4.572   1.181   5.537 -1.4393  0.8987  0.4048
 8635SOL    HW237539   4.702   1.169   5.603 -0.0137  0.1682 -0.1219
 8636SOL     OW37540   3.187   1.150   0.019  0.1502  0.2917 -0.0416
 8636SOL    HW137541   3.173   1.148  17.663 -1.8620 -1.7902  0.2950
 8636SOL    HW237542   3.111   1.098   0.046  1.5809 -0.6385  2.1363
 8637SOL     OW37543   3.266   2.960   8.822 -0.1182 -0.2253  0.1648
 8637SOL    HW137544   3.185   2.950   8.871  0.0112  0.6732  0.5747
 8637SOL    HW237545   3.238   3.011   8.746  1.3633 -1.4419 -1.2141
 8638SOL     OW37546   0.804   1.629   5.394 -0.4251  0.0956  0.2052
 8638SOL    HW137547   0.824   1.723   5.398  1.2009 -0.1651 -1.8008
 8638SOL    HW237548   0.815   1.604   5.302 -0.7639 -0.5383  0.3338
 8639SOL     OW37549   1.017   1.346  10.357  0.3275 -0.1085  0.3849
 8639SOL    HW137550   1.035   1.341  10.264 -0.7809  1.5783  0.0701
 8639SOL    HW237551   1.101   1.367  10.397 -0.4050  1.9186  0.8770
 8640SOL     OW37552   3.435   4.635   9.104  0.4345 -0.0998 -0.2131
 8640SOL    HW137553   3.406   4.637   9.012 -1.7812 -2.2414  0.4463
 8640SOL    HW237554   3.456   4.727   9.117 -0.1429  0.3292 -2.2572
 8641SOL     OW37555   1.607   0.338   5.994  0.1748 -0.2972  0.3641
 8641SOL    HW137556   1.698   0.319   5.971  0.1538  1.5895 -1.2784
 8641SOL    HW237557   1.558   0.262   5.961 -0.8520  0.3509  0.3700
 8642SOL     OW37558   0.200   2.058   8.583 -0.5213 -0.0785  0.5822
 8642SOL    HW137559   0.147   2.009   8.520 -2.7670  2.7371  0.2580
 8642SOL    HW237560   0.132   2.079   8.647  0.3549  2.9527  0.5451
 8643SOL     OW37561   1.690   0.814   6.180  0.3184  0.0476  1.3261
 8643SOL    HW137562   1.665   0.749   6.114 -0.9939  1.7415  0.1530
 8643SOL    HW237563   1.602   0.832   6.213 -1.9020 -0.8878 -3.9765
 8644SOL     OW37564   3.888   2.645   5.808 -0.4911  0.5708 -0.3048
 8644SOL    HW137565   3.971   2.657   5.763 -0.5697  1.3926 -0.2235
 8644SOL    HW237566   3.870   2.733   5.840  1.9451  0.4556  1.3338
 8645SOL     OW37567   2.575   0.295  14.126  0.2378  0.2448 -0.1935
 8645SOL    HW137568   2.621   0.278  14.209 -0.3093  1.0813  0.2769
 8645SOL    HW237569   2.491   0.322  14.164  1.8962  5.2875 -0.0495
 8646SOL     OW37570   3.232   4.163   8.377 -0.3130  0.1889 -0.1923
 8646SOL    HW137571   3.213   4.094   8.441  1.7525  0.2882  0.5170
 8646SOL    HW237572   3.324   4.181   8.397 -0.7767 -0.5890  2.5658
 8647SOL     OW37573   4.428   0.868   1.736  0.4906  0.3616 -0.7583
 8647SOL    HW137574   4.457   0.777   1.726 -2.0736 -0.4746 -0.5456
 8647SOL    HW237575   4.450   0.897   1.825  0.0355 -1.8540  0.0837
 8648SOL     OW37576   3.623   0.646  10.319 -0.1568  0.0297 -0.2303
 8648SOL    HW137577   3.551   0.685  10.269 -0.2168 -0.4639 -0.5318
 8648SOL    HW237578   3.615   0.686  10.406  0.4076 -1.7838  0.6691
 8649SOL     OW37579   2.286   1.744   3.756 -0.0311 -0.0079 -0.4224
 8649SOL    HW137580   2.210   1.780   3.801  1.1379 -2.1575  3.3395
 8649SOL    HW237581   2.260   1.652   3.747 -0.2966 -0.0451  0.7635
 8650SOL     OW37582   4.428   2.618   9.647 -0.0496  0.4141  0.1640
 8650SOL    HW137583   4.397   2.556   9.580 -1.2106  0.7150  0.4138
 8650SOL    HW237584   4.459   2.560   9.717 -0.1375  0.1212 -0.0361
 8651SOL     OW37585   2.206   0.225   5.126 -0.3866 -0.5622 -0.0276
 8651SOL    HW137586   2.243   0.259   5.207  0.3362 -1.7384  0.1321
 8651SOL    HW237587   2.130   0.178   5.160 -0.3493 -1.3459 -1.0084
 8652SOL     OW37588   1.986   1.005   2.500 -0.1768  0.5164  0.3366
 8652SOL    HW137589   2.050   1.073   2.523  0.5701  1.0383 -3.3678
 8652SOL    HW237590   1.997   0.996   2.405 -2.1287 -0.5719  0.2236
 8653SOL     OW37591   1.146   1.874   2.645 -0.2590  0.3048 -0.5619
 8653SOL    HW137592   1.153   1.938   2.575 -0.8301  0.3015 -0.6207
 8653SOL    HW237593   1.176   1.928   2.718 -0.8821  2.0857 -1.6390
 8654SOL     OW37594   0.006   2.433  16.341  0.2852  0.4453 -0.3232
 8654SOL    HW137595   0.058   2.503  16.381 -3.1293  3.3319 -0.9385
 8654SOL    HW237596   4.689   2.491  16.286  0.2192  0.1551 -0.5670
 8655SOL     OW37597   2.255   3.878   2.983 -0.2713  0.2443  0.0088
 8655SOL    HW137598   2.265   3.862   2.889 -2.3151 -2.6911  0.2857
 8655SOL    HW237599   2.184   3.818   3.006 -1.2264  2.2031  2.2240
 8656SOL     OW37600   4.125   2.533  13.112 -0.2485 -0.0849  0.0529
 8656SOL    HW137601   4.031   2.516  13.113 -0.4837  1.2711  0.8146
 8656SOL    HW237602   4.156   2.458  13.062 -2.4717 -0.8674 -0.1662
 8657SOL     OW37603   2.220   2.786  12.433  0.0995  0.5213 -0.2318
 8657SOL    HW137604   2.283   2.767  12.502 -0.4247 -0.9783 -0.1717
 8657SOL    HW237605   2.171   2.856  12.476  1.6337  0.9307  0.8668
 8658SOL     OW37606   1.853   2.502   8.519 -0.5159  0.3032 -0.7499
 8658SOL    HW137607   1.770   2.474   8.481  0.2330 -0.0833 -2.0892
 8658SOL    HW237608   1.835   2.576   8.578 -0.4541 -1.2593  1.2199
 8659SOL     OW37609   3.631   4.013   2.866 -0.4332 -0.6232  0.0607
 8659SOL    HW137610   3.630   4.109   2.871 -0.3882 -0.5280 -1.8725
 8659SOL    HW237611   3.559   4.007   2.804 -1.4893  3.1819  0.8680
 8660SOL     OW37612   2.671   0.611   7.047 -0.1723  0.0868  0.4534
 8660SOL    HW137613   2.716   0.645   6.970 -2.0739  0.4923 -0.4671
 8660SOL    HW237614   2.673   0.681   7.112 -1.7656  1.8173 -1.3557
 8661SOL     OW37615   4.000   2.403  11.385 -0.0336  0.3180 -0.9055
 8661SOL    HW137616   3.912   2.367  11.391 -0.3594  1.4459  0.9733
 8661SOL    HW237617   4.057   2.327  11.397  0.7064  0.9638 -0.2720
 8662SOL     OW37618   3.685   1.933   4.726  0.7368 -0.2705 -0.0725
 8662SOL    HW137619   3.678   1.854   4.673  3.2976  0.3480 -1.2980
 8662SOL    HW237620   3.618   1.916   4.793  0.4209  2.3209  0.2929
 8663SOL     OW37621   0.202   2.204  16.702  0.6746  0.2039 -0.0101
 8663SOL    HW137622   0.145   2.190  16.627 -0.2145  1.0818  0.5021
 8663SOL    HW237623   0.232   2.115  16.723  1.0971  0.6895  1.4455
 8664SOL     OW37624   0.967   2.638  14.918 -0.3584  0.3760  0.2512
 8664SOL    HW137625   1.034   2.581  14.880 -0.5619  0.0927  0.3133
 8664SOL    HW237626   1.014   2.671  14.994  0.5928  0.2065 -0.2634
 8665SOL     OW37627   2.130   2.362   3.188  0.0817  0.0318 -0.2801
 8665SOL    HW137628   2.106   2.422   3.117  0.4862  0.7127  0.1565
 8665SOL    HW237629   2.039   2.348   3.215  0.1841  0.5457  0.3385
 8666SOL     OW37630   2.668   1.545  14.853 -0.5802  0.0216 -0.3695
 8666SOL    HW137631   2.573   1.560  14.852 -0.5598  0.2032  0.1928
 8666SOL    HW237632   2.700   1.634  14.868  0.1315 -0.4230  0.7401
 8667SOL     OW37633   2.587   3.029   7.409  0.3285  0.1709 -0.6188
 8667SOL    HW137634   2.587   2.962   7.478  2.2221  0.1551 -0.6244
 8667SOL    HW237635   2.672   3.024   7.365 -0.1477  2.1999 -1.7771
 8668SOL     OW37636   2.024   1.683   2.585  0.5417  0.0179  0.0444
 8668SOL    HW137637   2.065   1.743   2.523 -0.7399  0.2795 -0.5698
 8668SOL    HW237638   2.053   1.722   2.667 -0.2514  1.7261 -0.4888
 8669SOL     OW37639   1.851   0.074  11.759 -0.1257  0.0122 -0.2126
 8669SOL    HW137640   1.866   4.717  11.780 -0.1393 -0.0947 -0.6728
 8669SOL    HW237641   1.890   0.077  11.672 -0.8923 -1.0191 -0.5885
 8670SOL     OW37642   2.954   3.834  17.440  0.3758  0.2525  0.1150
 8670SOL    HW137643   3.027   3.879  17.397 -0.1369 -1.2348 -2.3100
 8670SOL    HW237644   2.990   3.842  17.529 -3.1223 -0.6222  1.6042
 8671SOL     OW37645   0.519   0.858   6.625  0.0839  0.1919  0.0963
 8671SOL    HW137646   0.581   0.926   6.597 -2.3033  1.9166 -1.0723
 8671SOL    HW237647   0.522   0.879   6.718 -0.8778  0.0872  0.1474
 8672SOL     OW37648   0.863   2.135   4.362 -0.2975 -0.6089  0.1983
 8672SOL    HW137649   0.874   2.198   4.433  1.8581  0.5779 -1.2070
 8672SOL    HW237650   0.775   2.108   4.390 -0.5550 -0.6718 -0.6691
 8673SOL     OW37651   0.975   0.085  17.245 -0.3948  0.7167 -0.4462
 8673SOL    HW137652   1.002   0.029  17.173  2.0124  0.3473  0.7324
 8673SOL    HW237653   0.890   0.114  17.211 -1.3702  0.5118  1.8351
 8674SOL     OW37654   1.808   3.940   6.549 -0.4766  0.1484  0.4876
 8674SOL    HW137655   1.885   3.882   6.548 -0.0826  0.6605  0.8247
 8674SOL    HW237656   1.748   3.892   6.492 -1.4136  1.2294  0.5720
 8675SOL     OW37657   1.915   3.433   2.488 -0.0522 -0.8149 -0.3707
 8675SOL    HW137658   1.961   3.368   2.540 -2.1746 -1.3917  0.7899
 8675SOL    HW237659   1.875   3.379   2.421  0.3770 -0.0444 -1.2509
 8676SOL     OW37660   0.515   1.334   2.308  0.1028  0.3180  0.1445
 8676SOL    HW137661   0.451   1.263   2.309 -2.1157  2.3473  1.3733
 8676SOL    HW237662   0.589   1.281   2.278 -0.6489  0.3640 -1.7922
 8677SOL     OW37663   0.775   0.147   3.709  0.5199  0.1932 -0.1979
 8677SOL    HW137664   0.800   0.060   3.739 -1.5908 -1.1770 -2.4046
 8677SOL    HW237665   0.681   0.136   3.723  1.4349 -1.6068  4.3838
 8678SOL     OW37666   2.358   3.953   9.198  0.2096  0.7380  0.3437
 8678SOL    HW137667   2.294   4.013   9.161  2.4064  1.2943 -2.5324
 8678SOL    HW237668   2.311   3.870   9.210  2.1444 -0.3093  0.7679
 8679SOL     OW37669   1.549   4.208  15.917 -0.2599 -0.6540 -0.4367
 8679SOL    HW137670   1.579   4.117  15.921  0.1987 -0.3636  2.6324
 8679SOL    HW237671   1.455   4.199  15.904 -0.6540  0.7495  1.6167
 8680SOL     OW37672   4.278   0.400   2.499 -0.1807  0.5127  0.0846
 8680SOL    HW137673   4.322   0.317   2.517  0.1071  0.4165 -1.0700
 8680SOL    HW237674   4.231   0.419   2.580  0.4433 -1.6120  0.9451
 8681SOL     OW37675   0.805   4.494   4.319 -0.5170 -0.6333  0.2304
 8681SOL    HW137676   0.838   4.536   4.398  1.6737 -0.6198 -0.6974
 8681SOL    HW237677   0.769   4.572   4.276  0.2172 -1.5803 -2.0847
 8682SOL     OW37678   0.096   1.474   7.311  0.2213 -0.1112 -0.2207
 8682SOL    HW137679   0.134   1.559   7.288  0.8495  0.0016  1.2127
 8682SOL    HW237680   0.049   1.450   7.231  1.7397 -2.0896 -0.5166
 8683SOL     OW37681   0.138   3.009  10.000  0.0832 -0.0745  0.4033
 8683SOL    HW137682   0.047   3.033  10.019  0.1176 -0.3418  0.8963
 8683SOL    HW237683   0.184   3.085  10.038 -0.0317  0.3339 -0.2813
 8684SOL     OW37684   3.960   3.763   8.443 -0.3898 -0.2081 -0.1766
 8684SOL    HW137685   3.959   3.743   8.536  1.8054  0.7369  0.0481
 8684SOL    HW237686   3.965   3.678   8.399  1.7949 -0.0891 -0.1414
 8685SOL     OW37687   3.842   1.458   2.626 -0.1007 -0.6113  0.1594
 8685SOL    HW137688   3.839   1.372   2.668  0.5220  0.3247  2.0886
 8685SOL    HW237689   3.753   1.476   2.595  0.5078  1.6265 -0.2383
 8686SOL     OW37690   0.894   3.994   6.816 -1.1397 -0.2236 -0.5858
 8686SOL    HW137691   0.944   4.029   6.742  0.1831  1.7946  1.2486
 8686SOL    HW237692   0.807   3.982   6.780 -0.7336 -0.4076 -1.4909
 8687SOL     OW37693   1.570   1.223   8.621 -0.3121  0.3059 -0.0495
 8687SOL    HW137694   1.638   1.172   8.665 -1.4875  1.0516  2.6454
 8687SOL    HW237695   1.511   1.226   8.697 -0.9567 -1.5332 -0.4673
 8688SOL     OW37696   3.402   0.366   3.988 -0.5554  0.2143 -0.0101
 8688SOL    HW137697   3.319   0.319   3.978  0.7287 -2.1253  0.4514
 8688SOL    HW237698   3.427   0.328   4.072 -2.5608  0.7508  0.8315
 8689SOL     OW37699   1.588   0.696   6.917  0.5340  0.2044  0.1128
 8689SOL    HW137700   1.575   0.602   6.901  0.2287  0.0994  0.9847
 8689SOL    HW237701   1.574   0.728   6.828  1.0908  0.0311 -0.0396
 8690SOL     OW37702   0.569   2.585   4.825 -0.3760  0.2501  0.2414
 8690SOL    HW137703   0.545   2.550   4.911  0.1329  0.3751  0.4314
 8690SOL    HW237704   0.633   2.519   4.798  0.4264  1.2602 -0.3031
 8691SOL     OW37705   3.629   4.603   1.300 -0.4054  0.1359  0.1040
 8691SOL    HW137706   3.673   4.568   1.378  0.4271 -0.9864 -0.8835
 8691SOL    HW237707   3.671   4.551   1.233 -1.0792 -1.6210  1.0377
 8692SOL     OW37708   4.008   3.392  14.668  0.9370 -0.0736 -0.3864
 8692SOL    HW137709   3.927   3.438  14.690  0.8632 -0.1845 -0.4253
 8692SOL    HW237710   4.071   3.447  14.714  1.2565  0.6174 -1.6669
 8693SOL     OW37711   3.889   3.696   9.207  0.1284 -0.6600  0.0296
 8693SOL    HW137712   3.850   3.620   9.164 -3.1491  0.9281  0.2232
 8693SOL    HW237713   3.859   3.683   9.297 -1.0583  1.9696  0.0110
 8694SOL     OW37714   0.620   2.481   2.982  0.1488 -0.3647 -0.3413
 8694SOL    HW137715   0.665   2.555   2.940 -2.1703  1.1374 -0.1668
 8694SOL    HW237716   0.534   2.522   2.994  1.2009  1.6067  0.5035
 8695SOL     OW37717   0.476   2.919   3.614 -0.4773  0.0426 -0.1530
 8695SOL    HW137718   0.478   2.850   3.548 -0.6806 -0.2879  0.1869
 8695SOL    HW237719   0.549   2.975   3.588 -0.8614  0.3024 -0.6658
 8696SOL     OW37720   2.846   1.174  17.068  0.3695  0.4438  0.0344
 8696SOL    HW137721   2.804   1.244  17.017 -0.9653 -1.1873 -1.1325
 8696SOL    HW237722   2.922   1.145  17.017 -0.2423 -2.8502  1.0084
 8697SOL     OW37723   3.959   0.182  13.467  0.1249 -0.1197  0.5067
 8697SOL    HW137724   3.999   0.104  13.429  2.3907 -0.3686  3.3867
 8697SOL    HW237725   4.042   0.215  13.500  0.4996  0.8539 -1.3878
 8698SOL     OW37726   4.440   1.370  11.491  0.1127 -1.0891  0.5959
 8698SOL    HW137727   4.344   1.364  11.492  0.2105 -2.5970  0.1616
 8698SOL    HW237728   4.476   1.293  11.534  0.1195 -1.6615 -0.4453
 8699SOL     OW37729   4.071   3.797   7.033  0.3084 -0.1872 -0.0693
 8699SOL    HW137730   3.991   3.763   7.074 -0.7545  3.7456  1.1859
 8699SOL    HW237731   4.049   3.890   7.027  1.3220 -0.0625 -1.5846
 8700SOL     OW37732   0.898   1.695  17.323  0.2665 -0.2776 -0.2522
 8700SOL    HW137733   0.943   1.725  17.244  0.3255  1.3399  0.3953
 8700SOL    HW237734   0.932   1.610  17.351 -1.0681 -0.7989 -0.2411
 8701SOL     OW37735   1.431   0.285   5.734 -0.0490 -0.0216 -0.6378
 8701SOL    HW137736   1.459   0.282   5.643 -1.9118  0.4095 -1.2139
 8701SOL    HW237737   1.441   0.194   5.763 -0.3228  0.1295 -0.0658
 8702SOL     OW37738   4.476   0.186   7.621  0.2556  0.1613 -0.1668
 8702SOL    HW137739   4.437   0.269   7.650  0.5193  0.7663 -1.5214
 8702SOL    HW237740   4.535   0.222   7.555 -0.4010  3.2314  0.8771
 8703SOL     OW37741   2.635   3.191  10.825  0.1544  0.3335  1.1437
 8703SOL    HW137742   2.668   3.102  10.839  0.8801  0.0942 -1.9306
 8703SOL    HW237743   2.679   3.220  10.745  0.5696  2.1806  2.0449
 8704SOL     OW37744   0.554   3.176   8.632  0.0050  0.0796 -0.0266
 8704SOL    HW137745   0.601   3.245   8.585 -2.2129  2.6371  1.4740
 8704SOL    HW237746   0.612   3.124   8.687  0.7813  0.4336 -0.5188
 8705SOL     OW37747   3.119   0.461   2.704  0.5104  0.8358 -0.1686
 8705SOL    HW137748   3.128   0.371   2.735 -0.6618  1.4127  1.9184
 8705SOL    HW237749   3.029   0.475   2.735  0.4539 -1.1677  0.6018
 8706SOL     OW37750   2.549   2.600   6.910  0.8701  0.1571 -0.0210
 8706SOL    HW137751   2.503   2.683   6.921  1.5059  0.5230 -0.1341
 8706SOL    HW237752   2.594   2.619   6.828  1.3461  1.5634  0.5747
 8707SOL     OW37753   0.490   0.083  17.116 -0.2516 -0.2956 -0.1770
 8707SOL    HW137754   0.530   0.007  17.158 -0.0670 -0.6209 -0.9382
 8707SOL    HW237755   0.419   0.034  17.074  0.8835 -0.6116 -1.7288
 8708SOL     OW37756   2.154   2.246   5.636  1.1440  0.0054  0.3755
 8708SOL    HW137757   2.147   2.317   5.700  0.3714  0.5132 -0.2852
 8708SOL    HW237758   2.095   2.179   5.670  1.6495 -2.1303 -2.9095
 8709SOL     OW37759   2.475   1.122   3.387  0.5978  0.3224  0.1178
 8709SOL    HW137760   2.513   1.036   3.405  0.2978  0.5637  1.9307
 8709SOL    HW237761   2.508   1.165   3.466  1.8453 -0.5701  0.0678
 8710SOL     OW37762   3.853   0.068   9.396  0.3681 -0.1747 -0.5025
 8710SOL    HW137763   3.917   0.036   9.332  0.1081 -0.8452 -0.4334
 8710SOL    HW237764   3.771   0.029   9.366  0.7834 -0.8775 -0.7312
 8711SOL     OW37765   0.528   1.197   8.064  0.4316 -0.2705  0.2371
 8711SOL    HW137766   0.590   1.160   8.002  0.9456 -0.8761  1.1065
 8711SOL    HW237767   0.453   1.141   8.043 -0.0889  0.4852  0.0785
 8712SOL     OW37768   3.361   4.183  14.316 -0.4113 -0.5555  0.3738
 8712SOL    HW137769   3.287   4.171  14.255 -0.9037  1.2742  0.6078
 8712SOL    HW237770   3.340   4.267  14.357 -1.9482  0.0441 -1.6100
 8713SOL     OW37771   1.744   0.430   1.065  0.5538  0.0905 -0.3975
 8713SOL    HW137772   1.721   0.523   1.054 -2.4474 -0.6114 -0.0209
 8713SOL    HW237773   1.836   0.425   1.040  0.4610 -1.5948 -0.3419
 8714SOL     OW37774   1.849   3.369   1.538  0.4701 -0.1970 -0.1737
 8714SOL    HW137775   1.910   3.404   1.603  1.6319 -1.5806 -0.5126
 8714SOL    HW237776   1.864   3.426   1.461  0.8288  1.4682  1.1230
 8715SOL     OW37777   0.470   4.272   4.032  0.3785  0.3632  0.4520
 8715SOL    HW137778   0.400   4.283   3.966  1.2263 -1.1293 -0.6902
 8715SOL    HW237779   0.422   4.231   4.103  1.7178  0.5708  1.4609
 8716SOL     OW37780   0.218   3.753   7.506  0.1690  0.1334 -0.1875
 8716SOL    HW137781   0.221   3.659   7.486  2.4386 -0.2879  2.2267
 8716SOL    HW237782   0.137   3.754   7.558 -0.8680  1.1399 -1.7981
 8717SOL     OW37783   1.223   1.303  12.774 -0.1387 -0.0194  0.3136
 8717SOL    HW137784   1.168   1.244  12.724  0.4746 -1.5422  1.4406
 8717SOL    HW237785   1.154   1.368  12.785 -0.2123 -0.3790  2.1296
 8718SOL     OW37786   4.670   3.045   2.571 -0.1280 -0.2413 -0.1214
 8718SOL    HW137787   0.010   3.085   2.613 -0.4597  0.7545 -0.4694
 8718SOL    HW237788   4.677   2.956   2.606 -0.5837 -0.1873  0.1079
 8719SOL     OW37789   1.994   3.810  15.275  0.1795 -0.3438  0.8909
 8719SOL    HW137790   2.049   3.888  15.276  0.6653 -0.6747 -0.3314
 8719SOL    HW237791   2.002   3.775  15.364  2.0088 -0.7893  0.5503
 8720SOL     OW37792   0.829   3.817   8.493  0.5096  0.2695  0.0267
 8720SOL    HW137793   0.915   3.790   8.462 -0.8524 -1.8114 -1.9312
 8720SOL    HW237794   0.775   3.754   8.445  2.0913 -0.4922 -0.7584
 8721SOL     OW37795   4.361   1.497   8.591 -0.4229 -0.4515 -0.1799
 8721SOL    HW137796   4.294   1.457   8.535  0.6534  0.7525 -2.3023
 8721SOL    HW237797   4.346   1.437   8.665 -0.6634  1.9062  1.6914
 8722SOL     OW37798   4.584   1.793   8.328  0.4444  0.3928  0.1341
 8722SOL    HW137799   4.602   1.803   8.422  0.0990  0.9145  0.1448
 8722SOL    HW237800   4.612   1.881   8.304  0.9158  0.7030  1.7793
 8723SOL     OW37801   4.670   1.602  11.536  0.0864 -0.3851 -0.1612
 8723SOL    HW137802   4.648   1.569  11.623 -1.7261 -1.3884 -1.0031
 8723SOL    HW237803   4.644   1.523  11.488  0.9985  1.2802 -3.3645
 8724SOL     OW37804   3.933   3.142   5.163 -0.3665  0.6241  0.0514
 8724SOL    HW137805   3.844   3.117   5.138  0.1725 -1.2304  0.0077
 8724SOL    HW237806   3.979   3.082   5.105  0.4044  0.2781  1.0122
 8725SOL     OW37807   1.778   2.304   5.069 -0.3946  0.6280  0.0353
 8725SOL    HW137808   1.719   2.334   5.139 -2.2272 -0.9561 -0.8416
 8725SOL    HW237809   1.747   2.352   4.993  1.0945 -0.7989 -1.4613
 8726SOL     OW37810   2.471   4.242   4.303  0.3614 -0.3001 -0.2526
 8726SOL    HW137811   2.394   4.205   4.346  2.1523 -2.3738  1.1719
 8726SOL    HW237812   2.537   4.172   4.309  1.3634  0.5789 -1.0849
 8727SOL     OW37813   0.188   1.269  14.996  0.2661 -0.1596  0.0635
 8727SOL    HW137814   0.143   1.184  14.999 -0.1536  0.1330  2.3491
 8727SOL    HW237815   0.152   1.315  14.921  0.7734 -1.2339 -0.8539
 8728SOL     OW37816   3.898   4.005  16.578  0.1889 -0.0618  0.4620
 8728SOL    HW137817   3.884   4.005  16.483 -0.2755  0.4062  0.5320
 8728SOL    HW237818   3.876   4.095  16.603  3.0724  0.3082  1.6793
 8729SOL     OW37819   2.685   4.466   7.232 -0.6481 -0.8225 -0.1180
 8729SOL    HW137820   2.760   4.452   7.175 -0.0668  2.4516 -0.1283
 8729SOL    HW237821   2.715   4.429   7.315 -0.8340  0.7270  0.6440
 8730SOL     OW37822   3.343   1.998   5.841  0.4116 -0.4075 -0.0147
 8730SOL    HW137823   3.391   1.937   5.787  0.4206  0.6751 -1.2252
 8730SOL    HW237824   3.386   1.995   5.927  0.6700 -0.9852 -0.1708
 8731SOL     OW37825   1.031   3.638  16.623  0.5593 -0.0800  0.4097
 8731SOL    HW137826   1.032   3.654  16.717 -1.8065 -0.2130  0.4456
 8731SOL    HW237827   1.038   3.542  16.617  0.7967 -0.0578  0.3508
 8732SOL     OW37828   1.341   3.642  15.114  0.1863 -0.3200 -0.9582
 8732SOL    HW137829   1.352   3.624  15.207  2.9234 -1.0388 -1.4467
 8732SOL    HW237830   1.404   3.711  15.094  0.6571  0.4783  3.2157
 8733SOL     OW37831   3.136   1.205   3.747  0.4049  0.5303  0.5224
 8733SOL    HW137832   3.217   1.181   3.793 -0.6304 -0.2861  1.9125
 8733SOL    HW237833   3.160   1.260   3.672 -0.2181  2.0291  1.4095
 8734SOL     OW37834   1.339   2.225   1.342  0.3584  0.1967  0.8857
 8734SOL    HW137835   1.267   2.193   1.287  1.5393 -1.1653  0.1145
 8734SOL    HW237836   1.319   2.181   1.425 -1.4044 -0.4277  0.1214
 8735SOL     OW37837   3.338   1.318   6.000 -0.7019 -0.1485 -0.0160
 8735SOL    HW137838   3.353   1.228   5.969  0.2863  0.0408 -0.0703
 8735SOL    HW237839   3.415   1.340   6.051 -1.0656  0.5210  0.2480
 8736SOL     OW37840   1.242   4.720   1.634  0.3668 -0.1843  0.3514
 8736SOL    HW137841   1.277   0.073   1.647 -3.5315  1.2437  1.3290
 8736SOL    HW237842   1.186   0.003   1.559  0.9793  0.4459  0.0485
 8737SOL     OW37843   2.982   0.741   5.501 -0.6661  0.3423 -0.4091
 8737SOL    HW137844   2.958   0.806   5.435 -2.5593 -0.0046 -0.0777
 8737SOL    HW237845   2.963   0.794   5.579  1.4634  0.3802  0.0665
 8738SOL     OW37846   4.684   1.833   2.947  0.1967 -0.0954  0.2421
 8738SOL    HW137847   4.671   1.743   2.977  1.1285 -0.2850  0.0647
 8738SOL    HW237848   4.592   1.856   2.928  0.5053  1.1487  0.2560
 8739SOL     OW37849   1.073   0.567   4.472 -0.3070  0.0634  0.6437
 8739SOL    HW137850   1.059   0.520   4.389  1.3796 -0.8038  0.8535
 8739SOL    HW237851   0.993   0.551   4.523 -0.8115 -0.9961 -0.4595
 8740SOL     OW37852   3.954   2.118  10.108 -0.1616  0.0879  0.6407
 8740SOL    HW137853   3.904   2.178  10.163  0.6646  0.6482  0.7705
 8740SOL    HW237854   3.991   2.060  10.175 -1.0918 -0.0099  1.0612
 8741SOL     OW37855   0.076   1.067   4.551 -0.6481  0.3403 -0.1814
 8741SOL    HW137856   0.071   0.975   4.578 -0.0257  0.4056  0.1632
 8741SOL    HW237857   0.172   1.074   4.544 -0.3417 -2.0725  1.4104
 8742SOL     OW37858   1.146   0.109   6.643 -0.1663  0.3014  0.3609
 8742SOL    HW137859   1.114   0.096   6.732  1.1746 -0.6974  0.6933
 8742SOL    HW237860   1.240   0.091   6.648 -0.3049 -1.1717 -2.4968
 8743SOL     OW37861   2.490   3.745   9.509 -0.3542  0.0479 -0.6151
 8743SOL    HW137862   2.566   3.796   9.536 -1.3108  1.2226 -0.1314
 8743SOL    HW237863   2.533   3.660   9.513 -0.4391 -0.0806 -2.3769
 8744SOL     OW37864   1.635   0.982   5.765 -0.1214 -0.0343  0.1770
 8744SOL    HW137865   1.614   0.949   5.678 -0.2824  0.7192 -0.0691
 8744SOL    HW237866   1.730   0.994   5.755 -0.3156  0.5759 -0.8917
 8745SOL     OW37867   1.150   0.331   8.463  0.6448  0.0426  0.3758
 8745SOL    HW137868   1.065   0.320   8.422  0.0389  1.9166  1.1614
 8745SOL    HW237869   1.129   0.364   8.550 -1.9936  0.1045 -0.2880
 8746SOL     OW37870   4.132   1.588  12.780  0.4598  0.2196 -0.4538
 8746SOL    HW137871   4.045   1.592  12.740  0.8690  0.4109 -1.3280
 8746SOL    HW237872   4.180   1.542  12.710 -0.0489 -0.9268 -0.0559
 8747SOL     OW37873   3.703   1.668   9.039  0.4611 -0.8377  0.6121
 8747SOL    HW137874   3.730   1.736   8.976 -0.3917 -0.1814  0.9532
 8747SOL    HW237875   3.687   1.719   9.118 -2.7699  0.9303 -1.1396
 8748SOL     OW37876   2.815   4.049   5.220 -0.1977  0.2082  0.1191
 8748SOL    HW137877   2.835   4.059   5.313 -0.7561  0.1393  0.2416
 8748SOL    HW237878   2.721   4.060   5.211 -0.1561  1.7668  1.6321
 8749SOL     OW37879   3.759   1.580  17.376  0.3412  0.8404  0.1420
 8749SOL    HW137880   3.687   1.539  17.423  0.9748  0.8679  1.1377
 8749SOL    HW237881   3.836   1.552  17.426 -0.8960 -0.4919  1.2801
 8750SOL     OW37882   2.067   0.276  11.718 -0.0490 -0.1624  0.4661
 8750SOL    HW137883   2.140   0.271  11.657 -0.3779  0.7824 -0.0095
 8750SOL    HW237884   1.998   0.224  11.677 -0.1799 -0.4268  1.0232
 8751SOL     OW37885   2.576   0.273  15.877 -0.6329 -0.5811  0.1279
 8751SOL    HW137886   2.588   0.181  15.898  1.4608 -0.0156  1.3612
 8751SOL    HW237887   2.550   0.265  15.785  1.3400 -3.3734 -0.1558
 8752SOL     OW37888   4.561   0.086  16.506 -0.4322  0.0252  0.1984
 8752SOL    HW137889   4.532   0.165  16.551  1.0579 -0.4168  1.9651
 8752SOL    HW237890   4.647   0.117  16.476 -0.9502 -1.3000 -2.6633
 8753SOL     OW37891   3.408   0.588   9.179 -0.2373 -0.2159  0.0431
 8753SOL    HW137892   3.503   0.605   9.175 -0.5911  1.1422 -2.7114
 8753SOL    HW237893   3.401   0.495   9.158 -0.2987 -0.2572  0.2481
 8754SOL     OW37894   4.671   3.101   7.753  0.6656  0.4052 -0.4236
 8754SOL    HW137895   4.652   3.094   7.659 -0.2867 -0.3854 -0.1718
 8754SOL    HW237896   4.675   3.012   7.788 -0.3795 -0.0207 -1.3745
 8755SOL     OW37897   2.808   0.174   5.937 -0.6440  0.1777  0.2842
 8755SOL    HW137898   2.830   0.132   6.020  0.4420 -0.3386 -0.2618
 8755SOL    HW237899   2.823   0.262   5.970 -0.5970 -0.9615  3.2946
 8756SOL     OW37900   0.301   0.236   9.449  0.1094  0.2549 -0.7229
 8756SOL    HW137901   0.386   0.280   9.452  0.1008  0.0988  1.6414
 8756SOL    HW237902   0.246   0.313   9.460 -1.0171 -0.4344 -1.4683
 8757SOL     OW37903   1.416   4.382   7.279  0.2834 -1.0388  0.3245
 8757SOL    HW137904   1.333   4.337   7.268 -1.4847  1.9723  1.2726
 8757SOL    HW237905   1.468   4.356   7.203  0.2928  0.6303 -0.2285
 8758SOL     OW37906   1.025   1.564   9.447  0.1192 -0.3053  0.3991
 8758SOL    HW137907   1.063   1.488   9.403  0.0796  0.0192 -0.1981
 8758SOL    HW237908   1.086   1.633   9.419 -1.3195  0.7569 -0.1271
 8759SOL     OW37909   2.384   4.428   0.339 -0.1821  0.1726 -0.5529
 8759SOL    HW137910   2.434   4.348   0.357 -1.7819 -0.8409 -0.6883
 8759SOL    HW237911   2.431   4.477   0.271 -1.2723  0.0010 -1.4302
 8760SOL     OW37912   2.957   3.457   2.686  0.1750 -0.3969  0.1046
 8760SOL    HW137913   3.042   3.484   2.721 -1.2315  4.8874 -0.6457
 8760SOL    HW237914   2.986   3.372   2.651  0.6728 -0.0948 -0.2164
 8761SOL     OW37915   3.916   1.117   6.217 -0.4913  0.2178 -0.2868
 8761SOL    HW137916   3.824   1.134   6.233 -0.4537 -0.1718  0.3377
 8761SOL    HW237917   3.921   1.023   6.203 -0.3974  0.1446  0.2371
 8762SOL     OW37918   2.363   1.579   6.416 -0.3129  0.1421 -0.0114
 8762SOL    HW137919   2.394   1.620   6.335  2.7478 -1.9301  0.1107
 8762SOL    HW237920   2.295   1.521   6.382 -0.4281  1.1605 -1.4952
 8763SOL     OW37921   2.910   1.798  16.616  0.1350  0.8863 -0.1622
 8763SOL    HW137922   2.820   1.813  16.588  0.0388 -1.7953 -1.3296
 8763SOL    HW237923   2.925   1.715  16.570 -2.4961  1.4524 -2.0578
 8764SOL     OW37924   3.401   4.402   0.893  0.4573 -0.1325 -0.0941
 8764SOL    HW137925   3.329   4.419   0.954 -1.1657 -3.0083 -1.2095
 8764SOL    HW237926   3.351   4.385   0.813  1.2323  2.1443 -1.0517
 8765SOL     OW37927   3.327   3.256   6.715 -0.3537  0.6360  0.2476
 8765SOL    HW137928   3.368   3.269   6.630  0.6476  1.9591  0.9366
 8765SOL    HW237929   3.392   3.293   6.775 -1.1211 -0.0737  1.5089
 8766SOL     OW37930   2.670   2.157   6.365  0.0040 -0.1015 -0.0399
 8766SOL    HW137931   2.658   2.103   6.287  3.3596 -2.1924  0.9110
 8766SOL    HW237932   2.623   2.120   6.440  2.0783 -1.7745  0.4304
 8767SOL     OW37933   3.728   3.136   6.716  0.3889 -0.6824 -0.2603
 8767SOL    HW137934   3.664   3.180   6.659  0.4493  0.2421  0.3983
 8767SOL    HW237935   3.711   3.178   6.800  1.0865 -0.1872 -0.3714
 8768SOL     OW37936   2.822   4.124   7.135 -0.4124  0.4337 -0.2284
 8768SOL    HW137937   2.871   4.161   7.062  1.2547  0.6346  0.9671
 8768SOL    HW237938   2.837   4.190   7.203 -0.8849 -0.8950  1.1907
 8769SOL     OW37939   3.323   2.414   1.239  0.1506  0.1812  0.5950
 8769SOL    HW137940   3.369   2.458   1.167  2.3625 -0.1152  1.8353
 8769SOL    HW237941   3.311   2.331   1.192  1.5397  0.8930 -0.9932
 8770SOL     OW37942   3.753   2.035   5.166  0.2029  0.1221  0.3964
 8770SOL    HW137943   3.785   2.049   5.077  1.2657 -2.3314  0.3827
 8770SOL    HW237944   3.704   2.114   5.188  0.2952  0.2024  0.3175
 8771SOL     OW37945   3.605   3.624   0.979  0.4398 -0.4131  0.0711
 8771SOL    HW137946   3.687   3.667   1.003  0.0586 -0.3515  1.2421
 8771SOL    HW237947   3.645   3.553   0.929 -0.7661 -0.2579 -1.1072
 8772SOL     OW37948   0.587   0.394   0.105  0.2881  0.2915  0.1648
 8772SOL    HW137949   0.593   0.306   0.068 -0.3101  0.8981 -1.3788
 8772SOL    HW237950   0.494   0.407   0.087  0.2558 -0.5754 -0.2732
 8773SOL     OW37951   4.017   4.472  14.638 -0.0496  0.0714 -0.6309
 8773SOL    HW137952   3.947   4.496  14.577  0.1789 -1.8830 -1.6471
 8773SOL    HW237953   4.002   4.535  14.709 -0.2918 -1.3504  0.5721
 8774SOL     OW37954   3.102   1.990   7.630  0.3036  0.2375 -0.2105
 8774SOL    HW137955   3.047   1.914   7.612 -0.3839  0.9749 -1.2421
 8774SOL    HW237956   3.146   2.002   7.546 -0.8400 -2.5641 -1.1940
 8775SOL     OW37957   0.382   0.864   2.269  0.0498  0.7345  0.2321
 8775SOL    HW137958   0.415   0.870   2.179 -1.5518 -1.4639 -0.4996
 8775SOL    HW237959   0.450   0.809   2.307 -1.3208  0.9407  2.9348
 8776SOL     OW37960   3.422   3.690   8.757  0.9698 -0.2536  0.1359
 8776SOL    HW137961   3.371   3.765   8.789 -0.2936 -0.5836 -1.0949
 8776SOL    HW237962   3.512   3.713   8.781  0.6587  2.2741 -1.1075
 8777SOL     OW37963   2.244   1.936  16.852 -0.5041 -0.0292 -0.2501
 8777SOL    HW137964   2.242   1.840  16.849 -0.3015  0.0360 -2.2802
 8777SOL    HW237965   2.245   1.949  16.947 -0.4656 -0.9760 -0.1159
 8778SOL     OW37966   4.596   1.537   1.031  0.0817 -0.5848  0.5536
 8778SOL    HW137967   4.512   1.562   1.068  1.0257  2.2942  0.8009
 8778SOL    HW237968   4.591   1.570   0.941 -2.9719  0.4673  1.1146
 8779SOL     OW37969   1.045   2.671   3.128  0.0894 -0.0063  0.2707
 8779SOL    HW137970   1.049   2.626   3.043  2.8501 -1.6230  1.2567
 8779SOL    HW237971   1.133   2.707   3.129 -0.2858  0.8663  1.2193
 8780SOL     OW37972   4.147   2.109   7.468  0.4039  0.3487  0.2328
 8780SOL    HW137973   4.136   2.056   7.389 -2.3416  0.6263  0.4115
 8780SOL    HW237974   4.227   2.068   7.500  0.6913  0.8243  0.1152
 8781SOL     OW37975   0.534   0.807   0.221 -0.0164 -0.1496  0.1919
 8781SOL    HW137976   0.572   0.838   0.139  0.1940  2.8606  1.4333
 8781SOL    HW237977   0.567   0.870   0.286 -0.5424 -0.8681  1.1534
 8782SOL     OW37978   0.868   1.228  13.943 -0.4983 -0.1531 -0.4347
 8782SOL    HW137979   0.961   1.210  13.947 -0.5749 -0.6599 -0.8369
 8782SOL    HW237980   0.832   1.139  13.939 -0.4062 -0.2915  1.9721
 8783SOL     OW37981   2.863   0.332   8.400 -0.3012 -0.2580 -0.3022
 8783SOL    HW137982   2.788   0.280   8.371 -0.7818  0.1727  0.1791
 8783SOL    HW237983   2.937   0.272   8.389 -0.6158 -0.5960 -0.5660
 8784SOL     OW37984   3.147   0.902   0.751 -0.4165  0.1648  0.8862
 8784SOL    HW137985   3.177   0.943   0.832  0.7154 -1.1034  1.1007
 8784SOL    HW237986   3.211   0.926   0.684 -1.9300  0.8858 -0.3128
 8785SOL     OW37987   1.307   0.627   3.622  0.4449 -0.0047  0.3272
 8785SOL    HW137988   1.244   0.582   3.565  0.3931 -1.8723  1.8408
 8785SOL    HW237989   1.365   0.553   3.640  2.1997  1.9613  2.6212
 8786SOL     OW37990   1.955   1.569   5.317 -0.4771 -0.4784 -0.1546
 8786SOL    HW137991   1.897   1.601   5.247 -0.2172  1.2797  0.4217
 8786SOL    HW237992   1.953   1.475   5.303 -0.0041 -0.5275  0.1218
 8787SOL     OW37993   0.528   0.911   1.441  0.2014 -0.2016 -0.8552
 8787SOL    HW137994   0.524   0.824   1.401  0.9575 -0.0175 -1.3424
 8787SOL    HW237995   0.489   0.964   1.372 -0.2560  0.0752 -0.3780
 8788SOL     OW37996   1.464   0.958   3.121 -0.2035  0.0984  0.0544
 8788SOL    HW137997   1.449   1.001   3.205 -0.1315  0.6562 -0.2133
 8788SOL    HW237998   1.378   0.920   3.102  0.0795 -2.3752  3.9155
 8789SOL     OW37999   3.872   4.040   3.582 -0.4553 -0.0588 -1.0743
 8789SOL    HW138000   3.822   4.093   3.519  0.7560  1.5442 -0.6929
 8789SOL    HW238001   3.856   3.954   3.543 -0.3292  0.3386 -2.0025
 8790SOL     OW38002   3.150   3.686  12.989 -0.3813  0.2926  0.2872
 8790SOL    HW138003   3.130   3.599  13.024  1.1972  0.0153  0.4790
 8790SOL    HW238004   3.228   3.680  12.934 -0.6890  1.6500 -0.3101
 8791SOL     OW38005   2.986   1.077   1.578  0.5195 -0.1641 -0.4543
 8791SOL    HW138006   2.962   0.998   1.627  0.7614 -0.2396 -0.4566
 8791SOL    HW238007   3.043   1.036   1.513  0.5172  0.4433 -0.8415
 8792SOL     OW38008   2.406   2.018   2.873 -0.9067 -0.2907 -0.2577
 8792SOL    HW138009   2.422   1.925   2.857 -0.9197 -0.3356 -0.0122
 8792SOL    HW238010   2.348   2.017   2.949 -1.4823  0.2578 -0.6913
 8793SOL     OW38011   0.761   1.346   4.829 -0.5125  0.7919  0.4266
 8793SOL    HW138012   0.774   1.356   4.735 -1.6827  0.4459  0.2339
 8793SOL    HW238013   0.842   1.381   4.866  0.4140 -1.5777  0.6549
 8794SOL     OW38014   4.237   1.398  15.475  0.1110  0.2225  0.3111
 8794SOL    HW138015   4.299   1.467  15.500 -1.0988  0.7856  1.8036
 8794SOL    HW238016   4.154   1.446  15.481 -0.6068 -1.1719  1.5669
 8795SOL     OW38017   1.963   2.996   5.720  0.0595 -0.6929 -0.3288
 8795SOL    HW138018   1.958   3.079   5.769 -2.7167 -0.9055 -0.2708
 8795SOL    HW238019   2.028   2.940   5.762  1.5174  0.2725 -1.2645
 8796SOL     OW38020   3.691   3.805   4.843  0.1324  0.1207  0.2841
 8796SOL    HW138021   3.600   3.777   4.852  0.8941 -1.0054  4.3823
 8796SOL    HW238022   3.711   3.800   4.750  1.9302  3.0045  0.5180
 8797SOL     OW38023   0.334   0.770  17.562  0.2700 -0.4267  0.2578
 8797SOL    HW138024   0.278   0.703  17.523  1.2489  0.2979 -2.3826
 8797SOL    HW238025   0.308   0.765  17.654 -0.1568 -2.2591  0.0199
 8798SOL     OW38026   4.421   2.356   4.919 -0.5450  0.2516 -0.2919
 8798SOL    HW138027   4.510   2.381   4.896  1.0409 -3.2148  2.1135
 8798SOL    HW238028   4.380   2.426   4.868 -0.6644  1.0542  0.9022
 8799SOL     OW38029   1.363   1.712  17.485  0.0877  0.3354 -0.0980
 8799SOL    HW138030   1.399   1.633  17.447 -2.0623 -0.5204 -0.3493
 8799SOL    HW238031   1.382   1.780  17.420 -1.1399 -0.0651 -0.8586
 8800SOL     OW38032   0.954   3.432   8.063 -0.2240  0.1363  0.2201
 8800SOL    HW138033   0.961   3.337   8.048  2.7509  0.3791 -0.0939
 8800SOL    HW238034   0.870   3.455   8.025 -0.7689 -2.8918 -0.4045
 8801SOL     OW38035   2.322   3.352   1.418  0.2273 -0.0006 -0.1023
 8801SOL    HW138036   2.387   3.285   1.396 -0.1290 -0.4569  0.1989
 8801SOL    HW238037   2.252   3.293   1.450  1.8551  0.4132  4.2664
 8802SOL     OW38038   0.986   0.093   5.855 -0.1135 -0.4236  0.3422
 8802SOL    HW138039   0.936   0.173   5.873  0.7217  0.0956  0.3350
 8802SOL    HW238040   1.018   0.067   5.942  2.7119 -0.8303 -0.8167
 8803SOL     OW38041   2.766   2.735   4.764  0.2608 -0.0151 -0.3920
 8803SOL    HW138042   2.850   2.690   4.756  0.6393  0.4163  1.2791
 8803SOL    HW238043   2.794   2.815   4.719  0.1838 -0.5952 -1.4705
 8804SOL     OW38044   2.759   3.983   4.050 -0.0355  0.1987 -0.5839
 8804SOL    HW138045   2.728   3.997   4.139 -2.3132  0.2712 -1.3861
 8804SOL    HW238046   2.754   4.075   4.023  0.9347  0.1363 -1.0044
 8805SOL     OW38047   2.598   2.205   3.281  0.5762 -0.1493  0.6341
 8805SOL    HW138048   2.516   2.252   3.300  1.9773  1.2328  3.2866
 8805SOL    HW238049   2.643   2.280   3.242  0.0645  0.0899  0.4916
 8806SOL     OW38050   2.164   0.946   3.020 -0.3196  0.4486  0.2522
 8806SOL    HW138051   2.258   0.964   3.018 -0.7397  2.0634 -3.7018
 8806SOL    HW238052   2.126   1.013   2.963 -1.5604 -0.1253  0.4006
 8807SOL     OW38053   3.642   4.249  10.679  0.0939 -0.4384  0.0984
 8807SOL    HW138054   3.698   4.317  10.642 -1.6643  0.5442 -0.7673
 8807SOL    HW238055   3.662   4.268  10.771 -1.4471  0.6265  0.2171
 8808SOL     OW38056   4.307   1.863   5.587  0.2081  0.2122  0.4635
 8808SOL    HW138057   4.317   1.849   5.493 -1.9006  0.2874  0.2166
 8808SOL    HW238058   4.211   1.864   5.594 -0.1381 -0.7077 -3.7436
 8809SOL     OW38059   4.298   4.243  12.792  0.2959  0.1819 -0.0196
 8809SOL    HW138060   4.290   4.154  12.826 -1.2623 -0.0187 -0.9096
 8809SOL    HW238061   4.383   4.261  12.831  0.8018 -0.7769 -0.6735
 8810SOL     OW38062   4.142   3.716   7.892 -0.0633  0.1315 -0.6195
 8810SOL    HW138063   4.146   3.704   7.797  1.5262  0.2620 -0.5739
 8810SOL    HW238064   4.148   3.623   7.911  0.2243 -0.2255 -2.4805
 8811SOL     OW38065   2.971   3.121  16.312 -0.6473  0.5358  0.4601
 8811SOL    HW138066   2.951   3.058  16.244  0.6886 -1.8179  2.2531
 8811SOL    HW238067   2.930   3.083  16.390  1.2263 -1.6568  0.3832
 8812SOL     OW38068   3.094   4.734   9.030  0.2250 -0.1201 -0.0433
 8812SOL    HW138069   3.033   0.049   9.084  0.1483 -2.1222  1.7003
 8812SOL    HW238070   3.056   0.005   8.942  0.0046  0.3742  0.0872
 8813SOL     OW38071   4.497   3.592   2.119  0.7671  0.2961 -0.6169
 8813SOL    HW138072   4.574   3.545   2.088 -0.1924 -0.5661 -1.6967
 8813SOL    HW238073   4.474   3.521   2.180 -3.1558  1.1477 -1.0998
 8814SOL     OW38074   2.244   2.094   2.582 -0.0850 -0.0563  0.0294
 8814SOL    HW138075   2.300   2.103   2.658  1.1814 -0.6610 -0.8273
 8814SOL    HW238076   2.178   2.163   2.583  0.9837  0.9977 -2.4557
 8815SOL     OW38077   1.516   2.809   2.222 -0.4191  0.1938  0.0549
 8815SOL    HW138078   1.583   2.744   2.202  1.2518  2.6095 -2.1214
 8815SOL    HW238079   1.559   2.869   2.284  0.8211  1.6782 -2.2431
 8816SOL     OW38080   0.866   0.874   7.268 -0.4476  0.0500 -0.6966
 8816SOL    HW138081   0.906   0.827   7.341 -1.8535 -0.0860 -0.0062
 8816SOL    HW238082   0.896   0.829   7.190  1.5930 -0.6396  0.5017
 8817SOL     OW38083   2.151   3.624   9.360  0.1185 -0.3870  0.2469
 8817SOL    HW138084   2.202   3.594   9.436 -1.6186  1.4031  2.1211
 8817SOL    HW238085   2.066   3.654   9.392 -0.0749  0.0499 -0.7020
 8818SOL     OW38086   1.088   1.374   6.570 -0.4794  0.2488 -0.0276
 8818SOL    HW138087   1.117   1.375   6.479  0.3255 -0.1803  0.2310
 8818SOL    HW238088   1.140   1.441   6.613  0.2376  0.5043 -1.2957
 8819SOL     OW38089   3.500   3.136   1.465 -0.3941  0.1071 -0.0265
 8819SOL    HW138090   3.405   3.141   1.474 -0.0711  1.9766  2.3332
 8819SOL    HW238091   3.536   3.223   1.483 -1.6380  1.0241 -1.9296
 8820SOL     OW38092   2.766   1.541   7.490 -0.4934 -0.0542  0.0918
 8820SOL    HW138093   2.680   1.503   7.475 -0.5145 -0.6031  1.5688
 8820SOL    HW238094   2.802   1.463   7.533 -1.4564 -1.3031 -1.3536
 8821SOL     OW38095   1.352   2.277   8.693 -0.0497  0.0018 -0.4192
 8821SOL    HW138096   1.355   2.372   8.706  0.1492  0.0564 -0.8811
 8821SOL    HW238097   1.282   2.274   8.629  0.2767  0.8846 -0.8161
 8822SOL     OW38098   2.053   2.372   0.097  0.0510  0.6968  0.1990
 8822SOL    HW138099   2.144   2.343   0.091  0.4294  1.9497 -0.0824
 8822SOL    HW238100   2.013   2.323   0.025 -3.2345  0.1304  2.4568
 8823SOL     OW38101   0.488   0.013   4.495  0.2058 -0.1094  0.0904
 8823SOL    HW138102   0.440   4.691   4.555 -0.0521 -1.6115 -1.5503
 8823SOL    HW238103   0.549   0.060   4.553  0.5215  0.6747 -0.8715
 8824SOL     OW38104   1.667   4.114  12.525  0.2366 -0.2777  0.1832
 8824SOL    HW138105   1.676   4.047  12.457 -2.5300 -1.2182  0.7646
 8824SOL    HW238106   1.726   4.181  12.489  0.1488 -0.2806  0.0322
 8825SOL     OW38107   4.103   3.545   0.892  0.8572 -0.0598 -0.0664
 8825SOL    HW138108   4.198   3.547   0.908  1.0033 -3.2849 -0.5165
 8825SOL    HW238109   4.110   3.515   0.802 -1.5094 -1.9720  0.4001
 8826SOL     OW38110   2.815   1.141   5.904 -0.3069 -0.5856  0.0655
 8826SOL    HW138111   2.906   1.112   5.912  0.4728  1.4342 -1.4936
 8826SOL    HW238112   2.784   1.175   5.988  1.2458  0.6517  0.1586
 8827SOL     OW38113   1.770   1.732   7.910 -0.3495 -0.0613 -0.7484
 8827SOL    HW138114   1.730   1.819   7.913 -0.5792 -0.2372  1.1139
 8827SOL    HW238115   1.703   1.676   7.948 -0.2466 -0.2274 -0.8126
 8828SOL     OW38116   1.805   4.474   0.123  0.3725 -0.2662 -0.1189
 8828SOL    HW138117   1.715   4.468   0.155  0.0030  1.2771 -0.8770
 8828SOL    HW238118   1.860   4.465   0.201  0.6646 -1.3480 -0.4439
 8829SOL     OW38119   3.925   2.270   5.318 -0.1446  0.1185 -0.1653
 8829SOL    HW138120   3.877   2.324   5.381  0.9607  0.3129  0.5239
 8829SOL    HW238121   3.952   2.204   5.382  0.5784  2.6419  2.1472
 8830SOL     OW38122   1.245   2.787   7.156  0.1125  0.1592  0.1486
 8830SOL    HW138123   1.169   2.755   7.107 -0.7900  1.3115  0.8115
 8830SOL    HW238124   1.309   2.726   7.118  1.7192  1.4158  0.8302
 8831SOL     OW38125   0.693   1.594   3.541 -0.0468  0.6541  0.1935
 8831SOL    HW138126   0.786   1.576   3.531 -0.0877  1.0664 -0.9365
 8831SOL    HW238127   0.698   1.686   3.566  0.4775  0.3323  1.2332
 8832SOL     OW38128   4.168   4.196   9.547 -0.1349  0.3609  0.0705
 8832SOL    HW138129   4.247   4.233   9.587 -0.5204 -0.6522  1.7980
 8832SOL    HW238130   4.196   4.116   9.503 -0.3112 -0.9508  2.3296
 8833SOL     OW38131   3.514   4.103   3.446  0.2006 -0.1295  0.3713
 8833SOL    HW138132   3.543   4.095   3.354 -1.1525 -1.2003  0.0497
 8833SOL    HW238133   3.495   4.014   3.476  4.0712 -0.8063  0.8036
 8834SOL     OW38134   0.028   0.119   0.722 -0.4587  0.0528 -0.2165
 8834SOL    HW138135   0.123   0.108   0.732 -0.3662  1.6567  0.6536
 8834SOL    HW238136   0.009   0.040   0.773  1.2734 -0.0282  0.3209
 8835SOL     OW38137   2.637   3.708   9.191  0.2628 -0.3258  0.5924
 8835SOL    HW138138   2.566   3.690   9.130 -0.2426 -1.7517  1.6075
 8835SOL    HW238139   2.604   3.654   9.262 -0.7401 -1.0518 -0.4372
 8836SOL     OW38140   4.669   4.640   4.323  0.4791  0.1211 -0.5848
 8836SOL    HW138141   0.012   4.591   4.299 -0.3975 -0.0104 -3.0982
 8836SOL    HW238142   4.674   4.608   4.413 -2.1348 -2.3475 -1.3085
 8837SOL     OW38143   1.738   1.031  15.228 -0.0895  0.2075 -0.4003
 8837SOL    HW138144   1.700   0.948  15.258  2.7582 -0.6100  0.8715
 8837SOL    HW238145   1.702   1.087  15.297 -0.8343 -0.3294 -0.3556
 8838SOL     OW38146   3.344   1.407  13.815 -0.4094 -0.6493  0.0686
 8838SOL    HW138147   3.422   1.453  13.785 -0.4334  1.3888  3.1459
 8838SOL    HW238148   3.304   1.467  13.878 -2.4495 -0.7925 -1.0731
 8839SOL     OW38149   0.662   3.912   4.056  0.3517 -0.4451 -0.0674
 8839SOL    HW138150   0.618   3.893   3.973 -0.6034 -0.6516  0.4884
 8839SOL    HW238151   0.687   3.823   4.084  0.6558 -0.4296 -0.2899
 8840SOL     OW38152   1.280   0.776   4.406 -0.2958  0.3844  0.8367
 8840SOL    HW138153   1.220   0.846   4.380  0.2325  0.9215  1.0768
 8840SOL    HW238154   1.220   0.706   4.434 -0.2599  1.0706  2.6348
 8841SOL     OW38155   1.267   4.268   8.358 -0.0692 -0.1145 -0.7137
 8841SOL    HW138156   1.224   4.254   8.442  0.2060  1.1155 -0.3662
 8841SOL    HW238157   1.262   4.363   8.352 -1.4236 -0.3534 -3.5275
 8842SOL     OW38158   1.977   1.380   7.947  0.1212  0.0381  0.2124
 8842SOL    HW138159   2.008   1.375   8.038 -0.2143  2.9407  0.4902
 8842SOL    HW238160   1.882   1.386   7.957 -0.3818 -2.0805 -3.5663
 8843SOL     OW38161   0.764   0.689   8.552  0.1205  0.1124 -0.2188
 8843SOL    HW138162   0.690   0.712   8.495 -0.5780 -2.0971 -0.2057
 8843SOL    HW238163   0.808   0.641   8.482 -0.0966  0.0716 -0.3297
 8844SOL     OW38164   4.586   1.336   8.093  0.6154  0.6498  0.3030
 8844SOL    HW138165   4.589   1.256   8.039 -1.0123  0.0714  1.0931
 8844SOL    HW238166   4.513   1.316   8.151 -0.0041  0.4170 -0.5639
 8845SOL     OW38167   3.409   2.178  16.572  0.2749 -0.4983  0.1262
 8845SOL    HW138168   3.342   2.213  16.513  2.2906  0.6652 -1.5008
 8845SOL    HW238169   3.369   2.210  16.652  1.1156  1.3854 -0.2085
 8846SOL     OW38170   3.052   0.687   3.744 -0.1822  0.2504  0.5487
 8846SOL    HW138171   3.103   0.768   3.736 -1.5121  1.1946  1.7453
 8846SOL    HW238172   3.040   0.688   3.839  2.2174  0.3105  0.8540
 8847SOL     OW38173   4.606   4.116  14.202 -0.6968 -0.2471 -0.1058
 8847SOL    HW138174   4.596   4.020  14.206  2.0329 -0.5115  0.4308
 8847SOL    HW238175   4.540   4.146  14.265  0.1968  0.2719  0.5873
 8848SOL     OW38176   2.200   2.296   6.095  0.8168 -1.0692  0.1795
 8848SOL    HW138177   2.267   2.355   6.129  1.4767  0.0710 -3.1067
 8848SOL    HW238178   2.136   2.359   6.062  1.5692 -0.9680 -1.1203
 8849SOL     OW38179   3.292   1.345   2.008 -0.4683 -0.9130 -0.7303
 8849SOL    HW138180   3.357   1.279   2.031 -1.0324 -0.4938  2.0367
 8849SOL    HW238181   3.349   1.419   1.988  1.6330 -2.7835 -1.5565
 8850SOL     OW38182   4.079   3.068   2.970  0.0672 -0.6646 -0.2747
 8850SOL    HW138183   4.035   3.152   2.953  1.3087  0.1007  0.3103
 8850SOL    HW238184   4.001   3.029   3.009  3.0760 -3.9070  2.4400
 8851SOL     OW38185   4.445   0.574   7.913  0.1999  0.0825 -0.2275
 8851SOL    HW138186   4.389   0.651   7.901 -1.1385 -1.0814 -1.5497
 8851SOL    HW238187   4.531   0.614   7.899  0.6325 -0.2220  1.5989
 8852SOL     OW38188   2.242   3.125   0.645  0.3955  0.0563  0.0011
 8852SOL    HW138189   2.305   3.058   0.618 -0.0881  0.1680 -1.4062
 8852SOL    HW238190   2.207   3.145   0.558  0.7064  4.3811  0.8761
 8853SOL     OW38191   1.743   3.645  10.822 -0.6731  0.3414 -0.6185
 8853SOL    HW138192   1.830   3.646  10.861 -1.2870  0.2076  0.7486
 8853SOL    HW238193   1.703   3.567  10.861  2.6299 -0.5563  0.9628
 8854SOL     OW38194   2.513   2.934   8.148 -0.3844  0.1133  0.1458
 8854SOL    HW138195   2.567   2.855   8.144 -2.0586 -0.9503 -1.7874
 8854SOL    HW238196   2.447   2.915   8.216  0.6019  1.4786  1.4718
 8855SOL     OW38197   1.432   1.176   4.167  0.2468  0.4075  0.4650
 8855SOL    HW138198   1.465   1.236   4.235 -1.1538  1.3415  0.3264
 8855SOL    HW238199   1.341   1.205   4.164  0.6853  1.7764  0.2039
 8856SOL     OW38200   3.932   0.846   7.291  0.3092  0.2328 -0.3253
 8856SOL    HW138201   4.001   0.911   7.278  1.3641 -0.9876 -0.8053
 8856SOL    HW238202   3.976   0.762   7.300  0.7362  0.3807 -1.0120
 8857SOL     OW38203   1.398   2.972   4.954  0.2859 -0.5327  0.1988
 8857SOL    HW138204   1.456   2.970   5.030 -0.6988 -2.4063  0.9077
 8857SOL    HW238205   1.377   2.885   4.919  0.3696 -0.3985 -0.1748
 8858SOL     OW38206   1.846   3.450  12.923 -0.6098  0.3689  1.2070
 8858SOL    HW138207   1.909   3.522  12.915  0.3422 -0.8406 -2.3639
 8858SOL    HW238208   1.792   3.479  12.849  3.9654  0.6480 -1.9910
 8859SOL     OW38209   0.686   0.994   9.993 -0.3703 -0.4589 -0.2326
 8859SOL    HW138210   0.748   1.053  10.037  0.6288  0.3893 -2.7948
 8859SOL    HW238211   0.737   0.952   9.924  0.4717  1.5950 -0.8707
 8860SOL     OW38212   3.620   2.139   5.825  0.9497  0.5881  0.1524
 8860SOL    HW138213   3.648   2.205   5.889  1.7261 -0.9795  1.4181
 8860SOL    HW238214   3.557   2.090   5.878  0.6330 -1.8316 -2.5024
 8861SOL     OW38215   1.015   0.596   2.871 -0.3615  0.3409  0.1315
 8861SOL    HW138216   1.066   0.520   2.843  0.9442  1.0108  0.6893
 8861SOL    HW238217   0.960   0.559   2.939  0.9745  1.7346  1.9655
 8862SOL     OW38218   2.910   1.719  15.677  0.2451 -0.0638  0.3199
 8862SOL    HW138219   2.915   1.748  15.586  1.6541  1.7391  0.9560
 8862SOL    HW238220   2.995   1.750  15.711 -0.6163  4.4502 -1.5720
 8863SOL     OW38221   4.661   4.008   4.356 -0.4297  0.2463 -0.1669
 8863SOL    HW138222   4.718   3.930   4.354  0.4221  0.8607  0.1604
 8863SOL    HW238223   4.703   4.054   4.428  0.5346 -3.4721  1.6846
 8864SOL     OW38224   2.111   1.219   0.023  0.8633  0.3629  0.1418
 8864SOL    HW138225   2.171   1.249   0.091  0.9761 -0.0292  0.2105
 8864SOL    HW238226   2.171   1.163  17.712 -1.1912 -1.3796 -0.3401
 8865SOL     OW38227   3.115   1.066  14.290 -0.1764  0.0047 -0.0147
 8865SOL    HW138228   3.164   0.987  14.270  0.3796  0.0809  1.0130
 8865SOL    HW238229   3.041   1.028  14.338 -0.3517  0.3465 -0.0117
 8866SOL     OW38230   1.382   3.397   3.724  0.0944 -0.0745 -0.1966
 8866SOL    HW138231   1.454   3.451   3.694 -2.0562  1.0821 -3.2282
 8866SOL    HW238232   1.321   3.460   3.764 -2.3966 -2.9190  0.5137
 8867SOL     OW38233   1.238   1.090   6.562  0.7952 -0.0284 -1.0424
 8867SOL    HW138234   1.169   1.049   6.510 -1.3650  2.0539  0.1749
 8867SOL    HW238235   1.227   1.183   6.545  3.7983  0.4395 -0.3210
 8868SOL     OW38236   1.885   3.665   9.463 -0.4710  0.7895 -0.0108
 8868SOL    HW138237   1.818   3.670   9.395 -0.3101  2.1731 -0.0832
 8868SOL    HW238238   1.856   3.722   9.535 -2.6584 -0.2784 -0.0442
 8869SOL     OW38239   1.930   4.451  17.129 -0.2411  0.6396  0.0482
 8869SOL    HW138240   1.835   4.449  17.133 -0.2811  2.6444 -0.0750
 8869SOL    HW238241   1.948   4.504  17.051 -0.7867  1.8849  0.7704
 8870SOL     OW38242   4.084   1.996   4.796 -0.3569 -0.1417  0.7707
 8870SOL    HW138243   4.145   1.961   4.732 -1.4017  1.6040 -1.1628
 8870SOL    HW238244   4.108   2.089   4.793 -0.7789 -0.0574  0.2159
 8871SOL     OW38245   1.918   2.753   8.934 -0.4750 -0.4291 -0.1287
 8871SOL    HW138246   1.864   2.682   8.966 -1.3792  0.6451  0.7356
 8871SOL    HW238247   2.004   2.712   8.942  0.3577  0.4918 -4.3600
 8872SOL     OW38248   2.971   2.445   6.511 -0.5991 -0.0190 -0.4041
 8872SOL    HW138249   3.045   2.490   6.470  0.1492 -0.4809  0.4294
 8872SOL    HW238250   2.903   2.433   6.445 -1.1583  2.5901 -0.3182
 8873SOL     OW38251   1.071   2.508   4.896  0.1798  0.3538  0.8361
 8873SOL    HW138252   1.034   2.594   4.919 -0.2963  0.6760 -1.1584
 8873SOL    HW238253   1.046   2.500   4.804  1.3364 -0.4530  0.5862
 8874SOL     OW38254   1.933   0.584   6.967 -0.2058  0.1772  0.6220
 8874SOL    HW138255   2.020   0.544   6.977 -0.1295  0.2082  0.1237
 8874SOL    HW238256   1.953   0.678   6.964 -1.0024  0.1959 -4.4205
 8875SOL     OW38257   3.054   4.450  16.624  0.0858 -0.0970  0.1501
 8875SOL    HW138258   3.093   4.446  16.711 -0.3297  0.8051  0.3799
 8875SOL    HW238259   3.109   4.393  16.570  1.6431  3.1105 -1.6884
 8876SOL     OW38260   1.271   0.098   7.084 -0.0927 -0.5645 -0.1592
 8876SOL    HW138261   1.267   0.151   7.164 -0.9839 -0.1644 -0.4716
 8876SOL    HW238262   1.326   0.023   7.106 -0.6154 -0.4762  1.5006
 8877SOL     OW38263   2.379   0.769  11.134 -0.4952 -0.2615 -0.2709
 8877SOL    HW138264   2.327   0.690  11.147 -1.6321  0.4439 -0.5449
 8877SOL    HW238265   2.420   0.774  11.220  0.6181 -0.3144 -0.8089
 8878SOL     OW38266   1.611   0.647   5.997  0.2301  0.3798  0.1139
 8878SOL    HW138267   1.663   0.566   5.999 -0.7295 -0.2462 -0.7196
 8878SOL    HW238268   1.548   0.633   5.927 -0.2005  0.2667  0.5215
 8879SOL     OW38269   3.189   2.017   8.278 -0.2382 -0.2621  0.0793
 8879SOL    HW138270   3.267   2.014   8.333 -0.2997  1.0030  0.2425
 8879SOL    HW238271   3.119   1.990   8.338 -1.2424  0.9215 -0.5665
 8880SOL     OW38272   4.578   1.777   4.696  0.0508 -0.5453 -0.3575
 8880SOL    HW138273   4.658   1.803   4.742 -1.0964  1.2577  0.6143
 8880SOL    HW238274   4.603   1.783   4.604  0.0876 -0.0787 -0.3187
 8881SOL     OW38275   3.702   0.894   7.189  0.1418 -0.1323  0.2466
 8881SOL    HW138276   3.794   0.875   7.208  0.9695  1.0926 -2.6055
 8881SOL    HW238277   3.649   0.830   7.236  1.0655  0.6584  2.3641
 8882SOL     OW38278   0.991   2.922  13.177  0.4932 -0.5405 -0.0228
 8882SOL    HW138279   0.975   2.931  13.271 -0.1099  1.6710 -0.3459
 8882SOL    HW238280   1.012   3.014  13.162 -3.4890  0.4511  0.4803
 8883SOL     OW38281   1.743   4.444   9.242 -0.3323  0.3288  0.0731
 8883SOL    HW138282   1.803   4.513   9.215 -0.3468 -0.6980 -2.6392
 8883SOL    HW238283   1.663   4.490   9.268  0.4038  1.4423  0.3331
 8884SOL     OW38284   3.764   3.783   8.206 -0.5528  0.2281 -0.7703
 8884SOL    HW138285   3.851   3.777   8.168 -0.2916 -0.7326 -0.0225
 8884SOL    HW238286   3.712   3.814   8.132 -1.2054  2.4975  0.6057
 8885SOL     OW38287   0.699   3.718   2.720  0.1933 -0.5699 -0.4160
 8885SOL    HW138288   0.741   3.651   2.665  0.4220 -0.7797  0.0146
 8885SOL    HW238289   0.756   3.725   2.796 -0.4799 -1.7690  0.2153
 8886SOL     OW38290   2.632   0.085  15.395  0.1938  0.2266  0.5909
 8886SOL    HW138291   2.570   0.077  15.323 -0.3096 -0.3739  1.0964
 8886SOL    HW238292   2.588   0.135  15.464 -1.5198 -0.1436 -0.2515
 8887SOL     OW38293   1.614   3.227  16.280 -0.7731 -0.0903  0.1614
 8887SOL    HW138294   1.635   3.201  16.370 -3.2676 -1.7337  0.2709
 8887SOL    HW238295   1.633   3.143  16.237  0.1488  0.0234  0.3530
 8888SOL     OW38296   0.700   2.025   1.945  0.6550 -0.2034 -0.2531
 8888SOL    HW138297   0.701   2.115   1.977  2.8246 -0.5268  0.6453
 8888SOL    HW238298   0.609   1.996   1.941 -0.0113  2.0010 -1.2132
 8889SOL     OW38299   1.798   3.071   5.280  0.2058  0.1357  0.0534
 8889SOL    HW138300   1.870   3.035   5.333  0.7325 -0.9339 -1.3651
 8889SOL    HW238301   1.818   3.164   5.282  1.9042 -0.2391  0.5189
 8890SOL     OW38302   3.608   3.571   1.868 -0.3494  0.2092  0.3621
 8890SOL    HW138303   3.683   3.532   1.822  0.1785  0.6842  0.8267
 8890SOL    HW238304   3.614   3.535   1.956 -0.4897  0.4745  0.4797
 8891SOL     OW38305   2.316   0.595   2.638  0.5154 -0.0694 -0.0753
 8891SOL    HW138306   2.410   0.602   2.654  0.6000 -1.4110  0.0190
 8891SOL    HW238307   2.297   0.684   2.669 -0.7467  0.3026 -1.9206
 8892SOL     OW38308   3.189   3.560   9.870 -0.5341 -0.8920  0.0096
 8892SOL    HW138309   3.114   3.581   9.815 -0.8279  1.5141  1.3205
 8892SOL    HW238310   3.228   3.644   9.893 -0.9018 -0.5229 -0.7420
 8893SOL     OW38311   2.303   0.027  13.415  0.3813  0.6366  0.6758
 8893SOL    HW138312   2.351   0.094  13.464  0.0525  0.4096  1.3140
 8893SOL    HW238313   2.376   0.000  13.359 -0.4401  0.5169 -0.3427
 8894SOL     OW38314   2.300   2.505   8.172 -0.1025  0.4674  0.1970
 8894SOL    HW138315   2.230   2.569   8.185  1.1992  1.9377  0.0094
 8894SOL    HW238316   2.295   2.450   8.250 -1.5324  0.7709  0.3101
 8895SOL     OW38317   2.358   3.034   3.759 -0.2846 -0.2461  0.5653
 8895SOL    HW138318   2.363   3.101   3.691  0.1587 -0.8664 -0.0140
 8895SOL    HW238319   2.360   2.955   3.705  0.2268  1.7800 -2.4208
 8896SOL     OW38320   4.107   4.639   3.141  0.6706  0.1765  0.5434
 8896SOL    HW138321   4.114   4.730   3.169 -2.2040  0.2156  1.1632
 8896SOL    HW238322   4.199   4.617   3.132 -0.1181 -2.6655 -0.4709
 8897SOL     OW38323   3.937   1.356   0.116  0.0939  0.2266 -0.9345
 8897SOL    HW138324   3.922   1.279   0.061 -2.6249 -1.0478  1.5806
 8897SOL    HW238325   3.880   1.327   0.187 -0.0431  0.7925 -0.8085
 8898SOL     OW38326   1.586   0.760   4.596  0.0658 -0.7396  0.1559
 8898SOL    HW138327   1.496   0.792   4.602  0.0406 -1.1562  1.8052
 8898SOL    HW238328   1.633   0.830   4.550  0.1367  1.1936  3.1351
 8899SOL     OW38329   4.547   0.189   9.873 -0.3548 -0.0913  0.7246
 8899SOL    HW138330   4.565   0.208   9.781 -0.2359  0.3401  0.8354
 8899SOL    HW238331   4.630   0.220   9.911  1.1143 -1.6608 -1.1839
 8900SOL     OW38332   0.884   2.761   5.327  0.1818  0.2564 -0.7346
 8900SOL    HW138333   0.903   2.800   5.242  0.8699  0.2085 -0.6047
 8900SOL    HW238334   0.970   2.780   5.364 -1.0379 -1.1336  2.8284
 8901SOL     OW38335   2.195   2.921   6.747 -0.5390 -0.1933 -0.5817
 8901SOL    HW138336   2.217   2.881   6.663  1.8391  1.0083 -0.5273
 8901SOL    HW238337   2.271   2.900   6.801 -0.4185  2.2802  0.2219
 8902SOL     OW38338   2.456   3.148   7.060 -0.1674 -0.1011  0.3697
 8902SOL    HW138339   2.541   3.104   7.064  0.8418  1.7917 -0.2698
 8902SOL    HW238340   2.390   3.087   7.094 -1.5871  1.5744  0.6261
 8903SOL     OW38341   3.611   2.897   7.154 -0.1162 -0.6402 -0.1292
 8903SOL    HW138342   3.683   2.903   7.217  0.5495  1.2834 -1.0830
 8903SOL    HW238343   3.619   2.807   7.121  2.8470 -0.5976  0.4653
 8904SOL     OW38344   2.484   2.020  11.519 -0.5383  0.2370  0.4553
 8904SOL    HW138345   2.441   1.934  11.520 -0.7359  0.3583  2.0384
 8904SOL    HW238346   2.574   1.998  11.543 -0.3108  0.9829  0.2861
 8905SOL     OW38347   2.465   3.359   8.113  0.2994  0.0811  0.2565
 8905SOL    HW138348   2.411   3.370   8.191  0.7127  2.7015  0.1709
 8905SOL    HW238349   2.535   3.415   8.145  0.1490  0.9470 -0.9552
 8906SOL     OW38350   0.030   0.750   7.597 -0.3948 -0.9761  0.0382
 8906SOL    HW138351   4.734   0.793   7.676  0.4695 -0.7381  0.2475
 8906SOL    HW238352   4.710   0.673   7.597 -2.1105  0.2551 -1.5619
 8907SOL     OW38353   2.357   4.376   9.165  0.0970 -0.2560 -0.2167
 8907SOL    HW138354   2.383   4.355   9.076  1.6365 -1.5202  0.5442
 8907SOL    HW238355   2.433   4.427   9.195  0.4158 -0.4292 -0.7408
 8908SOL     OW38356   0.432   4.422   7.924  0.2007 -0.4401  0.4933
 8908SOL    HW138357   0.409   4.340   7.880  1.1584 -0.0783 -0.6867
 8908SOL    HW238358   0.345   4.454   7.950  0.0072 -0.6144  0.0742
 8909SOL     OW38359   2.996   3.829   2.155 -0.6037 -0.3277  0.2126
 8909SOL    HW138360   2.908   3.843   2.119 -0.4805 -1.2505 -0.4609
 8909SOL    HW238361   3.040   3.900   2.110 -0.3116 -1.1820 -0.8414
 8910SOL     OW38362   0.081   1.102   2.103 -0.2311  0.3503 -0.1467
 8910SOL    HW138363   0.119   1.129   2.019  0.6776  0.0671  0.1690
 8910SOL    HW238364   0.156   1.093   2.161  1.3968  3.7829 -1.7327
 8911SOL     OW38365   4.051   4.512   7.716  0.2344  0.1201  0.1146
 8911SOL    HW138366   4.010   4.550   7.638  2.0751  0.0127 -0.8943
 8911SOL    HW238367   4.072   4.594   7.762  1.3711 -0.5954  0.8861
 8912SOL     OW38368   3.855   0.560   0.716  0.3204  0.0447 -0.2071
 8912SOL    HW138369   3.844   0.647   0.680 -1.2656 -1.0636 -2.3759
 8912SOL    HW238370   3.765   0.528   0.716  1.0406 -2.0496  0.0485
 8913SOL     OW38371   2.788   2.450   7.317  0.0545  0.2930  0.3769
 8913SOL    HW138372   2.830   2.364   7.308  2.5198  1.8365 -2.5878
 8913SOL    HW238373   2.837   2.491   7.388  0.1481 -0.6112  0.8421
 8914SOL     OW38374   3.640   3.631   5.206 -0.0593 -0.0132  0.1210
 8914SOL    HW138375   3.675   3.692   5.140  1.7291  0.3137  1.3883
 8914SOL    HW238376   3.711   3.571   5.229 -1.4517 -1.4464  0.6313
 8915SOL     OW38377   3.850   1.434   6.227  0.4496  0.4375 -0.2482
 8915SOL    HW138378   3.839   1.370   6.297  1.5173  1.0118  0.4455
 8915SOL    HW238379   3.937   1.400   6.205 -0.0864 -0.6052 -0.7264
 8916SOL     OW38380   3.190   2.880   4.064  0.0161  0.7143 -0.2402
 8916SOL    HW138381   3.211   2.829   4.142 -3.0826 -1.1891 -0.6233
 8916SOL    HW238382   3.095   2.886   4.055 -0.0354  0.9513  0.4347
 8917SOL     OW38383   2.000   0.403   8.167  0.6607 -0.1590  0.0873
 8917SOL    HW138384   2.020   0.373   8.255 -1.1432  0.3802  0.6692
 8917SOL    HW238385   2.030   0.494   8.173  0.8552 -0.2358  0.2557
 8918SOL     OW38386   2.822   1.381   8.060 -0.2317 -0.6518  0.1739
 8918SOL    HW138387   2.792   1.420   7.978 -1.4434 -1.1252  0.3872
 8918SOL    HW238388   2.788   1.442   8.126  0.3174 -0.2972  0.1309
 8919SOL     OW38389   1.885   1.897   4.552 -0.0177  0.0749 -0.0530
 8919SOL    HW138390   1.944   1.947   4.494  0.4476  1.5121  1.6631
 8919SOL    HW238391   1.913   1.917   4.641  0.1298  1.9424 -0.5132
 8920SOL     OW38392   0.406   2.918   8.267  0.2436 -0.1270  0.0033
 8920SOL    HW138393   0.388   3.012   8.267  0.4300 -0.0942  1.2071
 8920SOL    HW238394   0.494   2.913   8.303 -0.9055 -1.5653  2.6351
 8921SOL     OW38395   1.403   4.532   1.254 -0.0532 -0.4145  0.6140
 8921SOL    HW138396   1.343   4.485   1.312 -1.7565  0.6107 -0.3115
 8921SOL    HW238397   1.411   4.623   1.285 -1.9333 -0.5694  1.6024
 8922SOL     OW38398   0.422   3.979   4.586  0.4230  0.0080 -0.5425
 8922SOL    HW138399   0.447   3.910   4.647  0.0383  1.0788  0.8023
 8922SOL    HW238400   0.497   4.033   4.612  0.7288 -0.1146 -1.1614
 8923SOL     OW38401   1.497   4.309   9.485 -0.2733 -0.5281 -0.1209
 8923SOL    HW138402   1.535   4.393   9.458 -3.2451  0.5974 -0.8022
 8923SOL    HW238403   1.404   4.328   9.499  0.0854  0.7346  0.4976
 8924SOL     OW38404   1.490   3.693  12.045 -0.4376 -0.0554  0.3343
 8924SOL    HW138405   1.436   3.726  11.974  1.0753  0.4905 -0.5609
 8924SOL    HW238406   1.412   3.676  12.098 -0.3329 -2.1966 -0.2117
 8925SOL     OW38407   2.298   0.651  10.893  0.0588  0.5186  0.1266
 8925SOL    HW138408   2.208   0.672  10.917 -0.3679 -0.7305 -0.3877
 8925SOL    HW238409   2.342   0.722  10.940 -0.1298  0.1074  0.9305
 8926SOL     OW38410   2.319   2.624   9.594 -0.1741  0.2413  0.1417
 8926SOL    HW138411   2.308   2.708   9.638 -1.9542  0.6049 -0.9985
 8926SOL    HW238412   2.248   2.568   9.625 -0.2990  0.4304  0.1947
 8927SOL     OW38413   0.308   0.088  10.553  0.3111 -0.4077  0.3214
 8927SOL    HW138414   0.246   0.019  10.576 -2.2038  1.9560  0.5900
 8927SOL    HW238415   0.349   0.097  10.640  2.1931 -0.7198 -0.5263
 8928SOL     OW38416   4.165   1.750   6.295  0.5305 -0.1980  0.5742
 8928SOL    HW138417   4.195   1.764   6.206 -2.7459 -0.2605 -0.5112
 8928SOL    HW238418   4.201   1.666   6.324 -0.6323 -0.7181  0.4822
 8929SOL     OW38419   2.333   2.064   6.015  0.0325  0.2114 -0.1331
 8929SOL    HW138420   2.307   2.156   6.024  3.5288  1.1930 -0.2151
 8929SOL    HW238421   2.241   2.037   6.019  0.4301 -1.4406 -1.7744
 8930SOL     OW38422   1.069   4.264   0.279  0.0833 -0.4117  0.7998
 8930SOL    HW138423   1.118   4.266   0.361 -1.5673  0.1673  1.7693
 8930SOL    HW238424   0.988   4.220   0.305 -0.8753  0.4744 -0.6868
 8931SOL     OW38425   2.625   4.359   2.872  0.1043 -0.5671 -0.4834
 8931SOL    HW138426   2.620   4.414   2.793  1.5069  0.9928  0.5220
 8931SOL    HW238427   2.650   4.434   2.926  0.4292 -0.2525 -1.0666
 8932SOL     OW38428   3.491   0.535   6.048 -0.2140 -0.7257 -0.1423
 8932SOL    HW138429   3.402   0.505   6.030 -0.2563 -2.4754  3.0437
 8932SOL    HW238430   3.544   0.523   5.969 -1.7970  0.5659 -1.4018
 8933SOL     OW38431   0.217   3.032   6.641  0.5884 -0.3263 -0.2240
 8933SOL    HW138432   0.141   3.089   6.627  0.3919 -0.2685  1.0840
 8933SOL    HW238433   0.204   2.982   6.561  1.8967  0.5128 -0.9571
 8934SOL     OW38434   3.250   4.570  16.128 -0.4991  0.3549  0.0236
 8934SOL    HW138435   3.245   4.494  16.186 -1.7412  0.2926 -0.1646
 8934SOL    HW238436   3.278   4.646  16.179 -1.3674  1.6743 -1.4653
 8935SOL     OW38437   0.896   4.237   3.216  0.1849 -0.2818 -0.3356
 8935SOL    HW138438   0.924   4.306   3.155 -0.4208  0.8321  0.6616
 8935SOL    HW238439   0.801   4.242   3.209  0.1258  1.1718  1.5157
 8936SOL     OW38440   1.250   1.829   8.085 -0.4611  0.5144 -0.7350
 8936SOL    HW138441   1.170   1.881   8.092  0.3675  1.4794  1.3118
 8936SOL    HW238442   1.244   1.780   8.002  3.0105 -0.7263 -0.2498
 8937SOL     OW38443   1.892   2.814   3.513 -0.2939 -0.8764 -0.1153
 8937SOL    HW138444   1.797   2.820   3.521 -0.0021 -0.1638  2.5579
 8937SOL    HW238445   1.927   2.865   3.585  0.1686  0.2153 -1.1085
 8938SOL     OW38446   1.988   2.710   3.849 -0.2141 -0.2828  0.3948
 8938SOL    HW138447   1.901   2.676   3.868  0.2974 -2.3141 -0.8317
 8938SOL    HW238448   2.024   2.712   3.938  1.7271 -3.0074 -0.3030
 8939SOL     OW38449   1.336   4.702   3.617 -0.8160  0.4401 -0.5319
 8939SOL    HW138450   1.311   4.614   3.644  0.8686  0.1407  0.0300
 8939SOL    HW238451   1.258   0.015   3.646 -0.3974  0.4727  0.5356
 8940SOL     OW38452   3.523   3.284   6.518  0.2959  0.2836 -0.3489
 8940SOL    HW138453   3.546   3.377   6.520  1.2889  0.0355 -0.0168
 8940SOL    HW238454   3.496   3.281   6.426  0.9251 -0.0124 -0.5279
 8941SOL     OW38455   3.195   2.471   4.562  0.3301  0.2261  0.0221
 8941SOL    HW138456   3.205   2.470   4.467 -1.8356  0.4471 -0.2049
 8941SOL    HW238457   3.273   2.429   4.598  0.6895  0.4552 -0.4850
 8942SOL     OW38458   3.507   0.146  17.310  0.0229 -0.0657 -0.4716
 8942SOL    HW138459   3.551   0.098  17.240 -2.0085  1.8125 -3.0352
 8942SOL    HW238460   3.471   0.079  17.368  1.8036  0.6821  1.4901
 8943SOL     OW38461   2.508   1.425  14.474  0.1608 -0.4497  0.3737
 8943SOL    HW138462   2.582   1.473  14.436 -0.5071  0.4824  0.2496
 8943SOL    HW238463   2.477   1.506  14.515  0.0393 -0.8727  1.1269
 8944SOL     OW38464   1.029   0.792   7.474  0.1023 -0.6599 -0.5460
 8944SOL    HW138465   1.015   0.885   7.494  0.2950 -0.9090  0.7247
 8944SOL    HW238466   1.092   0.768   7.541 -1.4891  0.6201  1.4330
 8945SOL     OW38467   0.160   0.136   6.769 -0.2352  0.5811  0.0283
 8945SOL    HW138468   0.122   0.172   6.849  0.3877  1.0561  0.1103
 8945SOL    HW238469   0.104   0.180   6.705 -1.9462 -2.9948 -0.8933
 8946SOL     OW38470   3.661   2.985   4.243 -0.2891  0.1357  0.1880
 8946SOL    HW138471   3.713   3.038   4.304  1.5935  0.1722 -1.4385
 8946SOL    HW238472   3.603   2.945   4.308 -1.2561  1.1294 -0.0536
 8947SOL     OW38473   1.522   2.282   7.651  0.1858  0.4739  0.1668
 8947SOL    HW138474   1.439   2.247   7.618 -0.5302  0.7411  1.7080
 8947SOL    HW238475   1.576   2.212   7.615 -1.1081 -0.7642  0.6349
 8948SOL     OW38476   2.045   2.318  11.661 -0.1774  0.4866  0.2807
 8948SOL    HW138477   2.008   2.393  11.708 -0.2413  1.2750 -1.0369
 8948SOL    HW238478   2.139   2.330  11.671  0.1124  1.3957 -3.8906
 8949SOL     OW38479   4.444   0.505   2.166 -0.6953 -0.0402  0.1059
 8949SOL    HW138480   4.534   0.517   2.198 -0.7664 -0.1357  0.3396
 8949SOL    HW238481   4.425   0.413   2.184  1.2491 -0.7032 -1.1636
 8950SOL     OW38482   0.135   3.438   7.739 -0.3732  0.2134 -0.1790
 8950SOL    HW138483   0.101   3.521   7.705 -0.4545  0.9177  1.5947
 8950SOL    HW238484   0.121   3.457   7.832 -0.1950 -1.7462  0.2496
 8951SOL     OW38485   2.528   1.518   3.308 -0.1271 -0.0992 -0.1452
 8951SOL    HW138486   2.547   1.437   3.261  1.6016  0.4272 -0.3666
 8951SOL    HW238487   2.510   1.581   3.238  1.5832 -0.8543 -1.2627
 8952SOL     OW38488   0.619   3.620   1.900  0.2785 -0.2374 -0.1063
 8952SOL    HW138489   0.640   3.712   1.884  0.2480 -0.2061  0.0382
 8952SOL    HW238490   0.536   3.627   1.853 -0.0828 -2.4731  0.2101
 8953SOL     OW38491   0.372   2.604   3.007  0.1469  0.0090 -0.2973
 8953SOL    HW138492   0.281   2.601   3.035  0.4477  0.3485  0.7041
 8953SOL    HW238493   0.391   2.685   2.959 -1.3846 -0.5380 -1.8028
 8954SOL     OW38494   3.041   1.224   5.564  0.2125  0.4362 -0.2027
 8954SOL    HW138495   3.118   1.270   5.595  0.4023 -0.6930  1.0169
 8954SOL    HW238496   2.969   1.261   5.616  2.3021  2.5779  1.1490
 8955SOL     OW38497   3.640   2.830   5.899  0.2269 -0.0054 -0.3148
 8955SOL    HW138498   3.582   2.754   5.892 -0.7292  0.7614 -0.7363
 8955SOL    HW238499   3.612   2.880   5.975  0.7071 -0.9000  0.4486
 8956SOL     OW38500   3.778   3.948   5.063 -0.3967  0.0347  0.3784
 8956SOL    HW138501   3.772   3.880   4.997  0.1803  0.0015  0.3588
 8956SOL    HW238502   3.688   3.978   5.076 -0.2060  1.0319 -0.5268
 8957SOL     OW38503   1.987   2.938  16.800  0.3905 -0.6610  0.1605
 8957SOL    HW138504   1.980   3.027  16.765  1.6907 -0.4534  0.4405
 8957SOL    HW238505   2.058   2.950  16.863  0.5169 -1.2046  0.1178
 8958SOL     OW38506   2.725   2.923   5.666 -0.0294  0.1143  0.1243
 8958SOL    HW138507   2.781   2.993   5.632 -0.3084  0.1045 -0.3487
 8958SOL    HW238508   2.680   2.900   5.585 -1.3323  1.9279  0.3190
 8959SOL     OW38509   0.030   1.727   7.616  0.1377 -0.6595  0.1957
 8959SOL    HW138510   4.711   1.769   7.549 -1.1241 -4.0216 -0.9361
 8959SOL    HW238511   0.112   1.769   7.590 -1.6122  1.3467 -2.0658
 8960SOL     OW38512   1.531   4.397   8.061 -0.5756  0.1704  0.0073
 8960SOL    HW138513   1.479   4.420   8.137 -0.5535 -0.6046  0.2635
 8960SOL    HW238514   1.474   4.407   7.984 -0.3895 -3.6289 -0.6487
 8961SOL     OW38515   4.222   4.517   6.620 -0.2113  0.1415 -0.8043
 8961SOL    HW138516   4.184   4.499   6.705  0.0739 -0.5634 -0.8226
 8961SOL    HW238517   4.220   4.610   6.598 -0.6798  0.8798  2.4004
 8962SOL     OW38518   3.680   4.649   6.550  0.7223  0.1881 -0.1943
 8962SOL    HW138519   3.650   4.629   6.461 -1.5234 -0.6927  0.7490
 8962SOL    HW238520   3.766   4.686   6.532  0.4915  1.4235  1.2803
 8963SOL     OW38521   0.947   0.605  14.446 -0.3390  0.2936 -0.5162
 8963SOL    HW138522   0.983   0.522  14.477 -2.0284  0.8329  2.8210
 8963SOL    HW238523   0.953   0.593  14.351  2.6548 -0.0989 -0.2773
 8964SOL     OW38524   4.599   2.873   3.381  0.4855  0.8059 -0.1382
 8964SOL    HW138525   4.567   2.951   3.334  0.6600  0.0445 -1.5047
 8964SOL    HW238526   4.530   2.859   3.446  0.9460  1.5224  0.5056
 8965SOL     OW38527   1.339   3.223   4.959 -0.4921  0.1311 -0.1948
 8965SOL    HW138528   1.359   3.132   4.937  1.6790  0.4247  0.6111
 8965SOL    HW238529   1.420   3.270   4.942  1.3956 -3.1430 -0.2563
 8966SOL     OW38530   3.333   2.560   9.303 -0.0071 -0.3715 -0.1555
 8966SOL    HW138531   3.413   2.575   9.253  0.2771  2.2189  1.0926
 8966SOL    HW238532   3.325   2.465   9.303  4.0838 -0.7122 -3.6578
 8967SOL     OW38533   2.465   1.556   4.680  0.1136 -0.0841 -0.5843
 8967SOL    HW138534   2.547   1.571   4.633  1.6076 -3.5135  0.9442
 8967SOL    HW238535   2.414   1.512   4.611 -0.5526 -0.0696 -0.1028
 8968SOL     OW38536   1.578   4.294   7.082 -0.5268  0.0959 -0.2277
 8968SOL    HW138537   1.672   4.313   7.084 -0.7741  1.3293 -0.0075
 8968SOL    HW238538   1.580   4.205   7.047  2.4615  0.1222 -0.0980
 8969SOL     OW38539   2.476   4.583   5.234  0.8870  0.3515  0.0370
 8969SOL    HW138540   2.396   4.620   5.270  0.8958  0.6555 -0.2455
 8969SOL    HW238541   2.493   4.636   5.155 -0.2683  0.3773 -0.1940
 8970SOL     OW38542   4.043   1.996   8.586 -0.2159 -0.3973  0.0017
 8970SOL    HW138543   4.061   1.920   8.530  3.3466  0.2607  0.2387
 8970SOL    HW238544   4.001   1.954   8.661 -0.5559  0.9518  0.5622
 8971SOL     OW38545   2.780   0.071  10.924 -0.1236  0.1187 -0.5326
 8971SOL    HW138546   2.864   0.116  10.918  0.6567 -1.2413 -0.0301
 8971SOL    HW238547   2.750   0.114  11.004 -2.6763  0.6911 -1.7898
 8972SOL     OW38548   4.314   1.296   5.159  0.4890  0.6614 -0.4913
 8972SOL    HW138549   4.283   1.333   5.076 -2.5374  0.5618  0.6223
 8972SOL    HW238550   4.325   1.378   5.207  1.6681  0.3858 -0.2970
 8973SOL     OW38551   3.639   1.699   7.104 -0.4266  0.5918  0.3992
 8973SOL    HW138552   3.594   1.755   7.166  0.7892  2.4541 -0.4223
 8973SOL    HW238553   3.657   1.623   7.159  1.6564 -1.4303 -3.0645
 8974SOL     OW38554   3.510   1.757   6.861  0.0780 -0.4426 -0.3090
 8974SOL    HW138555   3.555   1.755   6.946  1.9821 -0.8789 -1.3275
 8974SOL    HW238556   3.558   1.832   6.824 -0.9000  0.2046 -0.2544
 8975SOL     OW38557   0.241   0.362   0.600 -0.5695  0.5857  0.2060
 8975SOL    HW138558   0.273   0.343   0.688  0.2172 -2.3217 -0.7086
 8975SOL    HW238559   0.256   0.275   0.562 -1.7959 -0.8919  3.0768
 8976SOL     OW38560   3.430   4.135   6.943  0.2453 -0.2436  0.7619
 8976SOL    HW138561   3.496   4.067   6.931 -0.5286 -1.2370  2.1682
 8976SOL    HW238562   3.397   4.135   6.853 -1.7597  3.0805  1.4659
 8977SOL     OW38563   0.509   0.978  16.408  0.1805  1.3510  0.6726
 8977SOL    HW138564   0.419   0.974  16.442  0.5126 -1.6190  1.2441
 8977SOL    HW238565   0.505   0.899  16.354 -2.0189  0.2756  2.3804
 8978SOL     OW38566   1.550   0.938   9.002 -0.2236  0.6903 -0.2340
 8978SOL    HW138567   1.504   0.861   8.969  1.4971 -0.0418 -0.9005
 8978SOL    HW238568   1.499   1.011   8.966  0.2131  0.1856 -1.8611
 8979SOL     OW38569   4.316   3.806   2.069  0.2766 -0.0461  0.5225
 8979SOL    HW138570   4.375   3.737   2.097 -1.2087 -1.4553  0.1627
 8979SOL    HW238571   4.260   3.815   2.146 -0.7471  0.1305 -0.2320
 8980SOL     OW38572   0.916   3.054   4.748 -0.3894 -0.2878 -0.1061
 8980SOL    HW138573   0.837   3.105   4.766 -1.1096 -0.9557 -1.3577
 8980SOL    HW238574   0.887   2.968   4.719 -2.4909  0.0983  0.8307
 8981SOL     OW38575   0.725   4.469   0.857 -0.1590  0.1181 -0.0526
 8981SOL    HW138576   0.670   4.413   0.802 -1.2190  0.4020  0.7283
 8981SOL    HW238577   0.736   4.403   0.926  0.8976  1.1027  0.7271
 8982SOL     OW38578   4.029   2.866   1.929  0.3909  0.1323  0.0393
 8982SOL    HW138579   4.061   2.781   1.957  2.6300  0.9575  0.0403
 8982SOL    HW238580   4.114   2.905   1.906 -0.1201  0.2514 -1.6434
 8983SOL     OW38581   3.027   4.407  13.269  0.7456  0.0096  0.1753
 8983SOL    HW138582   2.968   4.337  13.240 -0.5952  0.7423  1.1153
 8983SOL    HW238583   3.088   4.357  13.323  0.6889 -0.1546  0.0876
 8984SOL     OW38584   1.814   1.944  12.017 -0.0074  0.4007 -0.2182
 8984SOL    HW138585   1.842   2.028  12.054 -3.2228  0.7302  1.4967
 8984SOL    HW238586   1.838   1.881  12.085 -1.1554 -0.3627 -0.5155
 8985SOL     OW38587   4.200   4.213   2.992 -0.3822  0.2831 -0.6880
 8985SOL    HW138588   4.187   4.122   3.018 -1.3868  0.7765  0.5287
 8985SOL    HW238589   4.287   4.226   3.028 -0.5069 -1.4946  0.2514
 8986SOL     OW38590   0.616   1.193  16.548  0.0163  0.8037 -0.2337
 8986SOL    HW138591   0.587   1.106  16.519  1.0599  0.9875 -1.8460
 8986SOL    HW238592   0.602   1.232  16.462  0.1237 -0.3642 -0.7761
 8987SOL     OW38593   4.443   2.130   5.653 -0.0019  0.0477  0.1735
 8987SOL    HW138594   4.478   2.044   5.673 -4.6580 -1.5611  1.5126
 8987SOL    HW238595   4.352   2.102   5.637 -0.7337  2.3209  0.3159
 8988SOL     OW38596   0.545   1.770   0.813  0.5051 -0.5587 -0.0147
 8988SOL    HW138597   0.568   1.837   0.877 -2.2070  0.1399  0.2229
 8988SOL    HW238598   0.571   1.819   0.735  0.5873  0.4821  0.6585
 8989SOL     OW38599   4.287   1.237   7.297  0.3115 -0.6007 -0.2709
 8989SOL    HW138600   4.278   1.257   7.204  0.1398  0.3893 -0.0451
 8989SOL    HW238601   4.338   1.157   7.293 -1.4345 -1.7431  0.4544
 8990SOL     OW38602   2.281   3.937  12.464  0.4029  0.2264  0.2673
 8990SOL    HW138603   2.277   4.008  12.400  0.6843 -1.5586 -1.7339
 8990SOL    HW238604   2.352   3.878  12.438 -1.0640 -1.0207 -0.8870
 8991SOL     OW38605   0.964   2.324   6.237 -0.0873  0.5134 -0.2085
 8991SOL    HW138606   0.991   2.414   6.214 -0.6927  0.2710 -1.8625
 8991SOL    HW238607   1.023   2.306   6.311 -0.6471 -0.0234  0.1038
 8992SOL     OW38608   4.024   0.745   4.114 -0.1177 -0.0724 -0.4135
 8992SOL    HW138609   4.011   0.651   4.117 -0.3232 -0.1036 -2.0280
 8992SOL    HW238610   4.119   0.745   4.097  0.4013 -2.2217  2.5506
 8993SOL     OW38611   0.045   1.861  10.208 -0.2565  0.1365  0.7650
 8993SOL    HW138612   4.732   1.932  10.167 -1.0642 -1.7590 -1.5923
 8993SOL    HW238613   0.015   1.797  10.142 -1.5252  0.8752  0.6255
 8994SOL     OW38614   0.089   1.263   5.883  0.0025  0.0233  0.1150
 8994SOL    HW138615   0.170   1.220   5.910  1.1739  2.4010  0.3809
 8994SOL    HW238616   0.075   1.233   5.793  0.8735  1.3764 -0.4672
 8995SOL     OW38617   1.578   1.146  17.155 -0.3755 -0.2800 -0.0497
 8995SOL    HW138618   1.659   1.107  17.123  0.4967  2.2384 -0.8698
 8995SOL    HW238619   1.602   1.239  17.156 -1.3296 -0.0326  0.2748
 8996SOL     OW38620   0.331   2.356   5.320 -0.2707 -0.7138 -0.0917
 8996SOL    HW138621   0.333   2.428   5.383 -1.7035 -0.0792 -0.7740
 8996SOL    HW238622   0.271   2.394   5.257  1.9960  1.9765 -0.6482
 8997SOL     OW38623   3.785   4.305   6.690  0.1355  0.3644  0.1409
 8997SOL    HW138624   3.818   4.217   6.712 -0.5638  0.2938  0.8903
 8997SOL    HW238625   3.791   4.305   6.594  1.3987 -0.8296  0.2132
 8998SOL     OW38626   3.368   2.833  13.033  0.3375 -0.2652  0.0838
 8998SOL    HW138627   3.443   2.865  12.983 -0.4909  0.4774 -0.6836
 8998SOL    HW238628   3.386   2.740  13.044 -0.5288 -0.2122  1.9900
 8999SOL     OW38629   2.354   4.135   8.532  0.4620 -0.1272 -0.0679
 8999SOL    HW138630   2.283   4.074   8.518 -0.7292  1.0656  0.7754
 8999SOL    HW238631   2.364   4.140   8.627  1.5257  0.2783 -0.1925
 9000SOL     OW38632   4.649   3.234   1.871 -0.1083  0.2212  0.1236
 9000SOL    HW138633   4.683   3.180   1.942 -1.3780  0.5076  0.9487
 9000SOL    HW238634   4.600   3.169   1.822  0.5459  1.0321 -1.5977
 9001SOL     OW38635   0.140   4.531   8.071  0.2511 -0.3354 -0.5561
 9001SOL    HW138636   0.118   4.624   8.074 -0.2283 -0.3838 -2.3495
 9001SOL    HW238637   0.197   4.525   8.147 -1.3671 -0.3214  0.6665
 9002SOL     OW38638   4.582   4.532   7.748  0.6915 -0.3243 -0.2515
 9002SOL    HW138639   4.507   4.586   7.726  0.3883  0.0972  1.8366
 9002SOL    HW238640   4.587   4.563   7.838 -0.7232  1.2740 -0.7428
 9003SOL     OW38641   2.506   0.895   2.674 -0.3563  0.0396 -0.2341
 9003SOL    HW138642   2.569   0.960   2.705  0.2973  1.0408 -3.7350
 9003SOL    HW238643   2.557   0.815   2.684 -2.4956 -1.2633  0.2589
 9004SOL     OW38644   2.628   0.018  14.290 -0.3575  0.0971  0.5105
 9004SOL    HW138645   2.652   0.056  14.375  1.7304  1.6578 -0.7993
 9004SOL    HW238646   2.547   4.707  14.314 -1.1256  0.7313 -0.8313
 9005SOL     OW38647   3.655   1.845   5.350  0.0416  0.1103 -0.1069
 9005SOL    HW138648   3.739   1.804   5.368 -0.3585 -0.0448  1.4161
 9005SOL    HW238649   3.683   1.915   5.292  0.2861  1.0246  1.1060
 9006SOL     OW38650   2.473   3.642  10.225 -0.0110  0.4369 -0.3144
 9006SOL    HW138651   2.490   3.706  10.156  2.3944 -0.0393 -0.1333
 9006SOL    HW238652   2.480   3.687  10.309  1.1374  0.1212 -0.2479
 9007SOL     OW38653   1.674   0.474   1.440  0.1872  0.0287 -0.5699
 9007SOL    HW138654   1.660   0.393   1.489 -2.0856  1.4728  1.1831
 9007SOL    HW238655   1.769   0.487   1.436  0.3783 -1.2462 -0.1384
 9008SOL     OW38656   3.339   1.507  11.381  0.0299  0.3197  0.6633
 9008SOL    HW138657   3.378   1.432  11.425 -0.6057 -0.6750 -0.4822
 9008SOL    HW238658   3.407   1.573  11.397  0.1017  0.7900 -1.5037
 9009SOL     OW38659   2.433   3.321   5.834  0.3846 -0.1132 -0.2354
 9009SOL    HW138660   2.473   3.349   5.916 -1.3021  1.2235  0.1102
 9009SOL    HW238661   2.396   3.403   5.803 -1.2699 -1.1859 -1.1216
 9010SOL     OW38662   0.012   4.294   8.900 -0.0252 -0.0600  0.1828
 9010SOL    HW138663   0.046   4.227   8.840 -3.2198 -0.1263 -1.5506
 9010SOL    HW238664   0.063   4.276   8.979  0.6095 -0.5460 -0.3332
 9011SOL     OW38665   2.377   2.603   7.192  0.2787 -0.0621 -0.4674
 9011SOL    HW138666   2.294   2.569   7.159  0.5512 -1.2401  0.0810
 9011SOL    HW238667   2.432   2.602   7.113 -1.2587  0.0990 -1.5513
 9012SOL     OW38668   3.329   1.416   5.372 -0.0200 -0.2694 -0.2422
 9012SOL    HW138669   3.404   1.475   5.366  1.2353 -1.6655  1.8905
 9012SOL    HW238670   3.365   1.344   5.423  2.5805  0.7113 -0.6919
 9013SOL     OW38671   3.949   4.559   8.375 -0.3265  0.5728 -0.7811
 9013SOL    HW138672   4.005   4.513   8.312 -0.8771 -1.7714  0.4379
 9013SOL    HW238673   3.864   4.536   8.338 -0.6478 -0.2044  0.4738
 9014SOL     OW38674   0.966   0.248   2.659 -0.3860  0.1648 -0.0435
 9014SOL    HW138675   1.060   0.230   2.662 -0.7294 -1.2673  2.0971
 9014SOL    HW238676   0.939   0.162   2.626 -0.9353  1.0820 -1.9694
 9015SOL     OW38677   3.639   2.443   3.335 -0.6759  0.4692  0.3527
 9015SOL    HW138678   3.568   2.399   3.380 -0.5700 -2.0525 -1.9263
 9015SOL    HW238679   3.665   2.372   3.276  0.3856  2.5878 -1.7644
 9016SOL     OW38680   1.272   2.195  16.384 -0.1653 -0.5681 -0.0986
 9016SOL    HW138681   1.238   2.251  16.314  0.2644 -0.2528 -0.0524
 9016SOL    HW238682   1.227   2.111  16.374 -0.0068 -0.4980 -1.4530
 9017SOL     OW38683   0.416   0.585   3.007  0.0423 -0.1160 -0.0820
 9017SOL    HW138684   0.445   0.645   2.938  0.0041 -1.3702 -1.1893
 9017SOL    HW238685   0.492   0.529   3.019  0.7739  0.7354 -0.6953
 9018SOL     OW38686   2.930   4.406   8.958  0.3998  0.3812 -0.5281
 9018SOL    HW138687   2.899   4.449   9.038  0.0588 -1.3534  0.2548
 9018SOL    HW238688   2.987   4.335   8.987  2.5816  2.3276  0.0071
 9019SOL     OW38689   3.942   3.153   6.500  0.1673  0.3091  0.3844
 9019SOL    HW138690   3.900   3.189   6.578  1.0389 -1.4748  1.6690
 9019SOL    HW238691   3.968   3.072   6.544  0.6105  1.2795  1.9070
 9020SOL     OW38692   2.047   2.152  12.379  0.3737  0.3586 -0.6934
 9020SOL    HW138693   1.995   2.232  12.385  0.8200  0.6861 -1.2453
 9020SOL    HW238694   2.084   2.152  12.467 -2.4160 -0.9065  0.4682
 9021SOL     OW38695   2.583   3.959   8.837 -0.0270 -0.2727 -0.3191
 9021SOL    HW138696   2.627   4.001   8.763  2.5656 -0.8004  0.9276
 9021SOL    HW238697   2.582   3.870   8.802  0.8791 -0.3169 -0.2431
 9022SOL     OW38698   0.887   2.473  14.188  0.3582 -0.5766  0.3360
 9022SOL    HW138699   0.933   2.483  14.105  0.3060  0.1406  0.3936
 9022SOL    HW238700   0.888   2.564  14.220 -0.5712 -0.6218  0.5112
 9023SOL     OW38701   4.220   0.411   5.499  0.0604 -0.2092 -0.2007
 9023SOL    HW138702   4.287   0.393   5.432  1.6334 -1.1530  1.6368
 9023SOL    HW238703   4.218   0.506   5.488 -0.1246 -0.4660 -2.3949
 9024SOL     OW38704   2.783   4.552  15.357  0.6642 -0.3943 -0.1088
 9024SOL    HW138705   2.750   4.634  15.393  2.2289  0.3790 -0.4498
 9024SOL    HW238706   2.773   4.572  15.264  3.3297 -0.2919 -0.3763
 9025SOL     OW38707   2.652   3.994   7.997 -0.1965  0.3770 -0.6472
 9025SOL    HW138708   2.657   4.089   7.987 -0.7459  0.4824  0.0141
 9025SOL    HW238709   2.705   3.970   8.073 -1.5555  1.9057  0.7919
 9026SOL     OW38710   4.124   1.967   7.252  0.0349  0.3306  0.2743
 9026SOL    HW138711   4.073   1.898   7.210 -0.1769  1.1462 -0.8153
 9026SOL    HW238712   4.205   1.916   7.252 -0.0632  0.1778  2.1262
 9027SOL     OW38713   0.828   0.032  16.146  0.5134  0.1826  0.4152
 9027SOL    HW138714   0.808   4.693  16.203  1.2413  1.0454  1.7956
 9027SOL    HW238715   0.920   0.018  16.124 -0.0154 -4.5464  1.1499
 9028SOL     OW38716   3.934   0.320   4.950  0.2181 -0.3471  0.1156
 9028SOL    HW138717   3.987   0.399   4.957  1.3023 -1.2897  2.4981
 9028SOL    HW238718   3.882   0.353   4.877  0.3315  0.2658  0.3133
 9029SOL     OW38719   0.851   0.567  11.685 -1.0402 -0.1006 -0.1217
 9029SOL    HW138720   0.888   0.645  11.642 -0.8148  0.6757  1.5061
 9029SOL    HW238721   0.926   0.521  11.723 -0.3272  1.3724  0.2922
 9030SOL     OW38722   4.019   1.344  12.046 -0.2476  0.1482 -0.4773
 9030SOL    HW138723   4.036   1.249  12.040  0.4866  0.3580 -1.6736
 9030SOL    HW238724   4.060   1.357  12.131  1.5140  0.6031 -1.3926
 9031SOL     OW38725   0.135   0.573   7.175  0.6259 -0.2865 -0.4210
 9031SOL    HW138726   0.189   0.612   7.106  1.0379  0.7956  0.5016
 9031SOL    HW238727   0.161   0.620   7.254 -2.2613  1.1585 -0.3301
 9032SOL     OW38728   4.117   0.277   6.294  0.5411  0.2629  0.2709
 9032SOL    HW138729   4.087   0.217   6.226 -1.5462  1.8835 -0.2368
 9032SOL    HW238730   4.077   0.363   6.277 -1.1873 -0.8539 -1.3492
 9033SOL     OW38731   1.890   0.097   6.805  0.3953  0.4769  0.4758
 9033SOL    HW138732   1.832   0.132   6.873 -1.2864 -2.5371  0.6082
 9033SOL    HW238733   1.882   0.147   6.724 -1.1949 -1.5906 -0.6336
 9034SOL     OW38734   2.707   0.275   9.351 -0.5561  0.2146 -0.1408
 9034SOL    HW138735   2.615   0.250   9.339 -1.1232  1.7208  1.0755
 9034SOL    HW238736   2.702   0.338   9.422 -2.4676 -1.6423  1.3688
 9035SOL     OW38737   0.128   3.993   7.092  0.5153  0.2625 -0.4246
 9035SOL    HW138738   0.216   3.961   7.069 -0.0887  0.2194 -2.7364
 9035SOL    HW238739   0.151   4.086   7.097 -0.5796  0.4310  1.1021
 9036SOL     OW38740   2.811   2.960   8.330  0.0829 -0.3328  0.1904
 9036SOL    HW138741   2.898   2.984   8.361  0.1104 -0.1971  0.0074
 9036SOL    HW238742   2.836   2.885   8.277  1.8711  0.2625  0.1997
 9037SOL     OW38743   3.686   0.097  13.461 -0.7514 -0.0515  0.4163
 9037SOL    HW138744   3.652   0.167  13.516  0.6939  1.1672 -0.2567
 9037SOL    HW238745   3.775   0.130  13.452  0.2612 -3.3359 -1.5614
 9038SOL     OW38746   3.111   3.132   7.672  0.2370 -0.1469  0.2382
 9038SOL    HW138747   3.195   3.142   7.716  0.8560  0.4938 -1.0780
 9038SOL    HW238748   3.071   3.049   7.700 -1.6091  0.8955  0.6921
 9039SOL     OW38749   3.211   1.680   9.661 -1.0509  0.1732  0.1582
 9039SOL    HW138750   3.182   1.745   9.725 -0.5232  0.2132  0.3535
 9039SOL    HW238751   3.195   1.739   9.588 -0.5820  2.0470  1.5679
 9040SOL     OW38752   2.821   3.723   7.264 -0.0322 -0.1373  0.3528
 9040SOL    HW138753   2.735   3.683   7.260 -0.4085  0.6889  0.1769
 9040SOL    HW238754   2.817   3.777   7.185  1.9870 -1.1175 -0.4262
 9041SOL     OW38755   4.039   2.474   8.231 -0.4148  0.0495 -0.5324
 9041SOL    HW138756   4.109   2.529   8.268  1.0652 -2.2569  0.1481
 9041SOL    HW238757   3.986   2.464   8.311 -0.7752 -1.2484 -0.9253
 9042SOL     OW38758   1.648   4.652  17.727  0.7587  0.0196  0.2069
 9042SOL    HW138759   1.711   4.587  17.696  0.8506  1.6105 -2.8223
 9042SOL    HW238760   1.653   4.715  17.656 -2.1440 -0.4139 -0.4009
 9043SOL     OW38761   1.159   1.864   5.175 -0.3038  0.0741 -0.1517
 9043SOL    HW138762   1.103   1.868   5.253  0.8479 -0.4194  0.7115
 9043SOL    HW238763   1.236   1.822   5.214  0.6799  2.2741  0.2864
 9044SOL     OW38764   3.786   0.206   8.186  0.0783  0.4998 -0.2229
 9044SOL    HW138765   3.852   0.265   8.223 -0.4149 -0.4765  2.1928
 9044SOL    HW238766   3.844   0.131   8.172  1.2524  1.4129 -0.2742
 9045SOL     OW38767   4.676   2.526   4.624 -0.3572  0.0115  0.0508
 9045SOL    HW138768   4.649   2.483   4.542 -0.7935 -0.0445  0.2242
 9045SOL    HW238769   4.708   2.442   4.658  0.7030  0.2268 -0.4028
 9046SOL     OW38770   2.545   1.874   7.222  0.8194  0.2115  0.5244
 9046SOL    HW138771   2.503   1.919   7.296 -3.2183 -2.3018 -0.2635
 9046SOL    HW238772   2.588   1.943   7.172  0.1904  0.3738  0.2149
 9047SOL     OW38773   4.488   0.267   9.152 -0.2409  0.3700  0.4458
 9047SOL    HW138774   4.497   0.304   9.064  0.1372  1.0141  0.7576
 9047SOL    HW238775   4.547   0.191   9.156 -2.2628 -1.1875  0.4371
 9048SOL     OW38776   3.666   0.402   4.511  0.0315  0.2899  0.0357
 9048SOL    HW138777   3.644   0.494   4.500  0.1049  0.3014 -0.0184
 9048SOL    HW238778   3.751   0.386   4.469  1.2793 -0.0426  2.6522
 9049SOL     OW38779   0.682   0.173   4.608 -0.4886  0.3449  0.1347
 9049SOL    HW138780   0.774   0.157   4.628 -0.4854 -1.1813 -1.0994
 9049SOL    HW238781   0.655   0.199   4.697 -0.7424  0.0704  0.1397
 9050SOL     OW38782   2.090   0.321   7.523  0.2751  0.3145 -0.2934
 9050SOL    HW138783   2.121   0.375   7.595 -0.9403 -0.5424  0.8753
 9050SOL    HW238784   2.011   0.371   7.501  0.4047  0.0683 -1.3246
 9051SOL     OW38785   3.927   1.714   4.696  0.8399  0.4854  0.7992
 9051SOL    HW138786   3.876   1.687   4.773 -0.2050  1.2911  0.3955
 9051SOL    HW238787   3.866   1.690   4.626  1.3856  2.9147 -0.4919
 9052SOL     OW38788   3.484   4.144  15.735  0.2036 -0.0952 -0.1745
 9052SOL    HW138789   3.399   4.186  15.720  0.9538  2.2068  2.0093
 9052SOL    HW238790   3.510   4.133  15.643  3.2418 -1.8702  0.8942
 9053SOL     OW38791   2.777   3.394  10.027 -0.1506 -0.0313  0.0454
 9053SOL    HW138792   2.819   3.311  10.051 -0.1523  0.3418  1.3403
 9053SOL    HW238793   2.689   3.375  10.061 -0.8840  0.5041 -1.5281
 9054SOL     OW38794   2.636   1.199   3.603  0.5331  0.0278 -0.0551
 9054SOL    HW138795   2.589   1.282   3.596 -1.1339 -0.7415  1.8900
 9054SOL    HW238796   2.727   1.228   3.612  1.2272 -2.2382  0.1744
 9055SOL     OW38797   2.290   1.275   6.864  0.3858  0.5263  0.1402
 9055SOL    HW138798   2.368   1.241   6.908 -0.0205 -2.2210 -1.2555
 9055SOL    HW238799   2.326   1.353   6.822  0.0636 -0.2111 -1.5326
 9056SOL     OW38800   2.136   3.185   4.909 -0.5274  0.3432  0.4722
 9056SOL    HW138801   2.110   3.166   4.999  3.2236 -0.7266  1.3407
 9056SOL    HW238802   2.216   3.229   4.935  1.0711 -2.6017  0.5652
 9057SOL     OW38803   3.100   2.243  14.733  0.2888 -0.0886  0.3405
 9057SOL    HW138804   3.145   2.186  14.795  0.4438  0.0155  0.3220
 9057SOL    HW238805   3.164   2.266  14.666 -0.0725 -1.1702 -0.3806
 9058SOL     OW38806   3.165   4.542  16.869  0.6254  0.4278  0.0676
 9058SOL    HW138807   3.261   4.544  16.876  0.5513  2.5619  0.5146
 9058SOL    HW238808   3.135   4.513  16.955 -1.3317 -0.4602 -0.9249
 9059SOL     OW38809   2.172   3.725   8.296  0.2499 -0.1141 -0.2406
 9059SOL    HW138810   2.250   3.706   8.244 -0.0593 -0.2416 -0.6615
 9059SOL    HW238811   2.146   3.634   8.315 -0.2403  0.2527  0.8384
 9060SOL     OW38812   4.681   3.898   3.165 -0.3714 -0.4953  0.2250
 9060SOL    HW138813   0.000   3.957   3.113 -0.2950 -0.1909  0.6501
 9060SOL    HW238814   4.598   3.916   3.121 -0.5307  0.0818  0.7625
 9061SOL     OW38815   3.766   2.797   5.239  0.4290 -0.0130  0.6874
 9061SOL    HW138816   3.747   2.886   5.267  1.2340  0.0768  0.9477
 9061SOL    HW238817   3.793   2.805   5.147  2.5791 -1.0459  1.2346
 9062SOL     OW38818   4.239   3.207   3.131 -0.5341  0.2785 -0.6206
 9062SOL    HW138819   4.169   3.145   3.148 -0.8310  1.6244  2.9545
 9062SOL    HW238820   4.300   3.185   3.202 -1.3010 -0.9249 -0.3577
 9063SOL     OW38821   0.516   1.220   9.144  0.3294 -0.1323  0.1106
 9063SOL    HW138822   0.606   1.187   9.136  0.2847 -0.4281  0.8325
 9063SOL    HW238823   0.488   1.229   9.053  1.8604  0.4840 -0.2995
 9064SOL     OW38824   2.461   3.150   8.531 -0.0243  0.5643  0.0856
 9064SOL    HW138825   2.376   3.121   8.565 -0.2360  0.4432 -0.5571
 9064SOL    HW238826   2.444   3.227   8.477  1.3398  0.3760 -0.6113
 9065SOL     OW38827   4.588   1.569   2.986 -0.6398 -0.2973 -0.1452
 9065SOL    HW138828   4.544   1.573   3.071 -0.6275 -1.0395 -0.1051
 9065SOL    HW238829   4.533   1.510   2.934 -0.0355  0.4950 -1.6853
 9066SOL     OW38830   1.364   3.339   7.876 -0.5655  0.3789 -0.2628
 9066SOL    HW138831   1.429   3.373   7.937 -0.6690  0.0057  0.0527
 9066SOL    HW238832   1.370   3.244   7.888 -2.8618  0.0136 -2.0727
 9067SOL     OW38833   3.948   4.492  15.806  0.3338  0.6702  0.2831
 9067SOL    HW138834   3.914   4.420  15.858 -2.2288 -0.2000 -2.6099
 9067SOL    HW238835   3.871   4.501  15.749 -0.3987 -0.0475  1.1611
 9068SOL     OW38836   1.557   0.240   7.532 -0.6130 -0.3350 -0.1281
 9068SOL    HW138837   1.528   0.275   7.448 -0.3974  0.6305  0.1960
 9068SOL    HW238838   1.588   0.323   7.567 -1.2979 -0.5721  1.0208
 9069SOL     OW38839   0.367   0.448   8.158 -1.1495 -0.3051  0.6518
 9069SOL    HW138840   0.444   0.471   8.106  0.2495 -0.8324  2.4655
 9069SOL    HW238841   0.382   0.354   8.156 -0.7219 -0.2049 -0.6397
 9070SOL     OW38842   0.324   1.516   0.359 -0.3396 -0.0834 -0.0495
 9070SOL    HW138843   0.361   1.433   0.330 -0.7310 -0.1262 -0.4284
 9070SOL    HW238844   0.277   1.486   0.436 -0.1927  2.5317  1.0646
 9071SOL     OW38845   1.223   3.503   6.527  0.7615 -0.0958  0.6285
 9071SOL    HW138846   1.205   3.477   6.437 -0.9831  0.4660  0.8110
 9071SOL    HW238847   1.155   3.469   6.585 -0.1673 -1.5311 -1.3285
 9072SOL     OW38848   4.282   0.254   9.312 -0.2520 -0.0837 -0.5101
 9072SOL    HW138849   4.205   0.231   9.259  0.1312  0.3002 -1.2264
 9072SOL    HW238850   4.356   0.263   9.252 -0.2864 -2.3546 -0.8948
 9073SOL     OW38851   3.091   1.518  11.519  0.2068 -0.2185 -0.2658
 9073SOL    HW138852   3.095   1.605  11.478 -1.3615  0.2393  0.5659
 9073SOL    HW238853   3.184   1.494  11.512  1.0154  3.4763 -2.4750
 9074SOL     OW38854   3.761   2.728  16.261 -0.6746 -0.2820 -0.1019
 9074SOL    HW138855   3.741   2.748  16.169 -2.9237  1.3567  0.7282
 9074SOL    HW238856   3.694   2.777  16.309 -0.0935  0.8600 -0.4394
 9075SOL     OW38857   0.960   0.915  17.578  0.0078 -0.1446 -0.4104
 9075SOL    HW138858   0.952   0.978  17.650  0.2910  1.3195 -1.6520
 9075SOL    HW238859   1.014   0.956  17.510 -0.5796  1.0048 -0.1882
 9076SOL     OW38860   2.950   4.280   1.477  0.3476 -0.0054 -0.3664
 9076SOL    HW138861   2.879   4.258   1.537  1.4670 -1.9474  0.2444
 9076SOL    HW238862   2.959   4.194   1.436 -0.3196  1.1804 -3.0479
 9077SOL     OW38863   0.552   3.047   6.112 -0.1110  0.8535  0.8809
 9077SOL    HW138864   0.479   3.036   6.173 -1.5579  0.4926 -0.9117
 9077SOL    HW238865   0.591   3.131   6.139  1.8072 -0.0769  0.9894
 9078SOL     OW38866   2.963   4.506   2.513  0.2368 -0.9938  0.1400
 9078SOL    HW138867   3.031   4.550   2.461 -1.0364  0.9290  0.0743
 9078SOL    HW238868   3.021   4.453   2.567 -0.1807 -1.5276  0.0590
 9079SOL     OW38869   3.476   0.317   3.071  0.5865  0.1626 -0.4186
 9079SOL    HW138870   3.434   0.394   3.032 -0.7729 -0.0784  0.5715
 9079SOL    HW238871   3.481   0.343   3.163  1.2314 -0.8680 -0.1717
 9080SOL     OW38872   1.939   1.691   7.067  0.4206 -0.1332  0.4717
 9080SOL    HW138873   1.980   1.690   6.980 -0.3539 -1.0331  0.1144
 9080SOL    HW238874   1.950   1.600   7.095  0.4728  0.9283  3.7889
 9081SOL     OW38875   2.753   3.563   2.853 -0.5003  0.1121  0.0579
 9081SOL    HW138876   2.832   3.538   2.806 -1.4701 -1.0762 -0.9406
 9081SOL    HW238877   2.775   3.563   2.946  1.9235 -0.0203 -0.5187
 9082SOL     OW38878   4.633   2.710  13.702 -0.1288  0.2877 -0.2717
 9082SOL    HW138879   4.576   2.684  13.774  1.5333 -1.6299  0.3436
 9082SOL    HW238880   4.713   2.746  13.741 -0.8296  0.4231  1.0473
 9083SOL     OW38881   1.426   4.143   5.658 -1.0549  0.1066  0.0419
 9083SOL    HW138882   1.357   4.080   5.637 -1.9598  0.2307  2.5790
 9083SOL    HW238883   1.407   4.220   5.604  0.2554 -1.1764 -2.2402
 9084SOL     OW38884   3.083   2.576   9.628  0.2808  0.0718 -0.1438
 9084SOL    HW138885   3.048   2.631   9.698  0.1810 -0.9784  0.6473
 9084SOL    HW238886   3.051   2.487   9.647  2.0518 -0.3968  0.6342
 9085SOL     OW38887   0.563   0.102   8.165 -0.3970  0.1608 -0.3095
 9085SOL    HW138888   0.624   0.037   8.130  0.0382 -0.2447  1.1996
 9085SOL    HW238889   0.573   0.168   8.096  0.5948 -0.1872 -0.5064
 9086SOL     OW38890   4.569   0.845   2.994  0.0064 -0.0539  0.5715
 9086SOL    HW138891   4.497   0.811   2.942  0.1978 -0.7993  0.7933
 9086SOL    HW238892   4.637   0.792   2.953 -0.0049  0.7915 -0.5492
 9087SOL     OW38893   0.009   4.629   5.757  0.4926  0.0214  0.0496
 9087SOL    HW138894   4.734   4.633   5.852 -1.8124  1.5902 -0.2649
 9087SOL    HW238895   0.099   4.600   5.745  0.1147 -0.5801 -1.3495
 9088SOL     OW38896   0.145   3.117   2.276 -0.1089  0.0678 -0.3949
 9088SOL    HW138897   0.185   3.057   2.338 -0.1080 -1.0855 -1.5209
 9088SOL    HW238898   0.166   3.201   2.317 -1.8932  0.2018  0.2524
 9089SOL     OW38899   4.574   3.496  10.567 -0.2230  0.0277 -0.3108
 9089SOL    HW138900   4.492   3.545  10.574  0.5366  1.8423 -4.0069
 9089SOL    HW238901   4.551   3.404  10.556  1.3924 -0.2758 -1.2622
 9090SOL     OW38902   1.419   0.958  12.222 -0.6569 -0.3617  0.7984
 9090SOL    HW138903   1.411   1.052  12.210 -0.8276 -0.6082 -1.0775
 9090SOL    HW238904   1.369   0.945  12.303 -0.0366  0.5238  1.3267
 9091SOL     OW38905   3.585   3.633   1.323  0.5376  0.1325 -0.6816
 9091SOL    HW138906   3.681   3.630   1.326  0.4683 -0.6133  0.6028
 9091SOL    HW238907   3.570   3.554   1.271  1.9728  0.9436 -2.3436
 9092SOL     OW38908   0.828   3.656   6.865 -0.5640  0.2531 -0.2029
 9092SOL    HW138909   0.833   3.620   6.954 -0.6570  3.0080  0.9114
 9092SOL    HW238910   0.919   3.643   6.841  0.1135  0.6278  2.0983
 9093SOL     OW38911   2.301   1.946  13.721 -0.2430 -0.0681 -0.1807
 9093SOL    HW138912   2.236   1.974  13.657  0.1108 -0.9613 -0.9455
 9093SOL    HW238913   2.246   1.918  13.794  1.0302  0.4864  0.9881
 9094SOL     OW38914   0.400   3.101   0.965 -0.4761  0.4501 -0.2153
 9094SOL    HW138915   0.323   3.087   0.909 -1.0477  2.4278  0.1115
 9094SOL    HW238916   0.369   3.070   1.050 -0.0225  1.3793  0.2880
 9095SOL     OW38917   2.997   0.356  12.659 -0.3113  0.4248  0.2388
 9095SOL    HW138918   3.034   0.441  12.635  0.6404 -0.9270 -2.9974
 9095SOL    HW238919   3.020   0.349  12.752  1.2505  0.4542 -0.1379
 9096SOL     OW38920   1.891   2.630  13.385 -0.1830  0.2082 -0.1334
 9096SOL    HW138921   1.893   2.675  13.300 -3.2309  3.8410  1.7018
 9096SOL    HW238922   1.959   2.676  13.435  1.8589 -1.3588 -1.4588
 9097SOL     OW38923   2.098   0.091   6.034 -1.1168 -0.3540  0.3149
 9097SOL    HW138924   2.091   0.169   6.088  1.2411 -0.2491  0.4785
 9097SOL    HW238925   2.115   0.016   6.090  0.3857  0.4768  0.9820
 9098SOL     OW38926   1.365   0.476  11.539 -0.1334  0.0814  0.3717
 9098SOL    HW138927   1.392   0.568  11.544 -0.0450  0.1273 -1.1284
 9098SOL    HW238928   1.391   0.460  11.449 -1.4314 -0.5830  0.1080
 9099SOL     OW38929   0.038   1.756   1.954 -0.4363 -0.8702  0.4780
 9099SOL    HW138930   4.702   1.765   2.018  1.4497 -0.2859  2.4901
 9099SOL    HW238931   0.101   1.708   2.008  1.3465  0.5382 -0.3369
 9100SOL     OW38932   2.159   1.819  12.895 -0.1612  0.8975 -0.4378
 9100SOL    HW138933   2.117   1.787  12.975 -1.6973  0.1202 -1.5629
 9100SOL    HW238934   2.083   1.832  12.838  0.3474  1.5103 -0.9784
 9101SOL     OW38935   4.144   3.207   2.546 -0.5012 -0.1066  0.3221
 9101SOL    HW138936   4.086   3.212   2.621 -0.1775  1.6682  0.4649
 9101SOL    HW238937   4.232   3.221   2.583 -1.8640  0.6476  3.2510
 9102SOL     OW38938   1.316   3.706   7.289 -0.4610  0.0172  0.6008
 9102SOL    HW138939   1.323   3.611   7.296  0.2982  0.0913  0.7625
 9102SOL    HW238940   1.392   3.728   7.342 -0.5142 -1.8092  1.4318
 9103SOL     OW38941   3.616   2.540   7.303  0.3548 -0.3524 -0.2960
 9103SOL    HW138942   3.698   2.580   7.275  0.5688 -0.4959  0.1343
 9103SOL    HW238943   3.555   2.566   7.235  1.0057  0.2551 -0.6445
 9104SOL     OW38944   4.263   4.341   4.313 -0.2349  0.0677  0.5543
 9104SOL    HW138945   4.314   4.303   4.242  0.6533  0.4894  0.9626
 9104SOL    HW238946   4.297   4.429   4.330 -0.4503  0.5234 -1.3921
 9105SOL     OW38947   1.272   3.967   0.211  0.3584  0.0987  0.0458
 9105SOL    HW138948   1.340   3.924   0.263 -1.0451 -1.3371  0.7213
 9105SOL    HW238949   1.211   3.894   0.197  0.0764  0.3150  0.1407
 9106SOL     OW38950   0.532   2.199   5.252 -0.5001  0.1236  1.2172
 9106SOL    HW138951   0.521   2.136   5.323  0.1220  1.3563  2.4090
 9106SOL    HW238952   0.462   2.258   5.280 -0.5298  0.6301  0.0823
 9107SOL     OW38953   0.506   2.124  11.576  0.5464 -0.5047  0.4075
 9107SOL    HW138954   0.488   2.034  11.548 -1.1592 -0.3562  1.0007
 9107SOL    HW238955   0.426   2.140  11.626 -0.2681 -4.0308  0.2546
 9108SOL     OW38956   4.157   3.578   5.085 -0.2734 -0.2816  0.1038
 9108SOL    HW138957   4.186   3.572   4.993  0.8053 -0.8445  0.4791
 9108SOL    HW238958   4.078   3.632   5.079 -0.2857 -0.2548  0.5316
 9109SOL     OW38959   1.093   3.726  14.246 -0.1774  0.6430  0.0724
 9109SOL    HW138960   1.158   3.778  14.199  2.3814 -2.7337 -0.1264
 9109SOL    HW238961   1.025   3.794  14.249  0.7234  1.5582 -0.0883
 9110SOL     OW38962   3.739   3.121   2.398  0.4478 -0.2466  0.2467
 9110SOL    HW138963   3.652   3.154   2.379  0.7583  0.6902  0.4463
 9110SOL    HW238964   3.796   3.149   2.325 -0.6088 -3.2254 -1.7062
 9111SOL     OW38965   2.639   3.841   3.683 -0.0142  0.0443 -0.0132
 9111SOL    HW138966   2.594   3.806   3.760  0.6168  0.8175  0.7167
 9111SOL    HW238967   2.665   3.925   3.720  0.6887  0.1481 -0.7266
 9112SOL     OW38968   4.582   4.302   2.349 -0.6468 -0.4539 -0.0923
 9112SOL    HW138969   4.611   4.362   2.418  1.3391 -1.8101  0.2571
 9112SOL    HW238970   4.564   4.369   2.284  0.2941  0.0248  0.1423
 9113SOL     OW38971   1.301   2.132   4.458  0.2921 -0.3986  0.1246
 9113SOL    HW138972   1.289   2.037   4.466  0.3758 -0.4699 -0.5948
 9113SOL    HW238973   1.394   2.129   4.435  0.0568  0.0883 -0.8937
 9114SOL     OW38974   3.791   4.290   2.711  0.1385  0.3060 -0.1301
 9114SOL    HW138975   3.798   4.284   2.807  2.5530  0.3521 -0.3007
 9114SOL    HW238976   3.781   4.198   2.686 -2.3019  0.2349  1.0281
 9115SOL     OW38977   1.341   1.067   1.937 -0.3227  0.5480 -0.1040
 9115SOL    HW138978   1.257   1.076   1.891  0.7279  0.2955 -2.1082
 9115SOL    HW238979   1.325   1.118   2.016  0.4893  0.7934 -0.1003
 9116SOL     OW38980   2.617   2.351   6.643 -0.6029  0.2286 -0.2155
 9116SOL    HW138981   2.560   2.347   6.567 -0.6676 -2.0059 -0.0372
 9116SOL    HW238982   2.654   2.439   6.637 -2.1698  1.0378  1.6818
 9117SOL     OW38983   4.664   2.751  16.422  0.0772  0.0779 -0.7132
 9117SOL    HW138984   4.672   2.843  16.395 -1.0255 -0.1027 -1.6480
 9117SOL    HW238985   0.017   2.715  16.417 -0.1786 -0.8075  0.9140
 9118SOL     OW38986   0.586   4.466   6.388  0.3960 -0.0138 -0.2642
 9118SOL    HW138987   0.680   4.450   6.378  0.0711 -1.6842 -0.5632
 9118SOL    HW238988   0.569   4.537   6.326  0.8458  0.0159 -0.3579
 9119SOL     OW38989   4.137   1.762   9.993 -0.0514  0.1356 -0.0862
 9119SOL    HW138990   4.203   1.800   9.935  1.3273 -1.7703  0.2717
 9119SOL    HW238991   4.134   1.816  10.072 -1.2734 -1.1966  0.7852
 9120SOL     OW38992   0.192   3.191  13.107 -0.8637  0.0696 -0.1922
 9120SOL    HW138993   0.187   3.105  13.065 -1.2537  0.3008 -0.6322
 9120SOL    HW238994   0.153   3.175  13.192  0.2601 -0.1887  0.2795
 9121SOL     OW38995   3.466   4.700   6.152  0.6950 -0.7077 -0.3332
 9121SOL    HW138996   3.384   4.653   6.143 -0.0895  0.6754 -0.3755
 9121SOL    HW238997   3.466   0.021   6.074 -1.3084 -2.3851 -1.5273
 9122SOL     OW38998   0.405   3.955   6.062 -0.2753  0.4840  0.1510
 9122SOL    HW138999   0.317   3.937   6.029  0.5967 -1.1190 -1.2531
 9122SOL    HW239000   0.381   3.932   6.152  1.9917 -0.6661  0.4372
 9123SOL     OW39001   1.222   0.867   1.559 -0.0393  0.4700  0.3531
 9123SOL    HW139002   1.234   0.793   1.498  1.4575 -1.6220  3.2035
 9123SOL    HW239003   1.308   0.910   1.555  0.1707 -0.0520 -1.1321
 9124SOL     OW39004   1.182   1.215   4.790 -0.3245 -0.1216  0.6337
 9124SOL    HW139005   1.110   1.171   4.834 -0.6158  1.6120  1.8959
 9124SOL    HW239006   1.202   1.149   4.723 -0.7355 -0.2764  0.6632
 9125SOL     OW39007   3.358   1.398   7.937 -0.0150 -0.1401  0.1010
 9125SOL    HW139008   3.414   1.432   8.007  0.1767  0.2480 -0.2474
 9125SOL    HW239009   3.380   1.305   7.927  0.1938  0.1406 -1.9077
 9126SOL     OW39010   1.903   3.904  17.197  0.7080 -0.2964  0.8003
 9126SOL    HW139011   1.870   3.878  17.283  1.4996 -1.0453  0.8776
 9126SOL    HW239012   1.892   3.999  17.203  0.1723 -0.2452 -0.9095
 9127SOL     OW39013   1.843   3.823   5.030 -0.1920  0.1338  0.1214
 9127SOL    HW139014   1.774   3.772   5.073 -0.6906  0.3951 -0.3706
 9127SOL    HW239015   1.850   3.786   4.942 -0.5332  0.8855 -0.2241
 9128SOL     OW39016   3.084   3.815   6.677  0.4248 -0.4715  0.9479
 9128SOL    HW139017   3.068   3.727   6.710 -0.8325 -1.5725 -2.5286
 9128SOL    HW239018   3.097   3.794   6.584  1.4617  1.0573  0.7408
 9129SOL     OW39019   3.860   0.940  12.612  0.6067 -0.1558  0.8880
 9129SOL    HW139020   3.785   0.986  12.651 -0.3540 -0.1034 -1.0234
 9129SOL    HW239021   3.885   0.885  12.687  3.5387  0.5423  0.4447
 9130SOL     OW39022   2.394   0.139   7.648  0.2630  0.2417 -0.6311
 9130SOL    HW139023   2.371   0.213   7.591 -1.8209 -0.0857 -0.1828
 9130SOL    HW239024   2.313   0.117   7.693 -0.4251  1.6339 -1.1993
 9131SOL     OW39025   2.324   3.343   8.358 -0.0833 -0.0722  0.0755
 9131SOL    HW139026   2.230   3.322   8.356 -0.7516  2.9563  0.5556
 9131SOL    HW239027   2.322   3.406   8.430 -1.7240 -1.5738  1.3480
 9132SOL     OW39028   1.887   4.359   1.414 -0.4201 -0.2740 -0.0338
 9132SOL    HW139029   1.793   4.348   1.428 -0.2785 -0.2240  0.9691
 9132SOL    HW239030   1.903   4.285   1.355 -2.2539 -2.5576  2.3349
 9133SOL     OW39031   3.319   0.864   4.019 -0.4685 -0.5265 -0.3157
 9133SOL    HW139032   3.373   0.802   4.067  0.2967  0.0491 -0.4336
 9133SOL    HW239033   3.297   0.919   4.094  1.6120 -1.1660  0.7399
 9134SOL     OW39034   3.493   4.507  14.173  0.8956  0.1187 -0.1086
 9134SOL    HW139035   3.425   4.443  14.155  2.2089 -1.5697  0.9753
 9134SOL    HW239036   3.567   4.469  14.125 -1.1888 -0.3624 -2.9604
 9135SOL     OW39037   1.939   1.063   7.170  0.3108  0.2418 -0.2257
 9135SOL    HW139038   1.943   1.122   7.095 -0.0871  1.9457  1.1021
 9135SOL    HW239039   1.919   1.129   7.236 -0.0556  0.1682 -0.2633
 9136SOL     OW39040   3.228   4.312  15.975 -0.4815 -0.1221  0.0338
 9136SOL    HW139041   3.303   4.318  16.034  0.6777 -1.5068 -1.2638
 9136SOL    HW239042   3.169   4.368  16.025  0.9187  1.4049 -0.0340
 9137SOL     OW39043   1.844   2.123  17.138 -0.5979  0.1191  0.2624
 9137SOL    HW139044   1.890   2.077  17.067  0.7921  0.2915  1.0661
 9137SOL    HW239045   1.752   2.125  17.110 -1.7406  0.5546  4.0678
 9138SOL     OW39046   3.487   1.546   2.538 -0.6208  0.3484  0.1199
 9138SOL    HW139047   3.407   1.538   2.485 -1.1805 -0.2304  1.0528
 9138SOL    HW239048   3.462   1.493   2.614  0.1812 -2.6924 -1.7244
 9139SOL     OW39049   1.438   3.769   5.862  0.7479 -0.1367 -0.2555
 9139SOL    HW139050   1.452   3.863   5.850 -1.7725  0.1688 -0.7779
 9139SOL    HW239051   1.359   3.777   5.916  0.7707 -1.4077 -0.0475
 9140SOL     OW39052   1.739   3.961  17.468 -0.6592  0.7125 -0.0147
 9140SOL    HW139053   1.715   3.957  17.560 -1.2149 -1.2601 -0.2256
 9140SOL    HW239054   1.690   3.886  17.434  1.4765 -0.5674 -0.2699
 9141SOL     OW39055   3.202   4.150   3.042  0.1441  0.1881  0.2787
 9141SOL    HW139056   3.193   4.188   3.129 -0.7913 -1.6183  0.9805
 9141SOL    HW239057   3.146   4.209   2.991  0.8658  3.0571  2.8915
 9142SOL     OW39058   1.446   0.776  11.909  0.0085  0.0647 -0.0431
 9142SOL    HW139059   1.496   0.845  11.953 -0.3197  0.5649 -0.4501
 9142SOL    HW239060   1.492   0.763  11.826  0.4835 -3.2808  0.7440
 9143SOL     OW39061   3.335   1.620   8.238  1.0876  0.1705  0.5924
 9143SOL    HW139062   3.396   1.546   8.229  1.7062  0.6244  1.0449
 9143SOL    HW239063   3.396   1.680   8.281 -0.2153  3.6351 -2.4310
 9144SOL     OW39064   1.720   4.067   1.284  0.3386 -0.0546  0.0015
 9144SOL    HW139065   1.669   4.060   1.203  1.9290  0.4639 -1.0590
 9144SOL    HW239066   1.808   4.097   1.261 -0.8316  2.0237 -1.8925
 9145SOL     OW39067   2.952   3.375   6.028 -0.4995 -0.1561 -0.6057
 9145SOL    HW139068   2.915   3.362   6.115  0.2472  0.5833 -0.1773
 9145SOL    HW239069   2.964   3.470   6.031 -0.9763 -0.0789 -1.0814
 9146SOL     OW39070   4.123   2.370   6.992 -0.4712  0.8506 -0.0047
 9146SOL    HW139071   4.153   2.458   7.014  3.1676 -0.2965 -0.4769
 9146SOL    HW239072   4.106   2.339   7.081  0.8766  2.0327  0.6520
 9147SOL     OW39073   0.424   4.389  16.935 -0.7077  0.5527  0.0548
 9147SOL    HW139074   0.366   4.354  17.003 -1.9573  0.7297 -0.9215
 9147SOL    HW239075   0.479   4.313  16.913 -1.6834 -0.9694  3.0084
 9148SOL     OW39076   2.084   4.160   3.113 -0.2216 -0.2950  0.4930
 9148SOL    HW139077   2.166   4.189   3.073  0.5432  0.6026  2.6879
 9148SOL    HW239078   2.024   4.158   3.039  0.2625  1.6843  0.0479
 9149SOL     OW39079   3.673   0.565   7.159 -0.3260  0.2686  0.1282
 9149SOL    HW139080   3.609   0.502   7.126 -1.5534  1.3299  0.4928
 9149SOL    HW239081   3.685   0.628   7.088  0.6313 -0.6976 -0.5546
 9150SOL     OW39082   3.043   2.011   6.970  0.3000  0.0448  0.3212
 9150SOL    HW139083   2.992   1.965   6.904 -0.3430 -0.5320  1.2293
 9150SOL    HW239084   2.995   1.999   7.052 -0.3369  1.7898  0.2059
 9151SOL     OW39085   0.507   1.523   7.113  0.1327 -0.3129  0.1800
 9151SOL    HW139086   0.444   1.463   7.154  0.4159 -0.4218  0.4648
 9151SOL    HW239087   0.515   1.587   7.184  2.2056  0.7027 -0.9784
 9152SOL     OW39088   0.400   3.975   8.705 -0.4478  0.2630  0.3901
 9152SOL    HW139089   0.478   3.981   8.649 -0.0184 -0.2385  0.9317
 9152SOL    HW239090   0.356   3.907   8.653 -2.1948  2.6311 -1.2426
 9153SOL     OW39091   0.600   3.390   1.194 -0.1441  0.2325  0.2503
 9153SOL    HW139092   0.625   3.480   1.173  0.3693  0.0484  0.0710
 9153SOL    HW239093   0.509   3.403   1.222 -0.4989 -1.9603  0.1119
 9154SOL     OW39094   3.844   0.481   3.560 -0.2977 -1.0503  0.3654
 9154SOL    HW139095   3.802   0.558   3.521  1.2350 -1.2518 -1.7266
 9154SOL    HW239096   3.917   0.531   3.597 -0.1778  0.1801 -1.4837
 9155SOL     OW39097   3.858   1.499   7.980 -0.4480 -0.5387  0.0864
 9155SOL    HW139098   3.882   1.422   7.928  0.4471  0.0009 -0.2945
 9155SOL    HW239099   3.867   1.559   7.906 -1.1080  0.2720  0.6639
 9156SOL     OW39100   3.813   0.214   4.328 -0.8092 -0.1871  0.1947
 9156SOL    HW139101   3.874   0.181   4.262 -0.5099 -0.2755  0.5176
 9156SOL    HW239102   3.798   0.125   4.360 -3.0413 -0.0333 -0.4099
 9157SOL     OW39103   3.139   2.169   8.056  0.3118 -0.0951  0.2506
 9157SOL    HW139104   3.125   2.127   8.141 -1.7924  1.1902  0.5192
 9157SOL    HW239105   3.163   2.094   8.000 -2.9913 -1.0858  0.1788
 9158SOL     OW39106   2.181   2.393   9.055  0.3046  0.4011 -0.0594
 9158SOL    HW139107   2.158   2.484   9.071  4.0320  1.2613  0.5505
 9158SOL    HW239108   2.105   2.345   9.087  0.2253  2.8612  3.3459
 9159SOL     OW39109   3.329   2.745   3.600 -0.2978  0.2066  0.3450
 9159SOL    HW139110   3.361   2.670   3.550 -0.7769  0.0572  0.2588
 9159SOL    HW239111   3.408   2.775   3.645  0.2082 -0.3814 -0.1602
 9160SOL     OW39112   2.455   0.726  17.490 -0.3639 -0.3462 -0.3186
 9160SOL    HW139113   2.441   0.718  17.584  0.3352  0.2128 -0.1739
 9160SOL    HW239114   2.524   0.661  17.485 -1.0406 -1.0201 -0.9801
 9161SOL     OW39115   4.529   2.576   3.501 -0.5730  0.0253 -0.7598
 9161SOL    HW139116   4.512   2.670   3.508  3.1278  0.7944 -1.8362
 9161SOL    HW239117   4.615   2.585   3.542 -1.0076  1.5738 -0.1859
 9162SOL     OW39118   1.635   1.976   6.453  0.3129 -1.2215  0.0087
 9162SOL    HW139119   1.721   1.959   6.491  0.2470  0.1342  0.7590
 9162SOL    HW239120   1.657   1.968   6.360 -0.6341  0.1417 -0.3267
 9163SOL     OW39121   1.621   4.106  11.678  0.1559 -0.0103 -0.2331
 9163SOL    HW139122   1.586   4.195  11.673  0.5209  0.1957  1.1127
 9163SOL    HW239123   1.700   4.110  11.731 -0.0794  1.3788  0.0004
 9164SOL     OW39124   2.871   2.138   3.016  0.0082  0.0991 -0.4338
 9164SOL    HW139125   2.804   2.206   3.027  0.4921  0.1005  2.2822
 9164SOL    HW239126   2.914   2.141   3.101  1.3993  0.1794 -1.1523
 9165SOL     OW39127   2.705   0.381   5.049 -0.2758 -0.2822  0.8630
 9165SOL    HW139128   2.609   0.374   5.044 -0.3853 -0.1065  2.9200
 9165SOL    HW239129   2.735   0.291   5.052  1.3793  0.2924  1.2948
 9166SOL     OW39130   0.618   1.634   8.129 -0.2925  0.2085  0.0997
 9166SOL    HW139131   0.584   1.603   8.045 -0.7200  0.0109  0.3438
 9166SOL    HW239132   0.575   1.719   8.127 -0.1984  0.2630  0.3565
 9167SOL     OW39133   3.090   4.191  13.800  0.2451  0.3012  0.2875
 9167SOL    HW139134   3.070   4.113  13.853 -2.2948 -0.0440 -1.1973
 9167SOL    HW239135   3.037   4.257  13.844  1.1126  0.6544  0.8010
 9168SOL     OW39136   0.846   1.915   2.694 -0.5411  1.1073  0.0172
 9168SOL    HW139137   0.856   1.823   2.669 -0.9662  2.0041 -3.4738
 9168SOL    HW239138   0.935   1.951   2.694  0.2853 -0.9170  0.5833
 9169SOL     OW39139   3.676   3.527   7.081  0.1134 -0.2729 -0.2060
 9169SOL    HW139140   3.719   3.542   7.166  2.4745 -0.1275 -1.4052
 9169SOL    HW239141   3.613   3.461   7.108 -1.3707  1.3944  0.4009
 9170SOL     OW39142   2.044   0.449  10.319 -0.4290 -0.3129  0.0705
 9170SOL    HW139143   1.980   0.454  10.390 -0.3656  2.9223 -0.1195
 9170SOL    HW239144   2.114   0.475  10.380 -0.7909  0.3620  0.1948
 9171SOL     OW39145   2.029   4.685   8.023  0.2007  0.2715  0.0242
 9171SOL    HW139146   2.020   4.596   8.058  2.6299 -0.3423 -0.9647
 9171SOL    HW239147   2.032   0.004   8.102  1.1015  1.7191 -0.9997
 9172SOL     OW39148   2.052   1.904   4.168  0.4494 -0.1123 -0.3007
 9172SOL    HW139149   2.140   1.935   4.187 -0.9015  1.6570  3.1979
 9172SOL    HW239150   2.048   1.883   4.075 -1.4105 -1.1176  0.0048
 9173SOL     OW39151   1.589   0.032   4.734 -0.3197 -0.0044 -0.2413
 9173SOL    HW139152   1.658   0.029   4.668 -0.9121 -2.0696 -0.7536
 9173SOL    HW239153   1.628   4.697   4.786  1.8151  1.2248 -0.2071
 9174SOL     OW39154   0.955   3.833  12.630 -0.0668  0.2248  1.0723
 9174SOL    HW139155   1.035   3.826  12.578 -1.6683  2.5455 -1.6595
 9174SOL    HW239156   0.885   3.857  12.569 -1.0772 -0.7447  1.8463
 9175SOL     OW39157   0.091   0.577   5.061  0.7336 -0.7514  0.1282
 9175SOL    HW139158   0.024   0.550   4.999  0.0657 -1.4017  1.1338
 9175SOL    HW239159   0.077   0.671   5.071 -0.3212 -1.0753  1.5822
 9176SOL     OW39160   2.363   0.557   3.499  0.2206  0.2173 -0.9877
 9176SOL    HW139161   2.439   0.500   3.490  1.2266  1.5914 -1.0399
 9176SOL    HW239162   2.393   0.624   3.438  1.0199 -0.4386 -1.3003
 9177SOL     OW39163   0.361   3.421   8.509  0.1267  0.1390  0.2489
 9177SOL    HW139164   0.407   3.493   8.553 -2.1397  1.3757  0.5706
 9177SOL    HW239165   0.353   3.365   8.585 -0.6142 -1.3234 -0.9144
 9178SOL     OW39166   2.075   3.753  12.871  0.0599  0.5018 -0.6430
 9178SOL    HW139167   2.028   3.836  12.874  0.7635  0.9078 -1.1116
 9178SOL    HW239168   2.146   3.789  12.819  2.0653 -1.2074  0.8963
 9179SOL     OW39169   2.025   0.604   9.055  0.4982 -0.2615  0.0863
 9179SOL    HW139170   2.083   0.652   8.996  0.5109  0.4290  0.6622
 9179SOL    HW239171   2.065   0.517   9.059  1.0019 -0.0427 -0.2245
 9180SOL     OW39172   2.659   0.272   8.982  0.0174  0.4010 -0.4775
 9180SOL    HW139173   2.664   0.202   9.046 -1.3021  1.0427  0.3145
 9180SOL    HW239174   2.678   0.354   9.028 -0.0777 -0.1773  0.5686
 9181SOL     OW39175   3.311   1.936   2.561 -0.4776 -0.3874 -0.5526
 9181SOL    HW139176   3.243   1.873   2.537  1.2692 -2.2689 -0.5401
 9181SOL    HW239177   3.301   1.988   2.482 -3.8979  0.5345  0.4541
 9182SOL     OW39178   3.129   0.438   4.533 -0.2282  0.2856  0.3047
 9182SOL    HW139179   3.152   0.521   4.573  0.0539  1.5860 -2.5828
 9182SOL    HW239180   3.066   0.398   4.593  1.0151  0.1099  1.4944
 9183SOL     OW39181   4.636   0.204   6.652 -0.3832  0.0171 -0.4224
 9183SOL    HW139182   4.552   0.184   6.693 -0.1689 -1.0425 -0.4837
 9183SOL    HW239183   4.639   0.299   6.656  0.5969 -0.0042 -0.4722
 9184SOL     OW39184   4.228   2.607   0.641  0.1702 -0.1206 -0.1173
 9184SOL    HW139185   4.244   2.525   0.594 -0.5823 -0.3709  0.0629
 9184SOL    HW239186   4.182   2.657   0.574 -1.3496 -0.9875  0.2675
 9185SOL     OW39187   2.172   0.373   9.935  0.1610 -0.1820  0.1375
 9185SOL    HW139188   2.188   0.444   9.998  4.0746 -0.1942 -0.8565
 9185SOL    HW239189   2.132   0.419   9.861  0.1123  1.0001  0.8941
 9186SOL     OW39190   1.573   1.092   6.003 -0.2698 -0.2304 -0.5327
 9186SOL    HW139191   1.620   1.062   5.925 -0.3933 -2.4190  0.2621
 9186SOL    HW239192   1.652   1.105   6.057 -1.5800 -0.5864  1.4572
 9187SOL     OW39193   2.511   2.033  15.599 -0.3183  0.3367 -0.3427
 9187SOL    HW139194   2.565   1.962  15.631 -0.0676  1.8960  2.6591
 9187SOL    HW239195   2.565   2.113  15.594  1.1490 -0.5181  2.0065
 9188SOL     OW39196   0.884   4.676   8.551  0.6104 -0.5275 -1.0564
 9188SOL    HW139197   0.879   4.719   8.466  1.2872 -0.6968 -1.1860
 9188SOL    HW239198   0.975   4.648   8.541  1.3996  1.8001 -0.4764
 9189SOL     OW39199   4.425   2.813   8.791 -0.4790  0.1446 -0.2204
 9189SOL    HW139200   4.509   2.857   8.778  0.4585 -1.6381 -0.2964
 9189SOL    HW239201   4.384   2.878   8.847  0.9970  0.8316  0.0598
 9190SOL     OW39202   2.784   1.993   4.738  0.5152  0.2650  0.1019
 9190SOL    HW139203   2.761   2.012   4.829  0.7235  0.4849  0.1075
 9190SOL    HW239204   2.723   1.919   4.726  0.4245  0.3215  0.2163
 9191SOL     OW39205   4.026   2.013   9.592 -0.1312 -0.1053  0.1953
 9191SOL    HW139206   3.951   1.976   9.545  0.3885 -0.3716 -0.4160
 9191SOL    HW239207   4.074   2.059   9.523 -0.5251  0.3086  0.1901
 9192SOL     OW39208   3.858   0.005   6.888  0.1562  0.6000 -0.8905
 9192SOL    HW139209   3.816   4.655   6.872 -0.6146  0.5589  1.2605
 9192SOL    HW239210   3.792   0.054   6.937  2.2516  2.8701 -0.3495
 9193SOL     OW39211   0.635   2.101  16.798  0.2376  0.5120  0.2196
 9193SOL    HW139212   0.727   2.103  16.823  0.6652  0.1351 -1.3069
 9193SOL    HW239213   0.608   2.154  16.873  1.0284  1.5253 -0.2067
 9194SOL     OW39214   3.826   1.173  15.506 -0.1042  0.1243 -0.1128
 9194SOL    HW139215   3.859   1.226  15.433 -1.0075  0.3500 -0.3681
 9194SOL    HW239216   3.831   1.237  15.577  3.9644 -1.6272  1.1259
 9195SOL     OW39217   1.616   0.660   2.957  0.3940 -0.3728  0.1367
 9195SOL    HW139218   1.693   0.603   2.948  0.1422 -0.5171 -1.0338
 9195SOL    HW239219   1.607   0.669   3.052 -2.9363 -1.6826 -0.0648
 9196SOL     OW39220   1.108   3.843   5.582 -0.8835  0.1099 -0.0407
 9196SOL    HW139221   1.101   3.768   5.641 -3.1847  0.7305  0.4944
 9196SOL    HW239222   1.092   3.915   5.643  0.7057 -1.7802  2.6001
 9197SOL     OW39223   2.977   1.843   2.731 -0.2273 -0.1101  0.1236
 9197SOL    HW139224   2.930   1.815   2.809  0.0274  0.3562  0.4475
 9197SOL    HW239225   2.916   1.915   2.719  1.4952  0.7956 -3.1226
 9198SOL     OW39226   3.433   2.899   9.263 -0.2092 -0.5354  0.1858
 9198SOL    HW139227   3.339   2.916   9.267  0.0134  0.7365 -0.0275
 9198SOL    HW239228   3.427   2.803   9.268 -0.5919 -0.3434  3.3630
 9199SOL     OW39229   4.669   3.161   7.069  0.1476  0.5764 -0.4539
 9199SOL    HW139230   4.591   3.215   7.056 -0.1621  0.3032  0.3221
 9199SOL    HW239231   4.645   3.075   7.035  0.7140  0.4611 -0.5604
 9200SOL     OW39232   4.141   0.020   6.905 -0.2178  0.2269  0.0558
 9200SOL    HW139233   4.047   0.035   6.909 -0.1715  1.0074 -1.8906
 9200SOL    HW239234   4.139   4.660   6.910  0.9718  0.3458  2.8012
 9201SOL     OW39235   2.730   2.064  17.385  0.4107 -0.1110  0.0087
 9201SOL    HW139236   2.724   2.126  17.313  0.2859 -0.1590 -0.0231
 9201SOL    HW239237   2.775   1.989  17.346 -0.0348 -0.8389  0.8794
 9202SOL     OW39238   1.318   4.334  16.813  0.1681  0.4149 -0.2710
 9202SOL    HW139239   1.224   4.330  16.797  0.2459 -0.1166 -0.5951
 9202SOL    HW239240   1.331   4.428  16.826 -0.2283  0.4117  0.1456
 9203SOL     OW39241   3.590   3.929   6.942  0.6746 -0.0006  0.1366
 9203SOL    HW139242   3.657   3.939   6.875 -0.0316 -0.4741 -0.6288
 9203SOL    HW239243   3.642   3.889   7.013  3.0052  2.0401 -0.4089
 9204SOL     OW39244   3.606   2.215  10.482 -0.1301 -0.2983  0.6341
 9204SOL    HW139245   3.546   2.266  10.536  0.0004  0.1545  0.3560
 9204SOL    HW239246   3.546   2.192  10.411 -0.8020  3.5775 -0.0909
 9205SOL     OW39247   0.057   0.234  10.020 -0.4220  0.3761 -0.3505
 9205SOL    HW139248   0.084   0.208  10.109 -1.5752  0.3642 -0.0063
 9205SOL    HW239249   0.116   0.192   9.958 -2.0007 -2.0324 -0.1838
 9206SOL     OW39250   1.597   0.374  17.506 -0.0133  0.1943 -0.2314
 9206SOL    HW139251   1.581   0.335  17.420  2.2419  1.2670 -1.1058
 9206SOL    HW239252   1.641   0.301  17.550 -2.0887 -2.0967 -1.9641
 9207SOL     OW39253   0.292   3.974   6.727 -0.0299  0.0476  0.4732
 9207SOL    HW139254   0.334   3.959   6.811 -0.4373 -0.1248  0.6469
 9207SOL    HW239255   0.287   4.069   6.716  3.0197  0.2154  0.4654
 9208SOL     OW39256   1.790   4.344  15.259 -0.0757 -0.1927  0.0032
 9208SOL    HW139257   1.848   4.272  15.287 -2.7312 -2.2391  0.2268
 9208SOL    HW239258   1.772   4.307  15.172  0.9010 -1.2370  0.2347
 9209SOL     OW39259   0.845   1.843   2.102  0.6058 -0.6242 -0.5381
 9209SOL    HW139260   0.801   1.914   2.055  0.2295 -2.2406 -2.6354
 9209SOL    HW239261   0.873   1.788   2.028 -0.2643 -0.8361 -0.7130
 9210SOL     OW39262   0.437   0.250  15.413  0.0592  0.1635  0.1329
 9210SOL    HW139263   0.405   0.160  15.421 -1.3445  0.5997 -0.5834
 9210SOL    HW239264   0.369   0.299  15.459 -1.2291 -0.5575 -0.9847
 9211SOL     OW39265   4.582   2.844   7.873 -0.2411 -0.0088 -0.1771
 9211SOL    HW139266   4.576   2.812   7.963  1.6561  2.6974  0.8945
 9211SOL    HW239267   4.630   2.780   7.821  0.6116 -1.1186  2.0075
 9212SOL     OW39268   1.313   3.830  11.859  0.2129  0.2433 -0.4954
 9212SOL    HW139269   1.265   3.913  11.863  0.7243  0.5375 -0.4925
 9212SOL    HW239270   1.385   3.850  11.800  1.1324  2.7670  1.4834
 9213SOL     OW39271   2.022   0.771  17.378 -0.6082 -0.4598 -0.4059
 9213SOL    HW139272   2.010   0.830  17.304  0.8245  1.3648  0.8118
 9213SOL    HW239273   2.001   0.829  17.450 -0.5014 -2.1531  0.9831
 9214SOL     OW39274   2.198   3.271   5.491 -0.0073  0.5817  0.0504
 9214SOL    HW139275   2.136   3.325   5.540 -1.2754 -0.9104  0.0886
 9214SOL    HW239276   2.272   3.323   5.520 -0.5949  1.3437  0.2060
 9215SOL     OW39277   0.217   2.812   8.773  0.2542  0.6155 -0.0714
 9215SOL    HW139278   0.229   2.752   8.700  3.3849  0.1830  0.8166
 9215SOL    HW239279   0.268   2.885   8.738  1.4302 -0.8527 -1.4185
 9216SOL     OW39280   2.094   0.118   8.840  0.3539  0.2408 -0.2468
 9216SOL    HW139281   2.187   0.142   8.837  0.8172 -1.7138 -2.1440
 9216SOL    HW239282   2.080   0.073   8.756 -1.5088 -1.7881  1.1514
 9217SOL     OW39283   0.192   3.237   7.562 -0.3832 -0.2800 -0.0696
 9217SOL    HW139284   0.180   3.305   7.628  2.5880 -1.4767  1.7103
 9217SOL    HW239285   0.264   3.182   7.594 -0.4696 -0.6094 -0.4388
 9218SOL     OW39286   2.780   3.228  11.711  0.5782 -0.7139 -0.3000
 9218SOL    HW139287   2.812   3.165  11.776  1.5732 -0.2682 -0.3607
 9218SOL    HW239288   2.863   3.240  11.664 -0.3266  1.9733 -1.2353
 9219SOL     OW39289   3.655   0.694   0.962 -0.2914  0.2167  0.0052
 9219SOL    HW139290   3.559   0.699   0.961 -0.3318 -0.0745  2.1705
 9219SOL    HW239291   3.678   0.762   0.900 -1.3307  1.8251  1.3646
 9220SOL     OW39292   3.374   2.038   2.791 -0.0935  0.2193  0.0527
 9220SOL    HW139293   3.281   2.023   2.811 -0.8046  2.0595 -1.7964
 9220SOL    HW239294   3.375   2.003   2.702  0.7858 -1.9023  0.9118
 9221SOL     OW39295   2.780   4.609  15.889 -0.1568  0.1180 -0.0453
 9221SOL    HW139296   2.746   4.520  15.878  0.6532 -0.3478  1.1359
 9221SOL    HW239297   2.863   4.602  15.936 -0.0968 -0.0053 -0.1706
 9222SOL     OW39298   3.421   3.143   9.016  0.8414  0.7858 -0.0492
 9222SOL    HW139299   3.340   3.118   9.060  0.4517 -1.3071 -1.9686
 9222SOL    HW239300   3.388   3.192   8.941 -1.7979  1.8591  1.8183
 9223SOL     OW39301   1.305   0.345  11.992  0.3219 -0.1295 -0.1597
 9223SOL    HW139302   1.257   0.334  12.074  0.1312  1.2357 -0.0874
 9223SOL    HW239303   1.300   0.258  11.952 -1.0860 -1.8783  3.8217
 9224SOL     OW39304   1.112   2.844   0.780 -0.3977 -0.2834  0.1518
 9224SOL    HW139305   1.158   2.927   0.766 -0.8656 -0.4693 -2.4053
 9224SOL    HW239306   1.024   2.862   0.749  0.4304 -0.8400 -2.4846
 9225SOL     OW39307   1.143   3.869   6.504 -0.0999  0.2413  0.4773
 9225SOL    HW139308   1.168   3.796   6.447 -0.8372 -0.6316  1.2544
 9225SOL    HW239309   1.050   3.865   6.480  0.0072  1.9526 -0.2019
 9226SOL     OW39310   0.744   3.319   8.502  0.3560 -0.2258 -0.5788
 9226SOL    HW139311   0.713   3.327   8.412 -1.0005 -0.3277 -0.1099
 9226SOL    HW239312   0.828   3.364   8.490 -1.4180  3.6484  1.8070
 9227SOL     OW39313   3.980   1.131   6.879 -0.3406 -0.4238  0.2265
 9227SOL    HW139314   3.989   1.225   6.865  0.4738 -0.7859 -1.6192
 9227SOL    HW239315   3.885   1.116   6.871 -0.6809  1.2523  1.2144
 9228SOL     OW39316   4.054   4.114   7.358  0.0207  0.2764 -0.5356
 9228SOL    HW139317   4.134   4.167   7.362 -1.0309  1.8395 -0.4372
 9228SOL    HW239318   4.100   4.032   7.342  0.0939 -0.2277  2.2735
 9229SOL     OW39319   2.088   1.288  12.915  0.2763 -0.1927  0.3257
 9229SOL    HW139320   2.175   1.248  12.912  0.0991 -0.6396  1.3376
 9229SOL    HW239321   2.069   1.275  12.822  0.6937 -0.6864  0.3063
 9230SOL     OW39322   1.158   1.216  17.669 -0.1694 -0.0281  0.0648
 9230SOL    HW139323   1.151   1.130  17.710 -2.1065  0.7133  1.2451
 9230SOL    HW239324   1.080   1.266  17.692 -0.4383 -1.3211  1.9809
 9231SOL     OW39325   4.370   3.290   1.983  0.3344  0.3268  0.3828
 9231SOL    HW139326   4.422   3.354   2.030 -1.4205  1.3900  0.8536
 9231SOL    HW239327   4.344   3.223   2.046  1.0557  0.7069  1.0722
 9232SOL     OW39328   2.477   4.382   3.590 -0.2967  0.3480  0.2693
 9232SOL    HW139329   2.417   4.331   3.537 -0.2077  0.0359  0.4658
 9232SOL    HW239330   2.528   4.309   3.625 -1.5313  0.5950  2.6201
 9233SOL     OW39331   0.449   4.617   9.585  0.4103  0.6418  0.5998
 9233SOL    HW139332   0.518   4.551   9.587 -0.3269 -0.1714 -0.6651
 9233SOL    HW239333   0.490   4.695   9.548  0.8910  0.2681  0.3439
 9234SOL     OW39334   2.954   3.999  14.349 -0.1259  0.3777 -0.7489
 9234SOL    HW139335   2.859   3.985  14.349 -0.1398  0.4345  3.0144
 9234SOL    HW239336   2.964   4.060  14.423  1.0415  0.1003 -0.6829
 9235SOL     OW39337   2.824   1.114   1.007  0.0019  0.1763 -1.0002
 9235SOL    HW139338   2.757   1.093   1.071  0.5072  0.6096 -0.3248
 9235SOL    HW239339   2.821   1.209   1.022 -2.4713 -0.4245  2.2737
 9236SOL     OW39340   0.506   0.585   6.637  0.5256  0.0676  0.3455
 9236SOL    HW139341   0.414   0.593   6.664  1.0472  3.7633  1.0110
 9236SOL    HW239342   0.522   0.677   6.614 -2.0881  0.1065 -1.4052
 9237SOL     OW39343   3.364   0.016   5.884 -0.4396  0.3226 -0.0909
 9237SOL    HW139344   3.324   0.101   5.868  0.7871  0.8242 -0.4300
 9237SOL    HW239345   3.311   4.689   5.834 -0.9946  1.3277 -0.7495
 9238SOL     OW39346   3.875   3.138  14.661 -0.0824  0.1833 -0.5925
 9238SOL    HW139347   3.925   3.218  14.677  0.7953 -0.7608  1.4696
 9238SOL    HW239348   3.897   3.101  14.747 -1.4841 -0.3007 -0.4361
 9239SOL     OW39349   0.253   0.733   8.604  0.2281  0.5115 -0.4403
 9239SOL    HW139350   0.285   0.692   8.523 -3.4520  0.9696 -2.1452
 9239SOL    HW239351   0.164   0.758   8.578  0.6902  0.2920 -2.2976
 9240SOL     OW39352   0.723   2.403  11.114 -0.2997  0.3250 -0.2532
 9240SOL    HW139353   0.730   2.334  11.049  0.6410  0.7591 -0.6176
 9240SOL    HW239354   0.673   2.348  11.175 -0.8398  1.5182  0.3899
 9241SOL     OW39355   4.114   3.104   8.596 -0.8663  0.2648 -0.5991
 9241SOL    HW139356   4.033   3.081   8.550 -0.9387  0.3018 -0.4905
 9241SOL    HW239357   4.155   3.017   8.592  0.1816  0.7122  0.3716
 9242SOL     OW39358   2.846   2.674  15.928 -0.0236  0.3728  0.4636
 9242SOL    HW139359   2.916   2.737  15.910 -0.8733  2.0241  3.0255
 9242SOL    HW239360   2.899   2.595  15.937  0.4349  0.3420 -2.5507
 9243SOL     OW39361   0.792   1.976   1.709 -0.4217 -0.1003 -0.0409
 9243SOL    HW139362   0.711   1.962   1.660 -0.7090  0.9503  0.1280
 9243SOL    HW239363   0.751   1.992   1.794 -0.8586 -1.8988  0.0881
 9244SOL     OW39364   0.488   0.671  15.371 -0.1191 -0.1349 -0.2133
 9244SOL    HW139365   0.509   0.623  15.451 -1.7087  0.7064  0.6969
 9244SOL    HW239366   0.410   0.716  15.402  0.4439  1.3755 -1.0132
 9245SOL     OW39367   3.189   4.565   2.381  0.1756 -0.2935 -0.1412
 9245SOL    HW139368   3.283   4.547   2.382  0.3508  0.6194  0.5112
 9245SOL    HW239369   3.175   4.627   2.309 -1.2768 -0.7376 -0.2439
 9246SOL     OW39370   1.196   0.990   8.883  0.0871  0.4306 -0.6190
 9246SOL    HW139371   1.128   0.968   8.819  0.7350  0.7152 -1.4122
 9246SOL    HW239372   1.262   0.922   8.873 -1.5579 -1.3774  0.8516
 9247SOL     OW39373   3.121   0.305   8.157  0.4382 -0.1999  0.4498
 9247SOL    HW139374   3.142   0.311   8.064  0.6682  2.5919  0.6557
 9247SOL    HW239375   3.084   0.218   8.171 -0.2989  0.5737  3.4183
 9248SOL     OW39376   3.145   3.008   7.122  0.3444 -0.2149 -0.5166
 9248SOL    HW139377   3.235   3.032   7.145  0.3382 -0.7188  0.0191
 9248SOL    HW239378   3.165   2.920   7.089 -1.7091 -0.2791 -1.5527
 9249SOL     OW39379   1.346   4.563   4.888 -0.1349 -0.8760 -0.1436
 9249SOL    HW139380   1.437   4.574   4.859  0.1631  0.7348  1.3801
 9249SOL    HW239381   1.346   4.620   4.965  1.3403  1.1152 -1.5886
 9250SOL     OW39382   4.212   3.962   9.423 -0.2104  0.7785  0.6826
 9250SOL    HW139383   4.182   3.890   9.478 -0.2568 -0.0497 -0.4200
 9250SOL    HW239384   4.167   3.947   9.341  0.1981 -2.5014  1.0449
 9251SOL     OW39385   1.650   3.933   6.772  0.0660  0.2709  0.3473
 9251SOL    HW139386   1.618   4.017   6.739 -2.9014 -1.0953 -0.2863
 9251SOL    HW239387   1.685   3.904   6.688 -3.0558  0.4460 -1.0100
 9252SOL     OW39388   4.610   0.581  11.229 -0.0349 -0.1991 -0.1235
 9252SOL    HW139389   4.523   0.620  11.243  0.2940  1.2775 -2.1418
 9252SOL    HW239390   4.605   0.550  11.138  1.1492 -0.4434 -0.0950
 9253SOL     OW39391   1.146   1.823   9.383  0.1283  0.1672 -0.7355
 9253SOL    HW139392   1.125   1.894   9.443 -0.3932 -2.3202  2.0139
 9253SOL    HW239393   1.152   1.866   9.298  3.4170 -1.6334 -1.4190
 9254SOL     OW39394   1.126   1.550   8.769  0.1562 -0.5667 -0.0117
 9254SOL    HW139395   1.121   1.639   8.736  0.9499 -0.0989  1.1227
 9254SOL    HW239396   1.187   1.558   8.842  1.7436 -1.0273 -1.2865
 9255SOL     OW39397   0.012   0.301   7.741 -0.1986  0.0208  0.7529
 9255SOL    HW139398   0.062   0.237   7.690 -1.4170 -0.0881 -0.2996
 9255SOL    HW239399   4.720   0.246   7.815  0.0176  0.4784  1.1682
 9256SOL     OW39400   0.660   3.340   7.162  0.3831  0.0511  0.0149
 9256SOL    HW139401   0.647   3.312   7.072 -0.7299 -2.7164  1.0337
 9256SOL    HW239402   0.612   3.423   7.163 -2.1935 -1.4469  1.1393
 9257SOL     OW39403   1.313   2.958  15.022  0.2929 -0.6213 -0.2760
 9257SOL    HW139404   1.275   3.046  15.022 -0.6031 -1.0128 -0.5853
 9257SOL    HW239405   1.391   2.961  15.078  0.5065  0.4729 -0.6357
 9258SOL     OW39406   2.021   4.655  16.661 -0.1623 -0.3447 -0.2614
 9258SOL    HW139407   2.007   4.586  16.596  0.2657  0.6884 -1.4632
 9258SOL    HW239408   2.115   4.638  16.673 -0.1077 -1.2210 -1.8724
 9259SOL     OW39409   2.751   0.312   6.524 -0.2214 -0.5825  0.0014
 9259SOL    HW139410   2.661   0.343   6.515 -0.7330 -2.2013 -0.3052
 9259SOL    HW239411   2.736   0.245   6.591  0.2514 -0.3854  0.3079
 9260SOL     OW39412   0.701   2.907   2.252 -0.6015 -0.0778 -0.4900
 9260SOL    HW139413   0.626   2.960   2.279  0.6278  0.8896  1.0113
 9260SOL    HW239414   0.733   2.936   2.167  0.8912  0.7897  0.3756
 9261SOL     OW39415   3.992   2.586   5.020  0.1978 -0.2637  0.1365
 9261SOL    HW139416   3.961   2.501   4.989  0.7654 -1.1913  2.1026
 9261SOL    HW239417   3.958   2.592   5.109 -0.4734  1.3818 -0.2348
 9262SOL     OW39418   1.570   1.297   5.179  0.7059 -0.8873  0.4451
 9262SOL    HW139419   1.518   1.347   5.116 -0.0920 -1.1230  0.9071
 9262SOL    HW239420   1.656   1.339   5.184  0.3166 -0.4329  3.3388
 9263SOL     OW39421   4.253   0.398   4.866  0.4067 -0.1694 -0.4503
 9263SOL    HW139422   4.256   0.400   4.770  1.1945 -0.0876 -0.4211
 9263SOL    HW239423   4.309   0.323   4.888 -0.5707 -0.7313  0.1143
 9264SOL     OW39424   4.550   1.478  17.539  0.0862 -0.0948  0.3771
 9264SOL    HW139425   4.583   1.559  17.578  0.7444 -0.5916  0.8443
 9264SOL    HW239426   4.608   1.479  17.463 -0.3795 -3.1090 -0.0223
 9265SOL     OW39427   4.411   2.815   3.571 -0.0978 -0.1992  0.2003
 9265SOL    HW139428   4.373   2.902   3.580  0.1285 -0.0288 -0.5237
 9265SOL    HW239429   4.427   2.787   3.661  0.6332 -1.7944 -0.4149
 9266SOL     OW39430   1.498   1.580   2.039  0.5056 -0.2154  0.8369
 9266SOL    HW139431   1.463   1.535   2.115  0.8843  1.3718  1.9482
 9266SOL    HW239432   1.510   1.663   2.085 -1.3151 -0.1670  1.2412
 9267SOL     OW39433   4.499   0.008   0.651  0.2923  0.2755 -0.2381
 9267SOL    HW139434   4.579   0.060   0.648 -1.0976  2.4602  0.7674
 9267SOL    HW239435   4.432   0.050   0.597  0.2811  0.9343  0.2944
 9268SOL     OW39436   1.967   2.148   7.043 -0.2362  0.8350 -0.9832
 9268SOL    HW139437   2.007   2.196   7.115  0.7513  0.6283 -1.3912
 9268SOL    HW239438   1.999   2.197   6.967  2.5400  0.4791 -0.0118
 9269SOL     OW39439   1.481   1.057   5.086  0.2606 -0.5915  0.1309
 9269SOL    HW139440   1.395   1.067   5.126  0.6886  1.2972  0.6012
 9269SOL    HW239441   1.525   1.137   5.115 -0.1431  0.0006 -0.8845
 9270SOL     OW39442   2.573   1.392  15.067  0.3503  0.7001  0.0412
 9270SOL    HW139443   2.631   1.418  15.139  2.1030 -2.2255 -0.3110
 9270SOL    HW239444   2.607   1.444  14.994  0.2193  0.7847  0.0410
 9271SOL     OW39445   2.914   1.936  12.372 -0.1232  0.3745 -0.1648
 9271SOL    HW139446   2.887   1.958  12.461 -1.0704  0.7937 -0.5415
 9271SOL    HW239447   2.886   1.845  12.374 -0.9064  0.6802  3.4452
 9272SOL     OW39448   3.442   0.423   8.799 -0.0360 -0.0401 -0.0501
 9272SOL    HW139449   3.457   0.467   8.715 -2.6184  0.6285 -0.1593
 9272SOL    HW239450   3.386   0.489   8.840  0.4566  0.0546  0.4648
 9273SOL     OW39451   4.038   3.191  14.208 -0.3372 -0.2726 -0.0794
 9273SOL    HW139452   3.944   3.191  14.225 -0.0778 -0.2437  1.4306
 9273SOL    HW239453   4.064   3.149  14.290 -0.7276 -1.8778 -0.7728
 9274SOL     OW39454   4.600   1.012   8.040 -0.2623  0.1995 -0.3606
 9274SOL    HW139455   4.662   0.939   8.041  0.9001  1.2051  2.3187
 9274SOL    HW239456   4.536   0.984   8.105 -1.8943  1.0127 -1.6177
 9275SOL     OW39457   2.950   4.235   8.470  0.0807 -0.5712 -0.0179
 9275SOL    HW139458   3.001   4.185   8.406  2.9442  1.1557  0.9048
 9275SOL    HW239459   3.016   4.259   8.536  0.4863 -2.5591  0.2760
 9276SOL     OW39460   1.547   0.807   5.530  0.0912 -0.1979  0.0272
 9276SOL    HW139461   1.581   0.717   5.519 -1.6561 -0.7003 -1.3441
 9276SOL    HW239462   1.456   0.794   5.554 -0.1229 -1.6047 -1.5324
 9277SOL     OW39463   3.770   2.247   4.154  0.0608 -0.4082 -0.3835
 9277SOL    HW139464   3.725   2.324   4.117 -0.7156 -0.0545  1.3143
 9277SOL    HW239465   3.855   2.280   4.184  1.2519 -1.2572 -2.8060
 9278SOL     OW39466   2.512   3.082   9.159 -0.0695 -0.1514  0.2845
 9278SOL    HW139467   2.523   3.177   9.162 -1.1843 -0.0439  0.9984
 9278SOL    HW239468   2.597   3.045   9.137 -0.2312  0.9670 -2.2145
 9279SOL     OW39469   1.137   4.243  17.516  0.0746 -0.5085  0.2227
 9279SOL    HW139470   1.198   4.211  17.582  1.4782  1.9494  0.1061
 9279SOL    HW239471   1.140   4.339  17.518 -0.5407 -0.4717 -0.4930
 9280SOL     OW39472   1.192   3.479  15.782  0.0430  0.4820 -0.1067
 9280SOL    HW139473   1.199   3.422  15.706  1.4573 -0.3797  0.6525
 9280SOL    HW239474   1.275   3.463  15.827  1.0539 -0.3741 -2.2628
 9281SOL     OW39475   4.569   1.794   2.178  0.4572 -0.5828  0.5314
 9281SOL    HW139476   4.613   1.841   2.249 -0.9286  1.8957 -0.2218
 9281SOL    HW239477   4.497   1.856   2.164  0.7571 -0.1978  0.6643
 9282SOL     OW39478   4.342   2.339   4.319  0.0881 -0.0874 -0.5660
 9282SOL    HW139479   4.303   2.399   4.383 -0.7836 -1.2215 -0.0322
 9282SOL    HW239480   4.436   2.357   4.324  0.3150 -1.9823  2.1123
 9283SOL     OW39481   3.451   2.980   6.070  0.4331 -0.0068  0.2465
 9283SOL    HW139482   3.457   3.076   6.068 -1.3418  0.1101  1.0673
 9283SOL    HW239483   3.391   2.959   5.999 -0.4653  0.1201  0.9706
 9284SOL     OW39484   2.591   1.377   6.386  0.0801 -0.1083  0.4353
 9284SOL    HW139485   2.658   1.386   6.318  0.4105  0.7371  0.8779
 9284SOL    HW239486   2.513   1.425   6.360  0.4488  0.1122 -0.2725
 9285SOL     OW39487   4.191   4.706   3.796 -0.2959 -0.5451  0.3971
 9285SOL    HW139488   4.261   4.710   3.731 -1.8734  0.6484 -1.2363
 9285SOL    HW239489   4.231   4.667   3.874 -0.1615 -0.3778  0.4108
 9286SOL     OW39490   2.687   0.034   2.656  0.1097 -0.2775  0.4414
 9286SOL    HW139491   2.695   0.129   2.670  0.6503 -0.3985  0.9638
 9286SOL    HW239492   2.718   0.025   2.566  2.1450  0.1410  1.0878
 9287SOL     OW39493   0.944   2.410   2.925  0.1033  0.1643 -0.1217
 9287SOL    HW139494   0.868   2.431   2.979  0.4942  2.3762 -0.4598
 9287SOL    HW239495   1.001   2.352   2.975  0.1008  0.1840 -0.0961
 9288SOL     OW39496   4.460   2.333   2.762 -0.4144 -0.1602  0.3161
 9288SOL    HW139497   4.555   2.324   2.754  0.0020  1.3373  3.4998
 9288SOL    HW239498   4.426   2.312   2.675 -0.3459 -1.7333  0.6713
 9289SOL     OW39499   2.939   1.342  12.649  0.4747  0.7742 -0.3391
 9289SOL    HW139500   2.959   1.297  12.567  1.8758 -1.3040  1.1434
 9289SOL    HW239501   2.852   1.380  12.636  0.5472  1.2946  0.6887
 9290SOL     OW39502   1.057   2.072  17.179  0.7615 -0.7749 -0.0430
 9290SOL    HW139503   1.103   2.140  17.130  1.9887 -0.4739  1.5143
 9290SOL    HW239504   1.073   2.083  17.273  1.1836  2.4985 -0.5205
 9291SOL     OW39505   0.827   1.529   5.160  0.6035  0.1508 -0.5460
 9291SOL    HW139506   0.749   1.533   5.104 -0.1516 -0.2456  0.4867
 9291SOL    HW239507   0.899   1.509   5.101  0.0143 -0.7532 -0.9562
 9292SOL     OW39508   4.402   4.733   1.227 -0.3791 -0.1650 -0.0400
 9292SOL    HW139509   4.324   0.047   1.256  0.0826 -0.1065  1.1204
 9292SOL    HW239510   4.421   0.048   1.148 -0.1576  0.2851  0.3013
 9293SOL     OW39511   2.376   4.541  12.625  0.3704  0.9725 -0.1667
 9293SOL    HW139512   2.409   4.593  12.698 -0.5816  2.2607 -0.6550
 9293SOL    HW239513   2.292   4.586  12.615  0.9303  2.2471  0.8311
 9294SOL     OW39514   4.675   1.793   5.998 -0.4128  0.1716 -0.1966
 9294SOL    HW139515   4.605   1.764   6.057  1.3625 -0.4925  1.5610
 9294SOL    HW239516   4.719   1.711   5.979 -0.3890 -0.1852  1.4171
 9295SOL     OW39517   0.402   1.401  11.179 -0.0093 -0.2737 -0.0200
 9295SOL    HW139518   0.356   1.316  11.173 -0.0118 -0.1077 -2.6281
 9295SOL    HW239519   0.409   1.429  11.087 -1.9176  1.2048  0.2922
 9296SOL     OW39520   4.392   2.050   6.927  0.3781  0.7761  0.5146
 9296SOL    HW139521   4.409   2.016   7.015 -0.0313  1.9002  1.0304
 9296SOL    HW239522   4.298   2.068   6.928 -0.0241 -1.2530  0.5131
 9297SOL     OW39523   1.880   0.984   2.233  0.1431 -0.5076  0.0533
 9297SOL    HW139524   1.861   0.903   2.279 -1.2282 -0.1585  0.1029
 9297SOL    HW239525   1.794   1.024   2.221 -0.0508 -0.6402  0.9882
 9298SOL     OW39526   2.803   1.421   3.673 -0.0397  0.1562 -0.0675
 9298SOL    HW139527   2.806   1.516   3.689  1.1220  0.3755 -1.6151
 9298SOL    HW239528   2.832   1.387   3.758 -1.1077 -2.8657 -0.9106
 9299SOL     OW39529   0.245   0.645   6.927  0.2303  0.0676  0.2204
 9299SOL    HW139530   0.209   0.731   6.904 -1.4248 -0.3663  1.2112
 9299SOL    HW239531   0.233   0.609   6.840 -1.6232  0.2887  0.3849
 9300SOL     OW39532   4.691   1.170   9.695  0.0349  0.1103  0.6301
 9300SOL    HW139533   4.655   1.258   9.691 -1.1615 -0.2321  3.4399
 9300SOL    HW239534   4.650   1.132   9.617 -1.0762 -0.0164  1.2673
 9301SOL     OW39535   1.144   0.509   8.187 -0.0734 -0.2215 -0.1926
 9301SOL    HW139536   1.221   0.529   8.241  0.3565 -0.6433 -0.6486
 9301SOL    HW239537   1.159   0.418   8.165  0.5322 -0.6136  1.8076
 9302SOL     OW39538   1.232   0.850   3.223  0.2935  0.6492  0.1598
 9302SOL    HW139539   1.251   0.817   3.311  1.2757  1.9378  0.4260
 9302SOL    HW239540   1.224   0.763   3.183 -1.9753 -0.0067  2.0026
 9303SOL     OW39541   3.435   3.923   1.050  0.0918 -0.2181  0.3162
 9303SOL    HW139542   3.420   3.927   1.145 -1.1709 -1.5206  0.1562
 9303SOL    HW239543   3.402   3.835   1.036  2.8799 -0.9036 -1.9249
 9304SOL     OW39544   4.114   2.316   2.994 -0.2531  0.2446 -0.0017
 9304SOL    HW139545   4.114   2.271   3.079 -0.0611 -0.4194 -0.3545
 9304SOL    HW239546   4.019   2.330   2.992 -0.0555  1.6155 -0.1113
 9305SOL     OW39547   4.675   3.795   9.850  0.2122 -0.2335 -0.3483
 9305SOL    HW139548   4.604   3.733   9.869 -2.5537  3.1478  0.2201
 9305SOL    HW239549   4.647   3.857   9.783 -0.1990 -2.4698 -2.2347
 9306SOL     OW39550   3.681   3.827  16.161 -0.5176  0.0324 -0.1293
 9306SOL    HW139551   3.719   3.739  16.158  0.2906  0.2507  3.9766
 9306SOL    HW239552   3.595   3.800  16.194 -0.7992 -0.3337 -1.1717
 9307SOL     OW39553   4.678   0.116   7.924 -0.3848  0.0054 -0.5597
 9307SOL    HW139554   4.691   0.021   7.928 -1.9792 -0.2003 -0.1794
 9307SOL    HW239555   4.584   0.130   7.938 -0.5240  0.4011 -1.8464
 9308SOL     OW39556   1.988   4.123   1.205 -0.2738 -0.2386  0.0181
 9308SOL    HW139557   2.005   4.072   1.126 -1.3619  0.0254 -0.3890
 9308SOL    HW239558   2.076   4.128   1.242 -0.1220 -1.6498 -0.1303
 9309SOL     OW39559   1.597   0.510   5.244 -0.0212  0.6387  0.4123
 9309SOL    HW139560   1.619   0.543   5.330  0.2765 -0.4454  0.7558
 9309SOL    HW239561   1.682   0.502   5.202  0.0482  1.7233  0.3466
 9310SOL     OW39562   0.705   4.002   8.307  0.4583 -0.5498  0.1519
 9310SOL    HW139563   0.717   3.930   8.369  1.7885 -1.7884 -1.5640
 9310SOL    HW239564   0.636   3.965   8.252 -1.6345  2.7863  0.5525
 9311SOL     OW39565   2.218   3.263   3.983  0.4880  0.5029  0.8684
 9311SOL    HW139566   2.255   3.190   4.033 -1.1243 -1.6921 -1.1316
 9311SOL    HW239567   2.295   3.320   3.979 -0.1078  1.2312 -0.1764
 9312SOL     OW39568   2.795   1.708   4.792 -0.1637  0.6791  0.5292
 9312SOL    HW139569   2.764   1.704   4.702  0.6395 -1.3785  0.3321
 9312SOL    HW239570   2.810   1.615   4.807  1.4949  0.5668 -1.8872
 9313SOL     OW39571   4.435   2.515   6.188 -0.1375 -0.0626 -0.0332
 9313SOL    HW139572   4.524   2.547   6.174 -0.6779  1.6521  0.3342
 9313SOL    HW239573   4.410   2.507   6.096  2.9208  0.0255 -0.8698
 9314SOL     OW39574   0.417   4.156   5.908 -0.1677  0.5072  0.5875
 9314SOL    HW139575   0.481   4.104   5.860  0.0795  1.4825 -0.1556
 9314SOL    HW239576   0.413   4.102   5.987 -0.5260  1.3417  1.1429
 9315SOL     OW39577   3.199   4.268   0.418 -0.6412  0.0351 -0.4124
 9315SOL    HW139578   3.106   4.290   0.412 -0.6240  0.6369  1.4148
 9315SOL    HW239579   3.204   4.203   0.349 -1.2368  0.0174 -0.4464
 9316SOL     OW39580   4.170   0.577   6.074 -0.7036 -0.7850 -0.0601
 9316SOL    HW139581   4.251   0.594   6.025  0.1918 -0.8884  1.4019
 9316SOL    HW239582   4.123   0.527   6.007 -3.4664  1.2282  0.3814
 9317SOL     OW39583   0.619   3.440  17.399 -0.3639  0.5123  0.2205
 9317SOL    HW139584   0.626   3.442  17.303  3.6343  2.4552  0.5522
 9317SOL    HW239585   0.710   3.418  17.420 -0.7354 -0.9252  0.3209
 9318SOL     OW39586   4.268   1.401   3.660 -0.2052 -0.3925 -0.1822
 9318SOL    HW139587   4.251   1.312   3.693 -0.1144  0.6971  2.7356
 9318SOL    HW239588   4.208   1.392   3.586  0.3708  0.1381 -0.7045
 9319SOL     OW39589   2.290   2.056   4.812  0.3834  0.0269 -0.3366
 9319SOL    HW139590   2.282   2.064   4.717  0.5197  0.1903 -0.3337
 9319SOL    HW239591   2.331   1.969   4.819 -0.4544 -0.5489 -2.6854
 9320SOL     OW39592   2.909   0.350  16.256 -0.0328  0.1903 -0.7285
 9320SOL    HW139593   2.850   0.379  16.187  2.0791  3.3420 -1.1989
 9320SOL    HW239594   2.890   0.256  16.260  3.2874 -0.3811  1.6040
 9321SOL     OW39595   0.173   2.212   7.790 -0.0782  0.5708 -0.4925
 9321SOL    HW139596   0.240   2.277   7.768  1.4362 -1.1303 -0.9363
 9321SOL    HW239597   0.233   2.142   7.817  0.6892  1.3158 -0.2451
 9322SOL     OW39598   2.464   0.624  16.914 -0.1261 -1.0043  0.0518
 9322SOL    HW139599   2.500   0.607  17.001  0.1521  0.1326  0.1646
 9322SOL    HW239600   2.393   0.560  16.914  0.1094 -1.2696 -0.7121
 9323SOL     OW39601   1.887   4.596  15.292  0.0755 -0.1435  0.0723
 9323SOL    HW139602   1.826   4.523  15.283  2.0779 -1.8196  0.0903
 9323SOL    HW239603   1.964   4.557  15.334 -0.0138 -0.0738  0.3032
 9324SOL     OW39604   4.730   4.643   6.027 -0.4985  0.2063  0.8808
 9324SOL    HW139605   4.719   4.695   6.106  0.4066  0.6137  0.7404
 9324SOL    HW239606   0.080   4.604   6.046 -0.1966 -0.3729 -1.5653
 9325SOL     OW39607   2.672   4.552  11.710  0.2238 -0.0090  0.2288
 9325SOL    HW139608   2.728   4.475  11.699 -0.7895 -0.4248 -2.1381
 9325SOL    HW239609   2.735   4.616  11.741  1.2042 -1.5122  1.3502
 9326SOL     OW39610   0.673   3.503  16.081  0.0686 -0.4826 -0.4022
 9326SOL    HW139611   0.614   3.578  16.090  0.0296 -0.6967  1.0171
 9326SOL    HW239612   0.610   3.437  16.053 -0.9686 -0.6004  2.1957
 9327SOL     OW39613   0.574   0.807   2.086 -0.0299  0.2506  0.7557
 9327SOL    HW139614   0.643   0.838   2.027 -1.5430 -0.7641 -1.5283
 9327SOL    HW239615   0.621   0.738   2.133  1.2869  1.1368  0.7382
 9328SOL     OW39616   0.286   1.428   6.772 -0.4624  0.0243 -0.7307
 9328SOL    HW139617   0.373   1.465   6.786 -0.2110 -1.5596  1.8910
 9328SOL    HW239618   0.266   1.455   6.682  2.9515 -0.3307 -1.5887
 9329SOL     OW39619   0.752   0.170   2.826 -0.0690 -0.0513  0.2502
 9329SOL    HW139620   0.799   0.088   2.839  0.8698  0.3446 -0.6882
 9329SOL    HW239621   0.817   0.217   2.775 -0.2942 -0.0722 -0.0572
 9330SOL     OW39622   2.326   3.978   9.539  0.3756 -0.0055 -0.3071
 9330SOL    HW139623   2.397   3.913   9.533  1.9252  1.4973  1.5652
 9330SOL    HW239624   2.325   4.012   9.449 -0.6907 -1.4999 -0.8589
 9331SOL     OW39625   0.523   0.170  13.339  0.4793  0.4159 -0.6228
 9331SOL    HW139626   0.433   0.158  13.368  0.4156 -0.2848 -1.1076
 9331SOL    HW239627   0.529   0.264  13.319 -0.9456  0.2359 -1.8243
 9332SOL     OW39628   2.587   3.597   7.345  0.0879 -0.1563 -0.0973
 9332SOL    HW139629   2.640   3.537   7.398  0.8856  0.3700 -0.2943
 9332SOL    HW239630   2.569   3.666   7.409 -0.7160 -0.9888  0.5694
 9333SOL     OW39631   1.762   0.891   0.183  0.2888  0.4143 -0.0892
 9333SOL    HW139632   1.849   0.926   0.203  0.7540 -1.2198  0.7870
 9333SOL    HW239633   1.787   0.841   0.106 -3.2649 -2.3838  0.5422
 9334SOL     OW39634   4.128   3.544   7.100  0.4562 -0.6104  0.3598
 9334SOL    HW139635   4.113   3.634   7.071  2.2256 -1.0776 -2.0603
 9334SOL    HW239636   4.194   3.569   7.164  0.6513  1.8733 -0.8034
 9335SOL     OW39637   4.148   1.572   6.857  0.0189 -0.0712  0.5204
 9335SOL    HW139638   4.220   1.606   6.804  0.6674 -1.4293  0.5301
 9335SOL    HW239639   4.131   1.649   6.911  1.8584  2.0302 -1.8321
 9336SOL     OW39640   3.582   3.580   9.094 -0.6224  0.5158 -0.1425
 9336SOL    HW139641   3.645   3.576   9.021  0.3440 -0.5641  0.7450
 9336SOL    HW239642   3.535   3.497   9.082 -0.9865  0.7938 -0.6502
 9337SOL     OW39643   3.718   0.489   5.853 -0.0269 -0.2346  0.4488
 9337SOL    HW139644   3.695   0.573   5.814 -0.4405 -0.4836  0.1470
 9337SOL    HW239645   3.800   0.470   5.808  0.8061  2.3302  0.8997
 9338SOL     OW39646   1.320   0.298   2.506 -0.3203 -0.2368  0.2358
 9338SOL    HW139647   1.285   0.353   2.436 -1.3293  0.6777  1.4659
 9338SOL    HW239648   1.347   0.365   2.568  1.1123 -0.4640 -0.1495
 9339SOL     OW39649   0.824   1.007   6.198  0.3374 -0.6864  0.1282
 9339SOL    HW139650   0.729   0.997   6.192  0.0891  1.0342  1.2805
 9339SOL    HW239651   0.837   1.065   6.123 -2.6516 -1.1754 -0.7700
 9340SOL     OW39652   3.343   1.041  11.776 -0.1986  0.5574 -0.0201
 9340SOL    HW139653   3.415   1.089  11.735  0.1572 -0.9590 -1.1596
 9340SOL    HW239654   3.277   1.103  11.744  3.1976  3.0422 -2.1423
 9341SOL     OW39655   0.371   4.269   1.789 -0.2366 -0.2850 -0.0185
 9341SOL    HW139656   0.292   4.300   1.832  0.5223 -0.5806  1.5567
 9341SOL    HW239657   0.427   4.242   1.862  0.1997  2.3364  0.6263
 9342SOL     OW39658   1.914   2.889  11.343  0.3282  0.5123 -0.0445
 9342SOL    HW139659   1.821   2.908  11.335 -0.0607 -0.9568  0.9332
 9342SOL    HW239660   1.939   2.903  11.251 -3.9793  0.2932 -1.2776
 9343SOL     OW39661   2.635   2.847   5.422 -0.1496  0.4373 -0.1526
 9343SOL    HW139662   2.643   2.926   5.368 -0.9713 -0.1136 -1.0876
 9343SOL    HW239663   2.673   2.780   5.365 -0.1152  0.7272 -0.4747
 9344SOL     OW39664   0.712   3.858   1.871 -0.1981 -0.1064  0.2593
 9344SOL    HW139665   0.777   3.878   1.938 -0.9042 -0.8466  1.1621
 9344SOL    HW239666   0.719   3.938   1.818 -1.7079 -0.3898 -0.3804
 9345SOL     OW39667   1.638   1.336   3.292 -0.4241 -0.4910  0.4913
 9345SOL    HW139668   1.689   1.345   3.212  0.3754 -0.0522  1.0542
 9345SOL    HW239669   1.644   1.243   3.313 -0.6140 -0.7290 -0.5021
 9346SOL     OW39670   2.024   2.194  10.688  0.1944  0.4572  0.3314
 9346SOL    HW139671   2.051   2.110  10.650 -0.9133 -0.9679  2.6678
 9346SOL    HW239672   1.961   2.230  10.625  1.8204 -0.0103 -1.5690
 9347SOL     OW39673   3.077   4.432   6.732  0.4254  0.3312  0.0266
 9347SOL    HW139674   3.126   4.510   6.704  1.8480 -0.5190  0.1001
 9347SOL    HW239675   2.988   4.461   6.748  0.3231  2.0564 -3.6695
 9348SOL     OW39676   3.037   0.691   8.460 -0.4852 -0.0105 -0.2848
 9348SOL    HW139677   3.097   0.624   8.491 -1.4757  0.1278  1.8893
 9348SOL    HW239678   3.029   0.746   8.537 -0.1510 -1.2311  0.6218
 9349SOL     OW39679   0.887   4.694   8.820  0.0905  0.2636 -0.2928
 9349SOL    HW139680   0.830   4.622   8.846 -0.9117  1.4254  0.6684
 9349SOL    HW239681   0.901   4.675   8.727 -0.3367  0.8219 -0.4648
 9350SOL     OW39682   4.453   1.151  14.465  0.4208 -0.3461 -0.2935
 9350SOL    HW139683   4.497   1.148  14.380 -0.4739 -0.2943 -0.7695
 9350SOL    HW239684   4.509   1.090  14.512  0.7271  0.0572 -0.1417
 9351SOL     OW39685   3.949   2.758   4.689  0.4214 -0.3199 -0.5464
 9351SOL    HW139686   3.963   2.724   4.601 -0.5395 -0.2734 -0.7164
 9351SOL    HW239687   3.859   2.789   4.680  0.5086 -0.0387 -0.4692
 9352SOL     OW39688   2.287   0.725  10.282 -0.5012 -0.4977  0.2957
 9352SOL    HW139689   2.234   0.791  10.329  0.9095 -0.1860  1.4548
 9352SOL    HW239690   2.364   0.734  10.338 -1.5189  3.0949  1.1628
 9353SOL     OW39691   2.289   2.813   8.736  0.6233 -0.9746 -0.3867
 9353SOL    HW139692   2.363   2.789   8.792  0.1412 -0.2864  0.5522
 9353SOL    HW239693   2.268   2.736   8.684 -0.9581 -0.2383 -0.8392
 9354SOL     OW39694   2.765   0.664   8.656 -0.1543  0.6546 -0.3789
 9354SOL    HW139695   2.806   0.581   8.677 -4.0143 -0.8667  1.0405
 9354SOL    HW239696   2.841   0.721   8.640  0.2947  0.2675  0.3778
 9355SOL     OW39697   0.324   4.252   7.194 -0.6345  0.1438 -0.3606
 9355SOL    HW139698   0.280   4.301   7.263 -1.9981  0.7805 -1.7077
 9355SOL    HW239699   0.408   4.238   7.239 -1.3019 -0.4604  0.6887
 9356SOL     OW39700   0.975   3.624  15.231 -0.0885  0.0964 -0.3535
 9356SOL    HW139701   0.976   3.542  15.280  1.9747 -0.6666 -1.6760
 9356SOL    HW239702   1.022   3.601  15.151 -2.3943  0.9743 -1.9454
 9357SOL     OW39703   4.142   4.626   4.197 -0.2654  0.3622  0.0108
 9357SOL    HW139704   4.103   4.544   4.167 -1.2103  1.2156 -1.1184
 9357SOL    HW239705   4.231   4.608   4.166 -0.7565  0.9079 -1.7122
 9358SOL     OW39706   0.069   4.207   1.296 -0.0647 -0.0762 -0.2439
 9358SOL    HW139707   0.151   4.209   1.344 -1.0284  0.8080  1.3602
 9358SOL    HW239708   0.005   4.233   1.362 -0.7255  2.0885 -1.7051
 9359SOL     OW39709   1.687   4.657  13.803 -0.0346  0.0183 -0.5227
 9359SOL    HW139710   1.737   4.706  13.869  5.6175 -3.3700 -2.3199
 9359SOL    HW239711   1.753   4.589  13.789 -2.0328 -1.6355 -1.8168
 9360SOL     OW39712   0.773   2.594   5.037  0.4515 -0.0253 -0.3410
 9360SOL    HW139713   0.708   2.653   5.075 -1.1186 -1.6587 -0.5019
 9360SOL    HW239714   0.840   2.652   5.000  0.4987 -0.2182 -0.5602
 9361SOL     OW39715   3.595   2.372   3.940  0.0917 -0.1531 -0.0582
 9361SOL    HW139716   3.512   2.410   3.968 -0.8607 -0.8175 -1.9817
 9361SOL    HW239717   3.632   2.448   3.896 -1.1986  1.3944  1.5285
 9362SOL     OW39718   2.984   4.435   1.131 -0.4120 -0.5072  0.1448
 9362SOL    HW139719   2.990   4.358   1.188  0.8546 -0.2093  0.4150
 9362SOL    HW239720   2.930   4.411   1.055  0.6875  0.9968 -1.1024
 9363SOL     OW39721   3.384   0.350   5.312  0.5842  0.7860 -0.3905
 9363SOL    HW139722   3.304   0.362   5.261  0.9021 -1.3564 -1.3897
 9363SOL    HW239723   3.348   0.321   5.396  2.8525  0.4462  0.4887
 9364SOL     OW39724   1.958   3.005   8.888 -0.1448 -0.5163  0.3969
 9364SOL    HW139725   2.052   3.012   8.877 -0.0805  1.4148  2.0312
 9364SOL    HW239726   1.934   2.914   8.902 -2.1079 -0.3429 -1.7530
 9365SOL     OW39727   3.778   4.054  11.527  0.2667 -0.0960 -0.1107
 9365SOL    HW139728   3.748   4.139  11.561 -2.1547 -0.7644 -0.6179
 9365SOL    HW239729   3.867   4.078  11.502  0.8245 -0.7988  1.1596
 9366SOL     OW39730   4.560   0.372   5.086 -0.4555  0.7116 -0.3515
 9366SOL    HW139731   4.562   0.459   5.046 -0.4231 -1.0525 -4.1985
 9366SOL    HW239732   4.620   0.322   5.031  0.7818  0.5509  1.1429
 9367SOL     OW39733   3.082   2.087   3.769 -0.2823  0.3265 -0.4267
 9367SOL    HW139734   3.131   2.169   3.772  2.5844 -1.4069  0.9521
 9367SOL    HW239735   3.151   2.025   3.794 -2.0500 -0.9343  1.3638
 9368SOL     OW39736   3.279   4.482   2.977  0.0861  0.5531  0.6855
 9368SOL    HW139737   3.195   4.458   2.938  0.8387 -2.3687  0.8639
 9368SOL    HW239738   3.333   4.457   2.903 -1.3408 -0.8845  0.1375
 9369SOL     OW39739   3.889   3.954   9.135  0.5978  0.0822 -0.1416
 9369SOL    HW139740   3.891   3.861   9.157 -0.7851  0.1882  0.4654
 9369SOL    HW239741   3.844   3.990   9.211  0.0238 -2.5193  0.7643
 9370SOL     OW39742   0.618   1.388   1.105  0.6065  0.6981 -0.0839
 9370SOL    HW139743   0.546   1.440   1.070  0.6409  1.5214  1.0540
 9370SOL    HW239744   0.604   1.309   1.053 -0.1078 -0.4170  1.7852
 9371SOL     OW39745   3.522   2.210  12.851 -0.6565  0.1740  0.1119
 9371SOL    HW139746   3.453   2.209  12.918 -0.4889  0.2578  0.2846
 9371SOL    HW239747   3.477   2.173  12.775  0.2761 -1.4272  0.3405
 9372SOL     OW39748   3.740   4.525   3.548  0.0479 -0.2958 -0.2024
 9372SOL    HW139749   3.827   4.544   3.582  0.4351 -0.5136 -1.0828
 9372SOL    HW239750   3.717   4.608   3.507 -1.6077 -0.3065  0.6921
 9373SOL     OW39751   3.316   3.458   2.041 -0.1249  0.0104  0.8020
 9373SOL    HW139752   3.356   3.382   2.084  0.6445 -0.5499 -0.9205
 9373SOL    HW239753   3.252   3.417   1.983  2.4425 -1.5718 -0.9124
 9374SOL     OW39754   2.946   0.126   1.296 -0.2334 -0.3489 -1.1223
 9374SOL    HW139755   3.005   0.055   1.270 -0.3824 -1.0211  0.3786
 9374SOL    HW239756   2.877   0.074   1.337  1.5368 -0.9678  1.0754
 9375SOL     OW39757   4.684   0.728   7.879 -0.0067  0.4111  0.1777
 9375SOL    HW139758   0.010   0.657   7.861 -0.8535  0.0300 -1.1512
 9375SOL    HW239759   4.730   0.784   7.942 -1.3212  0.4821  1.0989
 9376SOL     OW39760   2.885   4.437  14.243 -0.0447  0.6665  0.0437
 9376SOL    HW139761   2.905   4.348  14.215 -1.2313  0.5319 -0.3392
 9376SOL    HW239762   2.955   4.488  14.201  2.7081 -0.7368  2.8383
 9377SOL     OW39763   2.674   2.693   6.401 -0.0083 -0.3046 -0.5085
 9377SOL    HW139764   2.759   2.712   6.362  0.6466 -0.3949  0.8714
 9377SOL    HW239765   2.673   2.603   6.367  0.7244  0.2567 -2.0058
 9378SOL     OW39766   1.515   4.265  14.491 -0.0193  0.7549 -0.0367
 9378SOL    HW139767   1.507   4.349  14.535  1.3181  0.7334  0.2605
 9378SOL    HW239768   1.499   4.199  14.559  1.4669 -0.0963 -0.5109
 9379SOL     OW39769   1.526   2.289   4.809  0.2821 -0.0516 -0.3051
 9379SOL    HW139770   1.585   2.338   4.752  1.0762 -1.5243 -0.7522
 9379SOL    HW239771   1.572   2.205   4.804  2.6410  1.1884  0.6781
 9380SOL     OW39772   0.488   4.652  10.414 -0.6106 -0.0179 -0.0943
 9380SOL    HW139773   0.441   4.649  10.330  0.2209  0.5033 -0.5736
 9380SOL    HW239774   0.428   4.712  10.457  1.5597  2.6668 -0.8523
 9381SOL     OW39775   0.950   3.943   8.796 -0.3763  0.0603 -0.1589
 9381SOL    HW139776   1.017   3.965   8.731  1.2004 -1.6783  0.8829
 9381SOL    HW239777   0.936   4.027   8.841  1.2091  0.8071 -1.0454
 9382SOL     OW39778   3.150   0.496   7.095  0.1122 -0.3848 -0.3895
 9382SOL    HW139779   3.237   0.535   7.094  0.0411 -0.1860  0.6218
 9382SOL    HW239780   3.151   0.425   7.160 -2.7199 -0.3462 -0.2736
 9383SOL     OW39781   2.886   1.457  16.005  0.5283  0.1720  0.7532
 9383SOL    HW139782   2.821   1.477  15.937 -0.8577 -0.7485  1.7977
 9383SOL    HW239783   2.853   1.374  16.039 -2.3258  1.2300  0.5478
 9384SOL     OW39784   2.476   4.268  11.667  0.8850  0.7517  0.0340
 9384SOL    HW139785   2.552   4.250  11.721  0.5164 -1.0551 -0.0414
 9384SOL    HW239786   2.426   4.190  11.690 -1.2593  1.7166 -1.2865
 9385SOL     OW39787   1.134   4.731  16.229 -0.3708 -0.3033  0.5650
 9385SOL    HW139788   1.221   0.035  16.220 -0.2405 -0.5740  0.6368
 9385SOL    HW239789   1.150   4.678  16.307  1.5117  2.6122  2.1181
 9386SOL     OW39790   2.298   3.053   2.694  0.7601  0.1213  0.2897
 9386SOL    HW139791   2.393   3.054   2.707  1.0683 -1.7424 -1.8484
 9386SOL    HW239792   2.284   3.128   2.636 -2.2947 -0.5576  0.1207
 9387SOL     OW39793   2.286   4.402  11.808  0.9299 -0.1450  0.4799
 9387SOL    HW139794   2.328   4.486  11.789 -1.5093  1.2801  1.4192
 9387SOL    HW239795   2.334   4.347  11.746 -0.2055  1.5122 -1.9133
 9388SOL     OW39796   2.183   2.621   5.260 -0.6294 -0.4974 -0.1779
 9388SOL    HW139797   2.253   2.648   5.201  0.1013  0.1157  0.9558
 9388SOL    HW239798   2.142   2.552   5.208 -2.1684 -0.1614  0.5740
 9389SOL     OW39799   4.006   2.472   9.193  0.3566 -0.7389  0.8661
 9389SOL    HW139800   4.078   2.453   9.134 -1.8207 -2.0378 -1.3818
 9389SOL    HW239801   4.001   2.566   9.212 -0.1122 -0.2907 -1.5100
 9390SOL     OW39802   2.620   3.887  11.416 -0.0054  0.0354 -0.1720
 9390SOL    HW139803   2.573   3.824  11.471 -1.7457  1.8657  0.4210
 9390SOL    HW239804   2.678   3.929  11.479  2.4827 -2.3434 -0.8545
 9391SOL     OW39805   0.255   3.811   8.002  0.4553  0.2736  0.0501
 9391SOL    HW139806   0.231   3.719   8.006 -0.7778  0.6484  1.2768
 9391SOL    HW239807   0.265   3.821   8.097 -1.8614  2.3232  0.0640
 9392SOL     OW39808   2.450   4.425   8.506  0.3456  0.9670 -0.9208
 9392SOL    HW139809   2.389   4.450   8.576  3.1009  2.5042  0.9357
 9392SOL    HW239810   2.446   4.329   8.507 -3.1426  1.1288  0.4373
 9393SOL     OW39811   1.022   1.461   0.196  0.1828  0.3987 -0.1666
 9393SOL    HW139812   0.977   1.401   0.136  2.6329 -2.3925  0.8117
 9393SOL    HW239813   1.019   1.539   0.140  0.2970 -0.0682 -0.8245
 9394SOL     OW39814   3.834   2.430   8.457  0.4255 -0.5492 -0.2632
 9394SOL    HW139815   3.886   2.370   8.512  0.3774  0.2152  0.6128
 9394SOL    HW239816   3.837   2.502   8.520  2.7996  2.1215 -3.5068
 9395SOL     OW39817   0.718   3.645  13.149 -0.2571 -0.2014 -0.7807
 9395SOL    HW139818   0.761   3.716  13.101  0.3131  0.1243  0.2126
 9395SOL    HW239819   0.694   3.584  13.079 -0.5239 -1.1711  0.1655
 9396SOL     OW39820   0.116   1.002   3.116  0.1583 -0.3824 -0.1267
 9396SOL    HW139821   0.193   1.050   3.084 -0.2957 -0.4166 -1.2816
 9396SOL    HW239822   0.140   0.910   3.125 -0.5385 -0.1324  4.0431
 9397SOL     OW39823   1.529   1.838   2.846  0.0491 -0.8225  0.0989
 9397SOL    HW139824   1.513   1.808   2.935 -2.7486 -3.1018 -1.1721
 9397SOL    HW239825   1.592   1.908   2.863 -0.7337 -0.1301  0.1150
 9398SOL     OW39826   0.740   0.251  12.465 -0.0259 -0.1671  0.1310
 9398SOL    HW139827   0.795   0.222  12.392  1.1906 -0.0433  0.9928
 9398SOL    HW239828   0.746   0.173  12.521 -0.0523 -0.1439  0.1664
 9399SOL     OW39829   4.417   1.969   5.949 -0.3011  0.1792 -0.2044
 9399SOL    HW139830   4.469   2.024   6.007  1.9867 -0.3669 -1.7678
 9399SOL    HW239831   4.486   1.909   5.922 -0.3753  0.3244 -0.7086
 9400SOL     OW39832   2.676   0.901  17.493 -0.5083  0.6004  0.1489
 9400SOL    HW139833   2.709   0.857  17.414  1.1242  1.3901  0.3993
 9400SOL    HW239834   2.585   0.875  17.480 -0.9749  1.1079  2.4867
 9401SOL     OW39835   3.690   3.968   3.822  0.5956  0.4464  0.2359
 9401SOL    HW139836   3.693   4.062   3.840  1.4077  0.4037  0.3001
 9401SOL    HW239837   3.645   3.968   3.737 -0.5474 -1.9315  0.8340
 9402SOL     OW39838   1.375   3.877   7.050  0.1427 -0.0390 -0.8089
 9402SOL    HW139839   1.354   3.796   7.097 -1.2385  0.4199 -0.6240
 9402SOL    HW239840   1.339   3.848   6.966 -4.4264  0.0086  1.0828
 9403SOL     OW39841   4.326   2.707   1.733  0.6036  0.3337  0.0911
 9403SOL    HW139842   4.403   2.669   1.776 -0.5016 -2.7114 -0.6161
 9403SOL    HW239843   4.314   2.784   1.789 -4.8344 -0.2442 -0.2970
 9404SOL     OW39844   3.373   1.541  11.129  0.1193  0.1806  0.0764
 9404SOL    HW139845   3.462   1.507  11.134 -0.1567 -0.2651  1.6924
 9404SOL    HW239846   3.341   1.517  11.216 -0.8632  3.7469  0.7117
 9405SOL     OW39847   4.555   0.593  17.206  0.6006 -0.3165  0.1047
 9405SOL    HW139848   4.650   0.583  17.213  1.0216  2.5192 -1.8310
 9405SOL    HW239849   4.545   0.581  17.112  3.0862 -0.5285 -0.1072
 9406SOL     OW39850   4.416   0.112   0.970  0.0877 -0.4624 -0.8123
 9406SOL    HW139851   4.480   0.085   0.904  0.0833 -2.9713  0.2137
 9406SOL    HW239852   4.355   0.168   0.922 -1.6152 -1.2043  0.4757
 9407SOL     OW39853   3.754   0.948   2.507  0.0276  0.2443 -0.2371
 9407SOL    HW139854   3.736   0.951   2.601  1.9992 -3.4772  0.2755
 9407SOL    HW239855   3.843   0.984   2.508  0.6235 -1.2300 -0.6323
 9408SOL     OW39856   1.823   1.297   3.989  0.1534  0.1188  0.6962
 9408SOL    HW139857   1.876   1.229   3.946  1.0395  1.1071  0.2211
 9408SOL    HW239858   1.818   1.255   4.075  0.6463 -1.3240  0.0160
 9409SOL     OW39859   0.057   3.879   2.845 -0.1925  0.7599 -1.1232
 9409SOL    HW139860   4.713   3.872   2.792 -0.8375  1.2192 -0.2126
 9409SOL    HW239861   0.086   3.962   2.807 -2.2261  1.8874 -0.1880
 9410SOL     OW39862   0.386   4.596   4.696  0.8170  0.0585 -0.7003
 9410SOL    HW139863   0.388   4.589   4.792  2.5140  1.1868 -0.6512
 9410SOL    HW239864   0.293   4.612   4.684  0.7573  1.6113  1.8657
 9411SOL     OW39865   0.777   3.842  12.391 -0.0533 -0.0409 -0.4092
 9411SOL    HW139866   0.712   3.910  12.373 -1.6083 -0.5059  3.4957
 9411SOL    HW239867   0.836   3.860  12.318  0.0669  2.5660  0.3297
 9412SOL     OW39868   0.871   2.564  14.668 -0.0462 -0.0991 -0.0590
 9412SOL    HW139869   0.844   2.571  14.759 -1.3996  0.0250 -0.4676
 9412SOL    HW239870   0.939   2.631  14.660 -0.6918  0.6180  0.4904
 9413SOL     OW39871   2.707   3.622   0.172  0.2605  0.4046 -0.1423
 9413SOL    HW139872   2.769   3.691   0.197 -0.8931  1.4619 -0.2336
 9413SOL    HW239873   2.734   3.619   0.080 -0.5888 -0.5817 -0.3615
 9414SOL     OW39874   3.013   4.425  15.450  0.8203 -0.0498  0.4534
 9414SOL    HW139875   2.922   4.451  15.437  0.7852 -0.0548  0.6763
 9414SOL    HW239876   3.018   4.466  15.536 -0.7783  3.2722 -1.0619
 9415SOL     OW39877   3.871   0.957   7.783 -0.1576  0.1926  0.0916
 9415SOL    HW139878   3.859   1.048   7.757 -2.1283 -0.0913  0.0155
 9415SOL    HW239879   3.782   0.922   7.791 -1.0274  2.5367  0.6619
 9416SOL     OW39880   3.011   4.229   1.788 -0.4943  0.0572  0.1046
 9416SOL    HW139881   2.932   4.283   1.784 -0.1744  0.8709  4.5081
 9416SOL    HW239882   3.079   4.292   1.811 -0.7972 -0.1926  1.7122
 9417SOL     OW39883   4.487   0.412   7.274  0.3306 -0.2974 -0.3954
 9417SOL    HW139884   4.393   0.422   7.260  0.3740  0.2691 -0.2647
 9417SOL    HW239885   4.492   0.451   7.361 -0.5591 -0.6667 -0.1751
 9418SOL     OW39886   1.641   1.793   9.377 -0.2131 -0.2899  0.4189
 9418SOL    HW139887   1.550   1.794   9.408 -0.6995  2.7302 -1.1491
 9418SOL    HW239888   1.614   1.816   9.288 -0.5324 -0.5749  0.4412
 9419SOL     OW39889   1.761   1.161   6.542 -0.4047 -0.0589  0.2012
 9419SOL    HW139890   1.711   1.164   6.624  0.1122  0.0865  0.5131
 9419SOL    HW239891   1.742   1.243   6.497 -4.3252 -1.4139 -0.6171
 9420SOL     OW39892   0.673   4.524   8.480 -0.0983  0.6088  0.0363
 9420SOL    HW139893   0.769   4.531   8.484 -0.0776  0.9444 -0.9847
 9420SOL    HW239894   0.637   4.589   8.540 -0.3318  0.3851  0.1368
 9421SOL     OW39895   2.782   3.039   9.062  0.3081  0.5111  0.4458
 9421SOL    HW139896   2.827   2.964   9.102 -0.3802 -0.4095 -0.5223
 9421SOL    HW239897   2.848   3.101   9.095  1.7420  0.4858 -2.3926
 9422SOL     OW39898   1.351   0.562   7.930 -0.2480 -0.2894 -0.4476
 9422SOL    HW139899   1.278   0.611   7.968  0.3433  1.1394 -1.1484
 9422SOL    HW239900   1.415   0.597   7.992 -1.7290  0.3913  0.6850
 9423SOL     OW39901   0.255   3.446   2.081  0.0402 -0.1975 -0.2188
 9423SOL    HW139902   0.321   3.382   2.108 -3.1416 -2.6704  1.7767
 9423SOL    HW239903   0.263   3.447   1.986  0.3383 -1.0805 -0.2063
 9424SOL     OW39904   4.067   3.085  14.459 -0.3781  0.3318  0.3548
 9424SOL    HW139905   4.003   3.122  14.521 -1.1891 -0.2531 -0.1351
 9424SOL    HW239906   4.124   3.045  14.525 -1.5284  0.9283  1.7235
 9425SOL     OW39907   4.713   4.232   3.357  0.3757  0.2717 -0.3348
 9425SOL    HW139908   4.618   4.216   3.359  0.4988 -0.4862 -0.7668
 9425SOL    HW239909   0.006   4.148   3.394 -1.2111  0.8263  2.1625
 9426SOL     OW39910   1.098   3.442  17.589 -0.4392 -0.0180 -0.4022
 9426SOL    HW139911   1.107   3.439  17.684 -1.4926  0.2338 -0.2919
 9426SOL    HW239912   1.172   3.383  17.573  0.7159  1.3786 -0.2131
 9427SOL     OW39913   4.054   2.554   5.300 -0.6396  0.0348 -0.4337
 9427SOL    HW139914   3.996   2.513   5.365 -0.7212  2.8673  1.3078
 9427SOL    HW239915   4.115   2.481   5.294  1.4180  1.7579 -0.3551
 9428SOL     OW39916   0.259   1.200   3.022  0.5925  0.5135  0.1641
 9428SOL    HW139917   0.333   1.167   2.971  2.0867  0.8284  2.1386
 9428SOL    HW239918   0.304   1.242   3.094 -0.4630  2.2339 -0.1857
 9429SOL     OW39919   4.520   4.252   5.937  0.1435  0.2112  0.5385
 9429SOL    HW139920   4.556   4.287   5.855 -0.6440 -2.0887 -0.7702
 9429SOL    HW239921   4.499   4.333   5.984  1.9341  1.2430 -0.4335
 9430SOL     OW39922   0.382   4.274   5.364  0.1545  0.7131 -0.1454
 9430SOL    HW139923   0.302   4.304   5.322 -0.7156 -2.4833 -0.7528
 9430SOL    HW239924   0.396   4.183   5.338  1.0533  1.1536 -1.2621
 9431SOL     OW39925   4.004   0.462   4.213 -0.5402  0.4731  0.2985
 9431SOL    HW139926   4.099   0.457   4.219 -0.5380  0.6686  0.4399
 9431SOL    HW239927   3.974   0.428   4.297  1.1149  2.3388  1.6611
 9432SOL     OW39928   0.295   0.317  17.174  0.8493 -0.0604 -0.2787
 9432SOL    HW139929   0.380   0.295  17.213 -1.3999 -3.3550  2.6731
 9432SOL    HW239930   0.326   0.374  17.104  2.0652 -1.1658 -0.6467
 9433SOL     OW39931   0.564   0.723   1.056  0.7309  0.0820 -0.0322
 9433SOL    HW139932   0.610   0.806   1.044 -1.7869  1.6302  0.7936
 9433SOL    HW239933   0.509   0.731   0.978  0.3078 -0.7271  0.1888
 9434SOL     OW39934   3.348   2.972   6.732  0.1611  0.0945  0.3546
 9434SOL    HW139935   3.317   3.062   6.720 -3.1032 -1.2398 -1.3240
 9434SOL    HW239936   3.418   2.978   6.797 -0.7825 -0.5447  1.4296
 9435SOL     OW39937   1.305   2.129   7.570 -0.2004  0.3810  0.8691
 9435SOL    HW139938   1.210   2.121   7.576 -0.3393 -1.2160 -2.7373
 9435SOL    HW239939   1.346   2.044   7.585 -0.9224 -0.2661 -0.7257
 9436SOL     OW39940   4.240   2.987  14.975 -0.2168 -0.6796  0.1091
 9436SOL    HW139941   4.283   3.072  14.968  0.9727 -1.1707  1.3972
 9436SOL    HW239942   4.181   3.013  15.045 -1.2968  0.8445 -1.3771
 9437SOL     OW39943   3.984   4.576   7.148  0.2847  0.2215  0.0840
 9437SOL    HW139944   4.052   4.602   7.210  1.8438 -1.0995 -1.0661
 9437SOL    HW239945   3.943   4.661   7.130 -0.5802 -0.7379 -2.4434
 9438SOL     OW39946   2.966   0.916   5.019  0.3091  0.0097  0.2567
 9438SOL    HW139947   3.036   0.852   5.003  2.0860  2.4973 -1.7944
 9438SOL    HW239948   2.995   0.991   4.968 -1.3281 -0.8074 -1.8875
 9439SOL     OW39949   1.387   0.847  17.189  0.4564  0.3292 -0.5410
 9439SOL    HW139950   1.478   0.854  17.161 -0.2477  1.3359 -2.5610
 9439SOL    HW239951   1.350   0.880  17.107  2.1418  0.9551 -1.0412
 9440SOL     OW39952   2.927   2.323  14.369  0.0126 -0.2491  0.2276
 9440SOL    HW139953   2.888   2.395  14.319 -0.3741  0.2212  1.1942
 9440SOL    HW239954   3.009   2.365  14.392 -0.7643  1.0334  0.6482
 9441SOL     OW39955   0.257   4.259   6.721  0.4203  0.0427 -0.3199
 9441SOL    HW139956   0.242   4.308   6.640  1.1033  1.1634  0.2341
 9441SOL    HW239957   0.172   4.263   6.764  0.1480 -0.8949 -0.7843
 9442SOL     OW39958   3.949   4.710   5.674  0.2492  0.1490 -0.4482
 9442SOL    HW139959   4.018   0.030   5.637 -0.5665  0.5179 -1.3941
 9442SOL    HW239960   4.002   4.675   5.746 -0.4290  1.3161  0.6217
 9443SOL     OW39961   4.258   1.888   7.881  0.2753 -0.4061 -0.2556
 9443SOL    HW139962   4.272   1.855   7.969 -1.1003 -0.9960 -0.2632
 9443SOL    HW239963   4.346   1.917   7.855  0.0650  0.2810 -0.2124
 9444SOL     OW39964   0.876   0.042   6.635 -0.3415 -0.2248 -1.0742
 9444SOL    HW139965   0.844   0.066   6.548 -0.1487  1.5680 -0.6708
 9444SOL    HW239966   0.968   0.066   6.618 -0.1723  0.0048  0.1566
 9445SOL     OW39967   1.798   0.770   4.213  0.6138 -0.0838  0.0538
 9445SOL    HW139968   1.725   0.808   4.163  2.3210  2.2658 -0.6646
 9445SOL    HW239969   1.744   0.716   4.269 -0.4056  2.4135  1.4931
 9446SOL     OW39970   0.904   0.588   8.309 -0.7994 -0.1195  0.6379
 9446SOL    HW139971   0.976   0.557   8.254 -1.3943  2.6524 -1.7289
 9446SOL    HW239972   0.928   0.679   8.328 -0.3014 -0.0090 -0.4748
 9447SOL     OW39973   2.086   2.867  10.845  0.2469 -0.1055 -0.4981
 9447SOL    HW139974   2.157   2.927  10.824 -0.3685  0.8902  0.2790
 9447SOL    HW239975   2.026   2.913  10.904  2.1662  2.5060 -0.6088
 9448SOL     OW39976   1.544   4.077  15.300 -0.2902  0.3017 -0.0940
 9448SOL    HW139977   1.518   4.166  15.277  0.9517  1.0128  1.2345
 9448SOL    HW239978   1.484   4.022  15.250  1.7529 -0.6283 -1.5195
 9449SOL     OW39979   3.713   4.478   1.081  0.2924 -0.3209 -0.0284
 9449SOL    HW139980   3.768   4.402   1.103  0.7215 -0.2794 -0.9838
 9449SOL    HW239981   3.635   4.426   1.063  1.1279 -2.1810  1.6954
 9450SOL     OW39982   1.121   3.392   3.335  0.1452 -0.3897 -0.3442
 9450SOL    HW139983   1.182   3.400   3.261 -0.4155 -2.3502 -1.0025
 9450SOL    HW239984   1.114   3.482   3.365 -0.9124 -0.2506 -1.0294
 9451SOL     OW39985   1.209   0.519  17.382 -0.0143  0.2056  0.9279
 9451SOL    HW139986   1.171   0.503  17.468 -0.2715  0.4420  0.8611
 9451SOL    HW239987   1.198   0.437  17.334 -1.0950 -0.0673  1.6396
 9452SOL     OW39988   3.352   4.329   6.087 -0.2180  0.3050 -0.3909
 9452SOL    HW139989   3.437   4.343   6.129 -0.6110 -0.7026  0.7446
 9452SOL    HW239990   3.306   4.411   6.106 -0.7211 -0.8331  3.2537
 9453SOL     OW39991   2.627   0.808   8.430  0.2923 -0.5207  0.4271
 9453SOL    HW139992   2.699   0.793   8.490 -0.8000  2.4909  2.5130
 9453SOL    HW239993   2.558   0.764   8.480 -1.1558  0.5000 -0.6461
 9454SOL     OW39994   1.542   0.075   2.800 -0.1115  0.3018 -0.1257
 9454SOL    HW139995   1.606   0.047   2.735  0.7156  0.9856  0.3914
 9454SOL    HW239996   1.556   0.169   2.817 -1.0830  0.0681  1.9065
 9455SOL     OW39997   3.104   0.741  13.908  0.1012  0.7754 -0.7089
 9455SOL    HW139998   3.064   0.828  13.899  1.3442  1.3253 -0.8776
 9455SOL    HW239999   3.029   0.682  13.897 -0.6585  2.2064 -3.2816
 9456SOL     OW40000   1.598   2.728   9.202 -0.2132  0.5157  0.5656
 9456SOL    HW140001   1.518   2.675   9.198 -0.1349  0.4436 -0.1138
 9456SOL    HW240002   1.569   2.806   9.250  0.1493  0.7323  0.4308
 9457SOL     OW40003   0.898   4.400   8.290  0.5013 -0.0138 -0.2902
 9457SOL    HW140004   0.933   4.312   8.306  0.7559  0.0485 -0.5129
 9457SOL    HW240005   0.826   4.382   8.229  2.1883 -1.9224 -1.7043
 9458SOL     OW40006   4.288   2.339   2.275  0.7709 -0.0647  0.2906
 9458SOL    HW140007   4.238   2.374   2.348  1.7362 -0.8595  1.3200
 9458SOL    HW240008   4.226   2.347   2.202  1.5361  1.7182 -0.1751
 9459SOL     OW40009   2.077   3.854  11.313 -0.2020 -0.3285 -0.2233
 9459SOL    HW140010   2.059   3.927  11.254  2.2920 -1.1267 -1.9583
 9459SOL    HW240011   2.168   3.877  11.333 -0.1779 -1.7880  1.2930
 9460SOL     OW40012   3.534   4.468  16.692  0.0536  0.2887 -0.1446
 9460SOL    HW140013   3.532   4.373  16.679 -0.2504  0.1348  1.0518
 9460SOL    HW240014   3.481   4.468  16.772 -0.2491  2.4589 -0.3478
 9461SOL     OW40015   4.693   4.570   4.585 -0.2667 -0.3719  0.6716
 9461SOL    HW140016   0.017   4.515   4.636  1.3191 -0.3528 -1.1259
 9461SOL    HW240017   4.614   4.574   4.638 -1.8043  1.6171 -1.7479
 9462SOL     OW40018   0.165   1.532   3.708  0.0273 -0.3538 -0.1621
 9462SOL    HW140019   0.131   1.479   3.780 -1.5884  1.0071  0.0863
 9462SOL    HW240020   0.256   1.504   3.699  0.0882  0.7666 -3.1021
 9463SOL     OW40021   0.029   0.878   9.269  0.2575  0.5776 -0.0312
 9463SOL    HW140022   0.039   0.912   9.181  0.0322 -0.7476 -0.5656
 9463SOL    HW240023   0.119   0.880   9.301 -0.3678  0.0099  1.7958
 9464SOL     OW40024   3.214   0.967   4.870 -0.2423  0.1039 -0.8772
 9464SOL    HW140025   3.258   1.037   4.918  0.9890  0.5150 -2.5801
 9464SOL    HW240026   3.244   1.001   4.786  1.2640  1.3410  0.1622
 9465SOL     OW40027   0.234   2.886   6.396 -0.5593 -0.3789  0.3552
 9465SOL    HW140028   0.142   2.864   6.414 -0.6397  0.5210  1.0298
 9465SOL    HW240029   0.234   2.881   6.301  0.7854  1.7003  0.2629
 9466SOL     OW40030   3.119   1.276  16.005 -0.1518  0.1543 -0.1066
 9466SOL    HW140031   3.060   1.350  16.000 -0.7392 -0.1904  1.6085
 9466SOL    HW240032   3.104   1.254  16.097 -2.0566  1.4346 -0.1232
 9467SOL     OW40033   1.848   1.326   2.775  0.5268 -0.2426 -0.1292
 9467SOL    HW140034   1.785   1.268   2.732  0.9993 -0.9823  0.1778
 9467SOL    HW240035   1.865   1.390   2.706 -2.2544  0.2039 -0.4243
 9468SOL     OW40036   0.577   2.300   8.558 -0.1685  0.5681 -0.0089
 9468SOL    HW140037   0.531   2.216   8.552  1.1660  0.0738 -3.6906
 9468SOL    HW240038   0.669   2.290   8.533 -0.4424  0.2085 -0.8935
 9469SOL     OW40039   0.278   4.677  17.021 -0.5903  0.0890 -0.5901
 9469SOL    HW140040   0.336   4.687  16.945 -0.8347  0.8467 -0.6790
 9469SOL    HW240041   0.201   4.625  17.000 -0.5573 -0.1411 -0.1256
 9470SOL     OW40042   0.362   0.163   1.208 -0.2244  0.2357 -0.0895
 9470SOL    HW140043   0.300   0.131   1.143 -2.1491  2.1300  0.7896
 9470SOL    HW240044   0.362   0.084   1.262 -1.5245  0.3339  0.0563
 9471SOL     OW40045   4.181   0.742  11.880 -0.8788 -0.2572  0.0472
 9471SOL    HW140046   4.172   0.767  11.788  0.7601  1.6523  0.3990
 9471SOL    HW240047   4.183   0.825  11.927 -1.2941 -0.2800  0.1045
 9472SOL     OW40048   2.832   1.937  15.957 -0.1019  0.5268 -0.2373
 9472SOL    HW140049   2.900   1.873  15.978 -0.3102  0.2946 -0.2787
 9472SOL    HW240050   2.843   1.999  16.030  0.5153 -1.2420  1.1603
 9473SOL     OW40051   2.615   1.799   8.439 -0.0790 -0.2542 -0.1437
 9473SOL    HW140052   2.583   1.747   8.513  1.9623 -2.7219 -1.0182
 9473SOL    HW240053   2.571   1.749   8.370 -0.6357  0.1990 -0.1218
 9474SOL     OW40054   2.103   2.406   8.423  0.0827 -0.0935 -0.4609
 9474SOL    HW140055   2.011   2.424   8.442  0.2512  0.5950 -0.2988
 9474SOL    HW240056   2.133   2.479   8.475  1.4419 -1.2903  0.4212
 9475SOL     OW40057   4.020   1.117   7.339 -0.0812  0.1119 -0.2882
 9475SOL    HW140058   4.040   1.107   7.432  1.5571  2.6039 -0.3631
 9475SOL    HW240059   4.101   1.141   7.293 -0.8550 -0.7901 -2.1355
 9476SOL     OW40060   1.615   3.740   2.013  0.1648  0.2481  0.0798
 9476SOL    HW140061   1.668   3.731   1.933  0.5166 -0.2175  0.3648
 9476SOL    HW240062   1.583   3.830   2.021  0.6023  0.5496 -1.5391
 9477SOL     OW40063   0.889   2.106  16.875 -0.0592 -0.3492  0.1926
 9477SOL    HW140064   0.951   2.036  16.857 -1.6750 -2.2782  2.0452
 9477SOL    HW240065   0.953   2.176  16.866  0.8783 -1.3995 -1.1591
 9478SOL     OW40066   3.040   2.367   2.829 -0.2091  0.0410  0.5786
 9478SOL    HW140067   3.070   2.413   2.750 -0.9994 -1.0427 -0.3462
 9478SOL    HW240068   2.947   2.388   2.824  0.0554  0.9388 -0.6511
 9479SOL     OW40069   2.177   4.452  11.113  0.6204  0.1609 -0.9362
 9479SOL    HW140070   2.137   4.380  11.065  0.4116  0.0033 -0.5253
 9479SOL    HW240071   2.216   4.406  11.187 -0.8968  3.7529  2.1218
 9480SOL     OW40072   2.578   3.455   9.518 -0.2747  0.9387 -0.0172
 9480SOL    HW140073   2.605   3.451   9.609 -1.5544 -0.5447  0.2940
 9480SOL    HW240074   2.631   3.385   9.479  1.2417  1.3366  1.3508
 9481SOL     OW40075   4.497   1.686   2.525  0.5290  0.0260  0.5151
 9481SOL    HW140076   4.410   1.685   2.565  0.5161 -2.6050  0.4577
 9481SOL    HW240077   4.513   1.592   2.514 -2.9732 -0.7689  2.2836
 9482SOL     OW40078   4.233   2.589   3.923  0.1406  0.0027  0.5391
 9482SOL    HW140079   4.187   2.584   3.840 -0.7180 -1.6898  1.1240
 9482SOL    HW240080   4.268   2.500   3.928 -1.1060 -0.5475 -0.4774
 9483SOL     OW40081   2.200   0.595   3.259 -0.1758 -0.5648 -0.0809
 9483SOL    HW140082   2.286   0.620   3.227  0.0561  0.2660  1.1906
 9483SOL    HW240083   2.214   0.518   3.314 -0.5476  1.5080  2.9365
 9484SOL     OW40084   2.937   1.577   5.684 -0.2423  0.2673 -0.3387
 9484SOL    HW140085   2.957   1.592   5.776 -1.5787  0.7417 -0.1240
 9484SOL    HW240086   3.016   1.534   5.652 -0.3651  0.7978 -1.3650
 9485SOL     OW40087   0.278   1.059   7.556 -0.0123  0.6801 -0.1744
 9485SOL    HW140088   0.237   1.082   7.639  1.0442 -1.1746  0.8659
 9485SOL    HW240089   0.367   1.049   7.591 -0.3033  0.1244  0.3927
 9486SOL     OW40090   0.095   4.018   5.380  0.3509  0.1552  0.5102
 9486SOL    HW140091   0.190   4.027   5.366 -0.0951  0.5427 -2.1928
 9486SOL    HW240092   0.087   4.076   5.456 -0.0858  1.5551 -0.6131
 9487SOL     OW40093   1.524   4.066  17.218  0.0206  0.1386 -0.3304
 9487SOL    HW140094   1.609   4.089  17.179  0.6839 -1.6865  0.0796
 9487SOL    HW240095   1.469   4.120  17.160 -1.0082 -0.4953  0.0530
 9488SOL     OW40096   4.124   0.291   5.963 -0.3411  0.2563 -0.0767
 9488SOL    HW140097   4.151   0.223   6.025 -0.7961 -1.1199 -1.3721
 9488SOL    HW240098   4.034   0.320   5.974 -0.8346 -1.3852  0.1925
 9489SOL     OW40099   1.861   4.653   8.842 -0.4360 -0.2148  0.6070
 9489SOL    HW140100   1.952   4.625   8.849  0.2676  1.7661 -0.7611
 9489SOL    HW240101   1.845   4.678   8.933 -1.4801  0.2453  0.2944
 9490SOL     OW40102   0.416   2.026   1.937  0.4997 -0.5878 -0.0618
 9490SOL    HW140103   0.439   2.090   2.006 -0.3468 -1.8098  1.3606
 9490SOL    HW240104   0.352   2.076   1.886 -0.8458  0.4945  2.6434
 9491SOL     OW40105   4.298   0.626  10.786  0.2363 -0.1651 -0.3987
 9491SOL    HW140106   4.336   0.689  10.846  1.2624 -0.5733 -0.6250
 9491SOL    HW240107   4.267   0.567  10.855  3.6882 -0.7137  0.6540
 9492SOL     OW40108   4.449   2.667   2.305  0.6877 -0.3268  0.4123
 9492SOL    HW140109   4.356   2.677   2.281  0.6792  0.9339  0.9915
 9492SOL    HW240110   4.446   2.662   2.400  1.3165 -1.0393  0.3936
 9493SOL     OW40111   1.714   2.312   9.845  0.1652  0.2065  0.6172
 9493SOL    HW140112   1.810   2.309   9.854  0.1964  0.0551  0.2562
 9493SOL    HW240113   1.688   2.266   9.925  0.8540 -0.5958  0.3826
 9494SOL     OW40114   3.655   0.316   3.768 -0.6432  0.7925  0.1102
 9494SOL    HW140115   3.710   0.270   3.832  0.5406  1.8312 -0.1485
 9494SOL    HW240116   3.579   0.259   3.778  0.8244 -1.2498 -0.5200
 9495SOL     OW40117   1.792   1.758   9.016  0.6364  0.6651 -0.7932
 9495SOL    HW140118   1.867   1.699   9.016 -0.6531 -0.9868 -0.1479
 9495SOL    HW240119   1.740   1.730   8.940 -0.2081 -2.4946  0.9452
 9496SOL     OW40120   3.848   2.627   3.951  0.4583 -0.2398  0.2449
 9496SOL    HW140121   3.799   2.642   3.870 -0.3164  0.7324  0.8897
 9496SOL    HW240122   3.807   2.687   4.013  1.0129 -1.3846  1.6998
 9497SOL     OW40123   3.433   4.657  17.443  0.2441 -0.6843  0.4496
 9497SOL    HW140124   3.358   4.671  17.502  0.5996  2.5391  0.1743
 9497SOL    HW240125   3.463   4.579  17.490 -2.4233 -3.5872 -2.7385
 9498SOL     OW40126   4.535   0.106   3.294 -0.2031  0.3502  0.1622
 9498SOL    HW140127   4.627   0.078   3.298  0.3336  1.9656 -1.0211
 9498SOL    HW240128   4.536   0.107   3.199  1.1216  1.9365  0.1943
 9499SOL     OW40129   3.132   3.773   3.762  0.1265  0.3515  0.1264
 9499SOL    HW140130   3.156   3.804   3.675  0.9016  2.0173  0.9329
 9499SOL    HW240131   3.104   3.849   3.812 -0.0674 -0.5381  1.3986
 9500SOL     OW40132   1.704   3.653   1.750  0.3072  0.0437 -0.3792
 9500SOL    HW140133   1.652   3.575   1.770 -0.1771 -0.0373 -1.9323
 9500SOL    HW240134   1.667   3.665   1.662  0.1349  0.3452 -0.2669
 9501SOL     OW40135   3.844   4.643   7.566  0.1648  0.7332  0.2583
 9501SOL    HW140136   3.795   4.599   7.635  0.2616  0.6360  0.2642
 9501SOL    HW240137   3.834   4.735   7.592  1.3318  1.3163 -1.3576
 9502SOL     OW40138   3.427   4.219  13.317  0.3318  0.0621 -0.4610
 9502SOL    HW140139   3.399   4.242  13.405 -0.9802 -2.0352 -0.3196
 9502SOL    HW240140   3.383   4.289  13.269  1.7861  0.9277 -0.5238
 9503SOL     OW40141   1.586   0.944   6.456  0.0395 -0.0761 -0.3681
 9503SOL    HW140142   1.629   1.029   6.459  3.0144 -1.5275 -1.5679
 9503SOL    HW240143   1.528   0.946   6.379 -1.5310 -0.6503  0.8091
 9504SOL     OW40144   3.203   1.605   6.984  0.5358  0.1542  0.0359
 9504SOL    HW140145   3.223   1.531   7.042  1.8447  0.2753 -0.2470
 9504SOL    HW240146   3.117   1.581   6.949 -0.6674  1.9036  1.7988
 9505SOL     OW40147   4.031   1.095  17.443  0.1669 -0.5913 -0.0626
 9505SOL    HW140148   4.069   1.040  17.511  1.4852  0.9530  0.4374
 9505SOL    HW240149   4.037   1.183  17.479  2.0426  0.3620 -2.7203
 9506SOL     OW40150   3.090   2.072   5.450  0.5932 -0.0800  0.3978
 9506SOL    HW140151   3.004   2.044   5.418  1.8437 -4.9982  1.3135
 9506SOL    HW240152   3.098   2.003   5.515 -0.2442 -1.4686 -0.9538
 9507SOL     OW40153   2.384   1.348   7.790 -0.1657  0.1574  0.5047
 9507SOL    HW140154   2.289   1.357   7.780 -0.3057  1.7715  3.2890
 9507SOL    HW240155   2.401   1.439   7.814  0.4756  0.4682 -1.0842
 9508SOL     OW40156   0.988   2.995  13.945  0.0165  0.0138  0.4093
 9508SOL    HW140157   0.987   3.021  13.853  1.6543  0.4464  0.5247
 9508SOL    HW240158   0.895   2.975  13.961 -0.5012  0.0962 -2.4734
 9509SOL     OW40159   3.017   1.768   5.273  0.1859 -0.2500  0.3706
 9509SOL    HW140160   2.953   1.712   5.319  0.8681  0.2129  1.8934
 9509SOL    HW240161   3.057   1.809   5.350  0.8941  1.6373 -1.0092
 9510SOL     OW40162   1.832   0.005   3.285 -0.0879  0.1458  0.1660
 9510SOL    HW140163   1.857   4.695   3.205 -1.2293 -1.3163  0.6267
 9510SOL    HW240164   1.747   4.698   3.297  0.2685 -0.3883  0.8085
 9511SOL     OW40165   2.911   1.991  11.340  0.1407 -0.2564  0.0795
 9511SOL    HW140166   2.855   1.945  11.402  1.2022 -0.2769  1.0149
 9511SOL    HW240167   2.858   1.977  11.262  0.4974 -0.3986 -0.1393
 9512SOL     OW40168   1.166   0.416   5.835  0.1459  0.0122 -0.6012
 9512SOL    HW140169   1.246   0.394   5.882 -0.8694 -0.9494  0.6685
 9512SOL    HW240170   1.123   0.331   5.843  0.1111  0.4437  3.5133
 9513SOL     OW40171   3.656   3.608   7.377 -0.1803 -0.3305  0.2939
 9513SOL    HW140172   3.671   3.533   7.435  0.0682  0.6997  1.5599
 9513SOL    HW240173   3.576   3.647   7.411  0.2745  0.4054  0.5153
 9514SOL     OW40174   0.586   0.512  12.052  0.0606 -0.1220  0.1795
 9514SOL    HW140175   0.634   0.590  12.022  0.2340 -0.4975 -0.5175
 9514SOL    HW240176   0.538   0.479  11.976  0.9461 -1.2101  0.1029
 9515SOL     OW40177   1.728   0.793   0.446  0.1114 -0.0706  0.0595
 9515SOL    HW140178   1.757   0.802   0.355  0.0766 -0.8136 -0.0248
 9515SOL    HW240179   1.637   0.812   0.427  0.8881  1.7917 -1.7893
 9516SOL     OW40180   1.236   0.578  12.302 -0.1874  0.2007  0.6971
 9516SOL    HW140181   1.227   0.663  12.260 -1.5842 -0.6877 -0.7856
 9516SOL    HW240182   1.328   0.561  12.281 -0.6781 -0.8767 -0.5770
 9517SOL     OW40183   4.689   1.795  16.602 -0.6863  0.0018  0.2342
 9517SOL    HW140184   0.039   1.818  16.638 -1.6771  2.4266  1.0270
 9517SOL    HW240185   4.638   1.784  16.682 -2.2698  0.1620 -0.7513
 9518SOL     OW40186   3.118   3.969   5.198  0.0911  0.1589 -0.3360
 9518SOL    HW140187   3.147   3.928   5.116  1.0275  0.4446 -0.1431
 9518SOL    HW240188   3.031   4.001   5.173  2.0436  2.6392 -3.9396
 9519SOL     OW40189   2.004   3.588  14.406 -0.2869  0.1448  0.1538
 9519SOL    HW140190   1.960   3.523  14.461  1.1865 -0.4227  0.6678
 9519SOL    HW240191   2.062   3.532  14.354  0.4420  0.6873  0.3847
 9520SOL     OW40192   0.600   3.028   7.400 -0.0061  0.6460 -0.0682
 9520SOL    HW140193   0.545   3.041   7.323 -1.7421  1.0938  1.2707
 9520SOL    HW240194   0.680   3.074   7.371  1.0352 -1.4663 -0.5570
 9521SOL     OW40195   0.262   0.044  17.401  0.0230 -0.1857 -0.3243
 9521SOL    HW140196   0.176   0.046  17.358  0.2500  0.2166 -0.7543
 9521SOL    HW240197   0.310   4.704  17.367 -0.2302  0.3177 -1.8081
 9522SOL     OW40198   4.080   4.534   2.017 -0.0749 -0.2575 -0.3092
 9522SOL    HW140199   3.991   4.505   2.039 -0.1246 -0.2374 -0.4759
 9522SOL    HW240200   4.076   4.626   1.989  0.5092  0.0307  0.5945
 9523SOL     OW40201   4.107   1.065  12.751  0.0950 -0.3337 -0.1674
 9523SOL    HW140202   4.148   1.003  12.811 -0.5817  3.1470  3.9843
 9523SOL    HW240203   4.057   1.114  12.817  1.3483  1.0183 -0.2214
 9524SOL     OW40204   3.043   2.288   7.132  0.0055  0.1606  0.4993
 9524SOL    HW140205   3.006   2.237   7.204 -1.8781 -0.4056 -0.8659
 9524SOL    HW240206   3.094   2.226   7.080  0.2429  0.2794  0.5889
 9525SOL     OW40207   0.725   1.834   3.972 -0.1988 -0.4352  0.2209
 9525SOL    HW140208   0.665   1.767   3.939  0.9929 -1.9201  1.0772
 9525SOL    HW240209   0.668   1.868   4.042  1.2527  0.9161  0.7556
 9526SOL     OW40210   0.168   4.103   1.055  0.3845 -0.0493 -0.2642
 9526SOL    HW140211   0.125   4.145   1.129 -2.2604 -3.2581  0.0412
 9526SOL    HW240212   0.127   4.137   0.975 -1.2930  0.3327  0.7577
 9527SOL     OW40213   2.426   3.404  11.485  0.3121  0.0727 -0.3808
 9527SOL    HW140214   2.460   3.414  11.574  1.0095  3.6115 -1.0381
 9527SOL    HW240215   2.367   3.329  11.488  2.4258 -1.5597  1.1157
 9528SOL     OW40216   1.273   1.205  17.053  0.1975  0.0599  0.2767
 9528SOL    HW140217   1.330   1.247  17.117  1.4863 -0.2966 -0.6413
 9528SOL    HW240218   1.187   1.212  17.094  0.6547  1.4852  0.9845
 9529SOL     OW40219   2.586   2.156  15.257 -0.2944  0.2554  0.4296
 9529SOL    HW140220   2.628   2.241  15.268  0.0951 -0.1459  2.0907
 9529SOL    HW240221   2.559   2.137  15.347  0.1729  1.9865  0.9313
 9530SOL     OW40222   3.912   2.305   5.047 -0.6328 -0.1234 -0.0525
 9530SOL    HW140223   3.918   2.268   5.135  3.4155 -0.0668 -0.3041
 9530SOL    HW240224   3.929   2.227   4.994 -0.9184 -0.2546  0.0493
 9531SOL     OW40225   3.452   2.234   2.138  0.1605 -0.1680  0.3818
 9531SOL    HW140226   3.361   2.207   2.124  0.2139 -0.1378 -0.0493
 9531SOL    HW240227   3.510   2.193   2.074 -2.5297 -2.9083 -0.2997
 9532SOL     OW40228   4.462   0.589   6.559  0.0086 -0.3002  0.0765
 9532SOL    HW140229   4.415   0.662   6.599 -0.6112 -0.7410  0.1486
 9532SOL    HW240230   4.390   0.546   6.514  0.5487 -0.9989 -0.1270
 9533SOL     OW40231   3.837   0.829   5.970 -0.3962  0.2360 -0.0538
 9533SOL    HW140232   3.880   0.757   5.924  0.1153  0.8717 -0.5616
 9533SOL    HW240233   3.847   0.793   6.058 -0.4534  0.0086 -0.1407
 9534SOL     OW40234   2.624   1.802   3.058 -0.3329  0.5565 -0.5932
 9534SOL    HW140235   2.555   1.738   3.043 -0.7575  0.5219  1.4331
 9534SOL    HW240236   2.709   1.760   3.060 -1.7962 -2.4994 -3.0973
 9535SOL     OW40237   4.372   2.185   9.135  0.7204 -0.7595  0.4591
 9535SOL    HW140238   4.448   2.195   9.193  0.2946  0.6690  0.7754
 9535SOL    HW240239   4.332   2.127   9.200  2.2216 -1.5440  0.6796
 9536SOL     OW40240   0.250   2.314  13.760 -0.7896  0.5766  0.2402
 9536SOL    HW140241   0.342   2.332  13.739  0.1692 -1.3572  2.8202
 9536SOL    HW240242   0.246   2.221  13.782 -0.2788  0.4113 -0.3703
 9537SOL     OW40243   2.134   2.907   8.000  0.3533 -0.0125  0.7046
 9537SOL    HW140244   2.086   2.982   8.035  1.3926  0.7738  0.4114
 9537SOL    HW240245   2.211   2.947   7.960  0.4666  0.9515  1.8946
 9538SOL     OW40246   1.443   0.920   0.351 -0.2102 -0.3537  0.1253
 9538SOL    HW140247   1.438   1.014   0.365 -0.3963 -0.8152  3.2310
 9538SOL    HW240248   1.460   0.916   0.257  1.3524  2.1323  0.2946
 9539SOL     OW40249   1.278   0.784   7.649  0.2871 -0.0449  0.5457
 9539SOL    HW140250   1.338   0.859   7.652  0.4166 -0.0181 -2.7592
 9539SOL    HW240251   1.341   0.714   7.667  1.1370  0.5147 -0.2211
 9540SOL     OW40252   0.338   2.919   4.433  0.4135  0.2896  0.3342
 9540SOL    HW140253   0.259   2.961   4.467  2.1936  1.3310  3.1488
 9540SOL    HW240254   0.307   2.850   4.374  1.5904 -0.5564  0.7080
 9541SOL     OW40255   1.687   3.106   1.871 -0.2118 -0.1872 -0.1837
 9541SOL    HW140256   1.706   3.123   1.779  0.4077  1.5960  0.2688
 9541SOL    HW240257   1.596   3.076   1.870 -1.0720  2.3850  0.7240
 9542SOL     OW40258   0.962   0.039   4.754  0.0290 -0.0346 -0.5430
 9542SOL    HW140259   0.959   4.684   4.722  0.4575 -0.5907  1.0045
 9542SOL    HW240260   0.973   0.033   4.849 -1.1572  0.5251 -0.3716
 9543SOL     OW40261   4.193   1.142   2.801 -0.3843 -0.5187 -0.1814
 9543SOL    HW140262   4.266   1.086   2.773 -2.1520 -2.2094 -1.4552
 9543SOL    HW240263   4.127   1.072   2.805 -0.4501 -0.5030 -1.0066
 9544SOL     OW40264   1.792   0.019  12.953  0.1797 -0.0638 -0.5679
 9544SOL    HW140265   1.874   4.715  12.921  0.2273 -0.5414  0.1402
 9544SOL    HW240266   1.818   0.053  13.038 -0.2330  1.5512 -1.0816
 9545SOL     OW40267   2.765   1.786   5.889  0.2735  0.1691  0.1683
 9545SOL    HW140268   2.683   1.754   5.853  0.4034  0.4191 -0.3485
 9545SOL    HW240269   2.814   1.706   5.906 -2.4882 -0.9216  3.0275
 9546SOL     OW40270   1.479   2.510   5.826 -0.4401  0.0762 -0.2384
 9546SOL    HW140271   1.443   2.597   5.841  1.2469  0.9040 -1.0024
 9546SOL    HW240272   1.466   2.503   5.731  0.6349  1.8748 -0.5040
 9547SOL     OW40273   3.778   2.901   6.395 -0.6223 -0.7143 -0.0461
 9547SOL    HW140274   3.685   2.911   6.415  0.0372  1.8915  1.6822
 9547SOL    HW240275   3.823   2.918   6.478 -1.8380  1.3431  0.1916
 9548SOL     OW40276   0.273   4.065  10.088  0.3331 -0.8234 -0.1452
 9548SOL    HW140277   0.356   4.103  10.058 -0.7550  1.3178 -0.4631
 9548SOL    HW240278   0.310   4.024  10.166 -1.3853  0.7672  1.5014
 9549SOL     OW40279   0.632   4.141   4.627 -0.6093  0.5378  0.1746
 9549SOL    HW140280   0.673   4.214   4.672 -0.9615 -0.2976  1.8394
 9549SOL    HW240281   0.691   4.148   4.552 -0.4944 -3.7766 -0.1266
 9550SOL     OW40282   4.250   3.242   9.267 -0.1232 -0.3292  0.2014
 9550SOL    HW140283   4.323   3.281   9.315 -0.7208 -1.2917  1.8869
 9550SOL    HW240284   4.252   3.153   9.304  4.1065 -1.3132 -2.3354
 9551SOL     OW40285   1.059   1.331  10.098  0.2865 -0.4787 -0.6091
 9551SOL    HW140286   1.090   1.419  10.072 -2.4609 -0.1039 -2.6827
 9551SOL    HW240287   1.143   1.289  10.113 -0.0119  0.3993  3.5926
 9552SOL     OW40288   3.827   2.193   0.911  0.0158 -0.4603  0.1113
 9552SOL    HW140289   3.822   2.190   0.816  3.9587 -1.7417 -0.0589
 9552SOL    HW240290   3.920   2.216   0.919  0.1270 -0.9493  0.2140
 9553SOL     OW40291   0.594   4.187  17.374 -0.0213  0.3140 -0.1165
 9553SOL    HW140292   0.670   4.232  17.411  0.3399 -1.0746  0.8380
 9553SOL    HW240293   0.638   4.131  17.310 -0.0359 -0.4296  0.5163
 9554SOL     OW40294   3.665   4.033   4.135  0.2730 -0.2714 -0.3476
 9554SOL    HW140295   3.579   4.075   4.132  1.1299  1.5671  0.7946
 9554SOL    HW240296   3.651   3.941   4.114  0.7973 -0.5282  0.3944
 9555SOL     OW40297   3.817   4.421   8.852  0.1363 -0.0636 -0.3238
 9555SOL    HW140298   3.787   4.456   8.936  1.2558  0.4560 -0.1367
 9555SOL    HW240299   3.912   4.419   8.859  0.1267  2.7504  0.6869
 9556SOL     OW40300   4.180   1.170   2.303  0.4050 -0.3890 -0.1018
 9556SOL    HW140301   4.246   1.204   2.242  1.5503 -1.5817  0.4808
 9556SOL    HW240302   4.163   1.248   2.356 -1.4847 -0.3453 -0.7718
 9557SOL     OW40303   3.611   0.873   2.179  0.4369  0.5110 -0.0682
 9557SOL    HW140304   3.681   0.937   2.192  0.4205 -0.0014  2.5132
 9557SOL    HW240305   3.545   0.940   2.161 -0.8091 -0.3488  1.3675
 9558SOL     OW40306   3.800   0.850  12.877  0.3364 -0.1176  0.0775
 9558SOL    HW140307   3.865   0.816  12.938  0.9823  2.5082  0.8652
 9558SOL    HW240308   3.762   0.921  12.928  1.9826  2.3542 -2.0994
 9559SOL     OW40309   3.517   1.837   7.315 -0.3862  0.2635 -0.5697
 9559SOL    HW140310   3.552   1.851   7.403  0.0048  0.9842 -0.8473
 9559SOL    HW240311   3.448   1.772   7.330 -1.4567  1.4640 -0.2526
 9560SOL     OW40312   3.210   1.930   9.229  0.3029 -0.1329  0.6242
 9560SOL    HW140313   3.193   1.961   9.140  0.9624 -0.1739  0.4856
 9560SOL    HW240314   3.282   1.868   9.220  0.4117 -0.0788  1.1166
 9561SOL     OW40315   1.995   4.136   5.211 -0.9326  0.2438  0.5094
 9561SOL    HW140316   1.907   4.149   5.246 -0.6826  1.4059  0.7285
 9561SOL    HW240317   2.046   4.200   5.260 -1.1155  1.6833 -1.1372
 9562SOL     OW40318   1.891   2.151  12.150 -0.0456  0.4259 -0.2699
 9562SOL    HW140319   1.919   2.212  12.083  0.7508  0.3235 -0.0413
 9562SOL    HW240320   1.975   2.148  12.198 -0.4340  0.1555  0.3956
 9563SOL     OW40321   2.215   2.513   6.888  0.3044 -0.1435 -0.1469
 9563SOL    HW140322   2.166   2.523   6.970  1.4345  0.4086  0.4635
 9563SOL    HW240323   2.154   2.567   6.837 -0.6967 -0.2776  0.8929
 9564SOL     OW40324   0.607   4.079  14.149 -0.2584 -0.6194 -0.8508
 9564SOL    HW140325   0.668   4.008  14.128  1.5997  0.6484  0.3018
 9564SOL    HW240326   0.652   4.149  14.102  0.2513 -0.5841 -0.3045
 9565SOL     OW40327   3.796   2.458   4.415  0.3942  0.5807 -0.1954
 9565SOL    HW140328   3.815   2.416   4.499  1.3260  3.7039  1.1912
 9565SOL    HW240329   3.869   2.423   4.366  0.8625  2.8102 -1.1020
 9566SOL     OW40330   2.569   3.905   4.875  0.0294  0.0331 -0.0595
 9566SOL    HW140331   2.555   3.821   4.920 -1.3703  1.4847  2.2179
 9566SOL    HW240332   2.644   3.874   4.823 -1.1162 -1.5214 -0.7895
 9567SOL     OW40333   1.018   2.257   8.143  0.0245  0.0953  0.3458
 9567SOL    HW140334   1.030   2.170   8.182 -0.1535 -0.2580 -0.3953
 9567SOL    HW240335   1.042   2.231   8.054 -1.1365  0.1308  0.0160
 9568SOL     OW40336   4.162   2.737   4.879 -0.5393  0.3776  0.2634
 9568SOL    HW140337   4.116   2.676   4.936 -0.0163  0.1946  0.4903
 9568SOL    HW240338   4.105   2.740   4.802  0.9265  1.7613 -0.7685
 9569SOL     OW40339   0.897   2.797   3.895 -0.1827  0.4020 -0.2774
 9569SOL    HW140340   0.847   2.802   3.814 -1.1107 -1.7600  0.1694
 9569SOL    HW240341   0.962   2.866   3.881 -0.1599  0.4287 -0.0494
 9570SOL     OW40342   2.219   0.673   8.188 -0.1309 -0.0891 -0.1822
 9570SOL    HW140343   2.269   0.592   8.202  0.9933  0.7363  0.6461
 9570SOL    HW240344   2.287   0.741   8.189 -0.6440  0.4089  1.0009
 9571SOL     OW40345   3.376   4.408   2.699 -0.0737 -0.2253 -0.5684
 9571SOL    HW140346   3.344   4.496   2.678 -0.7325 -0.1502  0.7197
 9571SOL    HW240347   3.371   4.371   2.611 -0.7280 -0.5392 -0.3997
   4.73507   4.73507  17.73913
