Membrane in water
40347
    1TMC1    C1    1   0.773   4.293  12.183 -0.1671 -0.0812 -0.2784
    1TMC1    C2    2   0.686   4.404  12.177  0.2143  0.5465  0.2020
    1TMC1    C3    3   0.732   4.517  12.238 -0.1852  0.2479  0.2542
    1TMC1    C4    4   0.892   4.294  12.258  0.5654  0.5368 -0.5485
    1TMC1    C5    5   0.923   4.406  12.322  0.1778 -0.3093 -0.0911
    1TMC1    C6    6   0.842   4.519  12.312 -0.1751  0.3805 -0.1738
    1TMC1     C    7   0.699   4.168  12.192 -0.2572 -0.3960 -0.2028
    1TMC1     O    8   0.580   4.178  12.211 -0.5105  0.3452 -0.1507
    1TMC1     H    9   0.595   4.402  12.118  0.2109 -1.6109  0.2910
    1TMC1    H1   10   0.965   4.213  12.259 -1.2393 -1.0847 -0.5776
    1TMC1    H2   11   0.857   4.605  12.377 -0.1798 -0.6068  1.1254
    1TMC1    C7   12   1.064   4.434  12.375 -0.5434  0.1535  0.3320
    1TMC1    C8   13   0.648   4.636  12.237  0.1638  0.6321  0.0160
    1TMC1    O1   14   1.099   4.549  12.396  0.3250 -0.2003  0.0772
    1TMC1    O2   15   0.692   0.001  12.292  0.2435  0.0622  0.0260
    1TMC1    O3   16   1.126   4.328  12.437 -0.1618  0.1638  0.1385
    1TMC1    H3   17   1.078   4.243  12.442  2.9230 -1.4628  2.3452
    1TMC1    O5   18   0.544   4.616  12.158  0.0249  0.4082 -0.2050
    1TMC1    H5   19   0.474   4.685  12.165  0.4122  0.7743  0.0348
    2MPD2     C   20   0.611   3.672  12.099 -0.0685 -0.0490  0.0176
    2MPD2    C1   21   0.517   3.780  12.114 -0.2762 -0.5824  0.2436
    2MPD2    C2   22   0.573   3.905  12.136 -0.5956  0.4988 -0.8981
    2MPD2    C3   23   0.707   3.932  12.132  0.8222 -0.3035  0.6797
    2MPD2    C4   24   0.793   3.827  12.119 -0.0862  0.2881  0.2563
    2MPD2    C5   25   0.747   3.702  12.099 -0.0826  0.0998  0.4821
    2MPD2     H   26   0.503   3.986  12.151 -2.0851 -1.3139  1.8078
    2MPD2    H1   27   0.901   3.840  12.121 -0.0025 -0.2917 -0.5207
    2MPD2    H2   28   0.587   3.566  12.091 -0.3883  0.1006 -0.9122
    2MPD2    H3   29   0.820   3.624  12.078 -1.6386 -1.3561  0.4154
    2MPD2     N   30   0.768   4.059  12.154  0.0509  0.3591  0.1170
    2MPD2    H5   31   0.868   4.069  12.137  0.0712 -0.2401 -0.1302
    2MPD2    N1   32   0.377   3.764  12.124  0.0773  0.0920 -0.3435
    2MPD2    H7   33   0.328   3.851  12.140  3.0776  1.9279 -1.1263
    3TMC1    C1   34   0.041   0.057  11.184  0.4669 -0.0062  0.4339
    3TMC1    C2   35   0.108   4.673  11.191  0.8781 -0.0074 -0.7380
    3TMC1    C3   36   0.244   4.675  11.165 -1.3257 -0.4013  0.0459
    3TMC1    C4   37   0.111   0.168  11.152  0.1675 -0.0140  0.1802
    3TMC1    C5   38   0.247   0.159  11.125 -0.0900  0.4502  0.7314
    3TMC1    C6   39   0.319   0.042  11.124 -0.1910 -0.1035  0.2532
    3TMC1     C   40   4.640   0.045  11.198 -1.1494 -0.3216 -0.7394
    3TMC1     O   41   4.588   4.671  11.204  0.0693 -0.1381 -0.6650
    3TMC1     H   42   0.055   4.582  11.219  1.0752  0.6689  1.8027
    3TMC1    H1   43   0.053   0.260  11.150  1.5704  0.8431 -0.8651
    3TMC1    H2   44   0.427   0.043  11.117 -0.1799  1.6378  0.5993
    3TMC1    C7   45   0.304   0.275  11.059 -0.2035 -0.5129 -0.5733
    3TMC1    C8   46   0.320   4.543  11.172 -0.2412  0.1766 -0.1149
    3TMC1    O1   47   0.229   0.358  11.008  0.6866  0.7672  0.1619
    3TMC1    O2   48   0.420   4.527  11.104  0.3901  0.3620 -0.5291
    3TMC1    O3   49   0.438   0.258  11.040 -0.1872  0.0281  0.3816
    3TMC1    H3   50   0.476   0.205  11.114 -1.4273 -0.0318  0.9897
    3TMC1    O5   51   0.325   4.514  11.305  0.0051 -0.3612  0.0004
    3TMC1    H5   52   0.271   4.572  11.362 -0.1320  0.3032 -0.8102
    4MPD2     C   53   4.163   0.202  11.309  0.8307 -0.6339 -0.1142
    4MPD2    C1   54   4.250   0.304  11.328  0.0979  0.1990 -0.2473
    4MPD2    C2   55   4.386   0.293  11.310  0.4866  0.1040  0.0924
    4MPD2    C3   56   4.435   0.177  11.260 -0.2242  0.0415  0.2632
    4MPD2    C4   57   4.347   0.069  11.247  0.2497 -0.1366 -0.8381
    4MPD2    C5   58   4.209   0.087  11.258  0.5453  0.2810  0.3905
    4MPD2     H   59   4.451   0.377  11.328  0.7465 -1.0342  4.3349
    4MPD2    H1   60   4.374   4.704  11.216  1.2671 -0.2087  0.2819
    4MPD2    H2   61   4.055   0.207  11.315  1.0688 -0.1410  3.2163
    4MPD2    H3   62   4.149   0.001  11.230  1.5172 -0.9707  2.1645
    4MPD2     N   63   4.575   0.166  11.229 -0.3870 -0.1909 -0.1761
    4MPD2    H5   64   4.637   0.245  11.243  1.3251 -1.7625  0.9835
    4MPD2    N1   65   4.207   0.434  11.369 -0.7205 -0.0518  0.4752
    4MPD2    H7   66   4.261   0.515  11.340 -0.9589 -0.5027 -1.1894
    5TCq1    O1   67   0.232   1.732  12.449  0.7967 -0.0278  0.0123
    5TCq1    C1   68   0.274   1.734  12.318  0.0158 -0.3588 -0.2297
    5TCq1    O2   69   0.394   1.734  12.291 -0.5534 -0.6202  0.3974
    5TCq1    C2   70   0.164   1.778  12.240 -0.1086  0.2651  0.2764
    5TCq1    C3   71   0.031   1.787  12.286  0.6240  0.7577  0.3033
    5TCq1    C4   72   4.660   1.808  12.196 -0.2839 -0.7175  0.0789
    5TCq1    C5   73   4.694   1.795  12.065  0.0189 -0.4583 -0.0746
    5TCq1    C6   74   0.093   1.784  12.024  0.4934  0.0442 -0.4704
    5TCq1    C7   75   0.194   1.789  12.106  0.8711  0.3337 -0.6810
    5TCq1    C8   76   0.137   1.786  11.886  0.0917 -0.1361 -0.8963
    5TCq1    O4   77   0.241   1.726  11.849 -0.1779 -0.1787  0.3946
    5TCq1    C9   78   4.521   1.820  12.234 -0.2905  0.5895 -0.5422
    5TCq1    O5   79   4.478   1.817  12.354 -0.3128  0.2028 -0.1023
    5TCq1    O6   80   4.439   1.821  12.137 -0.0101 -0.2705 -0.6960
    5TCq1    H1   81   0.135   1.715  12.447  0.9759 -1.0254 -0.1021
    5TCq1    H2   82   4.731   1.776  12.388  1.0031  1.5481  0.5235
    5TCq1    H3   83   4.616   1.801  11.990  1.8007 -2.3948 -2.0890
    5TCq1    H4   84   0.295   1.792  12.066  1.2501  0.0713  0.2722
    6MPD2     C   85   4.679   1.933  11.604 -0.3686  0.1905  0.2564
    6MPD2    C1   86   0.029   1.850  11.672 -0.0638 -0.7007  0.2809
    6MPD2    C2   87   0.095   1.759  11.592  0.5180  0.0571 -0.0414
    6MPD2    C3   88   0.082   1.755  11.455  1.3021  0.2262 -0.5004
    6MPD2    C4   89   4.732   1.843  11.388  0.3684  0.1579 -0.6796
    6MPD2    C5   90   4.663   1.929  11.470  0.1457 -0.4403 -1.0701
    6MPD2     H   91   0.168   1.687  11.626  0.8744 -0.5625 -2.1362
    6MPD2    H1   92   4.709   1.834  11.282 -0.4733  0.7995 -0.5508
    6MPD2    H2   93   4.628   2.013  11.657 -1.2111  0.9116 -1.6370
    6MPD2    H3   94   4.596   2.002  11.426 -0.4370  2.6301  4.9191
    6MPD2     N   95   0.142   1.646  11.388 -0.6060 -0.1576 -0.0494
    6MPD2    H5   96   0.187   1.571  11.438  0.7883  1.1510  0.6497
    6MPD2    N1   97   0.045   1.860  11.810  0.3090  0.4952  0.6940
    6MPD2    H7   98   4.709   1.911  11.861  0.6723  0.9982  0.6933
    7TCq1    O1   99   2.078   1.171  14.516  0.1075 -0.4025 -1.2283
    7TCq1    C1  100   2.188   1.111  14.473  0.7474 -0.3599  0.3610
    7TCq1    O2  101   2.273   1.066  14.554  0.3648 -0.0544 -0.0700
    7TCq1    C2  102   2.215   1.159  14.343 -0.0901 -0.1295  0.4935
    7TCq1    C3  103   2.173   1.285  14.315 -0.3501 -1.3122  0.5469
    7TCq1    C4  104   2.201   1.334  14.189 -0.3718 -0.1087  0.0837
    7TCq1    C5  105   2.278   1.255  14.099  0.5671 -0.5169 -0.1806
    7TCq1    C6  106   2.327   1.137  14.146  0.1533 -0.4630  0.5113
    7TCq1    C7  107   2.294   1.078  14.265  0.8339  0.0596  0.2662
    7TCq1    C8  108   2.346   1.032  14.045 -0.2774  0.0322 -0.1630
    7TCq1    O4  109   2.391   0.919  14.080  0.6247 -0.1153 -0.1758
    7TCq1    C9  110   2.146   1.456  14.138  0.4814 -0.7889 -0.1393
    7TCq1    O5  111   2.076   1.529  14.213 -0.0925  0.6595 -0.1925
    7TCq1    O6  112   2.179   1.486  14.016 -0.0563  0.2210  0.3547
    7TCq1    H1  113   2.020   1.198  14.441 -1.6702  0.4817  0.4514
    7TCq1    H2  114   2.103   1.345  14.372  0.3426 -0.3396  0.3759
    7TCq1    H3  115   2.316   1.304  14.010  0.6578 -1.0611 -0.4442
    7TCq1    H4  116   2.327   0.977  14.285 -1.5749 -0.9303 -0.8063
    8MPD2     C  117   2.357   0.840  13.570  0.2659 -0.4942 -0.0743
    8MPD2    C1  118   2.364   0.775  13.691  0.2723  0.0908  0.0869
    8MPD2    C2  119   2.331   0.851  13.804 -0.0572 -0.0881  0.0403
    8MPD2    C3  120   2.301   0.987  13.797 -0.4157 -0.3945 -0.0507
    8MPD2    C4  121   2.289   1.045  13.672  0.0676  0.4200 -0.1170
    8MPD2    C5  122   2.318   0.968  13.563 -0.0857  0.6209  0.8554
    8MPD2     H  123   2.318   0.799  13.898  1.3079  1.6918  1.2119
    8MPD2    H1  124   2.269   1.152  13.663  0.4610  0.5167  0.1594
    8MPD2    H2  125   2.385   0.786  13.480 -4.0154 -1.3347 -0.8989
    8MPD2    H3  126   2.316   1.021  13.469 -1.6765  1.1239  1.1667
    8MPD2     N  127   2.303   1.068  13.916 -0.1948 -0.1070 -0.0969
    8MPD2    H5  128   2.266   1.162  13.905 -0.6395 -0.3364 -0.5288
    8MPD2    N1  129   2.403   0.638  13.693 -0.4207  0.2350 -0.7937
    8MPD2    H7  130   2.423   0.599  13.602  1.7856  0.1048 -0.2685
    9TMC1    C1  131   0.658   4.607  11.814  0.0800 -0.1059  0.8768
    9TMC1    C2  132   0.573   4.519  11.757  0.3493  0.4086  0.0503
    9TMC1    C3  133   0.608   4.388  11.759 -0.3203 -0.5730 -0.8675
    9TMC1    C4  134   0.781   4.573  11.857  0.5754  0.3175 -0.3820
    9TMC1    C5  135   0.810   4.441  11.857 -0.8297 -0.3687 -0.9111
    9TMC1    C6  136   0.725   4.342  11.815  0.4053  0.8567  0.9376
    9TMC1     C  137   0.615   0.015  11.827 -0.5321 -0.3905 -0.0537
    9TMC1     O  138   0.705   0.100  11.839  0.0011 -0.7472 -0.4808
    9TMC1     H  139   0.471   4.546  11.729 -0.1451 -2.8200 -1.2125
    9TMC1    H1  140   0.847   4.639  11.912 -0.1456 -0.1393  1.0448
    9TMC1    H2  141   0.730   4.235  11.831 -0.1357  0.8291  0.8978
    9TMC1    C7  142   0.944   4.401  11.892  0.7060 -0.1013 -0.1934
    9TMC1    C8  143   0.499   4.305  11.752 -1.1165 -0.5392 -0.3188
    9TMC1    O1  144   1.006   4.457  11.981 -0.1664 -0.3577  0.4469
    9TMC1    O2  145   0.478   4.207  11.827 -0.4036 -0.0491  0.5748
    9TMC1    O3  146   0.947   4.267  11.877 -0.1942  0.1470 -0.2892
    9TMC1    H3  147   0.892   4.226  11.806 -0.7612  0.9494 -0.3069
    9TMC1    O5  148   0.461   4.320  11.625 -0.3577 -0.1663  0.2243
    9TMC1    H5  149   0.513   4.390  11.579 -0.8009 -0.0214 -0.0561
   10MPD2     C  150   0.453   0.282  11.789  0.0889  0.5397  0.3648
   10MPD2    C1  151   0.404   0.152  11.820 -0.6490  0.0458 -0.0734
   10MPD2    C2  152   0.266   0.143  11.831 -0.3850 -0.3740  0.0748
   10MPD2    C3  153   0.182   0.254  11.830  0.3675  0.4313 -0.0925
   10MPD2    C4  154   0.236   0.375  11.801 -0.3957 -0.1184 -1.0518
   10MPD2    C5  155   0.369   0.390  11.772  0.5561 -0.6859  0.3068
   10MPD2     H  156   0.220   0.048  11.852  0.6523 -1.2082 -1.4014
   10MPD2    H1  157   0.169   0.459  11.805  1.9547  1.6625  0.9555
   10MPD2    H2  158   0.561   0.289  11.782  0.1627 -0.0215  0.9560
   10MPD2    H3  159   0.417   0.482  11.742  2.1339 -0.9944  1.8403
   10MPD2     N  160   0.044   0.245  11.880 -0.2519 -1.1452 -0.0143
   10MPD2    H5  161   0.004   0.327  11.924  2.8909  2.2171 -3.3622
   10MPD2    N1  162   0.476   0.028  11.821 -0.5111  0.0902 -0.0348
   10MPD2    H7  163   0.419   4.681  11.835  1.6794 -1.3072  0.7567
   11TCq1    O1  164   0.513   4.315  15.256  0.1250  0.7835  0.3528
   11TCq1    C1  165   0.640   4.331  15.289  0.9211  0.0756 -0.1359
   11TCq1    O2  166   0.684   4.302  15.396 -0.2006  0.0966 -0.4919
   11TCq1    C2  167   0.709   4.362  15.168  0.3689  0.0716  0.6390
   11TCq1    C3  168   0.786   4.258  15.138 -0.3782  0.3770  0.3825
   11TCq1    C4  169   0.820   4.229  15.005 -0.2452  0.7028  0.6404
   11TCq1    C5  170   0.775   4.308  14.909  1.0370  0.4741  0.4566
   11TCq1    C6  171   0.686   4.405  14.943 -0.1914  0.7911 -0.2095
   11TCq1    C7  172   0.655   4.435  15.070 -1.1646 -0.1198  0.4215
   11TCq1    C8  173   0.591   4.457  14.842 -0.1476  0.2127 -1.1392
   11TCq1    O4  174   0.492   4.509  14.888  0.3044 -0.2590 -0.4000
   11TCq1    C9  175   0.897   4.109  14.973  0.4460  0.2701 -0.2483
   11TCq1    O5  176   0.931   4.081  14.855 -0.6332  0.5831  0.0231
   11TCq1    O6  177   0.950   4.059  15.080  0.0598  0.0404  0.6131
   11TCq1    H1  178   0.487   4.303  15.162 -1.2822 -0.7038  0.9168
   11TCq1    H2  179   0.817   4.194  15.220 -0.8183  0.9629  1.0097
   11TCq1    H3  180   0.792   4.284  14.804 -1.5647  0.0849  0.1431
   11TCq1    H4  181   0.598   4.523  15.099 -0.8079  0.1774  0.2204
   12MPD2     C  182   0.423   4.529  14.616 -0.5340  0.1279  0.1198
   12MPD2    C1  183   0.527   4.437  14.608  0.1298 -0.4555  0.4812
   12MPD2    C2  184   0.535   4.351  14.497 -0.0857  0.2203  0.8952
   12MPD2    C3  185   0.433   4.352  14.402 -0.5626 -0.2650  0.1813
   12MPD2    C4  186   0.345   4.453  14.412 -0.7837 -0.3231 -0.4651
   12MPD2    C5  187   0.333   4.534  14.524  0.0427 -0.0298  0.3294
   12MPD2     H  188   0.611   4.275  14.486 -0.2450  0.0479  0.9799
   12MPD2    H1  189   0.267   4.472  14.339 -1.3055 -2.5828 -0.4900
   12MPD2    H2  190   0.407   4.597  14.699 -2.4792  0.5127 -0.5705
   12MPD2    H3  191   0.250   4.604  14.524  0.1144  0.0600 -0.5827
   12MPD2     N  192   0.423   4.258  14.299 -0.2394  0.2197 -0.2557
   12MPD2    H5  193   0.344   4.265  14.235 -0.6705  1.0491  0.3689
   12MPD2    N1  194   0.611   4.412  14.715 -0.0409  0.1568  0.6829
   12MPD2    H7  195   0.696   4.361  14.692  2.2070  3.9896  0.3692
   13TCq1    O1  196   0.266   3.771  11.297 -0.1405  0.1664 -0.1129
   13TCq1    C1  197   0.223   3.897  11.284  0.8594 -0.2784 -0.0553
   13TCq1    O2  198   0.252   3.988  11.361  0.0838  0.4485 -0.0320
   13TCq1    C2  199   0.143   3.913  11.172 -0.4545  0.5661  0.2254
   13TCq1    C3  200   0.149   3.834  11.059 -0.1513  0.6928 -0.3670
   13TCq1    C4  201   0.056   3.855  10.960 -0.2972 -0.4680  0.9044
   13TCq1    C5  202   4.699   3.957  10.968 -0.3161 -0.4021  0.0151
   13TCq1    C6  203   4.715   4.042  11.074  0.3389 -0.2697  1.0175
   13TCq1    C7  204   0.066   4.024  11.177 -0.3587  0.2491 -0.8081
   13TCq1    C8  205   4.637   4.169  11.079 -0.2284 -0.0237 -0.5157
   13TCq1    O4  206   4.657   4.251  11.174 -0.0056  0.5412  0.1277
   13TCq1    C9  207   0.048   3.762  10.846  0.6044  0.7278  0.8109
   13TCq1    O5  208   4.699   3.791  10.756  0.2511  0.2061 -0.0342
   13TCq1    O6  209   0.128   3.664  10.839  0.3233  0.0013  0.1187
   13TCq1    H1  210   0.215   3.709  11.239  0.2752 -1.1491  0.9242
   13TCq1    H2  211   0.226   3.761  11.039  1.5653  1.9005  1.7713
   13TCq1    H3  212   4.626   3.979  10.891 -1.0989  0.9599  1.1542
   13TCq1    H4  213   0.067   4.097  11.257 -0.6228 -0.4365 -0.1782
   14MPD2     C  214   4.355   4.307  10.889  0.3792 -0.5078  0.2754
   14MPD2    C1  215   4.432   4.279  10.998 -0.1233  0.6176  1.0991
   14MPD2    C2  216   4.403   4.335  11.121  0.7827 -0.6530 -0.1570
   14MPD2    C3  217   4.290   4.401  11.152 -0.5397  0.1859  1.3671
   14MPD2    C4  218   4.205   4.432  11.038 -0.1215 -0.0984 -0.0055
   14MPD2    C5  219   4.243   4.388  10.913 -0.7147  0.3842 -1.0029
   14MPD2     H  220   4.458   4.310  11.211 -1.2467  0.3726  1.3925
   14MPD2    H1  221   4.105   4.475  11.038 -0.1416 -0.2017 -3.0586
   14MPD2    H2  222   4.375   4.272  10.789 -2.2898  2.2228 -1.2316
   14MPD2    H3  223   4.185   4.405  10.823  0.9750 -0.1694 -2.2023
   14MPD2     N  224   4.266   4.443  11.285  0.5264  0.3225  0.6484
   14MPD2    H5  225   4.344   4.428  11.348  1.0398  1.2391  0.2245
   14MPD2    N1  226   4.542   4.191  10.976  0.5076  0.1836 -0.0070
   14MPD2    H7  227   4.548   4.142  10.888 -0.3647 -1.5970  0.9412
   15TCq1    O1  228   2.331   3.444   1.978 -0.2126 -0.2854  0.1270
   15TCq1    C1  229   2.244   3.533   1.909  0.1898 -0.3292 -0.0411
   15TCq1    O2  230   2.216   3.646   1.949  0.3772 -0.0468  0.2141
   15TCq1    C2  231   2.179   3.465   1.801  0.4563 -0.0883 -0.8958
   15TCq1    C3  232   2.045   3.481   1.771  0.3396 -0.4949 -0.3752
   15TCq1    C4  233   1.988   3.418   1.669  0.2770  0.4304  0.8777
   15TCq1    C5  234   2.057   3.330   1.586  0.0567  0.2237  0.3143
   15TCq1    C6  235   2.187   3.313   1.620  0.2955 -0.3994  0.0530
   15TCq1    C7  236   2.250   3.373   1.728 -0.0771 -0.4166 -0.5618
   15TCq1    C8  237   2.255   3.203   1.548  0.3334  0.0005  0.8149
   15TCq1    O4  238   2.374   3.182   1.578  0.2501 -0.9135 -0.4064
   15TCq1    C9  239   1.859   3.457   1.630  0.3807  0.4059  0.5695
   15TCq1    O5  240   1.804   3.376   1.554  0.1767  0.0148 -0.5161
   15TCq1    O6  241   1.790   3.533   1.706  0.1571 -0.0987  0.4274
   15TCq1    H1  242   2.347   3.359   1.931 -0.8401 -0.4015  0.1318
   15TCq1    H2  243   1.991   3.561   1.820  1.4811  0.0459  0.0199
   15TCq1    H3  244   2.004   3.303   1.495  1.0541  2.9331 -1.0582
   15TCq1    H4  245   2.357   3.366   1.746 -0.1767  0.2813  0.2947
   16MPD2     C  246   2.106   3.002   1.287  0.0896  0.5449 -0.4090
   16MPD2    C1  247   2.212   3.066   1.349  0.9140  0.1730 -0.2299
   16MPD2    C2  248   2.342   3.025   1.320  0.2247 -0.0747 -0.2010
   16MPD2    C3  249   2.370   2.928   1.223  0.2142 -0.3101 -0.6696
   16MPD2    C4  250   2.261   2.870   1.153  0.0061 -0.0317 -0.3579
   16MPD2    C5  251   2.134   2.914   1.185  0.2579 -0.3173 -0.4304
   16MPD2     H  252   2.418   3.070   1.384 -1.2667  1.6849  0.3420
   16MPD2    H1  253   2.270   2.800   1.070 -1.7861 -1.6793  0.8313
   16MPD2    H2  254   2.005   3.026   1.318 -0.8173 -2.6647 -0.9479
   16MPD2    H3  255   2.048   2.874   1.134 -0.4735 -0.4666  0.9050
   16MPD2     N  256   2.505   2.884   1.214 -0.2240  0.3249  0.0198
   16MPD2    H5  257   2.564   2.935   1.279 -0.7961  0.2416  0.5956
   16MPD2    N1  258   2.177   3.154   1.453  0.0892 -0.3171  0.4178
   16MPD2    H7  259   2.079   3.180   1.459 -0.1732 -0.7458 -2.1823
   17TMC1    C1  260   4.513   3.515  11.028  0.1868  0.2941  0.4937
   17TMC1    C2  261   4.638   3.493  10.982  0.1178 -0.8454  0.1006
   17TMC1    C3  262   4.649   3.398  10.882  0.1315 -0.0155  0.3629
   17TMC1    C4  263   4.406   3.453  10.968 -0.8455  0.2328 -0.6557
   17TMC1    C5  264   4.428   3.370  10.859  0.1780  0.0129 -0.0524
   17TMC1    C6  265   4.550   3.330  10.826  0.1898  0.5218  0.0042
   17TMC1     C  266   4.486   3.631  11.110  0.2174  0.6382  0.1874
   17TMC1     O  267   4.382   3.703  11.083 -0.9780 -0.2462  0.6241
   17TMC1     H  268   4.724   3.534  11.035 -0.6343  1.5040 -0.5027
   17TMC1    H1  269   4.304   3.469  11.001 -0.5502  1.3112 -0.2737
   17TMC1    H2  270   4.584   3.274  10.739  1.1192 -0.4257  0.9802
   17TMC1    C7  271   4.327   3.274  10.832 -0.4795 -0.1557 -0.1832
   17TMC1    C8  272   0.038   3.333  10.860 -0.2822 -0.3211 -0.1840
   17TMC1    O1  273   4.346   3.156  10.846 -0.1831  0.0321  0.9929
   17TMC1    O2  274   0.033   3.213  10.840  0.4591  0.1964  0.2708
   17TMC1    O3  275   4.201   3.338  10.831  0.2822  0.5321 -0.0077
   17TMC1    H3  276   4.223   3.428  10.798  0.4000 -0.1370 -1.7298
   17TMC1    O5  277   0.142   3.418  10.851  0.6830 -0.1789  0.9662
   17TMC1    H5  278   0.117   3.513  10.851  1.9084  0.1397 -0.5373
   18MPD2     C  279   4.494   3.863  11.300 -0.0825 -0.5518  0.1430
   18MPD2    C1  280   4.571   3.750  11.316 -0.8385  0.4926 -0.0446
   18MPD2    C2  281   4.674   3.748  11.404 -0.2095  0.0441 -0.5316
   18MPD2    C3  282   4.693   3.851  11.492 -0.0945  0.4870  0.6659
   18MPD2    C4  283   4.624   3.968  11.467 -0.5918 -0.7133 -0.0320
   18MPD2    C5  284   4.517   3.973  11.380  0.2213 -0.3839  0.4791
   18MPD2     H  285   0.014   3.671  11.398 -0.8393 -0.8435  2.9991
   18MPD2    H1  286   4.654   4.054  11.525  0.1841 -0.8855 -0.1732
   18MPD2    H2  287   4.421   3.883  11.222  1.2897  0.7727 -0.8087
   18MPD2    H3  288   4.465   4.068  11.382 -0.7075 -0.9076  0.9385
   18MPD2     N  289   0.063   3.854  11.589  0.9531  0.2199 -0.5259
   18MPD2    H5  290   0.089   3.941  11.635  0.8925 -0.3700  0.6407
   18MPD2    N1  291   4.564   3.637  11.227  0.1063  0.1143  0.2789
   18MPD2    H7  292   4.637   3.566  11.231  0.8144  0.7972 -0.7117
   19TMC2    C1  293   1.842   4.109  13.682  0.0749 -0.2161  0.0471
   19TMC2    C2  294   1.804   4.155  13.557 -0.1345 -0.7363  0.2234
   19TMC2    C3  295   1.667   4.172  13.545  0.0518  0.2804 -0.0566
   19TMC2    C4  296   1.756   4.088  13.787 -0.6446  0.1106 -0.1625
   19TMC2    C5  297   1.621   4.122  13.766 -0.0046  1.0813  0.8174
   19TMC2    C6  298   1.572   4.159  13.643  0.4930  0.6709 -0.5037
   19TMC2     C  299   1.964   4.024  13.684  0.3971 -0.5591 -0.2666
   19TMC2     O  300   2.047   4.049  13.599  0.2558  0.1521  0.7542
   19TMC2     H  301   1.869   4.159  13.470 -0.1381 -2.0231  0.1679
   19TMC2    H1  302   1.790   4.071  13.889 -0.4764  1.8132  0.0780
   19TMC2    H2  303   1.466   4.158  13.621  0.7688  2.9240 -1.8564
   19TMC2    C7  304   1.530   4.039  13.846 -0.1282 -0.9032  0.5151
   19TMC2    C8  305   1.624   4.185  13.410 -0.3521  0.3557  0.1011
   19TMC2    O1  306   1.584   3.955  13.913 -0.4270 -0.2831 -0.0459
   19TMC2    O2  307   1.678   4.141  13.311  0.4051 -0.8759  0.3535
   19TMC2    O5  308   1.569   4.304  13.411 -0.3019 -0.2398  0.4656
   19TMC2    H5  309   1.524   4.339  13.491  0.0127 -1.1433  1.0420
   20MPD2     C  310   2.209   3.880  13.772 -0.1508  0.2797  0.1351
   20MPD2    C1  311   2.096   3.894  13.848  0.1112 -0.8578  0.3769
   20MPD2    C2  312   2.104   3.869  13.984 -0.7072 -0.0859 -0.4904
   20MPD2    C3  313   2.219   3.831  14.039 -0.2361  0.4728  0.6484
   20MPD2    C4  314   2.328   3.801  13.962  0.1687  0.0957 -0.9448
   20MPD2    C5  315   2.323   3.825  13.828  0.2977 -0.1283 -0.7544
   20MPD2     H  316   2.024   3.891  14.054 -1.1483 -1.3860 -0.5858
   20MPD2    H1  317   2.423   3.765  14.000 -1.3844 -0.5242  2.3444
   20MPD2    H2  318   2.208   3.898  13.665 -1.0303  1.3863  0.3249
   20MPD2    H3  319   2.414   3.822  13.769 -0.6031  0.6751 -2.2144
   20MPD2     N  320   2.240   3.819  14.183  0.0277  0.0017 -0.4142
   20MPD2    H5  321   2.336   3.796  14.206 -0.7647 -1.8490  1.0350
   20MPD2    N1  322   1.972   3.955  13.804 -0.1392  0.0002  0.1202
   20MPD2    H7  323   1.883   3.944  13.853  0.0039  0.4985  0.4846
   21TMC2    C1  324   4.094   4.019  15.002 -0.0385 -0.1430 -0.1162
   21TMC2    C2  325   4.109   3.891  15.056  0.5000  0.0746  0.0907
   21TMC2    C3  326   4.007   3.848  15.136  0.1047 -0.5760 -0.0853
   21TMC2    C4  327   3.982   4.097  15.020 -0.7449  0.3193  0.0797
   21TMC2    C5  328   3.886   4.049  15.100 -0.7243  0.1705 -1.1803
   21TMC2    C6  329   3.893   3.925  15.159 -0.0436  0.4916 -0.6099
   21TMC2     C  330   4.218   4.082  14.972  0.3119 -0.5886 -0.1418
   21TMC2     O  331   4.317   4.011  14.983  0.7959  0.1041 -0.2340
   21TMC2     H  332   4.194   3.828  15.032  0.4711  0.8789 -2.1254
   21TMC2    H1  333   3.981   4.198  14.982  6.3997  0.5516  0.3662
   21TMC2    H2  334   3.814   3.891  15.224  2.7200 -0.6134  2.1638
   21TMC2    C7  335   3.817   4.138  15.189  0.1533  0.1580 -0.4857
   21TMC2    C8  336   4.007   3.709  15.172  0.5242  0.2417  0.7200
   21TMC2    O1  337   3.778   4.091  15.296  0.2309 -0.3026  0.6330
   21TMC2    O2  338   4.067   3.617  15.113  0.0603  0.2362 -0.1162
   21TMC2    O5  339   3.958   3.708  15.297 -0.5817  0.3163  0.6342
   21TMC2    H5  340   3.969   3.787  15.353  0.1243  0.6945 -0.0478
   22MPD2     C  341   4.521   4.495  14.889 -0.2591  0.2132 -0.3808
   22MPD2    C1  342   4.544   4.363  14.852 -0.3176 -0.5125  0.0797
   22MPD2    C2  343   4.450   4.267  14.884 -0.5365  0.3940 -0.1122
   22MPD2    C3  344   4.329   4.304  14.941  0.5317  0.4179  0.7235
   22MPD2    C4  345   4.306   4.432  14.981  0.3222 -0.0076 -0.9608
   22MPD2    C5  346   4.400   4.527  14.955  0.6905  0.4185  0.2727
   22MPD2     H  347   4.469   4.164  14.855 -2.7370  0.5760 -2.2294
   22MPD2    H1  348   4.211   4.465  15.022  0.1065  0.1941 -1.6156
   22MPD2    H2  349   4.594   4.574  14.875 -1.7822  1.7004  0.0170
   22MPD2    H3  350   4.383   4.632  14.974  1.4146  0.2335  1.9433
   22MPD2     N  351   4.217   4.218  14.966  0.6060 -0.3345 -0.5830
   22MPD2    H5  352   4.132   4.267  14.991  0.6575 -0.5367 -0.0191
   22MPD2    N1  353   4.663   4.320  14.783  0.2053 -0.2126  0.3672
   22MPD2    H7  354   4.668   4.219  14.773  0.1221 -0.4031  2.4171
   23TMC2    C1  355   0.791   0.432  14.915  0.5060  0.0434  0.8943
   23TMC2    C2  356   0.824   0.507  14.803  0.5883  0.1329 -0.0445
   23TMC2    C3  357   0.714   0.568  14.738  0.2461  0.1152 -0.2278
   23TMC2    C4  358   0.662   0.416  14.956 -0.6249 -0.1442 -0.0289
   23TMC2    C5  359   0.559   0.479  14.883  0.3308 -0.4215  0.3050
   23TMC2    C6  360   0.583   0.558  14.776 -0.3908  0.5727  0.5856
   23TMC2     C  361   0.892   0.349  14.978  0.3429  0.4081 -0.1593
   23TMC2     O  362   0.864   0.281  15.077 -0.6867  0.0995  0.1077
   23TMC2     H  363   0.923   0.515  14.761  0.1896 -0.0709 -1.0211
   23TMC2    H1  364   0.637   0.338  15.026  0.8204  0.0342  0.6807
   23TMC2    H2  365   0.505   0.612  14.724  0.3987  0.4812 -0.7029
   23TMC2    C7  366   0.431   0.449  14.937  0.3682 -0.3735 -0.5160
   23TMC2    C8  367   0.720   0.627  14.610  0.1126 -0.4374  0.1356
   23TMC2    O1  368   0.435   0.363  15.026 -0.3724 -0.5877 -0.6405
   23TMC2    O2  369   0.631   0.691  14.557  0.1814  0.0523  0.3609
   23TMC2    O5  370   0.822   0.568  14.547 -0.7678 -0.1559 -0.4205
   23TMC2    H5  371   0.865   0.490  14.588 -1.2892  1.2324  2.7136
   24MPD2     C  372   1.365   0.171  15.025 -0.3805 -0.3740  0.4964
   24MPD2    C1  373   1.273   0.194  15.121 -0.5849 -0.2437  0.0070
   24MPD2    C2  374   1.151   0.252  15.083 -0.1492 -0.1964 -0.6706
   24MPD2    C3  375   1.128   0.285  14.951 -0.1594  0.0288 -1.0453
   24MPD2    C4  376   1.226   0.256  14.852 -0.1770 -0.0428  0.1651
   24MPD2    C5  377   1.345   0.204  14.891  0.5136 -0.1162  0.0917
   24MPD2     H  378   1.081   0.284  15.159 -1.2288  0.8818 -2.1185
   24MPD2    H1  379   1.222   0.293  14.751  0.1028 -0.4319  0.0119
   24MPD2    H2  380   1.461   0.124  15.043  0.2709  0.3793 -0.9930
   24MPD2    H3  381   1.423   0.186  14.818  1.3195 -0.0178  0.9257
   24MPD2     N  382   1.005   0.342  14.906 -0.0538  0.5480  0.2797
   24MPD2    H5  383   1.003   0.387  14.815 -2.1988  1.2006  0.6420
   24MPD2    N1  384   1.299   0.177  15.262 -0.0793 -0.5507  0.3176
   24MPD2    H7  385   1.233   0.210  15.332  1.9326  2.7574  0.6190
   25TMC2    C1  386   4.208   3.513  11.679  0.3851  0.9718 -0.2485
   25TMC2    C2  387   4.276   3.615  11.622 -0.4143 -1.1186 -0.1285
   25TMC2    C3  388   4.231   3.736  11.664  0.4287 -0.2140  0.0230
   25TMC2    C4  389   4.119   3.520  11.783  0.1377  0.4170  0.8890
   25TMC2    C5  390   4.083   3.647  11.821  0.6192 -0.1928  0.4268
   25TMC2    C6  391   4.137   3.758  11.762  0.5198  0.4336  0.2788
   25TMC2     C  392   4.248   3.379  11.640  0.1898  0.6997 -0.1557
   25TMC2     O  393   4.364   3.368  11.609 -0.0043 -0.5872 -0.1811
   25TMC2     H  394   4.349   3.602  11.543 -1.1185 -1.3698 -0.7451
   25TMC2    H1  395   4.084   3.435  11.839 -0.5760  0.9815  1.2978
   25TMC2    H2  396   4.109   3.860  11.789 -1.0332  0.5062 -1.6812
   25TMC2    C7  397   4.000   3.661  11.949 -0.0703  0.5349 -0.7864
   25TMC2    C8  398   4.313   3.845  11.642  0.0769  0.3538  0.3349
   25TMC2    O1  399   3.996   3.566  12.026  0.0245 -0.2749 -0.7769
   25TMC2    O2  400   4.275   3.955  11.611  0.2443 -0.0752  0.0375
   25TMC2    O5  401   4.421   3.811  11.714 -0.2201 -0.0703  0.3760
   25TMC2    H5  402   4.430   3.715  11.732  1.9038 -0.3261 -2.1564
   26MPD2     C  403   4.138   2.923  11.432 -0.4943  0.4343 -0.4574
   26MPD2    C1  404   4.017   2.979  11.473  0.6882 -0.0601 -0.2730
   26MPD2    C2  405   4.019   3.092  11.551 -0.1487  0.7225  0.0580
   26MPD2    C3  406   4.145   3.154  11.579 -0.2293  0.7026  0.0252
   26MPD2    C4  407   4.265   3.092  11.540  0.3004 -0.7073  0.1420
   26MPD2    C5  408   4.256   2.974  11.471  0.2348 -0.1555 -0.3443
   26MPD2     H  409   3.932   3.147  11.583  0.4948  1.6324  0.2497
   26MPD2    H1  410   4.360   3.142  11.557 -1.0005  2.2185 -1.2368
   26MPD2    H2  411   4.139   2.835  11.369  0.4812  0.1702 -0.0745
   26MPD2    H3  412   4.351   2.944  11.429 -0.1503 -1.4427 -0.2848
   26MPD2     N  413   4.141   3.291  11.626  0.1357  0.5938  0.0347
   26MPD2    H5  414   4.054   3.343  11.637 -0.5504 -0.5501  0.0462
   26MPD2    N1  415   3.896   2.912  11.432 -0.0791  0.0704  0.7241
   26MPD2    H7  416   3.898   2.830  11.373 -1.2071  0.6705 -0.1505
   27TMC2    C1  417   2.969   0.732  12.645  0.0887  1.0210  0.3311
   27TMC2    C2  418   2.918   0.859  12.626  0.4259 -0.1607 -0.0256
   27TMC2    C3  419   2.946   0.953  12.722 -0.1263  0.4199  0.0772
   27TMC2    C4  420   3.055   0.710  12.743  0.6980  0.4618 -0.1426
   27TMC2    C5  421   3.070   0.804  12.845  0.6671 -0.4479 -0.0051
   27TMC2    C6  422   3.022   0.933  12.834 -0.1403 -0.8929  0.4475
   27TMC2     C  423   2.869   0.624  12.625 -0.2751 -0.0292 -0.5986
   27TMC2     O  424   2.804   0.644  12.525 -0.1980  0.4926  0.5477
   27TMC2     H  425   2.847   0.882  12.548 -1.3526 -3.4886  0.5805
   27TMC2    H1  426   3.100   0.612  12.756 -1.2972 -0.7277 -2.1144
   27TMC2    H2  427   3.027   1.012  12.907 -4.6829 -0.1519 -0.0317
   27TMC2    C7  428   3.133   0.764  12.963  0.1093 -0.1082  0.7974
   27TMC2    C8  429   2.922   1.094  12.684 -0.6323  0.2429  0.6350
   27TMC2    O1  430   3.105   0.647  12.985  0.1099 -0.5054 -0.2312
   27TMC2    O2  431   2.826   1.111  12.606 -0.1485 -0.1660  0.3475
   27TMC2    O5  432   3.017   1.178  12.733  0.1516 -0.2549 -0.0953
   27TMC2    H5  433   3.081   1.137  12.795  0.0166  0.6974  0.6642
   28MPD2     C  434   2.581   0.248  12.809  0.8008 -0.2159  0.8040
   28MPD2    C1  435   2.589   0.301  12.683 -0.3065 -0.6031 -0.2557
   28MPD2    C2  436   2.682   0.405  12.661  0.7939  0.0374  0.6527
   28MPD2    C3  437   2.764   0.450  12.763 -0.0022  0.2422 -0.4370
   28MPD2    C4  438   2.745   0.397  12.889 -0.6074  0.1369  0.1439
   28MPD2    C5  439   2.649   0.303  12.913 -0.7263 -0.1702  0.7622
   28MPD2     H  440   2.696   0.443  12.560  0.9775 -0.3534  0.5314
   28MPD2    H1  441   2.812   0.431  12.967  0.6097 -2.8123  0.3725
   28MPD2    H2  442   2.506   0.171  12.820  0.4182  0.3021  1.8726
   28MPD2    H3  443   2.630   0.266  13.014 -1.1816 -0.2142  0.6587
   28MPD2     N  444   2.864   0.545  12.737 -0.2829 -1.1068  0.1824
   28MPD2    H5  445   2.931   0.569  12.810 -0.2078 -2.7234  0.6342
   28MPD2    N1  446   2.490   0.257  12.589 -0.0683  0.3198  0.2945
   28MPD2    H7  447   2.433   0.175  12.611 -0.0021 -0.0465 -0.8908
   29TMC2    C1  448   3.123   2.565  14.324 -0.1263 -0.2296 -0.7186
   29TMC2    C2  449   3.065   2.604  14.443 -0.3671  0.1716 -0.7872
   29TMC2    C3  450   3.078   2.732  14.486 -0.5783 -0.0709 -1.0735
   29TMC2    C4  451   3.197   2.661  14.255  0.1244 -0.5532 -0.0488
   29TMC2    C5  452   3.218   2.785  14.303 -0.0681  1.0073 -0.2026
   29TMC2    C6  453   3.148   2.825  14.414 -0.5771  0.0304  0.8530
   29TMC2     C  454   3.124   2.425  14.287  0.7879  0.1805 -0.1928
   29TMC2     O  455   3.123   2.344  14.378  0.3696 -0.3550  0.3031
   29TMC2     H  456   2.995   2.533  14.486 -0.9313  0.0863 -1.8372
   29TMC2    H1  457   3.269   2.621  14.184  0.7096  0.3416  0.0373
   29TMC2    H2  458   3.137   2.930  14.441 -1.7493 -0.1174  0.9438
   29TMC2    C7  459   3.304   2.873  14.226 -0.2083  0.3114 -0.4558
   29TMC2    C8  460   2.981   2.786  14.581  0.0015 -0.5744  0.0579
   29TMC2    O1  461   3.302   2.872  14.108  0.1238  0.3402 -0.7346
   29TMC2    O2  462   2.862   2.789  14.563  0.4609 -0.2771 -0.4188
   29TMC2    O5  463   3.042   2.773  14.701  0.4978  0.1246  0.4154
   29TMC2    H5  464   3.139   2.758  14.691  0.6505  1.5558 -0.3657
   30MPD2     C  465   3.121   2.041  13.952  0.5698  0.3831 -0.7015
   30MPD2    C1  466   3.142   2.036  14.087  0.0667  1.1323 -0.3416
   30MPD2    C2  467   3.150   2.159  14.157  0.1214  0.4772 -0.1749
   30MPD2    C3  468   3.119   2.277  14.090  0.2234 -0.2060 -0.3614
   30MPD2    C4  469   3.082   2.279  13.955 -0.2989  0.0426 -0.5385
   30MPD2    C5  470   3.085   2.161  13.889 -0.1171  0.6995 -0.7338
   30MPD2     H  471   3.186   2.159  14.259 -1.1291  2.1488  0.2620
   30MPD2    H1  472   3.062   2.368  13.897 -0.0096  1.3698  1.3958
   30MPD2    H2  473   3.130   1.949  13.895  2.3000  0.3601 -0.3982
   30MPD2    H3  474   3.069   2.165  13.781  0.2748 -1.5590 -0.8769
   30MPD2     N  475   3.132   2.404  14.154 -0.0526 -0.0187  0.2453
   30MPD2    H5  476   3.101   2.486  14.103  0.7683  0.3012  0.2632
   30MPD2    N1  477   3.153   1.917  14.158 -0.1717  0.9170 -0.0099
   30MPD2    H7  478   3.159   1.928  14.258  0.7948 -0.9131  0.1455
   31TMC2    C1  479   0.584   1.162  15.088  0.2685  0.2809 -0.9191
   31TMC2    C2  480   0.449   1.162  15.113  0.5317  0.5739 -0.4996
   31TMC2    C3  481   0.416   1.099  15.235  0.5316 -0.5185 -0.0851
   31TMC2    C4  482   0.676   1.116  15.177 -0.2220 -0.4002 -0.6546
   31TMC2    C5  483   0.641   1.051  15.294 -0.4702  0.3229 -0.1499
   31TMC2    C6  484   0.506   1.042  15.319  0.9586  0.0664 -0.2204
   31TMC2     C  485   0.631   1.236  14.968 -1.1962 -0.2500  0.2266
   31TMC2     O  486   0.544   1.277  14.897  0.2742  0.6343  0.3676
   31TMC2     H  487   0.373   1.213  15.056  1.4551  1.9914 -0.4577
   31TMC2    H1  488   0.781   1.141  15.164 -0.6405  1.5103 -0.2504
   31TMC2    H2  489   0.469   0.992  15.407 -1.1790  0.4763 -0.8740
   31TMC2    C7  490   0.746   1.015  15.389  0.2320 -0.3879  0.5180
   31TMC2    C8  491   0.293   1.125  15.301 -0.1058 -0.8703 -0.2455
   31TMC2    O1  492   0.701   0.979  15.497 -0.2722 -0.0474  0.1178
   31TMC2    O2  493   0.272   1.088  15.414  0.5888 -0.0323  0.8373
   31TMC2    O5  494   0.217   1.206  15.219  0.0697  0.2546  0.3381
   31TMC2    H5  495   0.140   1.235  15.273 -0.7896 -0.5468 -0.4641
   32MPD2     C  496   0.954   1.387  14.596 -0.3077  0.7961 -0.4741
   32MPD2    C1  497   0.818   1.409  14.612 -0.0656 -0.4282 -0.1078
   32MPD2    C2  498   0.762   1.351  14.727 -0.3880  0.7645 -0.7201
   32MPD2    C3  499   0.835   1.287  14.827 -0.5862 -0.8610 -0.1350
   32MPD2    C4  500   0.969   1.269  14.803 -0.0712 -0.1974  0.4034
   32MPD2    C5  501   1.026   1.315  14.685  0.4362  0.2748 -0.4590
   32MPD2     H  502   0.653   1.357  14.730 -0.3253  1.6064  0.1617
   32MPD2    H1  503   1.026   1.225  14.883  0.6567 -1.5840 -0.8766
   32MPD2    H2  504   1.002   1.429  14.508  0.9506  0.7556  0.1919
   32MPD2    H3  505   1.132   1.293  14.671 -0.0284 -1.2602 -1.5650
   32MPD2     N  506   0.771   1.243  14.953  0.0141 -0.3193 -0.1714
   32MPD2    H5  507   0.831   1.207  15.027  1.0216  1.3442 -0.1823
   32MPD2    N1  508   0.747   1.485  14.516  0.6877  0.5349  0.0848
   32MPD2    H7  509   0.810   1.530  14.450  0.3389  0.4497 -0.3012
   33TMC2    C1  510   0.468   3.920  10.782 -0.4820 -0.0656  0.0358
   33TMC2    C2  511   0.403   3.810  10.736 -0.2163 -0.8695 -0.6080
   33TMC2    C3  512   0.384   3.800  10.598 -0.7247 -0.0787  0.4097
   33TMC2    C4  513   0.497   4.024  10.705 -0.7453  0.3518  0.1207
   33TMC2    C5  514   0.479   4.012  10.573 -0.7001  0.5474 -0.3000
   33TMC2    C6  515   0.423   3.903  10.513 -0.4053  0.0016 -0.3892
   33TMC2     C  516   0.505   3.920  10.924  0.0760 -0.7522 -0.8009
   33TMC2     O  517   0.463   3.830  10.987  0.1906 -0.0000  0.0307
   33TMC2     H  518   0.366   3.727  10.795 -1.3944  0.1328  0.0689
   33TMC2    H1  519   0.529   4.118  10.747 -0.5669  0.2078  0.3078
   33TMC2    H2  520   0.420   3.889  10.405 -0.1246  0.5571 -0.4660
   33TMC2    C7  521   0.521   4.119  10.491 -0.5267  0.4579  0.0807
   33TMC2    C8  522   0.344   3.677  10.531 -0.8363 -1.4561  0.1596
   33TMC2    O1  523   0.609   4.192  10.531 -0.0852 -0.3105 -0.0861
   33TMC2    O2  524   0.356   3.663  10.414 -0.0994  0.7718  0.4531
   33TMC2    O5  525   0.232   3.632  10.597 -0.1120 -0.0909  0.2980
   33TMC2    H5  526   0.226   3.644  10.694 -1.0433  2.8765 -0.1136
   34MPD2     C  527   0.683   4.145  11.357  0.3828  0.2063 -0.3695
   34MPD2    C1  528   0.585   4.051  11.344  0.2358  0.0606 -0.5184
   34MPD2    C2  529   0.558   4.007  11.215  0.2550  0.2983 -0.1659
   34MPD2    C3  530   0.617   4.059  11.104  0.3926  0.1730 -1.2861
   34MPD2    C4  531   0.706   4.163  11.123 -0.0603  0.5522  0.0945
   34MPD2    C5  532   0.745   4.202  11.247  0.1187 -0.5659  0.2256
   34MPD2     H  533   0.473   3.940  11.206 -0.3102  0.9315  0.4280
   34MPD2    H1  534   0.763   4.214  11.046  2.1834  0.0246  1.3993
   34MPD2    H2  535   0.711   4.183  11.454  1.8010  0.6936 -0.9705
   34MPD2    H3  536   0.817   4.283  11.252 -0.7084  0.1027  1.2571
   34MPD2     N  537   0.581   4.025  10.966 -0.4462 -0.6949 -0.2698
   34MPD2    H5  538   0.617   4.086  10.894 -2.1562 -0.0006 -0.5400
   34MPD2    N1  539   0.509   4.006  11.456 -0.5034  0.1450 -0.0944
   34MPD2    H7  540   0.424   3.958  11.426 -0.4902 -0.1167  0.2833
   35TMC2    C1  541   1.763   0.572  11.757  0.6015 -0.3040  0.4969
   35TMC2    C2  542   1.649   0.574  11.674  0.0039  0.5682  0.1269
   35TMC2    C3  543   1.540   0.512  11.724 -0.7869 -0.4027  0.6862
   35TMC2    C4  544   1.767   0.512  11.884 -0.6521  0.4469 -0.6285
   35TMC2    C5  545   1.649   0.455  11.924 -0.0334  0.0358  0.5515
   35TMC2    C6  546   1.538   0.445  11.845 -0.3573  0.1638  0.3682
   35TMC2     C  547   1.886   0.597  11.670 -0.0774 -0.1013  0.1013
   35TMC2     O  548   1.866   0.646  11.561  0.2767  0.1316 -0.4514
   35TMC2     H  549   1.643   0.621  11.576 -0.9818 -0.3404 -0.2474
   35TMC2    H1  550   1.856   0.512  11.946 -0.6997 -0.4660 -0.5610
   35TMC2    H2  551   1.473   0.359  11.856  1.1178 -0.7244  1.9927
   35TMC2    C7  552   1.648   0.386  12.054 -0.0920 -0.1045  0.2276
   35TMC2    C8  553   1.434   0.498  11.631  0.5625 -0.1092 -0.0129
   35TMC2    O1  554   1.755   0.350  12.100 -0.2209  0.0823  0.6148
   35TMC2    O2  555   1.459   0.506  11.508  0.4257  0.1606 -0.2010
   35TMC2    O5  556   1.313   0.497  11.694  0.1873  0.1342 -0.6099
   35TMC2    H5  557   1.325   0.494  11.791 -0.1043  2.3252 -0.5298
   36MPD2     C  558   2.370   0.719  11.598 -0.0127  0.2588 -0.5210
   36MPD2    C1  559   2.368   0.603  11.678  0.0818  0.4256 -0.1313
   36MPD2    C2  560   2.244   0.552  11.703 -0.2958 -0.0945  0.5608
   36MPD2    C3  561   2.127   0.608  11.670 -0.7823  0.7821 -0.0792
   36MPD2    C4  562   2.134   0.727  11.599 -0.1827 -0.3759 -0.1618
   36MPD2    C5  563   2.256   0.782  11.564  0.0074  0.2596 -0.2156
   36MPD2     H  564   2.238   0.466  11.769  0.8981 -0.3550  0.3382
   36MPD2    H1  565   2.048   0.780  11.561  1.3616  2.9189  0.9882
   36MPD2    H2  566   2.464   0.769  11.575  1.5895 -1.7507  1.6503
   36MPD2    H3  567   2.254   0.878  11.513 -0.4692 -0.5595 -1.7628
   36MPD2     N  568   2.006   0.562  11.723  0.2361  0.7068  0.6062
   36MPD2    H5  569   2.005   0.492  11.796 -1.2497  0.1397  0.0522
   36MPD2    N1  570   2.485   0.547  11.725  0.0520 -0.5398  0.4777
   36MPD2    H7  571   2.570   0.598  11.702  0.6176 -2.1756 -1.0226
   37TMC2    C1  572   3.741   1.252  12.118 -0.6091 -0.3351 -0.6685
   37TMC2    C2  573   3.679   1.367  12.081  0.0403  0.0439 -0.0332
   37TMC2    C3  574   3.759   1.464  12.023  0.1548 -0.5716  0.6647
   37TMC2    C4  575   3.869   1.222  12.089  0.0388  0.7475  0.3731
   37TMC2    C5  576   3.945   1.314  12.026  0.1585  0.1390  0.7067
   37TMC2    C6  577   3.889   1.435  11.986 -0.3739 -0.2907 -0.3102
   37TMC2     C  578   3.664   1.159  12.196  0.1575 -0.0506 -0.0012
   37TMC2     O  579   3.546   1.188  12.182  0.0312  0.5684 -0.1611
   37TMC2     H  580   3.571   1.377  12.079  0.2737  2.6623  0.4944
   37TMC2    H1  581   3.911   1.124  12.110 -1.6488  0.2409  1.3789
   37TMC2    H2  582   3.946   1.517  11.943  2.4428 -2.8214 -1.3715
   37TMC2    C7  583   4.083   1.282  11.984 -0.5499 -0.9664  0.1004
   37TMC2    C8  584   3.692   1.587  11.966 -0.3853  0.9192  0.5154
   37TMC2    O1  585   4.135   1.196  12.054 -0.3729  0.2726 -0.3056
   37TMC2    O2  586   3.767   1.664  11.908 -0.1341 -0.4748 -0.1628
   37TMC2    O5  587   3.581   1.614  12.044 -0.0075  0.2593 -0.1832
   37TMC2    H5  588   3.530   1.539  12.082  1.6630  0.0731  1.6983
   38MPD2     C  589   3.549   0.769  12.486 -0.3093 -0.1358  0.4389
   38MPD2    C1  590   3.670   0.815  12.528  0.2796  0.5089 -0.1904
   38MPD2    C2  591   3.730   0.916  12.457  0.6733 -0.6145 -0.5760
   38MPD2    C3  592   3.668   0.972  12.356  0.6415  0.0079 -0.2784
   38MPD2    C4  593   3.539   0.935  12.319 -0.4469 -0.1301 -0.0218
   38MPD2    C5  594   3.483   0.827  12.380 -0.4727  0.4713  0.1969
   38MPD2     H  595   3.826   0.957  12.487  0.2206  0.3256 -0.4018
   38MPD2    H1  596   3.490   0.983  12.235  0.8570 -0.4552 -0.9740
   38MPD2    H2  597   3.491   0.694  12.538 -2.4882  0.2543 -1.3956
   38MPD2    H3  598   3.384   0.800  12.345 -0.4419  2.0913 -1.1786
   38MPD2     N  599   3.734   1.076  12.280 -0.3060 -0.2474 -0.1566
   38MPD2    H5  600   3.833   1.094  12.285 -0.4818  0.7507 -0.3299
   38MPD2    N1  601   3.746   0.764  12.632 -0.2888  0.0541 -0.3083
   38MPD2    H7  602   3.825   0.819  12.665 -1.0768  0.3317  1.1075
   39TMC2    C1  603   3.359   2.669   1.610  0.8695 -0.4617 -0.0686
   39TMC2    C2  604   3.489   2.699   1.577  0.5158 -0.3277 -0.0080
   39TMC2    C3  605   3.552   2.811   1.624  0.0004 -0.7637  0.2802
   39TMC2    C4  606   3.289   2.745   1.702  0.8922  1.0192  0.1754
   39TMC2    C5  607   3.358   2.847   1.761  0.0533 -0.6189 -0.1719
   39TMC2    C6  608   3.487   2.882   1.720 -0.4561 -0.2137  0.1873
   39TMC2     C  609   3.276   2.581   1.528 -0.5928 -0.0717 -0.6257
   39TMC2     O  610   3.155   2.595   1.542 -0.2821  0.7575 -0.9029
   39TMC2     H  611   3.549   2.637   1.512  2.0878 -0.3222  1.4383
   39TMC2    H1  612   3.190   2.714   1.736  0.7158  1.6906  0.2594
   39TMC2    H2  613   3.546   2.957   1.771 -0.6397  1.0922 -1.5071
   39TMC2    C7  614   3.287   2.909   1.862 -0.2966  0.1306 -0.3034
   39TMC2    C8  615   3.694   2.842   1.603 -0.4946 -0.4223 -0.0818
   39TMC2    O1  616   3.193   2.859   1.924 -0.0930  0.3494  0.2412
   39TMC2    O2  617   3.741   2.820   1.492 -1.5168  0.4769 -0.2061
   39TMC2    O5  618   3.761   2.834   1.722  0.1876 -0.1889 -0.2213
   39TMC2    H5  619   3.714   2.830   1.808  0.1725  1.2300 -0.1728
   40MPD2     C  620   3.375   2.288   1.322 -0.1764 -0.0291  0.7803
   40MPD2    C1  621   3.291   2.380   1.381 -0.1215 -0.7623 -0.5625
   40MPD2    C2  622   3.159   2.378   1.350  0.0895 -0.7860  0.0385
   40MPD2    C3  623   3.106   2.278   1.266  0.1725 -0.1900  1.0742
   40MPD2    C4  624   3.189   2.168   1.226  0.2141 -0.1441 -0.3487
   40MPD2    C5  625   3.323   2.181   1.248  0.5270  0.0731  0.8535
   40MPD2     H  626   3.089   2.455   1.380  0.9707  1.0446 -2.5649
   40MPD2    H1  627   3.140   2.100   1.157  0.2602  0.1798 -0.7012
   40MPD2    H2  628   3.480   2.295   1.349 -0.2557  0.3280  1.0016
   40MPD2    H3  629   3.390   2.115   1.195 -1.5273 -1.0224 -0.3775
   40MPD2     N  630   2.981   2.280   1.203 -0.1375 -0.6035 -0.6116
   40MPD2    H5  631   2.975   2.218   1.122  2.4803 -1.3180 -0.2596
   40MPD2    N1  632   3.349   2.485   1.461  0.7371 -0.1752 -0.4176
   40MPD2    H7  633   3.449   2.484   1.482  1.3958  1.7589 -3.5039
   41TMC2    C1  634   2.087   0.348  14.430  0.8823  0.4733 -0.6984
   41TMC2    C2  635   2.115   0.477  14.390  0.1865 -0.0386 -0.4381
   41TMC2    C3  636   2.209   0.495  14.289  1.2105 -0.7295  0.1514
   41TMC2    C4  637   2.137   0.238  14.368 -0.1468 -0.0801  0.2340
   41TMC2    C5  638   2.215   0.265  14.258  0.9357 -1.4424  0.4204
   41TMC2    C6  639   2.249   0.392  14.211  0.3256 -0.1387 -0.2049
   41TMC2     C  640   1.952   0.325  14.474  0.1711 -0.0743 -0.0030
   41TMC2     O  641   1.933   0.216  14.530  0.1119 -0.0619 -0.4932
   41TMC2     H  642   2.096   0.563  14.452  0.6368 -0.9668  0.9755
   41TMC2    H1  643   2.122   0.136  14.402  0.9533  0.1984  1.5669
   41TMC2    H2  644   2.318   0.404  14.129 -0.6561  0.0046 -1.0086
   41TMC2    C7  645   2.259   0.147  14.189 -0.0353 -0.1129 -0.7306
   41TMC2    C8  646   2.199   0.619  14.221 -0.1410  0.6270 -0.6915
   41TMC2    O1  647   2.280   0.044  14.255  0.1521  0.0179 -0.0018
   41TMC2    O2  648   2.163   0.611  14.106  0.5309  0.0127  1.1172
   41TMC2    O5  649   2.311   0.682  14.263 -0.5590  0.0183  0.1943
   41TMC2    H5  650   2.315   0.682  14.361  1.4871 -0.2061  0.0998
   42MPD2     C  651   1.657   0.333  14.527  0.1836  0.3954 -0.3031
   42MPD2    C1  652   1.728   0.444  14.481  0.0118  0.0620 -0.8896
   42MPD2    C2  653   1.660   0.560  14.460 -0.1276 -0.2222 -0.1537
   42MPD2    C3  654   1.525   0.571  14.487  0.3046  0.3769  0.2853
   42MPD2    C4  655   1.457   0.464  14.533  0.2283  1.0095 -0.2037
   42MPD2    C5  656   1.523   0.338  14.548 -0.0792  0.4155  0.0512
   42MPD2     H  657   1.724   0.643  14.432 -2.9276  2.6899  1.9888
   42MPD2    H1  658   1.351   0.473  14.556  0.6033  0.2893  1.8452
   42MPD2    H2  659   1.707   0.241  14.552 -0.2471 -0.1439 -1.4349
   42MPD2    H3  660   1.472   0.255  14.596 -1.8849  2.1104  1.0685
   42MPD2     N  661   1.455   0.692  14.468 -0.2514 -0.3677  0.4611
   42MPD2    H5  662   1.357   0.690  14.496 -0.5307  1.7007 -0.4216
   42MPD2    N1  663   1.869   0.438  14.455 -0.1213 -0.3869 -0.5328
   42MPD2    H7  664   1.923   0.523  14.439 -0.2186  0.0445  1.4756
   43TMC2    C1  665   3.173   3.278   0.867 -0.4307 -0.2383 -0.1527
   43TMC2    C2  666   3.043   3.276   0.849 -0.8324 -0.2745  0.5757
   43TMC2    C3  667   2.979   3.390   0.899 -0.5462  0.2707  0.7516
   43TMC2    C4  668   3.253   3.376   0.912  0.5853 -0.1803  0.6483
   43TMC2    C5  669   3.183   3.481   0.958 -0.0182  0.8723  0.4424
   43TMC2    C6  670   3.049   3.494   0.950  0.0110 -0.2178 -0.4637
   43TMC2     C  671   3.243   3.195   0.775 -0.2684 -0.6758 -0.0845
   43TMC2     O  672   3.306   3.267   0.705  0.2475  0.4597  0.2599
   43TMC2     H  673   2.980   3.192   0.819 -1.5855  1.0155 -1.4478
   43TMC2    H1  674   3.359   3.359   0.929  0.4741 -0.9438  0.5451
   43TMC2    H2  675   2.997   3.583   0.984  0.2687  0.3987 -1.6837
   43TMC2    C7  676   3.267   3.584   1.016  0.2307 -0.2912  0.8404
   43TMC2    C8  677   2.836   3.403   0.864  0.7037 -0.2838  0.3746
   43TMC2    O1  678   3.385   3.562   1.037  0.2712  0.1694 -0.8692
   43TMC2    O2  679   2.758   3.466   0.936  0.2964  0.3492 -0.1937
   43TMC2    O5  680   2.801   3.328   0.756  0.2217  0.2372  0.3697
   43TMC2    H5  681   2.877   3.300   0.700  0.5218 -0.8358  1.3066
   44MPD2     C  682   3.381   2.780   0.517  0.4849  0.3618 -0.1175
   44MPD2    C1  683   3.452   2.900   0.527 -0.2067  0.8899 -0.6436
   44MPD2    C2  684   3.387   2.994   0.615  0.2679  0.1193  0.4748
   44MPD2    C3  685   3.275   2.960   0.687  0.2909 -0.1211  0.4149
   44MPD2    C4  686   3.204   2.845   0.671  0.9197 -0.0388 -0.0420
   44MPD2    C5  687   3.265   2.755   0.589 -0.7527 -0.1905 -0.1193
   44MPD2     H  688   3.452   3.081   0.612 -1.1689  1.1420 -1.3221
   44MPD2    H1  689   3.106   2.830   0.716  0.6725 -0.3053 -0.6800
   44MPD2    H2  690   3.427   2.698   0.462  0.3792 -0.7932  1.5213
   44MPD2    H3  691   3.217   2.659   0.578 -1.1841  0.0644 -0.4596
   44MPD2     N  692   3.210   3.056   0.767  0.0242  0.3575 -0.4943
   44MPD2    H5  693   3.138   3.018   0.827  0.9699  0.0706  0.4417
   44MPD2    N1  694   3.578   2.927   0.473 -0.2640  0.5155 -1.2055
   44MPD2    H7  695   3.614   3.020   0.492 -2.5625  1.5099 -1.7318
   45TMC2    C1  696   4.131   0.653  10.459  0.6788  0.7295 -0.6615
   45TMC2    C2  697   4.237   0.603  10.536  0.3831  0.7478  0.1230
   45TMC2    C3  698   4.304   0.690  10.614  0.3820  0.0271  0.2238
   45TMC2    C4  699   4.106   0.788  10.452  0.3370 -0.5581 -0.3110
   45TMC2    C5  700   4.176   0.878  10.527 -0.2972 -0.5973  0.2462
   45TMC2    C6  701   4.275   0.826  10.611 -0.2047 -0.1199  1.5849
   45TMC2     C  702   4.052   0.565  10.371  0.2105 -0.0023  0.4449
   45TMC2     O  703   4.090   0.450  10.363 -0.2399  0.4682  0.0370
   45TMC2     H  704   4.246   0.496  10.551 -0.4812  0.3673 -1.9770
   45TMC2    H1  705   4.027   0.831  10.391  0.3116 -1.3322 -0.8121
   45TMC2    H2  706   4.324   0.895  10.679 -0.5275  2.3195 -0.6671
   45TMC2    C7  707   4.148   1.018  10.522  0.7318 -0.3735 -0.2283
   45TMC2    C8  708   4.417   0.635  10.686  0.7909  0.6761 -0.5143
   45TMC2    O1  709   4.176   1.074  10.627  0.0668  0.3573 -0.5072
   45TMC2    O2  710   4.437   0.520  10.722 -0.2539 -0.2252  0.6961
   45TMC2    O5  711   4.507   0.735  10.703  0.4836  0.0548  0.2731
   45TMC2    H5  712   4.512   0.807  10.637  0.1936  0.3740  0.6010
   46MPD2     C  713   3.856   0.445  10.198 -0.3832 -0.2714 -0.2089
   46MPD2    C1  714   3.885   0.581  10.194  0.8343 -0.4768 -0.1747
   46MPD2    C2  715   3.821   0.649  10.093  0.6950  0.1377 -0.0603
   46MPD2    C3  716   3.734   0.593  10.003 -0.4886 -0.1480  0.1246
   46MPD2    C4  717   3.701   0.456  10.010 -0.3916  0.5069 -0.1572
   46MPD2    C5  718   3.760   0.390  10.110 -0.4746  0.4870 -0.1260
   46MPD2     H  719   3.843   0.755  10.088  1.3786 -0.0149 -0.2867
   46MPD2    H1  720   3.636   0.402   9.942  0.0726 -1.9165  1.2860
   46MPD2    H2  721   3.898   0.374  10.267  0.7161 -2.6248 -3.2859
   46MPD2    H3  722   3.738   0.283  10.108 -0.1893  0.3896  2.3466
   46MPD2     N  723   3.677   0.679   9.906  0.4478 -0.4094 -0.3214
   46MPD2    H5  724   3.727   0.768   9.907 -1.2532  0.5232  0.4605
   46MPD2    N1  725   3.975   0.641  10.280 -0.5272 -0.2103  0.2285
   46MPD2    H7  726   3.982   0.742  10.271  1.1727 -0.6128 -2.7767
   47TMC2    C1  727   0.875   1.646   9.513  0.2486  0.5070  0.8692
   47TMC2    C2  728   0.803   1.755   9.571  0.1809  0.0096  0.3112
   47TMC2    C3  729   0.676   1.775   9.523 -0.1519  0.4100 -0.4316
   47TMC2    C4  730   0.827   1.572   9.410  0.1050  0.4559  0.5350
   47TMC2    C5  731   0.694   1.584   9.373  0.4052  0.1765 -0.0131
   47TMC2    C6  732   0.619   1.684   9.435 -0.3270 -0.0940 -0.8965
   47TMC2     C  733   1.020   1.629   9.545  0.0982 -0.0161  0.1782
   47TMC2     O  734   1.068   1.727   9.604  0.3456 -0.0336  0.5109
   47TMC2     H  735   0.836   1.811   9.657  0.4889 -1.4046  1.1212
   47TMC2    H1  736   0.889   1.506   9.352 -2.9081 -1.1422 -0.8794
   47TMC2    H2  737   0.513   1.675   9.415 -0.4249  2.7530 -1.5381
   47TMC2    C7  738   0.628   1.468   9.320  0.0326  0.4454  1.2465
   47TMC2    C8  739   0.587   1.840   9.616 -0.0512 -0.4594  0.0508
   47TMC2    O1  740   0.509   1.488   9.291 -0.3740  0.3270  0.7166
   47TMC2    O2  741   0.627   1.872   9.725 -0.2010 -0.3380 -0.1165
   47TMC2    O5  742   0.501   1.906   9.535 -0.6313 -0.6083 -0.5447
   47TMC2    H5  743   0.502   1.879   9.441 -1.1771 -1.4797 -0.3064
   48MPD2     C  744   1.307   1.564   9.586 -0.0543  0.3708 -0.2758
   48MPD2    C1  745   1.212   1.469   9.553  0.1382  0.0207  0.0782
   48MPD2    C2  746   1.253   1.339   9.538  0.8414 -0.2719 -0.4375
   48MPD2    C3  747   1.382   1.297   9.560  0.4321 -0.0932 -0.2775
   48MPD2    C4  748   1.475   1.397   9.590 -0.2643 -0.2314 -0.6095
   48MPD2    C5  749   1.439   1.527   9.596 -0.1313  0.2557  0.6327
   48MPD2     H  750   1.178   1.273   9.497  0.9768 -0.6492 -0.0806
   48MPD2    H1  751   1.578   1.372   9.615 -0.7021 -0.7711  0.6814
   48MPD2    H2  752   1.296   1.671   9.602 -2.2009  0.1291 -0.1197
   48MPD2    H3  753   1.512   1.597   9.635  1.6301 -2.0753  1.5185
   48MPD2     N  754   1.397   1.156   9.554  0.3892 -0.1108  0.1734
   48MPD2    H5  755   1.316   1.103   9.526  1.3428 -0.3137 -2.2336
   48MPD2    N1  756   1.079   1.500   9.535 -0.6507  0.2492  0.6380
   48MPD2    H7  757   1.018   1.420   9.523 -1.9785  1.5393 -1.3109
   49TMC2    C1  758   3.823   3.755  10.532  0.2692  0.3567  0.2915
   49TMC2    C2  759   3.837   3.729  10.403 -0.6462 -0.3968 -0.3899
   49TMC2    C3  760   3.828   3.603  10.362  0.1725 -0.1007  0.2373
   49TMC2    C4  761   3.814   3.659  10.625  0.1470 -0.0396 -0.0436
   49TMC2    C5  762   3.812   3.528  10.586  0.0787  0.4088  0.6217
   49TMC2    C6  763   3.800   3.506  10.453 -0.3584 -0.1738  0.5751
   49TMC2     C  764   3.828   3.898  10.574  0.4979 -0.1150  0.7713
   49TMC2     O  765   3.894   3.975  10.503 -0.1533 -0.1102  0.1150
   49TMC2     H  766   3.838   3.814  10.335 -1.2800  0.6620  0.9214
   49TMC2    H1  767   3.839   3.687  10.726  0.6781  0.8371 -0.4144
   49TMC2    H2  768   3.785   3.405  10.417 -2.2695  0.7002 -1.0866
   49TMC2    C7  769   3.791   3.420  10.679 -0.0174 -0.2884 -0.6309
   49TMC2    C8  770   3.856   3.584  10.222  0.3796 -0.3550 -0.2269
   49TMC2    O1  771   3.709   3.339  10.646 -0.0869 -0.3461  0.4077
   49TMC2    O2  772   3.951   3.641  10.170 -0.2544  0.0464  0.2497
   49TMC2    O5  773   3.829   3.452  10.187  0.1363  0.3404 -0.9146
   49TMC2    H5  774   3.758   3.412  10.241 -0.0732 -0.3646 -1.7109
   50MPD2     C  775   3.874   4.134  10.747  0.1046  0.0574 -0.1386
   50MPD2    C1  776   3.777   4.040  10.769 -0.3624 -0.1065 -0.6882
   50MPD2    C2  777   3.697   4.052  10.883 -0.1682 -0.0001  0.2038
   50MPD2    C3  778   3.719   4.152  10.981 -0.4390 -0.4061 -0.3338
   50MPD2    C4  779   3.817   4.239  10.963 -0.0258 -0.1983 -0.5104
   50MPD2    C5  780   3.899   4.226  10.853  0.4350  0.1735 -0.1282
   50MPD2     H  781   3.608   3.991  10.888  0.6620 -1.2971 -1.0665
   50MPD2    H1  782   3.833   4.316  11.037  1.7247  1.2855 -2.4457
   50MPD2    H2  783   3.936   4.149  10.659 -0.4372  1.3080 -0.3205
   50MPD2    H3  784   3.967   4.305  10.824  0.3898 -0.1259 -1.0590
   50MPD2     N  785   3.654   4.158  11.109  0.4301  0.2653  0.2767
   50MPD2    H5  786   3.702   4.215  11.179  1.8249 -1.3895  0.6645
   50MPD2    N1  787   3.762   3.922  10.689 -0.2803 -0.6555  0.4514
   50MPD2    H7  788   3.700   3.848  10.720  0.0186  0.0803  2.7781
   51TMC2    C1  789   1.904   1.186   0.866  0.0593  0.0540 -0.3322
   51TMC2    C2  790   2.034   1.180   0.828 -1.0278  0.0930  0.4761
   51TMC2    C3  791   2.119   1.143   0.919 -1.0222 -0.0254  0.6160
   51TMC2    C4  792   1.869   1.196   0.998 -0.3617  0.5887 -0.4837
   51TMC2    C5  793   1.968   1.176   1.092  0.1228 -0.6658  0.0518
   51TMC2    C6  794   2.090   1.133   1.051  0.8909 -0.4046  0.6978
   51TMC2     C  795   1.801   1.219   0.770  0.2167  0.2051  0.1390
   51TMC2     O  796   1.687   1.188   0.810 -0.0334 -0.8376  0.2970
   51TMC2     H  797   2.051   1.197   0.722 -0.9904  0.2004  0.4994
   51TMC2    H1  798   1.769   1.220   1.031  0.0359  0.2957  0.9740
   51TMC2    H2  799   2.170   1.114   1.122  0.1813 -2.1175  1.0433
   51TMC2    C7  800   1.955   1.230   1.228 -0.5001  0.6148  0.7695
   51TMC2    C8  801   2.250   1.084   0.901  0.0542 -0.1557  0.1485
   51TMC2    O1  802   2.058   1.241   1.298  0.0149  0.1141  0.4347
   51TMC2    O2  803   2.337   1.059   0.981  0.7811 -0.0067 -0.5664
   51TMC2    O5  804   2.265   1.067   0.768 -0.0612 -0.0552  0.0215
   51TMC2    H5  805   2.180   1.064   0.720 -1.4299  3.0054  2.2253
   52MPD2     C  806   1.591   1.347   0.325 -0.4012 -0.6234  0.2603
   52MPD2    C1  807   1.534   1.302   0.444 -0.4724  0.2817 -0.4391
   52MPD2    C2  808   1.616   1.285   0.556  0.2129  0.1496 -0.5790
   52MPD2    C3  809   1.752   1.304   0.551  0.1874  0.7680 -0.5538
   52MPD2    C4  810   1.806   1.347   0.429  0.2483 -0.0721  0.8139
   52MPD2    C5  811   1.721   1.364   0.320 -0.4146  0.0781 -0.4397
   52MPD2     H  812   1.559   1.278   0.648  0.5566  1.7957 -0.2417
   52MPD2    H1  813   1.914   1.353   0.421  0.1730  1.0403  0.5782
   52MPD2    H2  814   1.531   1.361   0.235 -0.6876  0.1647  0.5802
   52MPD2    H3  815   1.765   1.393   0.226 -1.4395  3.6465  0.1993
   52MPD2     N  816   1.838   1.283   0.655  0.3873 -0.0409 -0.2981
   52MPD2    H5  817   1.936   1.308   0.641  1.0046 -1.9810  0.5554
   52MPD2    N1  818   1.396   1.300   0.474 -0.1234 -0.4295 -0.4160
   52MPD2    H7  819   1.365   1.270   0.567 -0.8454  1.3999 -0.0713
   53TMC2    C1  820   0.061   1.076  11.930 -0.3385 -0.5271 -0.2736
   53TMC2    C2  821   0.188   1.043  11.897 -0.3198  0.6165  0.2579
   53TMC2    C3  822   0.280   1.045  11.996 -0.6276 -0.0198  0.2202
   53TMC2    C4  823   0.020   1.104  12.060 -0.3338  0.3439 -0.1903
   53TMC2    C5  824   0.126   1.123  12.158 -0.6107  0.2785  0.2041
   53TMC2    C6  825   0.250   1.086  12.121 -0.2177 -0.6217 -0.1958
   53TMC2     C  826   4.698   1.110  11.821  0.0563  0.5426  0.6619
   53TMC2     O  827   0.006   1.092  11.710 -0.4476  0.8889 -0.0962
   53TMC2     H  828   0.215   1.004  11.799  1.9213  0.4012  0.9712
   53TMC2    H1  829   4.658   1.140  12.089 -0.4879  1.8182 -2.5235
   53TMC2    H2  830   0.341   1.095  12.180  1.1023 -4.7383 -1.5827
   53TMC2    C7  831   0.084   1.125  12.299 -0.1310  0.3825  0.0765
   53TMC2    C8  832   0.420   1.050  11.956 -0.1204  0.0801  0.4662
   53TMC2    O1  833   4.699   1.136  12.318 -0.7289 -0.0697  0.2997
   53TMC2    O2  834   0.513   1.022  12.029 -0.4263  0.3425  0.0725
   53TMC2    O5  835   0.429   1.137  11.858 -0.3888  0.4694 -0.6672
   53TMC2    H5  836   0.350   1.158  11.804 -1.4920 -0.3077  0.6444
   54MPD2     C  837   4.478   1.225  11.655  0.2321 -0.3147  0.2800
   54MPD2    C1  838   4.467   1.197  11.789  0.1527 -0.3914  0.1168
   54MPD2    C2  839   4.354   1.242  11.861 -0.4585  0.2508 -0.3192
   54MPD2    C3  840   4.249   1.302  11.796 -0.8234  0.0135 -0.8565
   54MPD2    C4  841   4.267   1.343  11.665 -0.4326 -0.2529 -0.1540
   54MPD2    C5  842   4.379   1.296  11.595  0.5944  0.3205 -0.4195
   54MPD2     H  843   4.345   1.201  11.961  0.0669  1.2999  0.1616
   54MPD2    H1  844   4.185   1.391  11.611  0.2786  1.6527  0.4612
   54MPD2    H2  845   4.560   1.181  11.600  2.3622  1.4508  2.0494
   54MPD2    H3  846   4.379   1.327  11.491 -1.3815  1.9433  0.0714
   54MPD2     N  847   4.115   1.331  11.855 -0.2187 -0.4187 -0.3730
   54MPD2    H5  848   4.052   1.387  11.799  2.2094  0.4731 -2.2392
   54MPD2    N1  849   4.575   1.149  11.866 -0.2869  0.2674 -0.0802
   54MPD2    H7  850   4.559   1.166  11.965 -1.7246  1.1107 -0.4583
   55TMC2    C1  851   1.283   3.258  17.607 -0.3942  0.3650 -0.3464
   55TMC2    C2  852   1.258   3.205  17.481 -0.2043  0.5492  0.1355
   55TMC2    C3  853   1.238   3.070  17.479  1.0765  0.0814 -0.4930
   55TMC2    C4  854   1.290   3.192  17.724 -0.2292 -0.6449  0.3658
   55TMC2    C5  855   1.287   3.052  17.713 -0.6354 -0.3917  0.0069
   55TMC2    C6  856   1.249   2.987  17.596  0.2564  0.1533 -0.0229
   55TMC2     C  857   1.300   3.400  17.627  0.4708 -0.2507 -0.3529
   55TMC2     O  858   1.313   3.447  17.737 -0.6368  0.1852  0.2384
   55TMC2     H  859   1.237   3.271  17.397  2.1380 -0.5502 -1.3308
   55TMC2    H1  860   1.304   3.237   0.080 -0.7921  0.1964  0.0599
   55TMC2    H2  861   1.217   2.884  17.598 -1.7664  0.7501 -1.4276
   55TMC2    C7  862   1.304   2.963   0.084 -0.2316  0.0834 -0.3561
   55TMC2    C8  863   1.230   2.996  17.358  0.5300  0.2117  0.3228
   55TMC2    O1  864   1.295   2.843   0.063  0.2182  0.6046 -0.0419
   55TMC2    O2  865   1.244   2.875  17.348  0.1665 -0.1555  0.1286
   55TMC2    O5  866   1.231   3.081  17.255 -0.2940  0.4533 -0.3228
   55TMC2    H5  867   1.257   3.173  17.280  2.2100  0.5383 -3.2863
   56MPD2     C  868   1.361   3.638  17.358  0.4395  1.4240  0.4674
   56MPD2    C1  869   1.318   3.600  17.484 -0.1482 -0.6183 -0.2877
   56MPD2    C2  870   1.277   3.690  17.580 -0.2263 -0.2400 -0.5839
   56MPD2    C3  871   1.266   3.820  17.540 -0.3550  0.2930  0.7387
   56MPD2    C4  872   1.309   3.859  17.418  0.2142 -1.0609 -0.1816
   56MPD2    C5  873   1.361   3.766  17.329  0.7886 -0.2926  1.1723
   56MPD2     H  874   1.252   3.652  17.678 -1.2254 -0.0114 -0.7496
   56MPD2    H1  875   1.302   3.959  17.376  1.2046 -1.8037 -2.1404
   56MPD2    H2  876   1.401   3.572  17.282 -0.7308  1.2245  0.0196
   56MPD2    H3  877   1.403   3.805  17.237 -0.9999  1.6825  1.2021
   56MPD2     N  878   1.194   3.907  17.632 -0.1206  0.1802 -0.2337
   56MPD2    H5  879   1.155   3.867  17.716  2.2371  0.2142  0.8924
   56MPD2    N1  880   1.323   3.462  17.507  0.7329 -0.7528 -0.1175
   56MPD2    H7  881   1.334   3.414  17.418  0.1224 -2.8101  0.9220
   57TMC2    C1  882   0.312   4.600  13.950  1.0915  0.8955 -0.1697
   57TMC2    C2  883   0.323   4.733  13.929 -0.5934  0.0871 -0.0329
   57TMC2    C3  884   0.363   0.025  13.801  0.2170 -0.9310  0.5153
   57TMC2    C4  885   0.365   4.501  13.869  0.2319  1.3013  0.2941
   57TMC2    C5  886   0.432   4.549  13.756  0.5026 -0.0240  0.1192
   57TMC2    C6  887   0.424   4.680  13.719  0.0829 -0.4698  0.3662
   57TMC2     C  888   0.232   4.556  14.057  0.1563  0.6830  0.0890
   57TMC2     O  889   0.228   4.632  14.156 -0.1293  0.2257  0.3673
   57TMC2     H  890   0.260   0.061  13.990  1.2481  2.0687 -0.2114
   57TMC2    H1  891   0.364   4.393  13.879  2.9723  1.0766 -1.5482
   57TMC2    H2  892   0.475   4.726  13.635 -1.0899  0.3582  0.1130
   57TMC2    C7  893   0.519   4.457  13.683  0.2501  0.0346  0.5543
   57TMC2    C8  894   0.383   0.163  13.765  0.4500 -0.5300  0.2873
   57TMC2    O1  895   0.519   4.339  13.718 -0.6105  0.6010  0.5233
   57TMC2    O2  896   0.443   0.243  13.836 -0.4416 -0.0301 -0.2129
   57TMC2    O5  897   0.304   0.186  13.665 -0.5230  0.0144 -0.3676
   57TMC2    H5  898   0.292   0.101  13.617  1.2816  0.4317 -1.5516
   58MPD2     C  899   4.612   4.236  14.247  0.6077 -0.1863 -0.5162
   58MPD2    C1  900   4.660   4.354  14.301 -0.1371 -0.3096  0.0987
   58MPD2    C2  901   0.022   4.415  14.227  0.3648 -0.6587 -0.1030
   58MPD2    C3  902   0.076   4.367  14.114 -0.3603  0.5371  0.2138
   58MPD2    C4  903   0.030   4.245  14.064  0.4715 -0.9144 -0.2581
   58MPD2    C5  904   4.666   4.179  14.136  0.4879  0.0080 -0.3979
   58MPD2     H  905   0.049   4.515  14.260  1.7110 -1.0178 -0.1046
   58MPD2    H1  906   0.059   4.198  13.970 -1.3669 -1.2096 -0.6758
   58MPD2    H2  907   4.532   4.180  14.293  1.2863 -0.9849 -0.3247
   58MPD2    H3  908   4.631   4.085  14.095 -0.6422  0.2163  0.0774
   58MPD2     N  909   0.168   4.438  14.033  0.2519  0.0378 -0.4703
   58MPD2    H5  910   0.182   4.388  13.946 -0.3929  1.4723 -1.4047
   58MPD2    N1  911   4.604   4.415  14.414  0.4483  0.2447 -0.5313
   58MPD2    H7  912   4.627   4.510  14.439 -2.5739  1.0161 -0.6026
   59TMC2    C1  913   2.855   0.021  13.043 -0.0894 -0.7624 -0.4445
   59TMC2    C2  914   2.843   4.623  13.078 -0.1991  0.7386 -0.3530
   59TMC2    C3  915   2.821   4.533  12.984 -0.7585 -0.3736  0.8614
   59TMC2    C4  916   2.854   0.063  12.909  0.4722  0.4631 -0.4878
   59TMC2    C5  917   2.847   4.702  12.811 -0.1626 -0.1413  0.1075
   59TMC2    C6  918   2.819   4.565  12.849  0.4593 -0.4881  0.2211
   59TMC2     C  919   2.871   0.114  13.153  1.1063 -0.2107 -0.2972
   59TMC2     O  920   2.897   0.226  13.118  0.1420 -0.0038 -0.2995
   59TMC2     H  921   2.865   4.592  13.179 -1.6938  2.9108  0.6499
   59TMC2    H1  922   2.871   0.169  12.892  0.5787  0.3049 -1.3592
   59TMC2    H2  923   2.827   4.484  12.777  0.2611  1.3379 -1.8436
   59TMC2    C7  924   2.817   0.010  12.674  0.4824 -0.2788  0.0583
   59TMC2    C8  925   2.799   4.399  13.034 -0.4420  0.7884  0.1099
   59TMC2    O1  926   2.857   0.123  12.640 -0.4292  0.0770 -0.0251
   59TMC2    O2  927   2.837   4.353  13.140  0.8170  0.3342 -0.2957
   59TMC2    O5  928   2.680   4.368  12.973 -0.1384 -0.1387 -0.0348
   59TMC2    H5  929   2.662   4.417  12.890 -0.6441 -0.1237  0.0869
   60MPD2     C  930   2.917   0.270  13.408 -0.4344  1.2439  0.6706
   60MPD2    C1  931   2.880   0.138  13.399 -0.3628  0.3460  0.0995
   60MPD2    C2  932   2.859   0.066  13.512 -0.0000 -0.1764 -0.1922
   60MPD2    C3  933   2.879   0.124  13.639 -0.4047  1.1115  0.3302
   60MPD2    C4  934   2.904   0.261  13.649  0.1591  0.5527  0.5624
   60MPD2    C5  935   2.920   0.328  13.532 -0.2652 -0.1057  0.0525
   60MPD2     H  936   2.833   4.697  13.507 -0.5396 -0.0716  0.5558
   60MPD2    H1  937   2.917   0.314  13.743  0.8914 -1.6312  1.6895
   60MPD2    H2  938   2.929   0.338  13.324  0.5781  1.2497  0.8168
   60MPD2    H3  939   2.937   0.435  13.540 -0.9380 -0.1912  2.7527
   60MPD2     N  940   2.898   0.055  13.767 -0.0320 -0.2697 -1.1216
   60MPD2    H5  941   2.947   0.103  13.842  0.2066 -0.0774 -1.3955
   60MPD2    N1  942   2.867   0.067  13.279 -0.5551  0.5322 -0.2010
   60MPD2    H7  943   2.851   4.704  13.296  1.9948 -0.0625 -1.2285
   61TMC2    C1  944   2.119   0.921  15.500  0.5004  0.0497  0.5322
   61TMC2    C2  945   2.121   0.866  15.623  0.3121  0.2016 -0.2673
   61TMC2    C3  946   2.064   0.947  15.722  0.4693  0.2477  0.7394
   61TMC2    C4  947   2.078   1.051  15.477 -0.8288 -0.6325 -0.3330
   61TMC2    C5  948   2.026   1.124  15.581 -0.3437  0.3726 -0.2805
   61TMC2    C6  949   2.016   1.075  15.707 -0.6773  0.0706 -0.4438
   61TMC2     C  950   2.159   0.838  15.385 -0.7029 -0.4547  0.6893
   61TMC2     O  951   2.148   0.717  15.401 -0.1275 -0.1603  0.0359
   61TMC2     H  952   2.155   0.766  15.648  3.5107  1.0907 -1.1498
   61TMC2    H1  953   2.068   1.093  15.378  1.9605  0.7780 -0.0132
   61TMC2    H2  954   1.958   1.117  15.789  0.0157 -0.7309  0.4590
   61TMC2    C7  955   1.972   1.250  15.552  0.5758  0.0274 -0.5398
   61TMC2    C8  956   2.037   0.881  15.845 -0.3673  0.0664 -0.9082
   61TMC2    O1  957   1.913   1.268  15.444  0.3376 -0.0038  0.0836
   61TMC2    O2  958   2.022   0.762  15.860 -0.0867  0.1638  0.1778
   61TMC2    O5  959   2.044   0.966  15.946  0.0847 -0.9818  0.1183
   61TMC2    H5  960   2.066   1.060  15.928  0.4023 -0.9863  0.4671
   62MPD2     C  961   2.233   0.749  15.102  0.4993 -0.2625  0.1424
   62MPD2    C1  962   2.230   0.877  15.150  0.1418  0.3873 -0.3656
   62MPD2    C2  963   2.270   0.981  15.066 -0.1581 -0.8232  0.0003
   62MPD2    C3  964   2.293   0.964  14.935 -0.4211  0.4117 -0.3271
   62MPD2    C4  965   2.277   0.838  14.888  0.3034 -0.3623  0.4293
   62MPD2    C5  966   2.260   0.730  14.968 -0.6930 -0.1871  0.3629
   62MPD2     H  967   2.295   1.077  15.110  0.0545  0.4801 -2.9492
   62MPD2    H1  968   2.292   0.817  14.782  2.2725 -1.7188  0.9631
   62MPD2    H2  969   2.237   0.663  15.168 -1.7691  0.0153  0.6361
   62MPD2    H3  970   2.244   0.635  14.919  2.2687  0.0035 -1.0060
   62MPD2     N  971   2.316   1.069  14.838  0.0808 -0.0276  0.4272
   62MPD2    H5  972   2.297   1.050  14.740  2.3022  1.3068 -0.2657
   62MPD2    N1  973   2.199   0.917  15.280 -0.3002  0.5406 -0.3497
   62MPD2    H7  974   2.221   1.014  15.301 -0.0168 -0.2341  2.8769
   63TMC2    C1  975   1.197   1.143  10.003 -0.1484 -0.4238  0.2495
   63TMC2    C2  976   1.336   1.135   9.984  0.2251 -0.4019 -0.8189
   63TMC2    C3  977   1.398   1.246   9.923 -0.4400  0.7281 -0.2465
   63TMC2    C4  978   1.128   1.257   9.961 -0.1515 -0.3628  0.1446
   63TMC2    C5  979   1.199   1.365   9.919  0.1027 -0.1966  0.0617
   63TMC2    C6  980   1.336   1.366   9.910  0.2443  0.3957  1.5116
   63TMC2     C  981   1.113   1.037  10.062 -0.1803 -0.0994  0.4629
   63TMC2     O  982   0.997   1.021  10.020 -0.4400  0.0249  0.0944
   63TMC2     H  983   1.395   1.051  10.018 -0.1428  0.1432  1.1827
   63TMC2    H1  984   1.026   1.268   9.997 -0.2396 -1.8495  0.3451
   63TMC2    H2  985   1.382   1.441   9.847 -1.2644 -0.0046 -0.0643
   63TMC2    C7  986   1.128   1.485   9.888 -0.3502  0.5756  0.5760
   63TMC2    C8  987   1.544   1.233   9.910  0.0994 -0.1907  0.7767
   63TMC2    O1  988   1.012   1.468   9.865  0.0158  0.1019  0.4072
   63TMC2    O2  989   1.599   1.122   9.902 -0.2025 -0.0620 -0.1529
   63TMC2    O5  990   1.607   1.352   9.933  0.2388 -0.3346 -0.4484
   63TMC2    H5  991   1.551   1.430   9.914  0.5604 -0.3721 -1.5907
   64MPD2     C  992   1.013   0.712  10.428 -0.1470  0.8929 -0.1403
   64MPD2    C1  993   1.115   0.793  10.471 -0.3454  0.5210  0.3203
   64MPD2    C2  994   1.173   0.874  10.377  0.1637  0.4000 -0.2991
   64MPD2    C3  995   1.112   0.893  10.251 -0.8154  1.1214  0.0023
   64MPD2    C4  996   1.003   0.817  10.218 -0.2002  0.6113  0.7164
   64MPD2    C5  997   0.960   0.725  10.307  0.1669  0.3568 -0.1274
   64MPD2     H  998   1.261   0.930  10.406  1.0985 -2.2924  2.0386
   64MPD2    H1  999   0.956   0.816  10.121 -0.9745 -0.1845  1.1042
   64MPD2    H2 1000   0.976   0.634  10.494  1.2826 -0.4819 -0.9689
   64MPD2    H3 1001   0.885   0.655  10.273  1.1784 -0.6154 -0.3640
   64MPD2     N 1002   1.174   0.978  10.166 -0.1638 -0.9491  0.2511
   64MPD2    H5 1003   1.266   1.014  10.191 -1.0103  0.6880  0.9955
   64MPD2    N1 1004   1.174   0.788  10.595  0.1763 -0.0338  0.2870
   64MPD2    H7 1005   1.262   0.838  10.608  0.9119 -1.3621  0.4605
   65TMC2    C1 1006   2.522   0.833  15.547  0.0662 -0.1925 -0.3817
   65TMC2    C2 1007   2.585   0.782  15.436 -0.7083 -0.1797 -0.1230
   65TMC2    C3 1008   2.570   0.855  15.321 -0.6530  0.6955 -0.3423
   65TMC2    C4 1009   2.448   0.949  15.551 -0.4011 -0.0348 -0.2678
   65TMC2    C5 1010   2.457   1.022  15.429 -0.1083  0.1342  0.1271
   65TMC2    C6 1011   2.509   0.973  15.312 -0.0216  0.6596 -0.3153
   65TMC2     C 1012   2.537   0.766  15.678  0.1179 -0.3712 -0.1150
   65TMC2     O 1013   2.497   0.805  15.784  0.0115  0.0549  0.3387
   65TMC2     H 1014   2.630   0.683  15.431 -1.0961 -0.3230 -0.8143
   65TMC2    H1 1015   2.383   0.977  15.633  2.6966  2.2414  1.3833
   65TMC2    H2 1016   2.509   1.034  15.223  1.1099  1.0150 -0.0725
   65TMC2    C7 1017   2.391   1.147  15.426 -0.0553 -0.2908  0.7698
   65TMC2    C8 1018   2.587   0.782  15.196  0.1617  0.2075  0.7306
   65TMC2    O1 1019   2.347   1.180  15.319  0.5292 -0.1685  0.1798
   65TMC2    O2 1020   2.552   0.662  15.184  0.1266 -0.0027  0.4031
   65TMC2    O5 1021   2.700   0.833  15.142  0.4226  0.1382 -0.3269
   65TMC2    H5 1022   2.720   0.928  15.158 -0.6219 -0.0004  1.8114
   66MPD2     C 1023   2.656   0.595  15.899  0.3904  0.0517  0.3464
   66MPD2    C1 1024   2.613   0.552  15.778 -0.7139  0.4161  0.2514
   66MPD2    C2 1025   2.615   0.413  15.758  0.2759  0.0124  0.0084
   66MPD2    C3 1026   2.649   0.323  15.860 -0.1355 -0.7104  0.1629
   66MPD2    C4 1027   2.704   0.367  15.977 -0.3851  1.0947  0.5809
   66MPD2    C5 1028   2.704   0.504  16.000  0.1419 -0.5265  0.6445
   66MPD2     H 1029   2.579   0.376  15.663 -1.6931  0.5866  0.5423
   66MPD2    H1 1030   2.747   0.294  16.043 -0.8386 -0.3934 -0.7672
   66MPD2    H2 1031   2.652   0.701  15.924  0.9841  0.2951 -0.6121
   66MPD2    H3 1032   2.738   0.535  16.098 -0.0798  0.0528  0.5442
   66MPD2     N 1033   2.654   0.178  15.841 -0.1081 -0.0959  0.0836
   66MPD2    H5 1034   2.669   0.128  15.928  2.0776  0.1677 -0.1399
   66MPD2    N1 1035   2.583   0.635  15.665 -0.4522 -0.6045  0.0380
   66MPD2    H7 1036   2.576   0.592  15.573 -1.3598 -0.8353  0.2206
   67TMC2    C1 1037   2.654   4.351  14.645 -0.0121  0.0030 -0.2919
   67TMC2    C2 1038   2.586   4.465  14.657 -0.6157 -0.0772 -0.7242
   67TMC2    C3 1039   2.633   4.572  14.732  0.3972 -0.3624  0.2129
   67TMC2    C4 1040   2.789   4.353  14.688 -0.4049  0.4235 -0.0928
   67TMC2    C5 1041   2.833   4.453  14.767 -0.0231  0.2503 -0.1684
   67TMC2    C6 1042   2.753   4.561  14.794 -0.3731  0.3225  0.5783
   67TMC2     C 1043   2.622   4.243  14.555  0.2381  0.2179  0.4069
   67TMC2     O 1044   2.704   4.160  14.526 -0.4497  0.0741 -0.0475
   67TMC2     H 1045   2.485   4.472  14.619 -0.4564 -0.0005 -1.1315
   67TMC2    H1 1046   2.857   4.270  14.671 -1.8635 -1.0335  1.1853
   67TMC2    H2 1047   2.792   4.645  14.850  0.8082  1.5899 -2.1793
   67TMC2    C7 1048   2.951   4.436  14.838 -0.0485 -0.0443  0.0613
   67TMC2    C8 1049   2.552   4.693  14.748 -0.1162  0.1244  0.7880
   67TMC2    O1 1050   3.028   4.353  14.791 -0.2480 -0.3833 -0.6279
   67TMC2    O2 1051   2.573   0.040  14.834  0.3566 -0.4357 -0.5172
   67TMC2    O5 1052   2.511   4.725  14.624  0.1645  0.2034 -0.4709
   67TMC2    H5 1053   2.513   4.658  14.553 -0.9935  0.7545 -1.0300
   68MPD2     C 1054   2.552   4.169  14.264 -0.0417 -0.4064 -0.2054
   68MPD2    C1 1055   2.464   4.212  14.363 -0.2278 -0.3688  0.2168
   68MPD2    C2 1056   2.332   4.232  14.331 -0.6135 -0.2808  0.1044
   68MPD2    C3 1057   2.277   4.209  14.208  0.0047  0.6437  0.0808
   68MPD2    C4 1058   2.361   4.152  14.112 -0.0093  0.2318 -0.1451
   68MPD2    C5 1059   2.491   4.130  14.146 -0.3344  0.2820 -0.1486
   68MPD2     H 1060   2.268   4.272  14.410  1.8273  1.3198  1.2828
   68MPD2    H1 1061   2.334   4.111  14.016  0.2993 -0.8082  0.2020
   68MPD2    H2 1062   2.659   4.159  14.282  0.5201  2.9611 -1.5602
   68MPD2    H3 1063   2.558   4.076  14.080 -2.9073 -0.1107 -2.4218
   68MPD2     N 1064   2.137   4.238  14.177  0.1244  0.0789  0.8458
   68MPD2    H5 1065   2.106   4.230  14.081  1.4173 -0.5382  0.4778
   68MPD2    N1 1066   2.501   4.249  14.496  0.3369 -0.4755  0.5104
   68MPD2    H7 1067   2.432   4.310  14.538 -0.4875 -1.4908  0.6017
   69TMC2    C1 1068   4.496   1.533  12.762  0.4478  1.4135 -0.0376
   69TMC2    C2 1069   4.382   1.603  12.741  0.0358  0.5644 -0.0847
   69TMC2    C3 1070   4.359   1.640  12.615  0.2758 -0.2959  0.0954
   69TMC2    C4 1071   4.579   1.472  12.664  0.1325  0.1991  0.5742
   69TMC2    C5 1072   4.536   1.497  12.534  0.0740  0.2870 -0.2878
   69TMC2    C6 1073   4.428   1.582  12.510  0.6832  0.3864 -0.4297
   69TMC2     C 1074   4.530   1.499  12.902  0.1056  0.0764  0.1636
   69TMC2     O 1075   4.447   1.484  12.989  0.3236 -0.2107  0.9586
   69TMC2     H 1076   4.326   1.653  12.819  1.7318  1.5636  0.5118
   69TMC2    H1 1077   4.652   1.396  12.689 -1.7082 -1.8019 -0.1500
   69TMC2    H2 1078   4.394   1.605  12.410  0.3019  0.5267 -0.2667
   69TMC2    C7 1079   4.644   1.494  12.434 -0.1676  0.0403 -0.8743
   69TMC2    C8 1080   4.237   1.711  12.600 -0.4249 -0.4241  0.5221
   69TMC2    O1 1081   0.018   1.514  12.486 -0.2075 -0.3369 -0.2971
   69TMC2    O2 1082   4.143   1.723  12.679  0.2763 -0.8854  0.3690
   69TMC2    O5 1083   4.251   1.784  12.485 -0.1677 -0.4912 -0.1133
   69TMC2    H5 1084   4.337   1.778  12.439 -0.2903  2.6240 -0.7237
   70MPD2     C 1085   0.140   1.475  13.019 -0.0079 -0.1261 -0.1677
   70MPD2    C1 1086   0.005   1.441  13.019 -0.4979  0.1678 -0.2607
   70MPD2    C2 1087   4.693   1.339  13.100 -0.1064  0.6910 -0.3920
   70MPD2    C3 1088   0.038   1.277  13.186  0.5137 -0.0474  0.6061
   70MPD2    C4 1089   0.176   1.291  13.180  0.2541 -0.1573  0.0324
   70MPD2    C5 1090   0.227   1.393  13.101 -0.4423  0.4766 -0.1751
   70MPD2     H 1091   4.589   1.308  13.096  0.0393  0.1558  0.0681
   70MPD2    H1 1092   0.252   1.242  13.240  0.2968 -0.5700 -0.3575
   70MPD2    H2 1093   0.177   1.543  12.943  0.6127  0.8230  0.9759
   70MPD2    H3 1094   0.330   1.425  13.112 -0.0280 -0.8992 -0.0542
   70MPD2     N 1095   4.730   1.175  13.269 -0.6892 -0.2520  0.2425
   70MPD2    H5 1096   0.076   1.127  13.307 -0.9083  0.3004  1.4076
   70MPD2    N1 1097   4.668   1.499  12.920  0.1878  0.3852 -0.6448
   70MPD2    H7 1098   4.710   1.568  12.859  1.0345 -0.0527 -0.5561
   71TMC2    C1 1099   2.430   2.209   1.617  0.4872 -0.1613  0.0823
   71TMC2    C2 1100   2.505   2.309   1.680  0.2126 -0.5201  0.4668
   71TMC2    C3 1101   2.438   2.407   1.751  0.3447 -0.0256 -0.1341
   71TMC2    C4 1102   2.295   2.218   1.616 -0.2413  0.2606  0.0008
   71TMC2    C5 1103   2.233   2.328   1.680  0.3764  0.0102  0.5541
   71TMC2    C6 1104   2.303   2.416   1.757  0.1002  0.5459  0.4673
   71TMC2     C 1105   2.507   2.122   1.527  0.3182 -0.5761  0.3518
   71TMC2     O 1106   2.628   2.129   1.532  0.4336 -0.1645 -0.5069
   71TMC2     H 1107   2.613   2.303   1.679  0.1639 -1.3003 -0.6854
   71TMC2    H1 1108   2.229   2.145   1.572  1.3782 -1.0834 -0.1667
   71TMC2    H2 1109   2.261   2.503   1.805 -1.1315 -0.5251  1.3191
   71TMC2    C7 1110   2.093   2.362   1.658 -0.0318 -0.4456 -0.5628
   71TMC2    C8 1111   2.514   2.516   1.815  0.1238  0.6868  0.4863
   71TMC2    O1 1112   2.038   2.436   1.740  0.2789 -0.1976 -0.0770
   71TMC2    O2 1113   2.471   2.629   1.816 -0.6475  0.0411 -0.5258
   71TMC2    O5 1114   2.645   2.488   1.796 -0.2240 -0.4003 -0.1936
   71TMC2    H5 1115   2.651   2.397   1.832 -1.6469  0.8099  3.0947
   72MPD2     C 1116   2.513   1.805   1.121 -0.4526 -0.8622 -0.1961
   72MPD2    C1 1117   2.619   1.840   1.201  0.1514 -0.0958  0.1673
   72MPD2    C2 1118   2.595   1.922   1.303  0.4368 -0.9762 -0.0951
   72MPD2    C3 1119   2.464   1.959   1.332 -0.7102 -0.4856  1.1014
   72MPD2    C4 1120   2.356   1.928   1.249 -0.5090 -0.3619  0.2452
   72MPD2    C5 1121   2.386   1.845   1.141 -0.0689  0.1436 -0.5273
   72MPD2     H 1122   2.682   1.956   1.357  1.5890 -3.6484 -0.2557
   72MPD2    H1 1123   2.257   1.967   1.269 -0.7301 -0.3437 -0.8746
   72MPD2    H2 1124   2.540   1.723   1.056  1.1807 -0.9823  0.6378
   72MPD2    H3 1125   2.307   1.814   1.074 -0.3312  0.4457 -0.3616
   72MPD2     N 1126   2.431   2.048   1.433  0.2621  0.9142  0.7873
   72MPD2    H5 1127   2.331   2.066   1.436 -0.0982 -0.5910 -2.5658
   72MPD2    N1 1128   2.752   1.802   1.170  0.4504  0.2004 -0.4643
   72MPD2    H7 1129   2.816   1.849   1.233 -0.1245 -1.6348  1.4653
   73TMC2    C1 1130   1.714   3.522  14.053  0.6516  0.1185 -0.5254
   73TMC2    C2 1131   1.685   3.646  14.099  0.4295 -0.8119  1.1099
   73TMC2    C3 1132   1.742   3.699  14.210 -0.1262 -0.7602  0.4650
   73TMC2    C4 1133   1.811   3.448  14.121 -0.3917 -0.2351  1.1892
   73TMC2    C5 1134   1.873   3.501  14.234  0.0824 -0.1365  0.1790
   73TMC2    C6 1135   1.831   3.627  14.286  0.1088  0.3687 -0.2192
   73TMC2     C 1136   1.747   3.525  13.909 -0.1733  0.1289  0.2170
   73TMC2     O 1137   1.854   3.476  13.879 -0.8266  0.6837  0.1937
   73TMC2     H 1138   1.620   3.709  14.039  2.0258 -0.3008 -0.0798
   73TMC2    H1 1139   1.848   3.352  14.086 -0.9628 -0.0918  0.1887
   73TMC2    H2 1140   1.873   3.657  14.381 -1.9406 -0.4237  0.9304
   73TMC2    C7 1141   2.016   3.476  14.235 -0.2274 -0.0990 -0.3708
   73TMC2    C8 1142   1.673   3.810  14.264  0.7469  0.4264 -0.4655
   73TMC2    O1 1143   2.078   3.496  14.338 -0.5499  0.1139 -0.2763
   73TMC2    O2 1144   1.567   3.848  14.220  0.0400  0.3522  0.1957
   73TMC2    O5 1145   1.766   3.890  14.309  0.3045  0.1263  0.0740
   73TMC2    H5 1146   1.860   3.863  14.300  0.6445  1.8450 -1.6792
   74MPD2     C 1147   1.757   3.780  13.469  0.3446  0.0670  0.0616
   74MPD2    C1 1148   1.860   3.733  13.540 -1.1114 -0.1807 -0.3047
   74MPD2    C2 1149   1.836   3.676  13.666  0.1725 -0.1185  0.3069
   74MPD2    C3 1150   1.707   3.680  13.718 -0.0934 -1.3195  0.2221
   74MPD2    C4 1151   1.602   3.738  13.645  0.6241  0.0939  0.6638
   74MPD2    C5 1152   1.633   3.792  13.526 -0.3435  1.1286 -0.8682
   74MPD2     H 1153   1.918   3.637  13.726 -0.5632 -0.2995  1.1859
   74MPD2    H1 1154   1.497   3.740  13.673  0.5948 -1.0735  0.6287
   74MPD2    H2 1155   1.777   3.807  13.366  2.4291 -3.4601 -0.4799
   74MPD2    H3 1156   1.548   3.836  13.476 -0.4849  0.8224 -0.8974
   74MPD2     N 1157   1.669   3.615  13.841  0.5240  0.6032  0.2084
   74MPD2    H5 1158   1.574   3.628  13.873  0.3644  1.2026 -0.5274
   74MPD2    N1 1159   1.993   3.737  13.488 -0.3603  1.0246  0.3990
   74MPD2    H7 1160   2.008   3.794  13.405 -1.1504  0.9847  0.2319
   75TMC2    C1 1161   1.916   4.251  14.202 -0.2934  1.0357 -0.0257
   75TMC2    C2 1162   1.807   4.201  14.274  0.9771 -0.3645 -0.2072
   75TMC2    C3 1163   1.681   4.214  14.223 -0.0665  0.8596  0.8296
   75TMC2    C4 1164   1.898   4.332  14.096  0.4370  0.3433 -0.2695
   75TMC2    C5 1165   1.767   4.352  14.053  0.1127 -0.0680  0.1150
   75TMC2    C6 1166   1.665   4.295  14.112  0.2347 -0.2427 -0.0627
   75TMC2     C 1167   2.039   4.254  14.270 -0.0996 -0.8657 -0.0293
   75TMC2     O 1168   2.049   4.243  14.392 -0.0279 -0.3286  0.4177
   75TMC2     H 1169   1.825   4.124  14.347  1.5429  0.4188  0.4788
   75TMC2    H1 1170   1.976   4.397  14.057 -1.0274  0.1713 -3.5142
   75TMC2    H2 1171   1.562   4.312  14.083 -0.6344 -1.5545  2.2443
   75TMC2    C7 1172   1.740   4.453  13.949 -0.1144  0.0418  0.4734
   75TMC2    C8 1173   1.565   4.193  14.310 -0.4125 -0.0694 -0.4938
   75TMC2    O1 1174   1.649   4.422  13.875 -0.1439 -0.5381  0.0077
   75TMC2    O2 1175   1.474   4.272  14.331  0.0049 -0.1670 -0.2498
   75TMC2    O5 1176   1.584   4.078  14.377 -0.2041  0.1087 -0.0661
   75TMC2    H5 1177   1.659   4.023  14.346  0.5042 -0.1754  2.1168
   76TMC2    C1 1178   1.290   0.783  12.522  0.0387 -0.3531 -0.7039
   76TMC2    C2 1179   1.383   0.739  12.428 -0.2230 -0.2673  0.2114
   76TMC2    C3 1180   1.488   0.666  12.480 -0.0805 -0.2884 -0.5330
   76TMC2    C4 1181   1.300   0.745  12.648 -0.6685 -0.0110 -0.2508
   76TMC2    C5 1182   1.411   0.685  12.702  0.3060 -0.1327 -0.3417
   76TMC2    C6 1183   1.509   0.647  12.613  0.1846  0.4713 -0.4481
   76TMC2     C 1184   1.182   0.875  12.483  0.4563  0.0223 -0.5754
   76TMC2     O 1185   1.141   0.872  12.366  0.5203  0.1200 -0.1116
   76TMC2     H 1186   1.372   0.767  12.323 -0.3856  0.2069  0.3515
   76TMC2    H1 1187   1.225   0.776  12.719  1.1862 -0.7012  1.9865
   76TMC2    H2 1188   1.599   0.605  12.655  1.0757  1.8515 -0.9799
   76TMC2    C7 1189   1.411   0.663  12.845 -0.7211 -0.4408  0.6406
   76TMC2    C8 1190   1.593   0.612  12.387  0.0877  0.2499  0.0117
   76TMC2    O1 1191   1.310   0.695  12.910 -0.4408  0.5854  0.3387
   76TMC2    O2 1192   1.712   0.620  12.415 -0.0626  0.4547 -0.3507
   76TMC2    O5 1193   1.560   0.642  12.260 -0.5672 -0.3650 -0.2555
   76TMC2    H5 1194   1.466   0.626  12.237 -0.5512  1.2619 -1.4814
   77MPD2     C 1195   0.857   1.255  12.631 -0.1279  0.4415 -0.5012
   77MPD2    C1 1196   0.860   1.185  12.507  0.1037  0.7423 -0.0585
   77MPD2    C2 1197   0.950   1.081  12.492 -0.0574  0.0317 -0.4083
   77MPD2    C3 1198   1.032   1.034  12.595  0.1558 -0.2336  0.1315
   77MPD2    C4 1199   1.027   1.105  12.715  0.5344 -0.5423  0.8294
   77MPD2    C5 1200   0.944   1.210  12.730  0.4336  0.5006 -0.3000
   77MPD2     H 1201   0.966   1.031  12.397  0.5943 -2.5352  1.0494
   77MPD2    H1 1202   1.101   1.082  12.790 -0.7993  1.2330  2.6766
   77MPD2    H2 1203   0.794   1.338  12.658  0.1359  0.1379  1.0091
   77MPD2    H3 1204   0.951   1.263  12.824 -2.9562 -0.9756  0.7679
   77MPD2     N 1205   1.136   0.940  12.589 -0.1180 -0.2874 -0.4025
   77MPD2    H5 1206   1.187   0.917  12.674  0.3536  0.4596 -0.4835
   77MPD2    N1 1207   0.771   1.236  12.407  0.6276  0.1913 -0.4294
   77MPD2    H7 1208   0.744   1.333  12.417  3.6774  1.1268 -1.1960
   78TMC2    C1 1209   4.661   0.761   1.857  0.0008 -0.0235  0.8324
   78TMC2    C2 1210   4.723   0.643   1.887  0.2605  0.5162  0.3148
   78TMC2    C3 1211   0.117   0.648   1.918 -0.1588  0.1704 -0.0558
   78TMC2    C4 1212   4.733   0.880   1.850 -0.5575 -0.2110  0.1448
   78TMC2    C5 1213   0.130   0.872   1.862  0.2611 -0.6077  0.7488
   78TMC2    C6 1214   0.186   0.761   1.908 -0.0565 -1.0760 -0.3361
   78TMC2     C 1215   4.511   0.776   1.846  0.6739 -0.7885 -0.2805
   78TMC2     O 1216   4.461   0.884   1.818 -0.8787  0.3093 -0.1189
   78TMC2     H 1217   4.680   0.548   1.859  0.2544 -0.1846  2.7387
   78TMC2    H1 1218   4.689   0.967   1.803 -0.1409 -0.8227 -1.3988
   78TMC2    H2 1219   0.290   0.753   1.938 -0.8261 -3.2070  1.6824
   78TMC2    C7 1220   0.221   0.985   1.834  0.2116 -0.3950  0.4240
   78TMC2    C8 1221   0.181   0.531   1.975  0.2214 -0.0320 -0.3036
   78TMC2    O1 1222   0.164   1.091   1.835 -0.0733  0.4074 -0.1610
   78TMC2    O2 1223   0.106   0.443   2.007 -0.0333 -0.0363 -0.3186
   78TMC2    O5 1224   0.285   0.502   1.897  0.0308  0.3759 -0.1273
   78TMC2    H5 1225   0.336   0.565   1.842  2.3190  0.9060  2.5851
   79MPD1     C 1226   4.037   0.621   1.905  0.2250  0.1408  0.0783
   79MPD1    C1 1227   4.082   0.730   1.834  0.2469  0.0677 -0.3257
   79MPD1    C2 1228   4.213   0.736   1.825 -0.3639  0.3518  1.3608
   79MPD1    C3 1229   4.304   0.648   1.883  0.0287 -0.7952  0.1392
   79MPD1    C4 1230   4.249   0.530   1.933 -0.1710 -0.1344  0.2283
   79MPD1    C5 1231   4.117   0.517   1.947 -0.6295 -0.2901  0.6726
   79MPD1     H 1232   4.262   0.825   1.787  0.3865 -0.4112  0.5465
   79MPD1    H1 1233   4.308   0.443   1.961 -0.8091 -0.6787 -0.1321
   79MPD1    H2 1234   3.931   0.606   1.922 -0.1355 -0.1006 -2.2918
   79MPD1    H3 1235   4.063   0.430   1.980  1.1144 -0.6898  2.4338
   79MPD1     N 1236   4.446   0.662   1.883  0.2951 -0.2433 -0.1985
   79MPD1    H5 1237   4.498   0.578   1.906  0.5660 -0.0250 -0.0210
   79MPD1    N1 1238   3.999   0.837   1.795 -0.3008  0.4033  0.0988
   79MPD1    H6 1239   3.900   0.812   1.790  0.5236 -2.6636 -0.4708
   79MPD1    H7 1240   4.031   0.904   1.726  0.3284  1.0166  0.9851
   80TMC2    C1 1241   0.018   0.729  12.339  0.3335 -0.3307  0.1585
   80TMC2    C2 1242   0.135   0.765  12.272  0.9002  0.4767 -0.4328
   80TMC2    C3 1243   0.139   0.718  12.143 -0.3042 -0.3984  1.2354
   80TMC2    C4 1244   4.662   0.625  12.293 -0.0553 -0.1897 -0.1144
   80TMC2    C5 1245   4.681   0.594  12.163 -1.0859 -0.0812  0.4608
   80TMC2    C6 1246   0.048   0.636  12.088  0.2684 -0.7846  0.9429
   80TMC2     C 1247   0.020   0.744  12.484 -0.4446  0.4554  0.0247
   80TMC2     O 1248   0.129   0.749  12.541 -0.4688  0.0217 -0.2286
   80TMC2     H 1249   0.207   0.833  12.316  0.3792  1.0835 -0.5180
   80TMC2    H1 1250   4.589   0.587  12.363 -0.0732 -3.5108 -1.9310
   80TMC2    H2 1251   0.062   0.608  11.984 -0.0263  1.0258  0.4316
   80TMC2    C7 1252   4.588   0.497  12.110  0.2879  0.4777 -0.0256
   80TMC2    C8 1253   0.256   0.742  12.058 -0.3001  0.0181  0.2571
   80TMC2    O1 1254   4.594   0.480  11.992 -0.1326 -0.3125  0.1245
   80TMC2    O2 1255   0.263   0.710  11.940  0.3622 -0.0844 -0.2018
   80TMC2    O5 1256   0.360   0.792  12.122  0.1501  0.1085 -0.5866
   80TMC2    H5 1257   0.368   0.765  12.216  1.3700  0.9473 -0.4404
   81MPD2     C 1258   4.701   0.684  12.786 -0.0900 -1.3268 -0.6272
   81MPD2    C1 1259   4.609   0.713  12.681  0.4721  0.0767 -0.2169
   81MPD2    C2 1260   4.473   0.724  12.717  0.4878  0.6452  0.2711
   81MPD2    C3 1261   4.427   0.676  12.842 -0.2904  0.4736 -0.5473
   81MPD2    C4 1262   4.522   0.633  12.931 -0.0679  0.6363  0.3438
   81MPD2    C5 1263   4.657   0.635  12.902 -0.4256  0.4364  0.3127
   81MPD2     H 1264   4.403   0.754  12.640 -0.3755  1.5617  1.4182
   81MPD2    H1 1265   4.496   0.601  13.032 -1.1388  0.3230 -0.0292
   81MPD2    H2 1266   0.072   0.681  12.768 -0.0284  0.3117 -0.5040
   81MPD2    H3 1267   4.731   0.606  12.976  0.4835 -0.4565 -0.9629
   81MPD2     N 1268   4.291   0.663  12.880 -0.4115 -0.9417 -0.5658
   81MPD2    H5 1269   4.267   0.603  12.958 -0.0174 -0.6551 -0.2266
   81MPD2    N1 1270   4.634   0.744  12.543  0.4318 -0.8383 -0.4385
   81MPD2    H7 1271   4.559   0.758  12.476 -0.4640 -1.3008  0.4474
   82TMC2    C1 1272   3.019   4.390  11.784  0.1199  0.4392  0.0804
   82TMC2    C2 1273   3.059   4.393  11.911 -0.3694  0.0047  0.3081
   82TMC2    C3 1274   3.094   4.271  11.972 -0.3436 -0.7623 -0.0997
   82TMC2    C4 1275   3.004   4.272  11.712 -0.0748  0.6422 -0.3307
   82TMC2    C5 1276   3.035   4.154  11.775 -0.5410 -0.3638 -0.3435
   82TMC2    C6 1277   3.078   4.148  11.908 -0.2719 -0.0762 -0.0094
   82TMC2     C 1278   2.990   4.513  11.708  0.4723 -0.5823 -0.1858
   82TMC2     O 1279   2.907   4.497  11.621 -0.0527 -0.2071  0.1321
   82TMC2     H 1280   3.046   4.486  11.966 -1.6609 -0.6536  1.1331
   82TMC2    H1 1281   2.984   4.280  11.606 -0.2490  3.5774 -0.0837
   82TMC2    H2 1282   3.108   4.062  11.966  0.7142  0.8409  0.8484
   82TMC2    C7 1283   2.949   4.042  11.743 -0.6041 -0.0910 -0.5870
   82TMC2    C8 1284   3.130   4.278  12.109  0.5368 -0.7159 -0.2193
   82TMC2    O1 1285   2.927   3.957  11.827  0.1514 -0.6660  0.2583
   82TMC2    O2 1286   3.106   4.197  12.199 -0.0902 -0.2379  0.1113
   82TMC2    O5 1287   3.206   4.387  12.120 -0.0621  0.1294 -0.0276
   82TMC2    H5 1288   3.229   4.422  12.031  0.0164 -2.4386 -1.0308
   83MPD2     C 1289   3.173   0.172  11.454  0.1166 -0.7054  0.0713
   83MPD2    C1 1290   3.047   0.126  11.462  0.1304  0.4270  0.3127
   83MPD2    C2 1291   3.019   0.029  11.560  0.2009 -0.1980  0.6707
   83MPD2    C3 1292   3.114   4.713  11.643  0.5158  0.3352 -0.1899
   83MPD2    C4 1293   3.242   0.031  11.640  0.5959 -0.3878  0.2232
   83MPD2    C5 1294   3.271   0.130  11.543 -0.5949  0.0136  0.6845
   83MPD2     H 1295   2.920   4.720  11.566 -0.0083  0.2523  0.6039
   83MPD2    H1 1296   3.321   0.003  11.709  0.3259 -0.5161  0.4808
   83MPD2    H2 1297   3.206   0.244  11.381  2.3173  0.1452  1.8927
   83MPD2    H3 1298   3.370   0.171  11.525 -1.6941  2.0660 -0.7017
   83MPD2     N 1299   3.090   4.606  11.727 -0.1282 -0.1708  1.3335
   83MPD2    H5 1300   3.156   4.588  11.802  1.3153 -2.2510 -0.4667
   83MPD2    N1 1301   2.956   0.171  11.366 -0.0665  0.2693 -0.3948
   83MPD2    H7 1302   2.993   0.223  11.287 -1.3645  2.2432  0.2781
   84TMC2    C1 1303   3.487   4.249  11.468 -0.2578  0.0462 -0.3772
   84TMC2    C2 1304   3.414   4.150  11.535 -0.9236 -0.3371 -0.4138
   84TMC2    C3 1305   3.400   4.031  11.470  0.2720 -0.0814 -0.1514
   84TMC2    C4 1306   3.541   4.223  11.345 -0.2767  0.1769 -0.8201
   84TMC2    C5 1307   3.512   4.103  11.281 -0.5125 -0.1036  0.2742
   84TMC2    C6 1308   3.441   4.007  11.346  0.4000  0.3736 -0.4493
   84TMC2     C 1309   3.518   4.372  11.542  0.8099  0.5005  0.0770
   84TMC2     O 1310   3.470   4.395  11.655 -0.5195 -0.7114  0.4364
   84TMC2     H 1311   3.378   4.170  11.635  0.1233  0.4998 -0.2011
   84TMC2    H1 1312   3.612   4.291  11.300 -0.5823 -0.0307 -1.6062
   84TMC2    H2 1313   3.424   3.907  11.306 -1.3847  0.6113 -0.2877
   84TMC2    C7 1314   3.549   4.079  11.145 -0.0048  0.1496 -0.2512
   84TMC2    C8 1315   3.351   3.922  11.549 -0.5645  0.1949 -0.6342
   84TMC2    O1 1316   3.491   3.991  11.081  0.0622 -0.2486 -0.3640
   84TMC2    O2 1317   3.322   3.816  11.499 -0.0463  0.8139 -0.1357
   84TMC2    O5 1318   3.392   3.937  11.673  0.0175  0.0898 -0.3542
   84TMC2    H5 1319   3.414   4.029  11.698 -1.2955  0.0938  0.7443
   85TMC2    C1 1320   0.393   1.801  15.939  0.2082  0.6407 -0.4894
   85TMC2    C2 1321   0.284   1.873  15.896  0.0373  0.2655 -0.1103
   85TMC2    C3 1322   0.288   1.921  15.764 -0.6495 -0.4757  0.6753
   85TMC2    C4 1323   0.498   1.769  15.856 -0.5527  1.2605  0.0134
   85TMC2    C5 1324   0.495   1.811  15.721 -0.2460 -0.1493 -0.5439
   85TMC2    C6 1325   0.388   1.883  15.674 -0.1944 -0.0320  0.1897
   85TMC2     C 1326   0.402   1.752  16.077  0.3792  0.3953  0.8473
   85TMC2     O 1327   0.506   1.760  16.138  0.0835 -0.1821  0.0345
   85TMC2     H 1328   0.196   1.890  15.956 -0.2281 -1.0734 -0.1164
   85TMC2    H1 1329   0.584   1.717  15.897 -0.7198  1.9977  1.2911
   85TMC2    H2 1330   0.364   1.896  15.569 -0.8329  2.0093  0.5915
   85TMC2    C7 1331   0.593   1.771  15.628  0.9588  0.1274 -0.4914
   85TMC2    C8 1332   0.160   1.974  15.710  0.2208 -0.3372  0.7128
   85TMC2    O1 1333   0.667   1.677  15.659 -0.6360  0.2278  0.0996
   85TMC2    O2 1334   0.063   1.968  15.782  0.1418  0.0759 -0.0315
   85TMC2    O5 1335   0.188   2.066  15.623 -0.5038 -0.1747 -0.0875
   85TMC2    H5 1336   0.283   2.057  15.600 -1.2610  0.4928 -3.4390
   86MPD2     C 1337   0.137   1.540  16.467  0.2574 -0.6528 -0.3629
   86MPD2    C1 1338   0.065   1.519  16.345  0.0338  0.0102 -0.0548
   86MPD2    C2 1339   0.111   1.575  16.225 -0.3604 -0.4493  0.2107
   86MPD2    C3 1340   0.230   1.640  16.231  0.1446  0.4318 -0.3503
   86MPD2    C4 1341   0.306   1.659  16.342 -0.0169  0.1087  0.4271
   86MPD2    C5 1342   0.263   1.603  16.456 -0.1444  0.6260  0.2495
   86MPD2     H 1343   0.053   1.561  16.135 -0.4386  1.4244 -0.0389
   86MPD2    H1 1344   0.397   1.716  16.336  0.6491 -0.9325  0.7172
   86MPD2    H2 1345   0.115   1.496  16.564  0.0901 -0.2829 -0.2344
   86MPD2    H3 1346   0.329   1.600  16.542 -0.8726  0.4985  0.8074
   86MPD2     N 1347   0.278   1.695  16.104 -0.2853 -0.0774 -0.3481
   86MPD2    H5 1348   0.211   1.705  16.028  0.5946  0.1576 -1.0852
   86MPD2    N1 1349   4.681   1.439  16.341 -0.2849 -0.5046 -0.3971
   86MPD2    H7 1350   4.643   1.419  16.249  1.8632  2.1872 -1.8551
   87TMC2    C1 1351   2.665   4.527   0.897 -0.0208  1.5393  0.1418
   87TMC2    C2 1352   2.699   4.618   0.992  0.0920  0.1175 -0.2904
   87TMC2    C3 1353   2.627   4.732   1.002  0.2722  0.5075 -0.0529
   87TMC2    C4 1354   2.574   4.562   0.796 -1.2636 -0.0033 -0.0571
   87TMC2    C5 1355   2.510   4.686   0.800  0.3487  0.6447  0.1926
   87TMC2    C6 1356   2.537   0.035   0.899  0.3673 -0.4069  0.5446
   87TMC2     C 1357   2.759   4.424   0.856  0.5320 -0.2120  0.2149
   87TMC2     O 1358   2.737   4.365   0.749 -0.0692 -0.0012  0.2645
   87TMC2     H 1359   2.766   4.589   1.072  0.4113  0.6798 -0.3569
   87TMC2    H1 1360   2.566   4.498   0.709 -3.0099  0.8112 -0.4936
   87TMC2    H2 1361   2.488   0.131   0.910 -0.2141 -0.4756 -1.5792
   87TMC2    C7 1362   2.421   4.721   0.691  0.1387 -0.1187 -0.3355
   87TMC2    C8 1363   2.668   0.079   1.114 -0.9895  0.3066  0.1347
   87TMC2    O1 1364   2.384   0.098   0.669  0.7023  0.5742  0.3712
   87TMC2    O2 1365   2.775   0.076   1.176 -0.2465  0.2374  0.3567
   87TMC2    O5 1366   2.580   0.182   1.128 -0.0618  0.1441 -0.3923
   87TMC2    H5 1367   2.487   0.152   1.115  0.7200 -2.2682 -0.3842
   88MPD2     C 1368   2.309   4.506   0.422  0.6245  0.4473  0.3551
   88MPD2    C1 1369   2.352   4.620   0.473  0.2826  0.0005 -0.1518
   88MPD2    C2 1370   2.355   0.003   0.394  0.1220 -0.6032 -0.2226
   88MPD2    C3 1371   2.326   0.003   0.265  1.1917 -0.0974  0.3096
   88MPD2    C4 1372   2.295   4.618   0.212 -0.8038 -0.1510  0.0766
   88MPD2    C5 1373   2.282   4.506   0.290  0.0398  0.0038  0.0610
   88MPD2     H 1374   2.368   0.100   0.441  0.1848 -0.2084 -1.0522
   88MPD2    H1 1375   2.257   4.609   0.111 -0.5172 -1.0383  0.0524
   88MPD2    H2 1376   2.295   4.412   0.475 -0.6454 -0.1189 -0.9939
   88MPD2    H3 1377   2.243   4.417   0.242 -0.7782  0.0238  0.6904
   88MPD2     N 1378   2.324   0.121   0.187 -0.1539  0.7161  0.1308
   88MPD2    H5 1379   2.293   0.100   0.093 -1.0982 -0.0137  0.6050
   88MPD2    N1 1380   2.396   4.615   0.607  0.1773 -0.0321  0.1659
   88MPD2    H7 1381   2.384   4.522   0.648 -0.8454  0.3708  0.7842
   89TMC2    C1 1382   3.178   3.725   1.914  0.0373 -0.2619 -0.2695
   89TMC2    C2 1383   3.132   3.703   1.789 -0.9059  0.0062  0.7288
   89TMC2    C3 1384   3.131   3.805   1.703 -0.1376  0.4186  0.0920
   89TMC2    C4 1385   3.216   3.846   1.960 -0.3511  0.1282 -0.1724
   89TMC2    C5 1386   3.230   3.941   1.858 -0.5230 -0.2468 -0.0620
   89TMC2    C6 1387   3.172   3.928   1.738 -0.7287 -0.2102  0.2290
   89TMC2     C 1388   3.204   3.611   2.007 -0.9217  0.2034  0.7514
   89TMC2     O 1389   3.185   3.635   2.128  0.4175 -0.0865  0.1613
   89TMC2     H 1390   3.085   3.606   1.773 -0.3579 -0.0320 -0.7247
   89TMC2    H1 1391   3.283   3.844   2.045 -0.5311  1.2671 -0.0085
   89TMC2    H2 1392   3.189   4.007   1.665 -0.5842 -2.0306 -1.6909
   89TMC2    C7 1393   3.347   4.022   1.877 -0.7217 -0.0449 -0.6120
   89TMC2    C8 1394   3.074   3.803   1.575 -0.8106  0.5062 -0.0748
   89TMC2    O1 1395   3.371   4.057   1.990  0.1618  0.8171 -0.3112
   89TMC2    O2 1396   3.024   3.901   1.522  0.6956  0.0313 -0.5822
   89TMC2    O5 1397   3.084   3.675   1.527 -0.4826 -0.0518  0.5862
   89TMC2    H5 1398   3.180   3.658   1.534 -0.4584 -0.8040 -1.5332
   90MPD2     C 1399   3.225   3.109   2.067  0.2215  0.5663 -0.1242
   90MPD2    C1 1400   3.284   3.136   1.948  0.6430 -0.4386 -0.1469
   90MPD2    C2 1401   3.282   3.267   1.914  0.2804 -0.5362  0.1520
   90MPD2    C3 1402   3.222   3.361   1.992 -0.3651 -0.2669  0.8570
   90MPD2    C4 1403   3.165   3.331   2.115 -0.7555 -0.6406  0.4465
   90MPD2    C5 1404   3.163   3.205   2.150 -0.1208  0.7985  0.5721
   90MPD2     H 1405   3.336   3.299   1.825  0.3215  1.2266  0.8129
   90MPD2    H1 1406   3.123   3.394   2.192  0.1786  0.3283  0.1592
   90MPD2    H2 1407   3.223   3.009   2.110  0.0540  1.0963  1.0972
   90MPD2    H3 1408   3.116   3.170   2.240 -0.7185  2.0795  0.7593
   90MPD2     N 1409   3.226   3.493   1.939  0.0270  0.1212 -0.5417
   90MPD2    H5 1410   3.265   3.487   1.846  1.6816  0.0978  0.1693
   90MPD2    N1 1411   3.321   3.041   1.853 -0.0363  0.4286  0.4054
   90MPD2    H7 1412   3.370   3.065   1.767 -0.8099 -1.3869 -0.5449
   91TMC2    C1 1413   0.280   2.347  16.464 -0.6478 -0.3329 -0.1597
   91TMC2    C2 1414   0.315   2.312  16.335 -0.1890 -0.7984 -0.0082
   91TMC2    C3 1415   0.220   2.251  16.262  0.3817 -0.7655 -0.9239
   91TMC2    C4 1416   0.165   2.312  16.526 -0.5452 -0.6397  0.1062
   91TMC2    C5 1417   0.063   2.268  16.439 -0.5951 -0.1815 -0.4957
   91TMC2    C6 1418   0.094   2.226  16.316 -0.0010 -0.7030  0.7428
   91TMC2     C 1419   0.373   2.428  16.539 -0.1760 -1.0459 -0.3519
   91TMC2     O 1420   0.347   2.440  16.656 -0.2906 -0.4821 -1.0687
   91TMC2     H 1421   0.412   2.333  16.292 -0.5394  2.1048  0.5864
   91TMC2    H1 1422   0.132   2.346  16.624  1.3157  3.5285 -0.7213
   91TMC2    H2 1423   0.039   2.157  16.252 -0.5664  1.2042 -0.8421
   91TMC2    C7 1424   4.675   2.255  16.508  0.7579 -0.8352  0.6034
   91TMC2    C8 1425   0.245   2.201  16.127  0.4358 -0.5088  0.2887
   91TMC2    O1 1426   4.673   2.247  16.631 -0.2135 -0.2239 -0.4550
   91TMC2    O2 1427   0.182   2.114  16.062  0.7149 -0.3327 -0.1734
   91TMC2    O5 1428   0.330   2.290  16.073 -0.1727 -0.3583 -0.0180
   91TMC2    H5 1429   0.351   2.369  16.126  1.4371 -2.0805  1.9306
   92MPD2     C 1430   0.601   2.593  16.649 -0.1041  0.2445 -0.0526
   92MPD2    C1 1431   0.588   2.555  16.514 -0.2181 -0.0811 -0.5144
   92MPD2    C2 1432   0.673   2.614  16.422  0.0687  0.5733  0.5539
   92MPD2    C3 1433   0.749   2.722  16.458  0.4059 -0.1023  0.3137
   92MPD2    C4 1434   0.750   2.763  16.589  0.1457 -0.1442  0.9827
   92MPD2    C5 1435   0.687   2.694  16.687  0.0666 -0.9553  0.3692
   92MPD2     H 1436   0.667   2.598  16.315  1.6593  1.7955  0.2985
   92MPD2    H1 1437   0.802   2.853  16.619  1.5792 -0.5308 -0.3310
   92MPD2    H2 1438   0.529   2.547  16.714  0.1203  0.1621  0.1383
   92MPD2    H3 1439   0.681   2.735  16.787 -0.5497  0.5833 -0.2906
   92MPD2     N 1440   0.803   2.798  16.351  0.1407 -0.2898  0.1302
   92MPD2    H5 1441   0.801   2.756  16.259 -1.0949  1.2262 -0.5334
   92MPD2    N1 1442   0.483   2.471  16.468  0.2844 -0.8647 -0.4158
   92MPD2    H7 1443   0.483   2.457  16.368  0.2613  0.9793 -0.6688
   93TMC2    C1 1444   1.908   3.037  13.902  0.0020 -0.2494  0.6811
   93TMC2    C2 1445   1.884   3.055  14.040 -0.5211 -0.1669 -0.1078
   93TMC2    C3 1446   1.984   3.071  14.122  0.1796 -0.2663  0.1260
   93TMC2    C4 1447   2.033   3.050  13.852 -0.2378 -0.2724 -0.3560
   93TMC2    C5 1448   2.128   3.094  13.942  0.4718  0.4729  0.7405
   93TMC2    C6 1449   2.113   3.103  14.071 -0.0518  0.0286  1.1159
   93TMC2     C 1450   1.819   2.946  13.827 -0.4113 -0.5377  0.8918
   93TMC2     O 1451   1.872   2.879  13.739 -0.3346  0.0852  0.5257
   93TMC2     H 1452   1.786   3.031  14.081 -1.0675 -0.7828 -1.7735
   93TMC2    H1 1453   2.060   3.009  13.755 -0.7597 -3.4886  0.8651
   93TMC2    H2 1454   2.192   3.153  14.127  0.1625  0.6097  0.2849
   93TMC2    C7 1455   2.256   3.122  13.887  0.2163 -0.1152  0.7193
   93TMC2    C8 1456   1.946   3.095  14.260  0.2202  0.0991 -0.7324
   93TMC2    O1 1457   2.355   3.110  13.964 -0.4359 -0.0912 -0.6793
   93TMC2    O2 1458   1.844   3.154  14.282  0.6466 -0.1463  0.1351
   93TMC2    O5 1459   2.060   3.091  14.335  1.0161 -0.1335 -0.4517
   93TMC2    H5 1460   2.124   3.021  14.308  0.7719  0.5230 -2.7163
   94MPD2     C 1461   1.625   2.740  13.736 -1.0489  0.5477 -0.2189
   94MPD2    C1 1462   1.597   2.845  13.824 -0.2405 -0.2203 -0.0215
   94MPD2    C2 1463   1.466   2.864  13.865  0.0083  0.4380 -0.7570
   94MPD2    C3 1464   1.362   2.790  13.816 -0.1463 -0.1421  0.1094
   94MPD2    C4 1465   1.394   2.676  13.742  0.5117  0.3769 -0.3223
   94MPD2    C5 1466   1.518   2.657  13.705  0.9057 -0.2330 -0.3134
   94MPD2     H 1467   1.440   2.937  13.940 -0.7389 -2.0045  1.3750
   94MPD2    H1 1468   1.320   2.600  13.719  1.4996 -0.9121  0.7494
   94MPD2    H2 1469   1.727   2.707  13.722 -1.2675  0.0732 -0.6927
   94MPD2    H3 1470   1.548   2.569  13.648 -2.6302 -0.8465 -1.2293
   94MPD2     N 1471   1.227   2.809  13.841  1.0695 -0.2817 -0.2144
   94MPD2    H5 1472   1.162   2.740  13.806  1.0007  0.9151 -2.3884
   94MPD2    N1 1473   1.691   2.940  13.876  0.4827 -0.0098 -0.1056
   94MPD2    H7 1474   1.663   3.004  13.949  0.5080  0.6497 -0.6677
   95TMC2    C1 1475   2.010   4.696  16.520  0.1984  0.4262  0.1091
   95TMC2    C2 1476   1.962   4.601  16.613  0.3964 -0.0859  0.8892
   95TMC2    C3 1477   1.906   4.640  16.730 -0.3378 -0.3740  0.2761
   95TMC2    C4 1478   2.001   0.091  16.552  0.0789  0.0256  0.5732
   95TMC2    C5 1479   1.953   0.125  16.675  0.0072  0.2730 -0.5832
   95TMC2    C6 1480   1.899   0.036  16.767 -0.1171  0.3410 -0.4205
   95TMC2     C 1481   2.049   4.650  16.389  0.2228 -0.3757  0.0167
   95TMC2     O 1482   2.126   4.718  16.324  0.0803 -0.3849  0.4513
   95TMC2     H 1483   1.977   4.497  16.587 -0.3016 -0.1416  0.6942
   95TMC2    H1 1484   2.029   0.159  16.472 -1.2432 -0.0775  0.0187
   95TMC2    H2 1485   1.858   0.066  16.862  1.3695  1.1921 -0.0391
   95TMC2    C7 1486   1.956   0.268  16.722 -0.6262  0.5025  0.3990
   95TMC2    C8 1487   1.868   4.541  16.826 -0.0509 -0.0643 -0.5529
   95TMC2    O1 1488   1.895   0.281  16.830  0.0943 -0.0564 -0.2593
   95TMC2    O2 1489   1.777   4.553  16.908 -0.1348 -0.1790  0.0855
   95TMC2    O5 1490   1.956   4.443  16.827  0.1218  0.3245  0.0943
   95TMC2    H5 1491   2.037   4.475  16.780  0.3024 -1.0824 -0.5317
   96MPD2     C 1492   2.114   4.278  16.038 -0.1219 -0.0939 -0.8965
   96MPD2    C1 1493   2.170   4.405  16.052 -0.2283 -0.2450  0.5054
   96MPD2    C2 1494   2.126   4.483  16.160  0.3067 -0.3154 -0.4282
   96MPD2    C3 1495   2.024   4.442  16.246  0.0153 -0.0938 -0.4043
   96MPD2    C4 1496   1.969   4.316  16.233  0.0527 -0.0882  0.4117
   96MPD2    C5 1497   2.020   4.237  16.131  0.0184  0.5084  0.4366
   96MPD2     H 1498   2.165   4.584  16.162 -0.1458 -0.1654  0.7235
   96MPD2    H1 1499   1.892   4.278  16.298  0.0296 -1.3548 -0.3455
   96MPD2    H2 1500   2.142   4.207  15.961  1.1570 -0.2193 -0.3241
   96MPD2    H3 1501   1.975   4.140  16.114 -1.2247  1.1906 -0.1748
   96MPD2     N 1502   1.982   4.536  16.347  0.6933 -0.3143  0.3835
   96MPD2    H5 1503   1.907   4.507  16.409  1.8397 -0.4501  1.7143
   96MPD2    N1 1504   2.269   4.439  15.963  0.5209 -0.0838 -0.4557
   96MPD2    H7 1505   2.290   4.367  15.895 -0.6904 -2.5088  1.7398
   97TMC2    C1 1506   4.350   2.680   0.805  0.5808 -0.3164  0.1951
   97TMC2    C2 1507   4.217   2.694   0.807 -0.3165 -0.4962  0.3339
   97TMC2    C3 1508   4.161   2.753   0.698  0.2908 -0.1834 -0.5006
   97TMC2    C4 1509   4.429   2.740   0.712 -0.1782  0.0600 -0.1240
   97TMC2    C5 1510   4.374   2.812   0.607  0.4510  0.3864 -0.3757
   97TMC2    C6 1511   4.237   2.820   0.604 -0.4316 -0.5308  0.0446
   97TMC2     C 1512   4.403   2.622   0.923 -0.0470 -0.0021 -0.1783
   97TMC2     O 1513   4.352   2.645   1.034  0.4579 -0.6252 -0.2564
   97TMC2     H 1514   4.162   2.624   0.870  0.5888 -1.6186 -0.1219
   97TMC2    H1 1515   4.536   2.725   0.713 -0.1403  0.3567  0.5034
   97TMC2    H2 1516   4.194   2.883   0.527 -1.3773 -1.4197 -0.1520
   97TMC2    C7 1517   4.450   2.910   0.538 -0.1314 -0.1900 -0.0817
   97TMC2    C8 1518   4.017   2.758   0.689  0.2051 -0.3305 -0.0701
   97TMC2    O1 1519   4.563   2.930   0.584  0.4224 -0.0210  0.1316
   97TMC2    O2 1520   3.954   2.745   0.587  0.6343 -0.4069  0.0795
   97TMC2    O5 1521   3.993   2.841   0.793 -0.3472 -0.6405 -0.1017
   97TMC2    H5 1522   4.055   2.845   0.868  0.0938  0.5609 -0.5371
   98MPD2     C 1523   0.011   2.327   1.170 -0.3180 -0.2178 -0.3412
   98MPD2    C1 1524   4.698   2.454   1.200 -0.3960 -0.0755 -0.4433
   98MPD2    C2 1525   4.613   2.514   1.113  0.2532  0.4272 -0.0357
   98MPD2    C3 1526   4.576   2.463   0.989  1.6478  0.5754 -0.5436
   98MPD2    C4 1527   4.620   2.337   0.958 -0.3138  1.0498 -0.2183
   98MPD2    C5 1528   4.712   2.276   1.044  0.2059  0.0412 -0.6017
   98MPD2     H 1529   4.593   2.620   1.122 -0.3759  0.3710 -0.6994
   98MPD2    H1 1530   4.593   2.299   0.860 -0.5539 -0.0337  0.2682
   98MPD2    H2 1531   0.083   2.272   1.229  0.8473  1.0278 -0.5890
   98MPD2    H3 1532   0.027   2.185   1.015 -0.9729 -1.7290  2.8562
   98MPD2     N 1533   4.496   2.524   0.890  0.3103 -0.9433 -0.0088
   98MPD2    H5 1534   4.505   2.493   0.793 -2.1053  0.5259 -0.7017
   98MPD2    N1 1535   0.006   2.507   1.325  0.5787 -0.2733 -0.0838
   98MPD2    H7 1536   0.085   2.460   1.369  1.7133 -1.2706 -3.1854
   99TMC2    C1 1537   3.174   4.278   1.461  0.0219 -0.1323  0.4293
   99TMC2    C2 1538   3.238   4.389   1.510 -0.5370  0.2528  0.1884
   99TMC2    C3 1539   3.195   4.439   1.628 -0.4457  0.1981  0.1276
   99TMC2    C4 1540   3.061   4.222   1.534 -0.2187  0.2268  0.6620
   99TMC2    C5 1541   3.021   4.280   1.649 -0.5134 -0.0915  0.2891
   99TMC2    C6 1542   3.087   4.390   1.695  0.3147  0.4162  0.1250
   99TMC2     C 1543   3.246   4.218   1.350  0.0123 -0.1024  0.9067
   99TMC2     O 1544   3.326   4.288   1.295 -0.2316  0.2031 -0.0921
   99TMC2     H 1545   3.327   4.435   1.469  0.9797 -3.6134 -0.7596
   99TMC2    H1 1546   3.013   4.131   1.500  0.1413  0.6542 -0.9682
   99TMC2    H2 1547   3.048   4.446   1.779  2.4866  3.2680 -0.7532
   99TMC2    C7 1548   2.912   4.240   1.728 -0.2086 -0.5031  0.1476
   99TMC2    C8 1549   3.243   4.579   1.638  0.0878 -0.6782 -0.3662
   99TMC2    O1 1550   2.908   4.273   1.849 -0.0219 -0.1528  0.6319
   99TMC2    O2 1551   3.288   4.638   1.545  0.1345  0.3652  0.0282
   99TMC2    O5 1552   3.229   4.616   1.771  0.1172 -0.1185 -0.3630
   99TMC2    H5 1553   3.220   4.541   1.834  1.1800  1.1920  1.3622
  100MPD2     C 1554   3.399   4.044   1.156 -0.0931  0.2061  0.2283
  100MPD2    C1 1555   3.279   4.013   1.221 -0.1206 -0.1642 -0.4845
  100MPD2    C2 1556   3.218   3.901   1.177  0.5600 -0.4473  0.1783
  100MPD2    C3 1557   3.274   3.810   1.088 -0.2751  0.3292 -0.0126
  100MPD2    C4 1558   3.389   3.840   1.034  0.4350  0.0508 -0.7528
  100MPD2    C5 1559   3.446   3.960   1.063  0.0906 -0.4967  0.0307
  100MPD2     H 1560   3.119   3.888   1.220  0.3678 -2.1465 -0.7445
  100MPD2    H1 1561   3.443   3.774   0.968  3.3244  2.4025 -0.7450
  100MPD2    H2 1562   3.458   4.134   1.169 -0.8291  0.8610 -0.9014
  100MPD2    H3 1563   3.532   3.986   1.002  0.2760 -0.0830  0.4728
  100MPD2     N 1564   3.206   3.694   1.055 -0.0441  0.1126  0.2397
  100MPD2    H5 1565   3.107   3.690   1.077  0.1141 -2.5685  0.3544
  100MPD2    N1 1566   3.203   4.099   1.306  0.0596  0.6609 -0.9144
  100MPD2    H7 1567   3.113   4.068   1.341  0.2788  1.9222  0.7309
  101TMC2    C1 1568   3.711   0.289  13.681  0.1555 -0.3436 -0.7284
  101TMC2    C2 1569   3.801   0.351  13.768  0.5373 -0.0376 -0.3297
  101TMC2    C3 1570   3.903   0.432  13.715 -0.1210  0.0196 -0.3490
  101TMC2    C4 1571   3.708   0.315  13.547 -0.0890  0.1512 -0.0441
  101TMC2    C5 1572   3.811   0.400  13.498 -0.2579 -0.0400 -0.8212
  101TMC2    C6 1573   3.905   0.461  13.585 -0.1626 -0.2562 -0.5127
  101TMC2     C 1574   3.638   0.175  13.728 -0.2122  0.5401  0.2045
  101TMC2     O 1575   3.580   0.192  13.837  0.3801  0.6491  0.5336
  101TMC2     H 1576   3.789   0.327  13.873  1.7548  1.0551  0.0558
  101TMC2    H1 1577   3.638   0.276  13.475  0.6656  0.2808 -0.8513
  101TMC2    H2 1578   3.989   0.516  13.544 -0.8717 -0.3598 -2.1096
  101TMC2    C7 1579   3.778   0.459  13.373 -0.0465 -0.7931  0.3688
  101TMC2    C8 1580   4.004   0.481  13.804  0.0475 -0.0271  0.0108
  101TMC2    O1 1581   3.679   0.423  13.320 -0.3707  0.2103 -0.3380
  101TMC2    O2 1582   4.083   0.405  13.862  0.5371  0.1720  0.1615
  101TMC2    O5 1583   4.032   0.603  13.760 -0.2775  0.2741  0.3665
  101TMC2    H5 1584   3.957   0.659  13.731 -0.2029  0.9661  1.4797
  102MPD2     C 1585   3.590   4.593  13.540  0.6489  0.5736 -0.0105
  102MPD2    C1 1586   3.573   4.680  13.641  0.4295 -0.2790 -0.0826
  102MPD2    C2 1587   3.505   4.636  13.755  0.9394 -0.3491  0.0074
  102MPD2    C3 1588   3.415   4.528  13.738  0.1346  0.0387  0.1421
  102MPD2    C4 1589   3.418   4.452  13.621  0.4590 -0.6213  0.1626
  102MPD2    C5 1590   3.512   4.479  13.525  0.3890 -0.3113 -0.7154
  102MPD2     H 1591   3.520   4.696  13.844 -2.1032  1.6154 -0.8240
  102MPD2    H1 1592   3.350   4.369  13.601 -0.7435  0.2190  0.7721
  102MPD2    H2 1593   3.653   4.622  13.457  0.8456 -1.3026 -0.5148
  102MPD2    H3 1594   3.524   4.417  13.436  0.7835  2.6932 -2.7493
  102MPD2     N 1595   3.323   4.502  13.843  0.9395  0.4509 -0.4787
  102MPD2    H5 1596   3.332   4.559  13.927 -0.3155 -1.9173  1.2711
  102MPD2    N1 1597   3.645   0.069  13.635  0.0846  0.7169 -0.2472
  102MPD2    H7 1598   3.704   0.082  13.553 -1.1082  0.4931 -1.1441
  103TMC2    C1 1599   1.952   0.215  13.215 -0.7428  0.6148  0.0973
  103TMC2    C2 1600   2.003   0.118  13.136 -0.2095  0.6809  0.4878
  103TMC2    C3 1601   2.087   0.022  13.196 -0.3066  0.1195  0.7627
  103TMC2    C4 1602   1.987   0.227  13.347 -0.4880  0.5031  0.0515
  103TMC2    C5 1603   2.089   0.144  13.395  0.2182 -0.0867  0.5482
  103TMC2    C6 1604   2.142   0.045  13.316 -1.1304  0.1039 -0.6847
  103TMC2     C 1605   1.862   0.304  13.144  0.5493  0.0287  0.6987
  103TMC2     O 1606   1.869   0.305  13.024  0.3144 -0.2102  0.4261
  103TMC2     H 1607   1.967   0.100  13.035 -0.1178 -0.3346  0.6324
  103TMC2    H1 1608   1.938   0.291  13.419  0.1129 -0.0087  0.9139
  103TMC2    H2 1609   2.227   4.723  13.351 -0.3328  1.7207  0.0673
  103TMC2    C7 1610   2.132   0.163  13.532 -0.4497 -0.5252 -0.0850
  103TMC2    C8 1611   2.150   4.662  13.110  0.0860  0.0077  0.0868
  103TMC2    O1 1612   2.122   0.280  13.573 -0.0351 -0.2101  0.2082
  103TMC2    O2 1613   2.178   4.551  13.149 -0.3062 -0.1209 -0.3151
  103TMC2    O5 1614   2.174   4.718  12.994  0.1092 -0.4371  0.0544
  103TMC2    H5 1615   2.175   0.079  13.011  0.5828 -0.4917  0.3564
  104MPD2     C 1616   1.607   0.514  13.292  0.3364 -0.2526  1.2011
  104MPD2    C1 1617   1.688   0.469  13.191  0.0710  0.1683 -0.0750
  104MPD2    C2 1618   1.655   0.502  13.062 -0.1941 -0.1322 -0.4726
  104MPD2    C3 1619   1.542   0.576  13.038  0.7324 -0.2411  0.0858
  104MPD2    C4 1620   1.463   0.620  13.137  0.2563 -0.4920  0.2166
  104MPD2    C5 1621   1.497   0.590  13.263  0.1367 -0.5385  0.5638
  104MPD2     H 1622   1.712   0.462  12.979  0.7504  0.6192 -0.1813
  104MPD2    H1 1623   1.375   0.683  13.124 -0.9927 -2.3023 -0.1262
  104MPD2    H2 1624   1.617   0.487  13.396  0.2014 -0.8218  1.0672
  104MPD2    H3 1625   1.436   0.624  13.346 -0.1061 -0.0411  0.1827
  104MPD2     N 1626   1.514   0.590  12.896 -0.5788 -0.4158 -0.0844
  104MPD2    H5 1627   1.585   0.555  12.833 -1.1756 -1.2132 -0.3161
  104MPD2    N1 1628   1.782   0.375  13.230 -0.5575 -0.5783 -0.2194
  104MPD2    H7 1629   1.795   0.357  13.329 -0.2113 -2.3249 -0.5928
  105TMC2    C1 1630   3.265   3.871   0.284  0.0123  0.1049  0.2388
  105TMC2    C2 1631   3.139   3.877   0.232 -0.0356 -0.3343  0.1570
  105TMC2    C3 1632   3.036   3.908   0.316 -0.0384  0.4798 -0.1670
  105TMC2    C4 1633   3.303   3.920   0.404  0.2351  0.2520  0.1873
  105TMC2    C5 1634   3.201   3.951   0.490  0.3405 -0.1187 -0.1198
  105TMC2    C6 1635   3.063   3.941   0.445 -0.0937 -0.3355 -0.1077
  105TMC2     C 1636   3.369   3.877   0.175  0.6081  0.5046  0.5606
  105TMC2     O 1637   3.475   3.818   0.203  0.0794  0.5022  0.4343
  105TMC2     H 1638   3.110   3.844   0.133 -3.9623 -0.5667  1.3984
  105TMC2    H1 1639   3.402   3.920   0.448  0.5723 -1.2090 -0.5616
  105TMC2    H2 1640   2.978   3.953   0.511  0.0346  1.5357 -0.2727
  105TMC2    C7 1641   3.232   4.014   0.620  0.5532  1.2364 -0.7596
  105TMC2    C8 1642   2.897   3.881   0.285  0.5169  0.9799 -0.0157
  105TMC2    O1 1643   3.345   4.009   0.666  0.1063 -0.0710 -0.4632
  105TMC2    O2 1644   2.808   3.874   0.369 -0.3411 -0.0239 -0.0791
  105TMC2    O5 1645   2.870   3.907   0.156 -0.5643 -0.6881  0.1951
  105TMC2    H5 1646   2.950   3.939   0.108 -1.9079  2.2846 -0.0768
  106MPD2     C 1647   3.529   4.076  17.471  0.1330  0.1385 -0.3771
  106MPD2    C1 1648   3.422   4.148  17.516 -0.1734  0.0416  0.1776
  106MPD2    C2 1649   3.354   4.115  17.633  0.6278  1.1855  0.2630
  106MPD2    C3 1650   3.402   4.003  17.707 -0.1282 -0.1984 -0.5715
  106MPD2    C4 1651   3.517   3.940  17.665  0.0683  1.2464  0.5046
  106MPD2    C5 1652   3.578   3.979  17.552  0.7205 -0.5510  0.0726
  106MPD2     H 1653   3.278   4.174  17.681 -0.4370 -0.4547  0.5855
  106MPD2    H1 1654   3.553   3.857  17.725 -0.1898  0.0237 -1.0376
  106MPD2    H2 1655   3.594   4.101  17.388  1.2564  0.5697  0.6388
  106MPD2    H3 1656   3.645   3.912  17.499 -0.2361 -1.6075  0.2005
  106MPD2     N 1657   3.330   3.964   0.076  0.0854  0.0669 -0.1628
  106MPD2    H5 1658   3.245   4.016   0.093  0.3999  0.3536  0.5477
  106MPD2    N1 1659   3.383   4.266  17.447  0.1389 -1.0005 -0.0836
  106MPD2    H7 1660   3.311   4.325  17.486 -0.3988 -0.5292 -1.7741
  107TMC2    C1 1661   3.262   0.233  11.938  0.2702  0.0768  0.2150
  107TMC2    C2 1662   3.219   0.356  11.900  0.5683 -0.6824 -0.1173
  107TMC2    C3 1663   3.318   0.431  11.838  0.0063 -1.1233  0.7374
  107TMC2    C4 1664   3.393   0.192  11.922 -0.2784 -0.1421 -0.3714
  107TMC2    C5 1665   3.488   0.271  11.867  0.3208  0.4314 -0.3612
  107TMC2    C6 1666   3.452   0.396  11.830  0.2056  0.0918  0.1897
  107TMC2     C 1667   3.171   0.140  11.998  0.5311 -0.5431  0.0138
  107TMC2     O 1668   3.223   0.060  12.078 -0.3765 -0.2020 -0.1770
  107TMC2     H 1669   3.116   0.386  11.919  1.3049 -0.3666  3.3831
  107TMC2    H1 1670   3.403   0.087  11.949  4.3393  0.4813  0.2609
  107TMC2    H2 1671   3.523   0.463  11.785  0.4203 -1.0162 -1.1209
  107TMC2    C7 1672   3.610   0.220  11.802  0.5085 -0.5124 -1.0967
  107TMC2    C8 1673   3.300   0.575  11.822 -0.2458  0.3665 -0.0411
  107TMC2    O1 1674   3.677   0.303  11.741 -0.0680 -0.7686 -0.2467
  107TMC2    O2 1675   3.199   0.621  11.770  0.0942 -0.2515  0.2338
  107TMC2    O5 1676   3.371   0.637  11.920  0.1833 -0.8249 -0.5509
  107TMC2    H5 1677   3.430   0.578  11.972  0.5928 -0.0529 -0.1370
  108MPD2     C 1678   2.838   0.043  11.895  0.2932  0.1121 -0.3316
  108MPD2    C1 1679   2.947   0.049  11.981  0.0453  0.4683 -0.6015
  108MPD2    C2 1680   2.954   4.689  12.076  0.1014  0.1177  0.3489
  108MPD2    C3 1681   2.860   4.589  12.098  0.6669 -0.7440  0.5227
  108MPD2    C4 1682   2.752   4.583  12.006  0.1798  0.5572  0.5774
  108MPD2    C5 1683   2.745   4.673  11.902  1.2855 -0.2531 -0.0522
  108MPD2     H 1684   3.036   4.696  12.147 -0.6704 -0.0958  1.2687
  108MPD2    H1 1685   2.671   4.515  12.027  1.7706 -1.0066  1.6569
  108MPD2    H2 1686   2.830   0.112  11.811  3.4541  0.7531 -0.0955
  108MPD2    H3 1687   2.658   4.653  11.840  1.2585 -0.5187  0.0734
  108MPD2     N 1688   2.871   4.489  12.205  0.0652 -0.3246  0.5553
  108MPD2    H5 1689   2.813   4.407  12.211  0.0881 -0.5155 -1.6423
  108MPD2    N1 1690   3.039   0.146  11.950  0.1905  0.4362  0.0249
  108MPD2    H7 1691   2.999   0.209  11.881  3.0438 -0.0788 -2.1382
  109TMC2    C1 1692   1.152   2.401   1.548 -0.9877  0.3848 -0.2602
  109TMC2    C2 1693   1.265   2.478   1.551  0.0216  0.0751  0.2448
  109TMC2    C3 1694   1.258   2.609   1.512  0.4884 -0.5062 -0.1723
  109TMC2    C4 1695   1.034   2.444   1.506  0.1877 -0.5673  0.7812
  109TMC2    C5 1696   1.025   2.571   1.458 -0.1184  0.0247  0.2283
  109TMC2    C6 1697   1.134   2.655   1.456  0.2980  0.2605 -0.4473
  109TMC2     C 1698   1.166   2.263   1.600 -0.2075 -0.5929  0.0059
  109TMC2     O 1699   1.266   2.235   1.661 -0.2666 -0.4192  0.4005
  109TMC2     H 1700   1.357   2.432   1.586  0.4828  0.1451 -0.8857
  109TMC2    H1 1701   0.944   2.384   1.495 -0.8609  1.1908 -0.1768
  109TMC2    H2 1702   1.120   2.762   1.439 -1.1777  0.1696  0.1309
  109TMC2    C7 1703   0.887   2.620   1.446 -0.1930 -0.5180  0.1593
  109TMC2    C8 1704   1.364   2.706   1.519 -0.0076 -0.6858 -0.0851
  109TMC2    O1 1705   0.792   2.542   1.466  0.5852 -0.5390 -0.4086
  109TMC2    O2 1706   1.357   2.810   1.454  0.3348 -0.1521 -0.4064
  109TMC2    O5 1707   1.448   2.674   1.618 -0.3947  0.5465  0.2608
  109TMC2    H5 1708   1.412   2.606   1.679 -1.7882  0.3744 -0.7338
  110MPD2     C 1709   0.953   1.806   1.720 -0.4859 -0.0054  0.6231
  110MPD2    C1 1710   0.865   1.875   1.645 -0.3518  0.7659 -0.5886
  110MPD2    C2 1711   0.910   1.998   1.601  0.0489 -0.2231 -0.1090
  110MPD2    C3 1712   1.038   2.050   1.626 -0.1244 -1.4197 -0.3220
  110MPD2    C4 1713   1.122   1.979   1.711  0.0705 -0.9190  0.0584
  110MPD2    C5 1714   1.077   1.856   1.752  0.3549 -0.2980  0.3576
  110MPD2     H 1715   0.839   2.063   1.549 -1.5129  0.0227  2.3458
  110MPD2    H1 1716   1.219   2.020   1.738 -0.0765  0.0183 -0.8737
  110MPD2    H2 1717   0.926   1.710   1.763 -1.8470  0.1644  0.1556
  110MPD2    H3 1718   1.135   1.787   1.812  0.7745  0.3789  0.7280
  110MPD2     N 1719   1.054   2.183   1.584 -0.6591 -0.2575  0.3266
  110MPD2    H5 1720   0.972   2.216   1.534 -0.1227 -1.1344 -1.1363
  110MPD2    N1 1721   0.739   1.821   1.626 -0.5197  0.4503 -0.1467
  110MPD2    H7 1722   0.720   1.747   1.693  0.5324 -0.3702 -0.7501
  111TMC2    C1 1723   3.366   1.392  12.414 -0.1955  0.3643  0.5369
  111TMC2    C2 1724   3.290   1.280  12.424 -0.2859 -0.0587 -0.1401
  111TMC2    C3 1725   3.342   1.176  12.502 -0.8291  0.2954  0.1024
  111TMC2    C4 1726   3.487   1.394  12.466  0.5029  0.2321 -0.7389
  111TMC2    C5 1727   3.527   1.297  12.557 -0.2335 -0.2360 -0.6347
  111TMC2    C6 1728   3.458   1.180  12.576  0.5810  0.0794 -0.2407
  111TMC2     C 1729   3.334   1.478  12.300 -0.1631 -1.0552  0.9242
  111TMC2     O 1730   3.414   1.491  12.212 -0.2487  0.0448 -0.4334
  111TMC2     H 1731   3.190   1.272  12.383 -0.9327 -0.9858  1.6106
  111TMC2    H1 1732   3.544   1.487  12.460 -1.4954  1.5906  1.5177
  111TMC2    H2 1733   3.482   1.102  12.647  1.4276  1.8974  1.4855
  111TMC2    C7 1734   3.673   1.294  12.596  0.0542 -0.0536  0.6138
  111TMC2    C8 1735   3.256   1.060  12.535  0.6010 -0.9080  0.3346
  111TMC2    O1 1736   3.698   1.220  12.691 -0.2158  0.0457 -0.5455
  111TMC2    O2 1737   3.253   0.990  12.635 -0.0139  0.1429 -0.2596
  111TMC2    O5 1738   3.184   1.039  12.425  0.6967 -0.4274  0.5463
  111TMC2    H5 1739   3.230   1.090  12.355 -0.1089 -1.0482 -0.4432
  112MPD2     C 1740   3.002   1.781  12.044 -0.3283  0.6098  0.2234
  112MPD2    C1 1741   3.127   1.744  12.018 -0.2522  0.3134  0.6447
  112MPD2    C2 1742   3.197   1.657  12.102  0.6082  0.3354 -0.4374
  112MPD2    C3 1743   3.135   1.602  12.211  0.4563 -0.0422  0.7953
  112MPD2    C4 1744   3.010   1.636  12.244  0.7627  0.6533 -0.5738
  112MPD2    C5 1745   2.937   1.717  12.155 -0.2438  0.1890  0.0220
  112MPD2     H 1746   3.300   1.636  12.077  1.0623  2.6839 -0.5306
  112MPD2    H1 1747   2.964   1.596  12.334 -0.7323  1.0545 -1.1689
  112MPD2    H2 1748   2.941   1.860  12.002 -0.1201  1.1784  0.9789
  112MPD2    H3 1749   2.833   1.735  12.178 -0.4269 -1.9299  0.8469
  112MPD2     N 1750   3.201   1.512  12.299 -0.5399  0.7264 -0.4706
  112MPD2    H5 1751   3.149   1.490  12.383 -1.7907 -0.7550 -1.6326
  112MPD2    N1 1752   3.203   1.804  11.917  0.4354 -0.4305 -0.3138
  112MPD2    H7 1753   3.302   1.786  11.923  0.4992  0.4548  1.2508
  113TMC2    C1 1754   1.933   3.697   0.729  0.3242 -0.4969  0.5504
  113TMC2    C2 1755   1.873   3.800   0.651  0.0703 -0.1869 -0.0847
  113TMC2    C3 1756   1.807   3.772   0.533 -0.5003  0.6008  0.1023
  113TMC2    C4 1757   1.924   3.570   0.683 -0.5100 -0.0652  0.8918
  113TMC2    C5 1758   1.858   3.544   0.563  0.0980  0.3904 -0.8240
  113TMC2    C6 1759   1.805   3.642   0.488 -0.7957 -0.0885 -0.4596
  113TMC2     C 1760   1.994   3.739   0.856 -0.3072 -0.3628 -0.0434
  113TMC2     O 1761   1.944   3.836   0.913  0.0115 -0.5754  0.1695
  113TMC2     H 1762   1.889   3.899   0.692 -0.3547  0.4692 -1.5181
  113TMC2    H1 1763   1.981   3.490   0.729 -0.1757  0.0536  0.6765
  113TMC2    H2 1764   1.757   3.622   0.393  0.0092  0.5047 -0.9872
  113TMC2    C7 1765   1.843   3.410   0.515  0.1433  0.2479  0.6277
  113TMC2    C8 1766   1.757   3.880   0.455 -0.4342 -0.2854  0.3585
  113TMC2    O1 1767   1.831   3.399   0.394 -0.2237 -0.5314  0.4891
  113TMC2    O2 1768   1.740   3.981   0.517 -0.2166  0.5251  0.5797
  113TMC2    O5 1769   1.820   3.870   0.341 -0.7870  0.1734  0.1036
  113TMC2    H5 1770   1.869   3.785   0.338 -0.9480  0.1602 -2.0441
  114MPD2     C 1771   2.439   3.809   1.123  0.4318 -0.3104 -0.6127
  114MPD2    C1 1772   2.326   3.889   1.123 -0.0297 -0.9606  0.4061
  114MPD2    C2 1773   2.219   3.854   1.040 -0.1259 -0.3959  0.0759
  114MPD2    C3 1774   2.212   3.726   0.974  0.7323  0.4335 -0.3444
  114MPD2    C4 1775   2.326   3.644   0.985  0.8543 -0.4277 -0.1522
  114MPD2    C5 1776   2.432   3.688   1.056 -0.6797 -0.5410 -0.1034
  114MPD2     H 1777   2.132   3.919   1.045 -1.4848 -2.3042  0.9854
  114MPD2    H1 1778   2.336   3.542   0.950 -0.8172 -0.4623 -0.4985
  114MPD2    H2 1779   2.536   3.828   1.169 -0.3302 -5.1494  2.9705
  114MPD2    H3 1780   2.510   3.613   1.061 -0.9493 -0.9029 -1.2855
  114MPD2     N 1781   2.110   3.674   0.893 -0.5698  0.1616  0.1436
  114MPD2    H5 1782   2.128   3.586   0.846  0.3244  0.9580 -1.0009
  114MPD2    N1 1783   2.317   4.005   1.214 -0.0012  0.4063  0.1779
  114MPD2    H7 1784   2.237   4.065   1.194  0.5364  1.1674  0.3068
  115TMC2    C1 1785   2.904   1.638   0.374  0.4856 -0.6178 -0.4645
  115TMC2    C2 1786   2.890   1.579   0.501 -0.4300 -0.5189 -0.2233
  115TMC2    C3 1787   2.953   1.632   0.606  0.7622 -0.1628 -0.7685
  115TMC2    C4 1788   2.990   1.740   0.364  0.2915  0.4538  0.3120
  115TMC2    C5 1789   3.058   1.790   0.472  0.2177  0.3575 -0.1066
  115TMC2    C6 1790   3.051   1.724   0.594 -0.2790 -0.0414 -0.0525
  115TMC2     C 1791   2.807   1.593   0.278 -0.4959  0.6084  0.3957
  115TMC2     O 1792   2.760   1.483   0.290 -0.2445  0.4569  0.5198
  115TMC2     H 1793   2.815   1.502   0.518 -1.7732  1.4966  3.0264
  115TMC2    H1 1794   3.015   1.777   0.266  0.0092 -0.2308 -0.0214
  115TMC2    H2 1795   3.093   1.776   0.679 -1.3274 -0.0482  0.4645
  115TMC2    C7 1796   3.118   1.923   0.487  0.0331 -0.6980  0.6020
  115TMC2    C8 1797   2.928   1.571   0.729 -0.3701  0.6909  0.3080
  115TMC2    O1 1798   3.164   1.958   0.598 -0.0680 -0.0306 -0.1880
  115TMC2    O2 1799   2.825   1.508   0.758 -0.0130  0.2930 -0.0025
  115TMC2    O5 1800   3.041   1.575   0.802  0.4307  0.0079  0.0868
  115TMC2    H5 1801   3.120   1.603   0.751 -0.4231  1.1396 -0.6194
  116MPD2     C 1802   2.498   1.679  17.613  0.7305 -0.3900  0.1075
  116MPD2    C1 1803   2.530   1.558  17.669  1.0304 -0.1991  0.2960
  116MPD2    C2 1804   2.623   1.558   0.033  0.8849  0.2549 -0.2015
  116MPD2    C3 1805   2.690   1.671   0.071 -0.1532  0.0242 -0.1866
  116MPD2    C4 1806   2.659   1.785   0.002  0.0156 -0.3389 -0.1468
  116MPD2    C5 1807   2.564   1.792  17.649  0.0323 -0.1336 -0.0228
  116MPD2     H 1808   2.654   1.468   0.084 -0.4692  0.5965  1.2072
  116MPD2    H1 1809   2.716   1.875   0.016 -2.6953  1.2743  0.6115
  116MPD2    H2 1810   2.430   1.690  17.529 -0.3260 -2.1499  0.7180
  116MPD2    H3 1811   2.540   1.888  17.604  1.8310  0.5895  0.5914
  116MPD2     N 1812   2.784   1.684   0.177 -1.0330 -0.3769  0.4651
  116MPD2    H5 1813   2.830   1.773   0.188  1.4078 -1.9063  2.7966
  116MPD2    N1 1814   2.467   1.442  17.613 -0.0747 -0.1262 -0.4533
  116MPD2    H7 1815   2.407   1.442  17.530 -1.7848  0.5969  0.7833
  117TMC2    C1 1816   1.123   3.279  14.141  0.1933  0.4915  0.4227
  117TMC2    C2 1817   1.234   3.193  14.159 -0.3646 -0.2311 -0.2051
  117TMC2    C3 1818   1.356   3.249  14.135  0.0543  0.0884  1.0310
  117TMC2    C4 1819   1.136   3.406  14.096  0.6128  0.1458  0.4365
  117TMC2    C5 1820   1.268   3.453  14.083  0.2190  0.4888  0.5542
  117TMC2    C6 1821   1.378   3.376  14.100 -0.4756 -0.1944 -0.3684
  117TMC2     C 1822   0.986   3.228  14.153 -0.8913 -0.3005  0.1660
  117TMC2     O 1823   0.977   3.107  14.159  0.1906 -0.0225  0.5536
  117TMC2     H 1824   1.220   3.094  14.201  2.1741  0.4093  2.0782
  117TMC2    H1 1825   1.051   3.469  14.073  0.0998 -0.3515  1.0055
  117TMC2    H2 1826   1.478   3.404  14.069 -0.1806 -2.8110 -1.8371
  117TMC2    C7 1827   1.302   3.574  14.017  0.3684 -0.0273 -0.5373
  117TMC2    C8 1828   1.451   3.143  14.123 -0.1955 -0.2665 -0.5020
  117TMC2    O1 1829   1.415   3.589  13.970  0.2051  0.0651  0.6105
  117TMC2    O2 1830   1.458   3.058  14.208  0.2713 -0.3471  0.1094
  117TMC2    O5 1831   1.554   3.183  14.044 -0.3138 -0.3402  0.5019
  117TMC2    H5 1832   1.524   3.239  13.969  0.0858 -0.7224  0.0534
  118MPD2     C 1833   1.096   3.867  14.058 -0.1548 -0.1627  0.6440
  118MPD2    C1 1834   1.208   3.802  14.010 -0.3663  0.3478  0.2906
  118MPD2    C2 1835   1.308   3.863  13.931  0.8565 -1.4680 -0.4558
  118MPD2    C3 1836   1.295   4.002  13.910 -0.0174  0.5064  0.4753
  118MPD2    C4 1837   1.181   4.065  13.961 -0.6731 -0.4863 -0.4211
  118MPD2    C5 1838   1.088   4.002  14.039 -0.1114  0.0736  0.1827
  118MPD2     H 1839   1.393   3.805  13.898  1.0895 -1.8248  0.7865
  118MPD2    H1 1840   1.179   4.173  13.952 -0.4048 -0.4681 -0.2697
  118MPD2    H2 1841   1.027   3.811  14.121 -0.0219  0.1446  1.0544
  118MPD2    H3 1842   1.003   4.058  14.077 -0.5078 -0.0481 -0.5316
  118MPD2     N 1843   1.399   4.080  13.853 -0.6850  0.4510 -0.3043
  118MPD2    H5 1844   1.388   4.177  13.822  1.0052  0.7467 -0.0122
  118MPD2    N1 1845   1.212   3.672  14.058 -1.0301  0.2597 -0.6343
  118MPD2    H7 1846   1.140   3.641  14.123 -0.0486  2.2583  1.3921
  119TMC2    C1 1847   4.568   4.624  14.039 -0.0555 -0.6116 -0.2831
  119TMC2    C2 1848   4.666   4.657  13.952 -0.1970  0.1283 -0.2466
  119TMC2    C3 1849   4.651   4.619  13.820  0.0003  0.3290 -0.4483
  119TMC2    C4 1850   4.462   4.549  13.994 -1.1567  0.2962  0.2464
  119TMC2    C5 1851   4.452   4.507  13.870 -0.2905 -0.0819 -1.2255
  119TMC2    C6 1852   4.545   4.544  13.776  0.2800  0.3649 -0.2477
  119TMC2     C 1853   4.564   4.683  14.176  0.6381  0.2385 -0.2236
  119TMC2     O 1854   4.474   4.652  14.254  0.0704  0.1717 -0.9227
  119TMC2     H 1855   0.011   4.723  13.983 -0.5510  0.9020 -0.9738
  119TMC2    H1 1856   4.385   4.524  14.066  2.1776  0.2509  3.8679
  119TMC2    H2 1857   4.530   4.502  13.678  0.7225 -0.0521 -0.1367
  119TMC2    C7 1858   4.314   4.505  13.819  0.0188 -0.1247 -0.5060
  119TMC2    C8 1859   0.005   4.688  13.729 -0.4222  0.8629  0.6464
  119TMC2    O1 1860   4.292   4.536  13.703 -0.1476 -0.3701 -1.0016
  119TMC2    O2 1861   0.062   0.049  13.779 -1.3810  0.4032 -0.4926
  119TMC2    O5 1862   4.686   4.683  13.606 -0.2558  0.1847 -0.1031
  119TMC2    H5 1863   4.640   4.602  13.576 -0.0812  0.6579 -1.6407
  120MPD2     C 1864   0.057   0.192  14.566 -0.6633  0.3208  0.0897
  120MPD2    C1 1865   4.667   0.145  14.552 -0.6093 -0.0498 -0.2767
  120MPD2    C2 1866   4.625   0.103  14.427  0.0119 -0.4426 -0.5259
  120MPD2    C3 1867   4.699   0.103  14.317  0.0268  0.9366  0.4592
  120MPD2    C4 1868   0.083   0.162  14.331 -0.6812 -0.5210 -0.0058
  120MPD2    C5 1869   0.132   0.204  14.451 -0.6964 -0.1330  0.4658
  120MPD2     H 1870   4.522   0.073  14.413  0.4557 -3.0083  1.6897
  120MPD2    H1 1871   0.145   0.177  14.243 -0.3864 -1.5890  0.0199
  120MPD2    H2 1872   0.086   0.228  14.665 -2.0567 -1.2997  1.0936
  120MPD2    H3 1873   0.221   0.265  14.456 -0.5426 -0.5121  2.4790
  120MPD2     N 1874   4.666   0.038  14.196 -0.5658  0.1890 -0.0350
  120MPD2    H5 1875   0.004   0.049  14.127  0.2177 -1.5788  0.5176
  120MPD2    N1 1876   4.583   0.138  14.669  0.1150  0.0721 -0.2788
  120MPD2    H7 1877   4.619   0.180  14.755  0.8773  1.1326 -1.1237
  121TMC2    C1 1878   0.646   1.463  14.084 -0.7170  0.4939 -0.3423
  121TMC2    C2 1879   0.597   1.342  14.129 -0.4288  0.0898  0.7824
  121TMC2    C3 1880   0.468   1.312  14.101  0.0925 -0.4451 -0.0937
  121TMC2    C4 1881   0.575   1.545  13.996 -0.2394 -0.4085 -0.1412
  121TMC2    C5 1882   0.446   1.505  13.979 -1.0095 -0.3296 -0.1702
  121TMC2    C6 1883   0.389   1.388  14.021 -0.5299 -0.8747 -0.4912
  121TMC2     C 1884   0.780   1.482  14.108 -1.0369  0.2199 -0.6480
  121TMC2     O 1885   0.827   1.448  14.216 -0.0252  0.2324  0.7350
  121TMC2     H 1886   0.661   1.269  14.176 -0.7701 -0.8450 -0.2098
  121TMC2    H1 1887   0.609   1.645  13.970  0.5466 -0.0327  2.2350
  121TMC2    H2 1888   0.287   1.353  14.010 -1.0052 -0.2504  2.0688
  121TMC2    C7 1889   0.356   1.605  13.918 -0.3844 -0.0467  0.3674
  121TMC2    C8 1890   0.426   1.179  14.145 -0.2705  0.2823  0.1756
  121TMC2    O1 1891   0.411   1.708  13.880  0.1665  0.2611 -0.1263
  121TMC2    O2 1892   0.335   1.125  14.083  0.2746 -0.0443  0.5193
  121TMC2    O5 1893   0.428   1.186  14.278  0.1504  0.1137  0.1983
  121TMC2    H5 1894   0.516   1.209  14.316 -0.1648  0.3839  0.7569
  122MPD2     C 1895   1.032   1.645  14.139  0.4279  0.1262  0.3122
  122MPD2    C1 1896   0.966   1.628  14.021  0.1265  0.1863 -0.4766
  122MPD2    C2 1897   1.019   1.687  13.903 -0.1452  0.0177 -1.2643
  122MPD2    C3 1898   1.130   1.769  13.909 -0.0073  0.3521  0.5147
  122MPD2    C4 1899   1.195   1.786  14.021  0.6018  0.4324  0.3160
  122MPD2    C5 1900   1.139   1.734  14.136 -0.5910 -0.1286 -0.3875
  122MPD2     H 1901   0.977   1.682  13.804  0.2770 -0.6795 -1.4077
  122MPD2    H1 1902   1.286   1.843  14.028  0.0963  1.0847  1.5386
  122MPD2    H2 1903   1.005   1.598  14.233  0.2072  0.4441  0.4099
  122MPD2    H3 1904   1.194   1.739  14.229 -1.0417  3.4377 -0.3434
  122MPD2     N 1905   1.182   1.813  13.784 -0.3260  0.0907 -0.0976
  122MPD2    H5 1906   1.132   1.786  13.700 -0.0315  1.6704 -0.7832
  122MPD2    N1 1907   0.844   1.558  14.009  0.5576  0.1141  0.5903
  122MPD2    H7 1908   0.806   1.558  13.915  3.7434  0.3137 -0.6998
  123TMC2    C1 1909   0.310   0.276  10.660  0.1092  0.8317 -0.6066
  123TMC2    C2 1910   0.380   0.378  10.724  0.5895  0.4793  0.1084
  123TMC2    C3 1911   0.361   0.505  10.672  0.4158 -0.1836 -0.3906
  123TMC2    C4 1912   0.225   0.297  10.558 -0.6840  0.3040 -0.0185
  123TMC2    C5 1913   0.222   0.424  10.503 -0.2782 -0.1891 -0.1688
  123TMC2    C6 1914   0.286   0.528  10.562 -0.5637  0.2691  0.0513
  123TMC2     C 1915   0.288   0.149  10.731 -0.7693 -0.7372  0.1850
  123TMC2     O 1916   0.387   0.102  10.787 -0.3925  0.1690 -0.6388
  123TMC2     H 1917   0.454   0.354  10.800  0.3348  0.0951  0.2367
  123TMC2    H1 1918   0.168   0.226  10.499 -0.4812  0.4930 -0.4464
  123TMC2    H2 1919   0.283   0.625  10.513  1.1116  0.3233  0.0704
  123TMC2    C7 1920   0.104   0.446  10.420  0.1466  0.6458 -0.3895
  123TMC2    C8 1921   0.415   0.617  10.741  0.4516  0.2987  0.1258
  123TMC2    O1 1922   0.056   0.356  10.358 -0.0532  0.3511 -0.3577
  123TMC2    O2 1923   0.426   0.731  10.701 -0.7321 -0.2946 -0.4010
  123TMC2    O5 1924   0.426   0.577  10.873  0.0476  0.3466  0.2773
  123TMC2    H5 1925   0.400   0.483  10.879 -0.5474  0.4234 -1.1385
  124MPD2     C 1926   4.684   4.548  10.916 -0.2535  0.4731 -0.0639
  124MPD2    C1 1927   4.617   4.664  10.876 -0.2180  0.1743 -0.3615
  124MPD2    C2 1928   4.694   0.032  10.817  0.9821  0.1092 -0.6077
  124MPD2    C3 1929   0.092   0.019  10.799 -0.1428  0.3899 -0.0805
  124MPD2    C4 1930   0.157   4.641  10.846  0.8186 -0.0416  0.2205
  124MPD2    C5 1931   0.088   4.542  10.907  0.3883 -0.1053  0.1596
  124MPD2     H 1932   4.646   0.122  10.780  1.9141  1.8813  2.4490
  124MPD2    H1 1933   0.265   4.633  10.841  0.8787  0.8136  0.2196
  124MPD2    H2 1934   4.633   4.466  10.966 -1.3495  1.2623  0.1064
  124MPD2    H3 1935   0.141   4.455  10.946 -0.1174 -0.4892 -0.0024
  124MPD2     N 1936   0.153   0.125  10.738  0.5948  0.0665 -0.4814
  124MPD2    H5 1937   0.102   0.203  10.698 -4.1645 -2.2704  1.0399
  124MPD2    N1 1938   4.479   4.683  10.905 -0.2780  0.6388  0.1599
  124MPD2    H7 1939   4.433   4.604  10.949 -1.3848  0.4471 -1.3564
  125TMC2    C1 1940   4.618   1.047   9.198 -0.0580 -0.0273  0.5717
  125TMC2    C2 1941   4.612   0.914   9.168  0.3256 -0.4640 -0.0180
  125TMC2    C3 1942   4.730   0.851   9.132 -0.1342 -0.2630 -0.3540
  125TMC2    C4 1943   4.732   1.119   9.194 -0.2577  0.0913 -0.3612
  125TMC2    C5 1944   0.113   1.057   9.160 -0.7109 -0.0909 -0.4324
  125TMC2    C6 1945   0.109   0.927   9.120  0.2573 -0.5747 -0.2189
  125TMC2     C 1946   4.498   1.117   9.225 -0.0737 -0.5538  0.3342
  125TMC2     O 1947   4.400   1.046   9.239 -0.1126  0.0950  0.3347
  125TMC2     H 1948   4.519   0.857   9.162 -0.1640  0.4255 -0.8431
  125TMC2    H1 1949   0.003   1.218   9.239 -1.1088 -0.8921  1.9082
  125TMC2    H2 1950   0.196   0.876   9.081  1.0529  0.3155  0.3799
  125TMC2    C7 1951   0.239   1.120   9.185 -1.0748  0.2771 -0.2004
  125TMC2    C8 1952   0.000   0.706   9.118  0.2166 -0.4526 -0.0364
  125TMC2    O1 1953   0.251   1.230   9.141 -0.2278  0.2340 -0.2404
  125TMC2    O2 1954   0.094   0.656   9.055 -0.0951  0.2142  0.1212
  125TMC2    O5 1955   4.667   0.639   9.214  0.7256  0.0960 -0.2456
  125TMC2    H5 1956   4.608   0.693   9.272  0.4142 -1.5999  1.0053
  126MPD1     C 1957   4.206   1.530   9.257 -0.5779  0.0222 -0.3252
  126MPD1    C1 1958   4.335   1.569   9.247  0.4196 -0.0336  0.0812
  126MPD1    C2 1959   4.435   1.475   9.220 -0.3982  0.0399 -0.2030
  126MPD1    C3 1960   4.402   1.348   9.197 -0.1661  0.3539  0.1018
  126MPD1    C4 1961   4.272   1.299   9.227  0.4790  0.1239 -0.5337
  126MPD1    C5 1962   4.177   1.395   9.254  0.0642  0.2554  1.0002
  126MPD1     H 1963   4.536   1.511   9.202 -0.9242  0.7513 -1.7294
  126MPD1    H1 1964   4.246   1.196   9.208  2.1545 -0.4520  0.2471
  126MPD1    H2 1965   4.128   1.603   9.274 -1.4731 -0.9748 -0.1244
  126MPD1    H3 1966   4.073   1.365   9.257  0.1279  0.2893  3.4397
  126MPD1     N 1967   4.508   1.256   9.198 -0.0780 -0.0320 -0.1491
  126MPD1    H5 1968   4.597   1.300   9.174  0.6098 -1.4084 -0.1358
  126MPD1    N1 1969   4.363   1.702   9.290 -0.2105  0.0530  0.0544
  126MPD1    H6 1970   4.442   1.746   9.243 -0.2085 -1.7226 -1.6239
  126MPD1    H7 1971   4.292   1.769   9.261 -0.9822  0.0617  1.9636
  127TMC2    C1 1972   1.075   0.018   9.990  0.1646  0.7721  0.7583
  127TMC2    C2 1973   1.164   4.719  10.087  0.0345  0.0859 -0.0022
  127TMC2    C3 1974   1.147   4.598  10.139  0.2811  0.5189 -0.1619
  127TMC2    C4 1975   0.958   4.676   9.975  0.0051 -0.8250 -0.6282
  127TMC2    C5 1976   0.938   4.555  10.049 -0.7526  0.0668  0.1609
  127TMC2    C6 1977   1.038   4.514  10.130 -0.0587  0.2996  0.1286
  127TMC2     C 1978   1.102   0.141   9.915  0.2809  0.4415  0.7405
  127TMC2     O 1979   1.215   0.187   9.935  0.4560 -0.1608  0.4641
  127TMC2     H 1980   1.267   0.019  10.087  0.1380 -0.2171 -0.4519
  127TMC2    H1 1981   0.879   4.711   9.910 -0.2412 -0.1414  0.0453
  127TMC2    H2 1982   1.049   4.416  10.177 -0.9512 -1.3066 -2.9874
  127TMC2    C7 1983   0.812   4.485  10.036  1.2129  0.8398 -0.2357
  127TMC2    C8 1984   1.244   4.566  10.245  1.6095 -0.9087 -0.0482
  127TMC2    O1 1985   0.741   4.522   9.937 -0.5018 -0.4268 -0.2989
  127TMC2    O2 1986   1.361   4.583  10.217  0.3834 -0.5655  0.4722
  127TMC2    O5 1987   1.189   4.524  10.362  0.0775  0.3989 -0.4715
  127TMC2    H5 1988   1.094   4.544  10.375 -0.4381 -2.1010 -0.3663
  128MPD2     C 1989   0.893   0.315   9.677 -0.8841 -0.4118  0.5828
  128MPD2    C1 1990   1.006   0.287   9.751  0.6230 -0.0669  0.5765
  128MPD2    C2 1991   1.116   0.368   9.734 -0.4774 -0.5786 -0.6612
  128MPD2    C3 1992   1.114   0.476   9.641  0.4229  0.0562 -0.5978
  128MPD2    C4 1993   0.995   0.502   9.582  0.1239  0.3390 -0.0530
  128MPD2    C5 1994   0.890   0.426   9.598  0.6768  0.2803 -0.0689
  128MPD2     H 1995   1.208   0.332   9.780 -1.4205  0.5658  2.1324
  128MPD2    H1 1996   0.989   0.583   9.511  2.0258 -0.0100 -0.6185
  128MPD2    H2 1997   0.800   0.262   9.686 -1.1157 -0.1581 -0.2610
  128MPD2    H3 1998   0.802   0.439   9.535  2.1039 -1.8102 -2.4854
  128MPD2     N 1999   1.236   0.550   9.613 -0.5719  0.1295  0.3458
  128MPD2    H5 2000   1.317   0.525   9.669 -0.6366 -0.1187  0.3278
  128MPD2    N1 2001   0.996   0.184   9.842  0.8378  0.2514  0.9875
  128MPD2    H7 2002   0.904   0.143   9.856  0.2397  0.6635 -1.6470
  129TMC2    C1 2003   0.427   1.112   1.354  0.3513  0.0513 -0.6157
  129TMC2    C2 2004   0.373   1.235   1.329 -0.2827 -0.2037 -0.6104
  129TMC2    C3 2005   0.246   1.266   1.384 -0.3875 -0.2681  0.5338
  129TMC2    C4 2006   0.349   1.015   1.411  0.1909 -0.1087 -0.1240
  129TMC2    C5 2007   0.224   1.050   1.452 -0.1574 -0.7445  0.2643
  129TMC2    C6 2008   0.166   1.169   1.442  0.1259 -0.8441  0.2617
  129TMC2     C 2009   0.544   1.060   1.296 -0.3279  0.5220  0.0234
  129TMC2     O 2010   0.586   0.952   1.338  0.2961 -0.4721 -0.3123
  129TMC2     H 2011   0.442   1.302   1.279  0.5990 -1.9103 -1.7023
  129TMC2    H1 2012   0.383   0.913   1.422  0.7232 -0.0181 -0.8955
  129TMC2    H2 2013   0.064   1.194   1.468  0.2922 -0.9651  1.0307
  129TMC2    C7 2014   0.128   0.949   1.500  0.1444  0.1859  0.3500
  129TMC2    C8 2015   0.193   1.395   1.331 -1.0909  0.1127 -0.7599
  129TMC2    O1 2016   0.015   0.980   1.537  0.4073 -0.6264  0.2467
  129TMC2    O2 2017   0.091   1.432   1.387 -0.4012  0.8583 -0.4829
  129TMC2    O5 2018   0.211   1.403   1.198  0.1575  0.1120  0.0911
  129TMC2    H5 2019   0.269   1.329   1.170  0.5764  1.1113 -1.6861
  130MPD2     C 2020   0.819   1.032   1.204  0.3835  0.4972  0.0898
  130MPD2    C1 2021   0.718   1.094   1.127  0.2459  0.3430  0.0883
  130MPD2    C2 2022   0.748   1.131   0.995 -0.2758  0.1037  0.7722
  130MPD2    C3 2023   0.876   1.109   0.940  0.2463  0.7663 -0.1884
  130MPD2    C4 2024   0.966   1.040   1.015 -0.4231 -0.1787  0.5373
  130MPD2    C5 2025   0.945   1.010   1.146  0.4848 -0.2426  0.1523
  130MPD2     H 2026   0.675   1.175   0.928  1.4849 -0.6104 -1.5855
  130MPD2    H1 2027   1.063   1.001   0.984 -0.4416 -0.7303  1.1896
  130MPD2    H2 2028   0.810   1.006   1.309 -0.8486  0.0195 -0.1448
  130MPD2    H3 2029   1.020   0.954   1.201  0.5746 -2.3207 -2.0665
  130MPD2     N 2030   0.911   1.162   0.810 -0.3328  0.3729  0.4164
  130MPD2    H5 2031   0.832   1.196   0.757  2.3681  1.6312 -2.8274
  130MPD2    N1 2032   0.590   1.124   1.181 -0.0714 -0.4391 -0.4427
  130MPD2    H7 2033   0.534   1.193   1.133  0.6301  0.7842  0.4662
  131TMC2    C1 2034   4.546   0.811  11.304  0.8609  1.1781  0.1369
  131TMC2    C2 2035   4.645   0.752  11.382  0.5596  0.2052 -0.2545
  131TMC2    C3 2036   4.725   0.835  11.459 -0.0242  0.1307  0.0766
  131TMC2    C4 2037   4.544   0.948  11.291  0.1340  0.3776 -0.8497
  131TMC2    C5 2038   4.643   1.024  11.345 -1.0508  0.0093  0.5551
  131TMC2    C6 2039   4.730   0.965  11.433  0.5927 -0.1800  0.8762
  131TMC2     C 2040   4.445   0.726  11.246 -0.1905 -0.6920  0.1942
  131TMC2     O 2041   4.451   0.604  11.261  0.1261  0.7726 -0.4366
  131TMC2     H 2042   4.642   0.645  11.399 -2.2943  0.6260  1.9776
  131TMC2    H1 2043   4.462   0.995  11.238 -1.3049  0.7616  1.7128
  131TMC2    H2 2044   0.074   1.025  11.476 -0.3509 -0.0576  2.4399
  131TMC2    C7 2045   4.649   1.171  11.318  0.3467 -0.1727 -0.5309
  131TMC2    C8 2046   0.069   0.757  11.551  0.0329 -0.7107  0.5714
  131TMC2    O1 2047   4.735   1.238  11.377 -0.3606 -0.1554 -0.3108
  131TMC2    O2 2048   0.077   0.635  11.555 -0.6198  0.6172 -0.5740
  131TMC2    O5 2049   0.068   0.838  11.658 -0.1171 -0.4121 -0.5743
  131TMC2    H5 2050   0.046   0.931  11.635 -0.4385  0.3639  2.8894
  132MPD2     C 2051   4.121   0.818  11.090 -0.0358 -0.2162 -0.4209
  132MPD2    C1 2052   4.230   0.734  11.120  0.8538  0.6372 -0.1406
  132MPD2    C2 2053   4.218   0.598  11.086  0.3032  0.0364  0.1756
  132MPD2    C3 2054   4.102   0.548  11.039  0.0219  0.7060 -0.3774
  132MPD2    C4 2055   3.999   0.628  10.999  0.2775  0.1471 -0.6678
  132MPD2    C5 2056   4.008   0.759  11.034 -0.0512  0.3657 -0.7462
  132MPD2     H 2057   4.295   0.524  11.106 -0.0249 -0.3952 -0.1680
  132MPD2    H1 2058   3.905   0.586  10.962  1.5000 -0.4511 -3.1385
  132MPD2    H2 2059   4.116   0.925  11.111  0.1473 -0.1535 -0.6918
  132MPD2    H3 2060   3.921   0.820  11.015  0.2780  1.9520  2.9005
  132MPD2     N 2061   4.116   0.414  10.999  0.4739  0.3939 -0.4970
  132MPD2    H5 2062   4.210   0.375  10.996 -0.5133 -1.7671 -3.1871
  132MPD2    N1 2063   4.340   0.790  11.184  0.1155  0.1040  0.0803
  132MPD2    H7 2064   4.341   0.891  11.172 -1.2761 -0.0402 -1.2634
  133TMC2    C1 2065   4.370   1.284   9.579 -0.2952 -0.2094 -0.0867
  133TMC2    C2 2066   4.444   1.174   9.561 -0.2589 -0.2439  0.5224
  133TMC2    C3 2067   4.558   1.162   9.631 -0.2255  0.4197 -0.0577
  133TMC2    C4 2068   4.406   1.391   9.657 -0.1476 -0.6721  0.0122
  133TMC2    C5 2069   4.518   1.373   9.731 -0.4153  0.3895 -0.0244
  133TMC2    C6 2070   4.600   1.259   9.713 -0.1575 -0.4872  0.3803
  133TMC2     C 2071   4.223   1.259   9.564 -0.0731 -0.1224 -0.1511
  133TMC2     O 2072   4.186   1.144   9.545  0.3282 -0.0286 -0.1219
  133TMC2     H 2073   4.408   1.095   9.497 -0.9924 -1.1048  2.0033
  133TMC2    H1 2074   4.346   1.480   9.673 -1.0067 -1.2220 -0.1228
  133TMC2    H2 2075   4.695   1.250   9.763  0.0070  1.6751  0.4769
  133TMC2    C7 2076   4.535   1.462   9.846 -0.2905 -0.1078 -0.6054
  133TMC2    C8 2077   4.632   1.036   9.599  0.4672 -0.2939  0.2205
  133TMC2    O1 2078   4.459   1.557   9.852 -0.3651 -0.1458  0.1482
  133TMC2    O2 2079   4.607   0.965   9.504 -0.2801 -0.4076  0.4368
  133TMC2    O5 2080   4.713   1.004   9.699 -0.1186  0.1191  0.3425
  133TMC2    H5 2081   4.711   1.070   9.771  1.3064  1.8887 -1.2393
  134MPD2     C 2082   3.942   1.508   9.615 -0.2068 -0.4409 -0.2169
  134MPD2    C1 2083   4.004   1.385   9.596 -0.5805  0.5518  0.2020
  134MPD2    C2 2084   3.914   1.274   9.593  0.3280  0.1790 -0.0846
  134MPD2    C3 2085   3.774   1.289   9.604 -0.2354  0.1209 -0.2966
  134MPD2    C4 2086   3.723   1.414   9.605  0.4643  0.2480  0.0058
  134MPD2    C5 2087   3.807   1.523   9.605  0.9690 -0.0062  0.4483
  134MPD2     H 2088   3.955   1.174   9.585  1.5495  0.2236  5.1748
  134MPD2    H1 2089   3.617   1.430   9.613  0.6158  0.8964  0.7302
  134MPD2    H2 2090   4.006   1.594   9.627 -2.8528  1.4277  0.5222
  134MPD2    H3 2091   3.759   1.620   9.593  1.2204  0.0310 -0.2674
  134MPD2     N 2092   3.683   1.180   9.610  0.1195  0.0739 -0.1485
  134MPD2    H5 2093   3.587   1.195   9.641 -0.2172  1.9062 -2.0420
  134MPD2    N1 2094   4.146   1.372   9.590  0.2449 -0.1726  0.1160
  134MPD2    H7 2095   4.195   1.460   9.583 -3.7221  2.0395  0.1811
  135TMC2    C1 2096   0.805   2.121   9.278 -0.4971  0.6660  0.1710
  135TMC2    C2 2097   0.704   2.204   9.229 -0.0331 -0.6168 -0.3020
  135TMC2    C3 2098   0.656   2.295   9.318  0.3184 -0.0537  0.6378
  135TMC2    C4 2099   0.844   2.120   9.407  0.1720  0.1755 -0.1165
  135TMC2    C5 2100   0.789   2.212   9.494 -0.0858  0.3864 -0.9359
  135TMC2    C6 2101   0.690   2.299   9.449  0.3954 -0.2846  0.4746
  135TMC2     C 2102   0.799   1.994   9.209  0.1481  0.3541  0.5548
  135TMC2     O 2103   0.693   1.964   9.161  0.0424  0.2908  0.4201
  135TMC2     H 2104   0.655   2.202   9.133 -0.7583  0.2261  0.0438
  135TMC2    H1 2105   0.917   2.053   9.451 -1.1614 -1.5870 -0.6200
  135TMC2    H2 2106   0.659   2.381   9.514  0.4249  1.4577 -1.7282
  135TMC2    C7 2107   0.833   2.214   9.633 -0.2573 -0.2815 -0.2171
  135TMC2    C8 2108   0.561   2.395   9.280  0.1333  0.1479  0.1149
  135TMC2    O1 2109   0.947   2.178   9.663  0.1427  0.7431  0.2880
  135TMC2    O2 2110   0.557   2.448   9.172  0.6163  0.1761  0.2046
  135TMC2    O5 2111   0.458   2.383   9.360 -0.2284 -0.4118  0.3640
  135TMC2    H5 2112   0.467   2.322   9.437 -0.4553 -0.2604  0.5081
  136MPD2     C 2113   0.860   1.714   9.108  0.5492 -0.1424  0.3886
  136MPD2    C1 2114   0.945   1.787   9.187 -0.5086 -0.4605  0.5092
  136MPD2    C2 2115   1.075   1.752   9.223 -0.1806 -0.1097 -0.0964
  136MPD2    C3 2116   1.114   1.627   9.179  0.6161  0.2956  0.1687
  136MPD2    C4 2117   1.030   1.555   9.093 -0.2012  0.5761  0.2604
  136MPD2    C5 2118   0.906   1.596   9.064 -0.7442 -0.0287 -0.7343
  136MPD2     H 2119   1.132   1.819   9.286 -2.0949  0.8962  0.5425
  136MPD2    H1 2120   1.062   1.465   9.041 -0.2806 -0.0708  1.3178
  136MPD2    H2 2121   0.755   1.738   9.095  0.9571  0.6249 -1.5274
  136MPD2    H3 2122   0.848   1.533   8.998  1.2865 -1.2981 -1.3271
  136MPD2     N 2123   1.247   1.582   9.193 -0.4437  0.0087  0.3160
  136MPD2    H5 2124   1.280   1.500   9.143 -0.7997  0.9684 -1.4919
  136MPD2    N1 2125   0.912   1.922   9.227  0.3368 -0.0619  0.3376
  136MPD2    H7 2126   0.985   1.973   9.276 -1.5980  2.5188  0.4949
  137TMC2    C1 2127   0.136   0.650  10.065  0.5548  0.1784 -0.5991
  137TMC2    C2 2128   0.118   0.511  10.075  0.4075 -0.2292 -0.0878
  137TMC2    C3 2129   0.016   0.459   9.999 -0.1142 -0.0066  0.0278
  137TMC2    C4 2130   0.052   0.732   9.990 -0.8474  0.6980  0.3373
  137TMC2    C5 2131   4.676   0.676   9.926  0.1615  0.0979  0.0142
  137TMC2    C6 2132   4.670   0.540   9.924  0.0440  0.3491 -0.3709
  137TMC2     C 2133   0.234   0.716  10.141 -0.0668  0.1972 -0.4744
  137TMC2     O 2134   0.214   0.836  10.156  0.7583  0.7450 -0.7081
  137TMC2     H 2135   0.187   0.441  10.122 -1.5225 -0.8008  1.8605
  137TMC2    H1 2136   0.064   0.838   9.976 -0.7621  0.6407 -0.0210
  137TMC2    H2 2137   4.587   0.484   9.881  0.2050 -1.6366  1.8684
  137TMC2    C7 2138   4.563   0.749   9.900 -0.1650 -0.1449 -0.5568
  137TMC2    C8 2139   0.002   0.314   9.985 -0.3739  0.1883  0.0173
  137TMC2    O1 2140   4.478   0.700   9.827 -0.1483 -0.0102  0.0800
  137TMC2    O2 2141   4.667   0.262   9.902 -0.1278 -0.1802 -0.3973
  137TMC2    O5 2142   0.047   0.241  10.093  0.4514  0.4308  0.3662
  137TMC2    H5 2143   0.106   0.287  10.156 -0.0736  1.3110  0.2189
  138MPD2     C 2144   0.519   0.554  10.316 -0.3327 -0.3333 -0.2447
  138MPD2    C1 2145   0.437   0.667  10.275 -0.3299 -0.8906 -0.6872
  138MPD2    C2 2146   0.471   0.793  10.322  0.1692  0.0946 -0.4959
  138MPD2    C3 2147   0.571   0.809  10.412  0.2153  0.3893 -0.0989
  138MPD2    C4 2148   0.634   0.698  10.468 -0.7222  0.0469  0.5049
  138MPD2    C5 2149   0.605   0.569  10.421  0.2948 -0.6463 -0.3638
  138MPD2     H 2150   0.402   0.874  10.305  1.9712  1.7017 -0.0951
  138MPD2    H1 2151   0.704   0.697  10.551 -0.9501  1.0759  0.7155
  138MPD2    H2 2152   0.495   0.452  10.288  2.6536 -1.8485  2.6853
  138MPD2    H3 2153   0.659   0.480  10.453  1.0522  0.4140  1.3364
  138MPD2     N 2154   0.608   0.942  10.452 -0.0828 -0.1437  0.2327
  138MPD2    H5 2155   0.564   1.017  10.400  0.4499  0.2605  0.3694
  138MPD2    N1 2156   0.336   0.630  10.182 -0.3329 -0.2413  0.6487
  138MPD2    H7 2157   0.331   0.535  10.147  2.1628 -0.6001  1.3140
  139TMC2    C1 2158   1.140   4.270  13.518  0.0226 -0.0104 -0.2759
  139TMC2    C2 2159   1.188   4.352  13.417  0.5229  0.2847  0.2402
  139TMC2    C3 2160   1.164   4.484  13.420 -0.3090 -0.1380 -0.2157
  139TMC2    C4 2161   1.070   4.324  13.621  0.5518  0.5685  0.3939
  139TMC2    C5 2162   1.037   4.459  13.617 -0.2683 -1.1860  0.2130
  139TMC2    C6 2163   1.081   4.533  13.517  0.1836  0.2132  0.0870
  139TMC2     C 2164   1.179   4.132  13.511  0.2985  0.1490  0.4921
  139TMC2     O 2165   1.246   4.106  13.412 -0.3031 -0.3035  0.8027
  139TMC2     H 2166   1.252   4.312  13.339  1.1324  2.0587 -0.1724
  139TMC2    H1 2167   1.056   4.264  13.711  3.1022 -0.4706  0.0926
  139TMC2    H2 2168   1.053   4.637  13.502 -1.0029 -0.0727  0.2761
  139TMC2    C7 2169   0.938   4.520  13.703 -0.0069  0.2452  1.3780
  139TMC2    C8 2170   1.199   4.571  13.311 -0.9591  0.2814  0.0430
  139TMC2    O1 2171   0.921   4.640  13.685  0.2402  0.4949 -0.1582
  139TMC2    O2 2172   1.161   4.539  13.197  0.1246 -0.3574  0.2814
  139TMC2    O5 2173   1.229   4.696  13.357  0.1063  0.1245  0.3917
  139TMC2    H5 2174   1.275   4.696  13.444 -0.6804 -1.3476  0.8149
  140MPD2     C 2175   1.050   3.837  13.700  1.2353 -0.2399  0.3420
  140MPD2    C1 2176   1.133   3.906  13.608  0.1591  0.2152  0.7642
  140MPD2    C2 2177   1.219   3.837  13.531  0.0885 -0.2610 -0.0747
  140MPD2    C3 2178   1.235   3.700  13.556  1.0710  0.0371 -0.0680
  140MPD2    C4 2179   1.156   3.629  13.652 -0.1916  0.1920  0.6646
  140MPD2    C5 2180   1.063   3.701  13.721  0.0109 -0.4448  0.5272
  140MPD2     H 2181   1.292   3.886  13.467  1.2307  1.2032  2.3374
  140MPD2    H1 2182   1.157   3.522  13.672 -0.9058 -0.0434 -0.5529
  140MPD2    H2 2183   0.990   3.893  13.771  1.4221 -0.6038  0.7864
  140MPD2    H3 2184   1.013   3.652  13.803 -0.6785 -1.1357 -0.3105
  140MPD2     N 2185   1.325   3.623  13.485  0.3656 -0.0213  0.3760
  140MPD2    H5 2186   1.350   3.667  13.397 -0.4314  1.7487  1.0258
  140MPD2    N1 2187   1.114   4.045  13.606  0.7470 -0.7066  0.4966
  140MPD2    H7 2188   1.053   4.084  13.676  1.1679  0.3822  0.2597
  141TMC2    C1 2189   1.408   0.923  14.451  0.5543  0.3599  0.5856
  141TMC2    C2 2190   1.272   0.908  14.440 -0.2543  0.3337 -0.4923
  141TMC2    C3 2191   1.197   1.023  14.448  0.0571  0.1750 -0.3101
  141TMC2    C4 2192   1.467   1.049  14.454  0.1849  0.0007  0.7157
  141TMC2    C5 2193   1.383   1.158  14.466 -0.5760 -0.4933  0.1794
  141TMC2    C6 2194   1.251   1.153  14.456 -0.2695 -0.4413  0.8971
  141TMC2     C 2195   1.508   0.813  14.435 -0.2067 -0.6000  0.3137
  141TMC2     O 2196   1.624   0.845  14.411 -0.0859 -0.2004  0.2819
  141TMC2     H 2197   1.221   0.815  14.418  1.1610 -0.9429  1.5340
  141TMC2    H1 2198   1.574   1.055  14.441  0.1252 -0.3922  0.0410
  141TMC2    H2 2199   1.201   1.248  14.474 -0.0922 -0.3420  0.8637
  141TMC2    C7 2200   1.438   1.286  14.503 -0.0843  0.3310 -0.0383
  141TMC2    C8 2201   1.071   1.001  14.525 -0.3128 -0.2785 -0.3737
  141TMC2    O1 2202   1.375   1.388  14.474  0.6098  0.0646 -0.2702
  141TMC2    O2 2203   1.049   0.889  14.572 -0.4885 -0.0421 -0.3700
  141TMC2    O5 2204   0.983   1.079  14.463  0.6977  0.1822 -0.3996
  141TMC2    H5 2205   1.015   1.138  14.392 -1.9392  2.9588  0.7231
  142TMC2    C1 2206   4.102   0.096  10.132  0.4200 -0.3185 -0.7175
  142TMC2    C2 2207   4.040   0.152  10.027 -0.5949  1.3688  0.6591
  142TMC2    C3 2208   4.068   0.281   9.990 -0.3923  0.0739 -0.0999
  142TMC2    C4 2209   4.203   0.157  10.200 -0.5044 -0.1273  0.3167
  142TMC2    C5 2210   4.224   0.291  10.167  0.0062  0.0534  0.0668
  142TMC2    C6 2211   4.159   0.352  10.063 -0.2382 -0.2888  0.3347
  142TMC2     C 2212   4.097   4.683  10.134 -0.7339 -0.3260  0.4119
  142TMC2     O 2213   4.012   4.644  10.054 -0.1832  0.6089 -0.4169
  142TMC2     H 2214   3.966   0.097   9.970  1.6425 -2.7790  1.7445
  142TMC2    H1 2215   4.268   0.120  10.279  0.2833 -0.1523 -0.3352
  142TMC2    H2 2216   4.192   0.445  10.020  0.6353 -1.7470 -2.1617
  142TMC2    C7 2217   4.350   0.346  10.221 -0.2286  0.2838  0.3235
  142TMC2    C8 2218   4.026   0.316   9.859 -0.3467  0.3071  0.1565
  142TMC2    O1 2219   4.437   0.266  10.250 -0.2346 -0.2990 -0.5570
  142TMC2    O2 2220   3.978   0.426   9.830 -0.9427  0.2038  0.3525
  142TMC2    O5 2221   4.097   0.237   9.775 -0.3432  0.1226 -0.3740
  142TMC2    H5 2222   4.142   0.158   9.812 -0.7575  0.3993  0.7505
  143MPD2     C 2223   4.093   4.260  10.418 -0.1214 -0.0588 -0.1515
  143MPD2    C1 2224   4.008   4.303  10.313  0.3566 -0.5794  0.7530
  143MPD2    C2 2225   4.023   4.425  10.254 -0.0469 -0.4913 -0.5671
  143MPD2    C3 2226   4.123   4.511  10.299 -0.2585 -0.0513 -0.1207
  143MPD2    C4 2227   4.205   4.466  10.405 -0.1228 -0.4138  0.0603
  143MPD2    C5 2228   4.194   4.344  10.465 -0.2232 -0.1657 -0.2315
  143MPD2     H 2229   3.955   4.454  10.174 -1.9949 -1.2743  0.7980
  143MPD2    H1 2230   4.280   4.535  10.443 -0.9418  1.9545 -2.6132
  143MPD2    H2 2231   4.080   4.163  10.465  1.2954  0.6323  1.6571
  143MPD2    H3 2232   4.253   4.322  10.552 -0.1293 -0.2990 -0.3292
  143MPD2     N 2233   4.152   4.640  10.249  0.2554  0.0095  0.5394
  143MPD2    H5 2234   4.206   4.702  10.308  1.4628 -1.9324  1.5092
  143MPD2    N1 2235   3.896   4.216  10.271 -0.1263 -0.6829  0.1615
  143MPD2    H7 2236   3.882   4.130  10.323 -1.8643 -2.0547 -2.5791
  144TMC2    C1 2237   2.571   2.742   0.617 -0.4205 -0.4358  0.1583
  144TMC2    C2 2238   2.661   2.659   0.553  0.6696  0.0741 -0.1464
  144TMC2    C3 2239   2.795   2.678   0.560 -1.1047  0.0334 -0.9684
  144TMC2    C4 2240   2.617   2.840   0.694 -0.2993 -0.0620  0.2555
  144TMC2    C5 2241   2.751   2.860   0.698  0.7133  0.0829  0.2239
  144TMC2    C6 2242   2.842   2.792   0.616 -0.6086 -0.6957  0.1568
  144TMC2     C 2243   2.424   2.739   0.584  0.2060  0.1470 -0.8135
  144TMC2     O 2244   2.384   2.628   0.546  0.8487  0.8088  0.1493
  144TMC2     H 2245   2.623   2.572   0.501  0.3602  1.4741 -2.2995
  144TMC2    H1 2246   2.557   2.895   0.766  3.7380 -0.2293  3.7733
  144TMC2    H2 2247   2.948   2.815   0.608 -0.4393 -2.3543 -2.1772
  144TMC2    C7 2248   2.807   2.938   0.808 -0.1080  0.0883  0.0538
  144TMC2    C8 2249   2.885   2.599   0.478  0.2872 -0.0408 -0.5419
  144TMC2    O1 2250   2.928   2.939   0.809  0.1323 -0.0098  0.0780
  144TMC2    O2 2251   2.980   2.661   0.435  0.1529  0.3536 -0.6204
  144TMC2    O5 2252   2.847   2.468   0.477 -0.2439 -0.1088 -0.0415
  144TMC2    H5 2253   2.791   2.450   0.556 -1.7137 -2.0597 -1.5262
  145MPD2     C 2254   2.000   2.970   0.436 -0.3756 -0.0025 -0.9740
  145MPD2    C1 2255   2.062   2.857   0.390 -0.0916  0.0083  0.1866
  145MPD2    C2 2256   2.190   2.821   0.439 -0.2043  0.2536 -0.1466
  145MPD2    C3 2257   2.248   2.894   0.541  0.1213 -0.3933 -0.3321
  145MPD2    C4 2258   2.184   3.011   0.579 -0.7999  0.1361  0.0934
  145MPD2    C5 2259   2.062   3.047   0.537  0.2990 -0.4550 -0.1103
  145MPD2     H 2260   2.240   2.733   0.399 -3.0823 -0.9534 -1.0958
  145MPD2    H1 2261   2.230   3.078   0.651 -2.4634  0.4774  0.8228
  145MPD2    H2 2262   1.911   3.007   0.386 -0.7141 -1.0024 -1.1070
  145MPD2    H3 2263   2.011   3.137   0.572 -2.4346 -0.2076 -4.7900
  145MPD2     N 2264   2.370   2.861   0.600 -0.5387 -0.3631  0.6185
  145MPD2    H5 2265   2.423   2.935   0.646  2.1678 -1.3558 -0.9138
  145MPD2    N1 2266   2.002   2.776   0.288  0.1559 -0.5072 -0.4095
  145MPD2    H7 2267   2.035   2.681   0.273  0.9008 -0.1647 -0.9047
  146TMC2    C1 2268   3.117   2.012  12.583  0.8471  0.3870  0.4409
  146TMC2    C2 2269   3.045   2.065  12.482  0.7978  0.2572  0.2681
  146TMC2    C3 2270   3.073   2.038  12.354  0.5108  0.6814  0.5249
  146TMC2    C4 2271   3.233   1.936  12.560  1.0415 -0.2136  0.2101
  146TMC2    C5 2272   3.257   1.899  12.433  0.3917 -0.2399 -0.1782
  146TMC2    C6 2273   3.174   1.944  12.332 -0.2625 -0.2312  0.1971
  146TMC2     C 2274   3.092   2.071  12.712 -0.0231 -0.6319 -0.0202
  146TMC2     O 2275   3.013   2.162  12.717  0.2849 -0.2643 -0.1400
  146TMC2     H 2276   2.951   2.112  12.508  0.1366 -0.9787  0.1372
  146TMC2    H1 2277   3.301   1.917  12.642 -0.3016  2.4041  1.9787
  146TMC2    H2 2278   3.203   1.919  12.230  0.2557  2.0971 -0.2296
  146TMC2    C7 2279   3.388   1.849  12.390 -0.1633  0.3394 -0.0186
  146TMC2    C8 2280   2.965   2.032  12.256 -0.6281 -0.0648 -0.7577
  146TMC2    O1 2281   3.413   1.858  12.273 -0.6893 -0.0691  0.2858
  146TMC2    O2 2282   2.852   2.009  12.289  0.2808 -0.6989 -0.4234
  146TMC2    O5 2283   3.012   2.100  12.153  0.3305  0.0450  0.1418
  146TMC2    H5 2284   3.104   2.133  12.155  0.5290 -0.5668  1.0883
  147MPD2     C 2285   3.865   1.701  12.492  1.2876  0.2118 -0.7365
  147MPD2    C1 2286   3.787   1.698  12.610  0.8153 -0.0213  0.0570
  147MPD2    C2 2287   3.656   1.740  12.607  0.0782  0.5161  0.9825
  147MPD2    C3 2288   3.594   1.764  12.487 -0.7217  0.0024 -0.1035
  147MPD2    C4 2289   3.670   1.763  12.373  0.4259  0.2739 -0.8944
  147MPD2    C5 2290   3.800   1.731  12.377  0.2908  0.1327  0.0490
  147MPD2     H 2291   3.598   1.746  12.698  0.6032 -0.4960  1.3901
  147MPD2    H1 2292   3.630   1.794  12.277 -2.5956 -0.0211  0.2746
  147MPD2    H2 2293   3.968   1.672  12.483  1.0508 -1.1445  0.9454
  147MPD2    H3 2294   3.862   1.723  12.288 -0.3052 -1.7093 -0.1972
  147MPD2     N 2295   3.461   1.810  12.498 -0.4620 -0.5021 -0.4411
  147MPD2    H5 2296   3.421   1.818  12.591  0.7033 -0.8090  0.0771
  147MPD2    N1 2297   3.846   1.662  12.735 -0.7791  0.1022  0.4364
  147MPD2    H7 2298   3.947   1.656  12.736 -0.8295 -0.7308 -0.0816
  148TMC2    C1 2299   3.541   0.989  10.970  0.3822 -0.7129  0.2613
  148TMC2    C2 2300   3.622   1.088  11.020 -0.3490  0.6864 -0.0015
  148TMC2    C3 2301   3.714   1.049  11.118 -0.6120  0.4642  0.7739
  148TMC2    C4 2302   3.542   0.863  11.009 -0.3607 -0.6089  0.0592
  148TMC2    C5 2303   3.643   0.823  11.095  0.1845  0.2021  0.1391
  148TMC2    C6 2304   3.725   0.916  11.151 -0.5360  0.2268  0.1353
  148TMC2     C 2305   3.499   1.000  10.836  0.2137 -0.2054  0.1380
  148TMC2     O 2306   3.461   1.110  10.797 -0.0144  0.4521 -0.2570
  148TMC2     H 2307   3.608   1.186  10.976  1.0697  0.3144 -1.2807
  148TMC2    H1 2308   3.476   0.784  10.974 -2.0632  1.0279 -0.4144
  148TMC2    H2 2309   3.815   0.888  11.204  1.5512  1.7420 -2.6099
  148TMC2    C7 2310   3.669   0.683  11.091  0.3873  0.5114  0.0394
  148TMC2    C8 2311   3.825   1.139  11.156  0.1598 -0.4380  0.1973
  148TMC2    O1 2312   3.623   0.628  10.992  0.1648 -0.1500  0.3936
  148TMC2    O2 2313   3.928   1.090  11.196  0.9275 -0.2136  0.1898
  148TMC2    O5 2314   3.795   1.262  11.125 -0.0819 -0.1096 -0.7160
  148TMC2    H5 2315   3.698   1.277  11.121 -0.8890 -4.7103  1.8350
  149MPD2     C 2316   3.359   0.932  10.567  0.2574 -0.0274  0.0202
  149MPD2    C1 2317   3.413   0.845  10.650  0.3774  0.5320  0.5036
  149MPD2    C2 2318   3.379   0.712  10.636  0.3817  0.3681  0.3155
  149MPD2    C3 2319   3.283   0.670  10.547 -0.7011 -0.1327 -0.3184
  149MPD2    C4 2320   3.239   0.765  10.464  0.1864 -0.2915 -0.0398
  149MPD2    C5 2321   3.277   0.897  10.467 -0.4875  0.0377 -0.4771
  149MPD2     H 2322   3.424   0.645  10.709  2.8263 -0.9470 -2.3845
  149MPD2    H1 2323   3.173   0.738  10.382 -0.5788  0.2953  0.3826
  149MPD2    H2 2324   3.364   1.039  10.583  1.7821  0.0362 -0.8948
  149MPD2    H3 2325   3.221   0.969  10.409 -2.7461 -0.7279  0.7412
  149MPD2     N 2326   3.230   0.541  10.541 -0.1569 -0.6414  0.1996
  149MPD2    H5 2327   3.160   0.524  10.470 -0.8298  1.0924  0.4339
  149MPD2    N1 2328   3.490   0.878  10.771  0.6438 -0.4531 -0.0924
  149MPD2    H7 2329   3.520   0.801  10.830 -0.8512 -0.6302  0.4449
  150TMC2    C1 2330   0.687   0.004  12.647 -0.0373 -1.1352 -0.3978
  150TMC2    C2 2331   0.633   0.127  12.660 -0.3911 -0.4366 -0.2921
  150TMC2    C3 2332   0.721   0.232  12.686  0.4065  0.2360  0.2633
  150TMC2    C4 2333   0.823   4.727  12.657 -0.3412  0.0613 -0.4965
  150TMC2    C5 2334   0.904   0.098  12.680  0.2330 -0.1286  0.3097
  150TMC2    C6 2335   0.857   0.223  12.697  0.6609 -0.2701  0.2124
  150TMC2     C 2336   0.611   4.623  12.608 -0.0096 -0.5018 -0.2326
  150TMC2     O 2337   0.663   4.513  12.626 -0.3317 -0.0526 -0.2469
  150TMC2     H 2338   0.527   0.149  12.651 -0.6968 -1.6260  0.4089
  150TMC2    H1 2339   0.859   4.627  12.638 -0.8834 -0.3643  0.7488
  150TMC2    H2 2340   0.912   0.311  12.729  1.4232 -0.6582 -0.0495
  150TMC2    C7 2341   1.047   0.083  12.693  0.2793 -0.1050 -1.0461
  150TMC2    C8 2342   0.657   0.366  12.682 -0.3997 -0.2133  0.5083
  150TMC2    O1 2343   1.113   0.187  12.691  0.3205 -0.2774  0.3044
  150TMC2    O2 2344   0.560   0.395  12.749 -0.5991  0.4564  0.1193
  150TMC2    O5 2345   0.744   0.451  12.634  0.5259 -0.3617 -0.1733
  150TMC2    H5 2346   0.803   0.408  12.568  0.3506 -0.3735 -0.3216
  151MPD2     C 2347   0.203   4.378  12.430  0.6788 -0.0602  0.0738
  151MPD2    C1 2348   0.190   4.513  12.403  0.3410 -0.0015  0.4047
  151MPD2    C2 2349   0.285   4.596  12.443 -0.3430 -0.8016  0.2692
  151MPD2    C3 2350   0.392   4.554  12.511 -0.2879 -0.7281 -0.2463
  151MPD2    C4 2351   0.411   4.416  12.526 -0.3818  0.1408  0.3544
  151MPD2    C5 2352   0.314   4.330  12.492 -0.3941  0.1146  0.0404
  151MPD2     H 2353   0.286   4.703  12.426  1.0380 -0.8652  0.0189
  151MPD2    H1 2354   0.497   4.377  12.578 -0.1858  0.8983  0.6071
  151MPD2    H2 2355   0.130   4.308  12.392 -1.5972  2.6844 -0.6485
  151MPD2    H3 2356   0.314   4.223  12.507  1.0239  0.3160  1.5061
  151MPD2     N 2357   0.492   4.648  12.547  0.6723  0.0607 -0.2731
  151MPD2    H5 2358   0.473   0.012  12.541 -1.2877 -0.1532  2.2470
  151MPD2    N1 2359   0.079   4.558  12.323 -0.1894  0.1013 -0.0890
  151MPD2    H7 2360   0.016   4.487  12.287  0.6609 -0.2002 -1.0017
  152TMC2    C1 2361   0.436   4.393  12.894  0.4543  0.2020  0.0273
  152TMC2    C2 2362   0.506   4.290  12.946 -0.1560 -0.4929 -0.3697
  152TMC2    C3 2363   0.629   4.318  13.008 -0.0779  0.5598 -0.7256
  152TMC2    C4 2364   0.483   4.522  12.905  0.5679  0.1981  0.2437
  152TMC2    C5 2365   0.608   4.548  12.950 -0.5530  0.2758 -0.9627
  152TMC2    C6 2366   0.677   4.446  13.011 -0.4805 -0.5033  0.0689
  152TMC2     C 2367   0.297   4.371  12.857  0.4174  0.3733 -0.3384
  152TMC2     O 2368   0.220   4.465  12.860  0.6222 -0.4403 -0.0067
  152TMC2     H 2369   0.492   4.185  12.920  0.1171 -0.9892  1.5061
  152TMC2    H1 2370   0.408   4.598  12.887 -0.4261 -0.4397  1.7485
  152TMC2    H2 2371   0.771   4.467  13.062 -1.2274 -0.4422  1.4246
  152TMC2    C7 2372   0.651   4.684  12.968  0.4524 -0.7837 -0.6315
  152TMC2    C8 2373   0.718   4.203  13.020 -0.4062  0.0350  0.1556
  152TMC2    O1 2374   0.580   0.044  12.939 -0.5652  0.7236 -0.0435
  152TMC2    O2 2375   0.839   4.214  13.013 -0.1654 -0.4325  0.2184
  152TMC2    O5 2376   0.662   4.096  13.072  0.0461  0.3466 -0.1769
  152TMC2    H5 2377   0.567   4.095  13.092  0.5196  0.3174  2.0133
  153MPD2     C 2378   0.147   4.052  12.778  0.4635 -0.2978  0.0814
  153MPD2    C1 2379   0.155   4.189  12.781  0.4441 -0.1708 -0.2669
  153MPD2    C2 2380   0.052   4.272  12.738  0.3401  0.2407  0.1880
  153MPD2    C3 2381   4.674   4.210  12.688 -0.3881 -0.4520 -0.2590
  153MPD2    C4 2382   4.658   4.075  12.695 -0.3700  0.5767 -0.2764
  153MPD2    C5 2383   0.023   3.995  12.749 -0.1830 -0.0062  0.3975
  153MPD2     H 2384   0.050   4.381  12.740 -0.7908  0.1847  2.2210
  153MPD2    H1 2385   4.576   4.027  12.643 -0.6192  1.2793 -0.5401
  153MPD2    H2 2386   0.228   3.985  12.805  0.5558 -0.1343  0.2101
  153MPD2    H3 2387   0.031   3.887  12.756 -1.3500 -0.1392 -0.4876
  153MPD2     N 2388   4.571   4.292  12.635 -0.8941  0.6262 -0.8277
  153MPD2    H5 2389   4.597   4.388  12.619  0.7129  0.5130  1.2244
  153MPD2    N1 2390   0.273   4.240  12.821  0.2401  0.6757 -0.6459
  153MPD2    H7 2391   0.350   4.186  12.859  0.3388  1.4403  0.2211
  154TMC2    C1 2392   2.536   4.031   0.901  0.0479  0.7199  0.2479
  154TMC2    C2 2393   2.564   4.127   0.992  0.8735 -0.6316 -0.1798
  154TMC2    C3 2394   2.680   4.112   1.056 -0.4895 -0.2186  0.4314
  154TMC2    C4 2395   2.616   3.930   0.869 -0.2538 -0.1589 -0.0870
  154TMC2    C5 2396   2.733   3.923   0.932  0.2721 -0.0309  0.7079
  154TMC2    C6 2397   2.764   4.013   1.030  0.2476 -0.0954  0.0657
  154TMC2     C 2398   2.418   4.064   0.824  0.3390  0.1087  0.8552
  154TMC2     O 2399   2.348   4.150   0.877  0.3276  0.0004  0.8576
  154TMC2     H 2400   2.497   4.208   1.019  1.7642  0.1736 -0.3662
  154TMC2    H1 2401   2.588   3.865   0.787 -0.5278  0.1446 -0.2310
  154TMC2    H2 2402   2.853   4.004   1.091  0.2741 -0.6723 -0.0561
  154TMC2    C7 2403   2.846   3.847   0.882 -0.4023 -0.2058  0.3833
  154TMC2    C8 2404   2.691   4.198   1.166  0.3006  1.4415  0.1742
  154TMC2    O1 2405   2.946   3.846   0.951 -0.3567 -0.1905 -0.1806
  154TMC2    O2 2406   2.630   4.306   1.177  0.0454 -0.2968  0.3672
  154TMC2    O5 2407   2.746   4.117   1.259 -0.3204 -0.1913 -0.2386
  154TMC2    H5 2408   2.770   4.026   1.232  1.7729  0.7652 -1.6402
  155MPD2     C 2409   2.311   3.966   0.481  0.0943 -0.0136  0.5505
  155MPD2    C1 2410   2.310   4.027   0.598 -0.5682  0.2400  0.5796
  155MPD2    C2 2411   2.197   4.111   0.615 -0.3977 -0.1537  0.3511
  155MPD2    C3 2412   2.107   4.145   0.518  0.2668  0.8036  0.0964
  155MPD2    C4 2413   2.117   4.087   0.393 -1.0327  0.1450 -0.5171
  155MPD2    C5 2414   2.217   3.997   0.378  1.0183  0.4274  0.4701
  155MPD2     H 2415   2.191   4.159   0.712  1.6921 -0.2261  0.5132
  155MPD2    H1 2416   2.053   4.103   0.308 -0.3136 -1.6193 -1.4049
  155MPD2    H2 2417   2.381   3.886   0.459 -1.4044 -0.6161 -2.1007
  155MPD2    H3 2418   2.231   3.947   0.283 -1.0170  1.3896 -0.3240
  155MPD2     N 2419   1.997   4.229   0.548  0.1788  0.4170  0.0121
  155MPD2    H5 2420   1.987   4.249   0.647 -1.6595 -0.7049  0.0389
  155MPD2    N1 2421   2.417   4.013   0.692  0.7696  0.6887  0.2424
  155MPD2    H7 2422   2.490   3.948   0.664 -0.1926  0.6450 -2.2128
  156TMC2    C1 2423   0.533   1.816  11.715  0.2055  0.1236  0.2678
  156TMC2    C2 2424   0.614   1.755  11.617 -1.1169  0.4242  0.1506
  156TMC2    C3 2425   0.599   1.802  11.485 -0.8259  0.2103  0.4855
  156TMC2    C4 2426   0.426   1.894  11.681 -0.4430  0.6098 -0.5589
  156TMC2    C5 2427   0.422   1.952  11.558 -0.1454  0.2212  0.3164
  156TMC2    C6 2428   0.503   1.897  11.462 -0.1090  0.5640 -0.3090
  156TMC2     C 2429   0.581   1.839  11.852  0.0226 -0.7640 -0.3559
  156TMC2     O 2430   0.505   1.900  11.927  0.1869  0.1343  0.3930
  156TMC2     H 2431   0.686   1.674  11.627 -1.0314  0.4479 -0.2756
  156TMC2    H1 2432   0.369   1.938  11.761  1.6621  0.1826  1.1757
  156TMC2    H2 2433   0.517   1.950  11.369 -2.0177 -0.5157 -1.2081
  156TMC2    C7 2434   0.365   2.088  11.548 -0.4724 -0.1969  0.2326
  156TMC2    C8 2435   0.623   1.692  11.389 -0.1013 -0.7059  0.0556
  156TMC2    O1 2436   0.410   2.164  11.462  0.0198 -0.2771  0.2723
  156TMC2    O2 2437   0.663   1.579  11.419  0.0759 -0.0537  0.2066
  156TMC2    O5 2438   0.521   1.709  11.300  0.1401  0.1824 -0.0521
  156TMC2    H5 2439   0.510   1.796  11.256 -2.5406 -0.5535 -0.8715
  157MPD2     C 2440   0.896   1.750  12.022  0.4710  0.3327  0.8346
  157MPD2    C1 2441   0.770   1.795  12.009  0.5983  1.0655  0.6568
  157MPD2    C2 2442   0.701   1.838  12.124 -0.1917  0.4916  0.4637
  157MPD2    C3 2443   0.763   1.845  12.246 -0.5182  0.2384 -0.3745
  157MPD2    C4 2444   0.896   1.806  12.256 -0.4634 -0.3879 -0.0751
  157MPD2    C5 2445   0.959   1.757  12.144 -0.4155 -0.0023  0.4324
  157MPD2     H 2446   0.600   1.878  12.122  0.4831  2.2143  0.6686
  157MPD2    H1 2447   0.965   1.825  12.337 -0.2257 -0.6960 -0.2087
  157MPD2    H2 2448   0.935   1.696  11.936 -0.5030 -1.5230  1.5465
  157MPD2    H3 2449   1.064   1.736  12.155  0.4887  3.3673 -1.5720
  157MPD2     N 2450   0.695   1.902  12.355  0.3467 -0.1526 -0.0937
  157MPD2    H5 2451   0.596   1.918  12.344  0.2990 -1.0253 -0.8986
  157MPD2    N1 2452   0.703   1.780  11.881 -0.5087  0.5146 -0.4572
  157MPD2    H7 2453   0.750   1.733  11.804 -0.8404 -1.4361  0.5226
  158TMC2    C1 2454   1.783   0.417  14.089 -0.1314  0.6998 -0.2941
  158TMC2    C2 2455   1.874   0.455  13.998 -0.3054 -0.1908 -0.7037
  158TMC2    C3 2456   1.868   0.576  13.937 -0.0718  0.5017 -0.5300
  158TMC2    C4 2457   1.669   0.496  14.116 -0.4115  0.5981 -0.4619
  158TMC2    C5 2458   1.657   0.609  14.039  0.5089  0.4106  0.1538
  158TMC2    C6 2459   1.758   0.654  13.951 -0.9430 -0.5784  0.1752
  158TMC2     C 2460   1.807   0.282  14.149  0.4696 -0.3069 -0.5161
  158TMC2     O 2461   1.921   0.246  14.132  0.7136 -0.6764  0.0346
  158TMC2     H 2462   1.949   0.385  13.964 -0.3243  0.1332 -1.4035
  158TMC2    H1 2463   1.584   0.453  14.168  1.5000 -1.2060  1.1116
  158TMC2    H2 2464   1.747   0.752  13.906 -2.4135  0.8114  3.5898
  158TMC2    C7 2465   1.534   0.683  14.040 -0.1901 -0.6403 -0.0134
  158TMC2    C8 2466   1.966   0.609  13.833  0.0314 -0.0033 -0.6266
  158TMC2    O1 2467   1.537   0.801  13.994  0.5323  0.2299  0.4203
  158TMC2    O2 2468   1.934   0.616  13.715 -0.3863 -0.4473 -0.6305
  158TMC2    O5 2469   2.081   0.548  13.866  0.5814  0.7117 -0.2771
  158TMC2    H5 2470   2.111   0.566  13.957  0.8713  1.8342 -0.6023
  159MPD2     C 2471   1.688   4.609  14.448  1.1504 -0.0984 -0.1061
  159MPD2    C1 2472   1.578   4.692  14.435  0.4101  0.3292 -1.4759
  159MPD2    C2 2473   1.582   0.078  14.362  0.0013  0.1837  0.2708
  159MPD2    C3 2474   1.692   0.112  14.288 -0.0117  0.0611 -0.6459
  159MPD2    C4 2475   1.802   0.032  14.306 -0.0823  0.7256 -1.0383
  159MPD2    C5 2476   1.805   4.657  14.388  0.5962 -0.3125  0.2990
  159MPD2     H 2477   1.497   0.146  14.358 -0.1320  0.0525  0.7799
  159MPD2    H1 2478   1.893   0.053  14.252  1.1965  0.2650  0.9503
  159MPD2    H2 2479   1.696   4.512  14.496  0.1646  0.0246  0.2975
  159MPD2    H3 2480   1.900   4.606  14.401  2.1733  3.0145  2.0408
  159MPD2     N 2481   1.697   0.230  14.214  0.4174 -0.0135  0.7072
  159MPD2    H5 2482   1.612   0.284  14.205  0.8616  0.1524 -2.5449
  159MPD2    N1 2483   1.463   4.645  14.501 -0.2341  0.2346  0.0794
  159MPD2    H7 2484   1.471   4.555  14.549 -1.0177 -1.5576 -3.1856
  160TMC2    C1 2485   0.930   3.346   1.432 -0.2049  0.2196 -0.9183
  160TMC2    C2 2486   0.946   3.259   1.530 -0.0768 -0.7137  0.4651
  160TMC2    C3 2487   1.035   3.160   1.519 -0.1554 -0.1960  0.4077
  160TMC2    C4 2488   1.010   3.346   1.318 -0.1711 -0.0006 -0.2908
  160TMC2    C5 2489   1.084   3.231   1.295  0.4893  0.3159  0.2747
  160TMC2    C6 2490   1.090   3.130   1.392 -0.4551 -0.8812 -0.0649
  160TMC2     C 2491   0.787   3.364   1.411  0.1165 -0.0281 -0.4927
  160TMC2     O 2492   0.701   3.308   1.480  0.5945  0.0100  0.1274
  160TMC2     H 2493   0.876   3.267   1.612  1.3390 -0.4178  1.6447
  160TMC2    H1 2494   0.999   3.418   1.238 -1.4913  0.8053  0.6189
  160TMC2    H2 2495   1.162   3.050   1.379  0.9477  0.2728  0.4977
  160TMC2    C7 2496   1.169   3.215   1.175 -0.0820 -0.4869  0.2379
  160TMC2    C8 2497   1.036   3.059   1.622  0.0887 -0.2783  0.4308
  160TMC2    O1 2498   1.178   3.100   1.128 -0.5340  0.4598  0.0257
  160TMC2    O2 2499   0.940   3.041   1.697  0.0435  0.6235 -0.0593
  160TMC2    O5 2500   1.146   2.989   1.600  0.2812  0.4593 -0.5848
  160TMC2    H5 2501   1.223   3.045   1.575  0.2329  0.5837 -0.4569
  161MPD2     C 2502   0.511   3.399   1.292 -0.3725  0.2166  0.1824
  161MPD2    C1 2503   0.612   3.496   1.294  0.1186  0.3514  0.6553
  161MPD2    C2 2504   0.582   3.625   1.256  0.3405 -1.3372 -0.2706
  161MPD2    C3 2505   0.449   3.655   1.227  0.4073 -0.6597 -0.7645
  161MPD2    C4 2506   0.350   3.558   1.233  0.2388  0.8130  0.1149
  161MPD2    C5 2507   0.379   3.429   1.267 -0.1737  0.7115 -0.1576
  161MPD2     H 2508   0.659   3.700   1.240 -1.0084  0.2167  0.5086
  161MPD2    H1 2509   0.244   3.578   1.220  0.2974  0.6274 -0.6570
  161MPD2    H2 2510   0.532   3.294   1.304 -1.2988  0.0619  0.4438
  161MPD2    H3 2511   0.302   3.353   1.275  0.8583 -0.1309  1.6615
  161MPD2     N 2512   0.401   3.780   1.179 -0.0013 -0.0303 -0.7197
  161MPD2    H5 2513   0.303   3.774   1.152 -0.8894 -2.3133  2.9713
  161MPD2    N1 2514   0.746   3.462   1.317 -0.0964 -0.0499 -0.2857
  161MPD2    H7 2515   0.817   3.528   1.287 -1.6247  1.9780  0.5915
  162TMC2    C1 2516   3.375   1.237   1.451 -0.4211 -0.2419  0.2416
  162TMC2    C2 2517   3.319   1.361   1.466  0.1188 -0.1012  0.1485
  162TMC2    C3 2518   3.396   1.465   1.501  0.4161 -0.1585  0.1736
  162TMC2    C4 2519   3.504   1.215   1.473  0.2155 -0.3465  0.4643
  162TMC2    C5 2520   3.582   1.324   1.520 -0.0875  0.5715 -0.1679
  162TMC2    C6 2521   3.529   1.447   1.529 -0.4805 -0.0892 -0.7687
  162TMC2     C 2522   3.286   1.128   1.416  0.1563 -0.3368  1.4616
  162TMC2     O 2523   3.169   1.133   1.455 -0.1837 -0.5493 -0.2988
  162TMC2     H 2524   3.212   1.380   1.454 -0.1765 -1.1776  1.1360
  162TMC2    H1 2525   3.546   1.115   1.462  0.1226 -0.3183 -0.1510
  162TMC2    H2 2526   3.582   1.536   1.564 -2.2218  0.1901  1.1646
  162TMC2    C7 2527   3.729   1.316   1.545 -0.0350  0.1672  0.7297
  162TMC2    C8 2528   3.341   1.584   1.450  0.0249 -0.2492  0.6901
  162TMC2    O1 2529   3.786   1.399   1.617 -0.1491 -0.0821  0.4562
  162TMC2    O2 2530   3.225   1.624   1.451 -0.5057 -0.2294  0.0078
  162TMC2    O5 2531   3.429   1.674   1.399 -0.2700 -0.0562  0.2226
  162TMC2    H5 2532   3.524   1.648   1.393 -0.6332 -1.1817 -0.5477
  163MPD2     C 2533   3.196   0.677   1.169  0.2735  0.6155 -0.2851
  163MPD2    C1 2534   3.303   0.738   1.118 -0.0496  0.5644  0.2882
  163MPD2    C2 2535   3.358   0.847   1.180 -0.0222  0.4022 -0.4689
  163MPD2    C3 2536   3.301   0.906   1.287  0.2548 -0.2449  0.6038
  163MPD2    C4 2537   3.186   0.848   1.341 -0.1343  0.4531 -0.0764
  163MPD2    C5 2538   3.141   0.731   1.285 -0.2449  0.4079 -0.0697
  163MPD2     H 2539   3.458   0.877   1.149 -0.2042  2.7028  1.1602
  163MPD2    H1 2540   3.145   0.905   1.424  1.2936  0.9186  0.3078
  163MPD2    H2 2541   3.149   0.599   1.110  0.0463 -0.4449  1.3065
  163MPD2    H3 2542   3.065   0.678   1.341 -1.9788  0.5639 -2.2743
  163MPD2     N 2543   3.351   1.027   1.340 -0.0115  0.4500 -0.3310
  163MPD2    H5 2544   3.443   1.048   1.302 -0.9607  2.9792 -1.2214
  163MPD2    N1 2545   3.351   0.678   0.998  0.6198 -0.3018 -0.1386
  163MPD2    H7 2546   3.306   0.591   0.969  1.1159  0.3230 -2.7491
  164TMC2    C1 2547   4.089   0.608  11.456 -0.5203  0.5499  0.0804
  164TMC2    C2 2548   4.205   0.651  11.511 -0.3222 -0.5005  0.2726
  164TMC2    C3 2549   4.200   0.761  11.593  0.6900 -0.2512  0.6025
  164TMC2    C4 2550   3.971   0.678  11.483 -0.1007 -0.3938  0.4942
  164TMC2    C5 2551   3.969   0.796  11.551  0.0137 -0.1474  0.5564
  164TMC2    C6 2552   4.090   0.844  11.606  0.2166  0.4320  0.1109
  164TMC2     C 2553   4.084   0.471  11.417  0.7882 -0.5631 -0.0410
  164TMC2     O 2554   3.997   0.397  11.462  0.0255  0.9007 -0.5176
  164TMC2     H 2555   4.300   0.601  11.494  0.9153  1.9282 -0.0334
  164TMC2    H1 2556   3.885   0.628  11.439  0.3921  0.4474 -1.4311
  164TMC2    H2 2557   4.101   0.938  11.658 -2.5927  0.2509  1.0618
  164TMC2    C7 2558   3.855   0.879  11.522  0.1611 -0.8344  0.2677
  164TMC2    C8 2559   4.329   0.831  11.605  0.1846  0.1843  0.2920
  164TMC2    O1 2560   3.768   0.832  11.455 -0.4710  0.7810  0.1461
  164TMC2    O2 2561   4.431   0.774  11.638  0.2703  0.2800 -0.0331
  164TMC2    O5 2562   4.322   0.919  11.506 -0.4341  0.6149  0.1153
  164TMC2    H5 2563   4.240   0.945  11.459 -0.6751  0.4298  0.4279
  165TMC2    C1 2564   1.304   1.645   1.405  0.2621 -0.5371 -0.0777
  165TMC2    C2 2565   1.184   1.592   1.371  0.3375  0.0271 -0.2952
  165TMC2    C3 2566   1.081   1.683   1.352  0.3890 -0.0693 -0.5890
  165TMC2    C4 2567   1.331   1.780   1.397  0.0427  0.1784 -1.1015
  165TMC2    C5 2568   1.230   1.864   1.357 -0.7359  0.5394  0.3342
  165TMC2    C6 2569   1.099   1.816   1.344  0.6310 -0.7010  0.3055
  165TMC2     C 2570   1.417   1.554   1.391  0.8283  0.7850  0.1168
  165TMC2     O 2571   1.390   1.446   1.335  0.0166 -0.0669  0.4215
  165TMC2     H 2572   1.169   1.485   1.379 -0.5606  0.1828  0.1432
  165TMC2    H1 2573   1.431   1.816   1.416  0.7056 -2.6338  0.5753
  165TMC2    H2 2574   1.013   1.883   1.341 -0.9392 -2.7326 -0.6390
  165TMC2    C7 2575   1.256   2.005   1.323  0.1606 -0.2962 -0.0670
  165TMC2    C8 2576   0.944   1.646   1.392 -0.1211 -0.5332 -0.0869
  165TMC2    O1 2577   1.372   2.038   1.346 -0.3208 -0.5866  0.6005
  165TMC2    O2 2578   0.917   1.547   1.454  0.0920 -0.5128 -0.4682
  165TMC2    O5 2579   0.870   1.691   1.294 -0.4568 -0.2173  0.2116
  165TMC2    H5 2580   0.905   1.765   1.241  2.0558 -0.0017  2.1754
  166MPD2     C 2581   1.902   1.429   1.450  0.1635  0.5281 -0.5016
  166MPD2    C1 2582   1.809   1.382   1.362 -0.4061 -0.1331 -0.1427
  166MPD2    C2 2583   1.683   1.431   1.366 -0.2355 -0.3426  0.0707
  166MPD2    C3 2584   1.650   1.531   1.453 -0.1845 -0.0982  0.1492
  166MPD2    C4 2585   1.741   1.583   1.534 -0.4334  0.9975  0.5604
  166MPD2    C5 2586   1.872   1.530   1.536  0.0122  0.1954  0.2267
  166MPD2     H 2587   1.615   1.394   1.290  0.9105  0.2874 -1.2680
  166MPD2    H1 2588   1.712   1.655   1.609 -0.4099  0.8412  0.7198
  166MPD2    H2 2589   2.005   1.393   1.447  0.2548  0.7119  0.4435
  166MPD2    H3 2590   1.943   1.572   1.606  0.0559  0.7778 -0.1683
  166MPD2     N 2591   1.525   1.592   1.462  0.0174  0.0729  0.4309
  166MPD2    H5 2592   1.515   1.675   1.519 -0.1381  1.5388 -1.7088
  166MPD2    N1 2593   1.835   1.287   1.260  0.0093  0.0852  0.2216
  166MPD2    H7 2594   1.753   1.260   1.207  1.3775 -0.4664 -1.5924
  167TMC2    C1 2595   3.370   0.370  13.533 -0.0533 -0.2169 -0.5035
  167TMC2    C2 2596   3.338   0.365  13.665 -0.6727  0.4636 -0.1551
  167TMC2    C3 2597   3.272   0.249  13.708  0.6405  0.0556 -0.1949
  167TMC2    C4 2598   3.330   0.277  13.443  0.3310 -0.6493  0.3075
  167TMC2    C5 2599   3.267   0.168  13.486  0.4468  0.3010 -0.0176
  167TMC2    C6 2600   3.234   0.155  13.620  0.3033 -0.1832 -0.3580
  167TMC2     C 2601   3.403   0.508  13.490 -0.1959  0.0382  0.5654
  167TMC2     O 2602   3.482   0.570  13.564 -0.7030  0.4865 -0.2261
  167TMC2     H 2603   3.354   0.458  13.718 -1.5760  0.2491  0.5063
  167TMC2    H1 2604   3.359   0.296  13.341  1.5806 -0.8953  0.6138
  167TMC2    H2 2605   3.189   0.067  13.664 -0.6188  0.6412  0.3569
  167TMC2    C7 2606   3.230   0.065  13.391  0.3364  1.1196 -0.4044
  167TMC2    C8 2607   3.229   0.232  13.845  0.1151 -0.2527  0.0586
  167TMC2    O1 2608   3.158   4.703  13.421  0.2042  0.5241 -0.5466
  167TMC2    O2 2609   3.147   0.152  13.893  0.2144 -1.0586  0.2919
  167TMC2    O5 2610   3.302   0.317  13.924  0.1791 -0.0697 -0.1490
  167TMC2    H5 2611   3.363   0.378  13.879 -0.3038  0.9848  0.6404
  168MPD2     C 2612   3.432   0.774  13.375 -0.5331 -0.2635  0.2706
  168MPD2    C1 2613   3.352   0.681  13.319  0.5441  0.3036 -0.3731
  168MPD2    C2 2614   3.269   0.713  13.215 -0.1652  0.5583  0.1282
  168MPD2    C3 2615   3.276   0.836  13.151  0.0812  0.3715 -0.6138
  168MPD2    C4 2616   3.360   0.934  13.205  0.4292  0.0057  0.1845
  168MPD2    C5 2617   3.429   0.905  13.319 -0.1388 -0.1551 -0.0590
  168MPD2     H 2618   3.208   0.630  13.180 -1.0843  0.4768  1.9036
  168MPD2    H1 2619   3.364   1.033  13.162 -1.6985 -0.1641 -0.3696
  168MPD2    H2 2620   3.497   0.759  13.461  1.5855 -1.3758 -1.5229
  168MPD2    H3 2621   3.491   0.977  13.371  1.3272  0.4281 -2.6079
  168MPD2     N 2622   3.207   0.862  13.028 -0.6316 -0.0105 -0.4082
  168MPD2    H5 2623   3.219   0.950  12.980  1.5948  1.7046  3.2783
  168MPD2    N1 2624   3.332   0.556  13.383 -0.3366  0.3926  0.3173
  168MPD2    H7 2625   3.264   0.489  13.347 -0.7366 -0.4288  2.5699
  169MPD1     C 2626   0.776   0.332   9.217 -0.1447  0.1096  0.0856
  169MPD1    C1 2627   0.899   0.401   9.228  0.1132  0.3154 -0.3497
  169MPD1    C2 2628   1.004   0.327   9.272  0.7525 -0.2220  0.4930
  169MPD1    C3 2629   0.990   0.208   9.340 -0.4603 -0.2401 -0.1463
  169MPD1    C4 2630   0.863   0.150   9.344 -0.0958  0.2553  0.7756
  169MPD1    C5 2631   0.761   0.214   9.277 -0.2063 -0.2752  0.1325
  169MPD1     H 2632   1.101   0.372   9.283  0.7860  0.2138 -1.6433
  169MPD1    H1 2633   0.837   0.067   9.408 -1.9877  0.3973  0.2065
  169MPD1    H2 2634   0.683   0.364   9.172  0.2680 -1.0807 -1.6065
  169MPD1    H3 2635   0.659   0.176   9.277 -1.1241  2.1979  0.0760
  169MPD1     N 2636   1.112   0.153   9.394  0.5022 -0.5200 -0.6956
  169MPD1    H5 2637   1.200   0.201   9.376 -0.0270  0.1743 -1.3960
  169MPD1    N1 2638   0.924   0.521   9.163 -0.5473 -0.0202  0.0809
  169MPD1    H6 2639   0.995   0.579   9.207 -0.8790 -1.0137  1.9295
  169MPD1    H7 2640   0.843   0.582   9.152 -0.0122  0.7845  0.6716
  170MPD1     C 2641   4.000   2.836  12.959  0.5457 -1.2753  0.8028
  170MPD1    C1 2642   3.895   2.908  13.015  0.6638  0.6876 -0.3596
  170MPD1    C2 2643   3.875   2.903  13.149 -0.4122 -0.1127 -0.0549
  170MPD1    C3 2644   3.964   2.842  13.236  0.1805  0.1355 -0.9117
  170MPD1    C4 2645   4.074   2.786  13.176  0.8119  0.4997  0.3538
  170MPD1    C5 2646   4.092   2.788  13.041 -0.3068  0.4344 -0.0900
  170MPD1     H 2647   3.781   2.939  13.190 -1.1582 -0.4172 -1.4937
  170MPD1    H1 2648   4.151   2.735  13.233  0.9701 -0.7112 -0.9394
  170MPD1    H2 2649   4.012   2.850  12.852  1.1108 -0.2981  0.9976
  170MPD1    H3 2650   4.183   2.755  12.992 -0.2934  0.4436 -0.0713
  170MPD1     N 2651   3.944   2.832  13.377 -0.6294 -0.1090  0.2718
  170MPD1    H5 2652   3.871   2.896  13.406  0.2679  0.0879  2.1306
  170MPD1    N1 2653   3.790   2.957  12.934 -0.5185 -0.6375 -0.3602
  170MPD1    H6 2654   3.740   3.034  12.977 -0.1022 -0.5417 -0.0428
  170MPD1    H7 2655   3.827   2.990  12.846 -0.4714  0.1685 -0.0390
  171MPD1     C 2656   2.977   3.925  15.580  0.7204 -0.5837  0.0154
  171MPD1    C1 2657   3.051   3.846  15.496  0.3246  0.7508  0.8080
  171MPD1    C2 2658   3.066   3.718  15.544  0.3422  0.1281 -0.3475
  171MPD1    C3 2659   3.027   3.678  15.675 -0.0917  0.8980  1.0429
  171MPD1    C4 2660   2.969   3.764  15.755 -0.4732  0.9045  0.3895
  171MPD1    C5 2661   2.935   3.888  15.705 -0.3805  0.0258 -0.3791
  171MPD1     H 2662   3.121   3.640  15.492 -0.6859 -1.1973  0.5438
  171MPD1    H1 2663   2.939   3.726  15.852 -5.1902 -0.7687 -1.7488
  171MPD1    H2 2664   2.931   4.009  15.530 -0.2620  0.2386  2.3020
  171MPD1    H3 2665   2.878   3.957  15.767  2.1024  1.5565  0.1656
  171MPD1     N 2666   3.051   3.550  15.728  1.1534 -0.2082  0.4162
  171MPD1    H5 2667   3.029   3.537  15.826  2.2349  4.8010  1.3184
  171MPD1    N1 2668   3.062   3.874  15.362  0.2402  0.1941 -0.0320
  171MPD1    H6 2669   3.133   3.821  15.312  1.5640  0.3266  1.7252
  171MPD1    H7 2670   3.086   3.972  15.349 -0.9878  0.1802 -2.4934
  172MPD1     C 2671   2.104   2.219   0.068  0.0933 -0.3766  0.3780
  172MPD1    C1 2672   2.125   2.321  17.727 -0.8411  0.5840 -0.6475
  172MPD1    C2 2673   2.215   2.419   0.020 -0.5065  0.4651 -0.0961
  172MPD1    C3 2674   2.261   2.424   0.153  0.1237  0.2460  0.3371
  172MPD1    C4 2675   2.238   2.320   0.237  0.0891 -0.2113  0.2470
  172MPD1    C5 2676   2.155   2.216   0.195  0.5876 -0.0611 -0.0023
  172MPD1     H 2677   2.247   2.504  17.703  0.2127 -0.4314 -1.0020
  172MPD1    H1 2678   2.279   2.310   0.337 -0.4382  1.9900  0.6702
  172MPD1    H2 2679   2.049   2.133   0.032 -1.4826  0.7645  0.0636
  172MPD1    H3 2680   2.124   2.143   0.269  4.1344 -1.0379  0.5106
  172MPD1     N 2681   2.353   2.518   0.206  0.0289  1.0171 -0.2905
  172MPD1    H5 2682   2.429   2.495   0.270  0.3933 -0.3120 -1.2137
  172MPD1    N1 2683   2.105   2.296  17.590  0.8867 -0.4983 -0.5426
  172MPD1    H6 2684   2.011   2.260  17.571  0.2291  0.3053  1.1609
  172MPD1    H7 2685   2.129   2.380  17.537  0.1087  1.2496  1.8681
  173MPD1     C 2686   3.594   2.708  13.217 -0.0749  0.0643  0.3829
  173MPD1    C1 2687   3.680   2.603  13.191 -0.0776  0.0558  0.2484
  173MPD1    C2 2688   3.734   2.537  13.306  0.0380 -0.1246 -0.7088
  173MPD1    C3 2689   3.714   2.584  13.437  0.1662 -0.1383  0.6797
  173MPD1    C4 2690   3.651   2.707  13.453 -0.0832  0.6452 -0.0168
  173MPD1    C5 2691   3.586   2.767  13.342 -1.1387  0.4804  0.2611
  173MPD1     H 2692   3.791   2.447  13.285  1.0870  0.7287 -1.5347
  173MPD1    H1 2693   3.657   2.756  13.549 -1.8913 -1.7526  1.3219
  173MPD1    H2 2694   3.549   2.769  13.140 -1.5950 -0.5799  0.7580
  173MPD1    H3 2695   3.529   2.857  13.357  0.9056  1.1885  3.8281
  173MPD1     N 2696   3.759   2.499  13.547  0.1628  0.3229  0.6047
  173MPD1    H5 2697   3.814   2.417  13.526 -0.1427 -0.0253  1.1587
  173MPD1    N1 2698   3.688   2.553  13.057  0.6959 -0.1109 -0.0423
  173MPD1    H6 2699   3.688   2.630  12.991 -0.1611 -0.1208 -0.0597
  173MPD1    H7 2700   3.768   2.492  13.040 -1.9876 -3.2369 -1.7326
  174MPD1     C 2701   4.064   1.733  13.469  0.3209  0.1645  0.7248
  174MPD1    C1 2702   3.991   1.706  13.579 -0.9884  0.2969  0.0491
  174MPD1    C2 2703   3.923   1.814  13.648  0.4098 -0.3058  0.2965
  174MPD1    C3 2704   3.930   1.945  13.596  0.0081  1.0524 -0.0991
  174MPD1    C4 2705   3.999   1.963  13.481 -0.5745 -0.0793  0.4916
  174MPD1    C5 2706   4.067   1.858  13.424  0.1393 -0.2335  0.2608
  174MPD1     H 2707   3.869   1.785  13.738 -1.4294  1.6430 -0.1908
  174MPD1    H1 2708   4.016   2.058  13.433 -0.4788  0.6887  2.0316
  174MPD1    H2 2709   4.113   1.655  13.412  1.6469  2.2940 -1.0262
  174MPD1    H3 2710   4.125   1.876  13.334  1.8467 -1.5646  1.1081
  174MPD1     N 2711   3.882   2.055  13.663 -0.5709  0.5906  0.3527
  174MPD1    H5 2712   3.888   2.138  13.604 -0.4522 -2.5911 -4.1185
  174MPD1    N1 2713   3.968   1.570  13.609  0.3034 -0.3842 -0.8377
  174MPD1    H6 2714   3.922   1.553  13.698 -0.2023  1.8483 -0.6715
  174MPD1    H7 2715   4.048   1.510  13.589  0.3420  0.0686 -2.0468
  175MPD1     C 2716   2.146   3.534  15.469  0.1606 -0.1063 -0.5771
  175MPD1    C1 2717   2.012   3.525  15.479 -0.5122  0.4347  0.1944
  175MPD1    C2 2718   1.956   3.504  15.604  0.0631  0.1674  0.2719
  175MPD1    C3 2719   2.039   3.492  15.717  0.1743  0.3246  0.3966
  175MPD1    C4 2720   2.173   3.517  15.702 -0.9850  0.3823  0.4331
  175MPD1    C5 2721   2.228   3.526  15.575 -0.2891 -0.0597  0.6907
  175MPD1     H 2722   1.850   3.483  15.616  0.2871 -0.4091  1.1918
  175MPD1    H1 2723   2.234   3.502  15.790 -1.4028  0.7665  0.7878
  175MPD1    H2 2724   2.188   3.546  15.369 -0.4434 -1.4647 -0.9952
  175MPD1    H3 2725   2.334   3.545  15.562 -0.4603  0.2498 -0.2785
  175MPD1     N 2726   1.991   3.471  15.854  0.3007  0.3940 -0.2644
  175MPD1    H5 2727   2.062   3.474  15.926 -0.2880 -1.1463  0.3755
  175MPD1    N1 2728   1.934   3.548  15.368  0.3174  0.8530  0.1436
  175MPD1    H6 2729   1.979   3.509  15.285  0.9984  0.3087  0.7694
  175MPD1    H7 2730   1.835   3.526  15.368  0.6772 -0.8252 -2.1979
  176MPD1     C 2731   3.596   0.299  16.276 -0.2372  0.5585  0.1785
  176MPD1    C1 2732   3.675   0.313  16.389 -0.1326 -0.0320 -0.4485
  176MPD1    C2 2733   3.620   0.359  16.506 -0.5061  0.3860  0.5105
  176MPD1    C3 2734   3.497   0.419  16.507 -0.6045  0.2888  0.1725
  176MPD1    C4 2735   3.423   0.416  16.397  0.0794 -0.3507  0.1399
  176MPD1    C5 2736   3.470   0.354  16.279  0.3324 -0.5253  0.2224
  176MPD1     H 2737   3.671   0.352  16.602  0.8952 -1.6280 -0.3821
  176MPD1    H1 2738   3.324   0.460  16.390 -0.3636 -0.9964  2.3925
  176MPD1    H2 2739   3.632   0.243  16.190 -1.7533 -1.1902  0.6681
  176MPD1    H3 2740   3.412   0.351  16.188 -0.4408 -0.5655  0.7133
  176MPD1     N 2741   3.454   0.477  16.632 -0.0213 -0.3995  0.1725
  176MPD1    H5 2742   3.522   0.473  16.707  0.3708 -1.3042 -0.2217
  176MPD1    N1 2743   3.799   0.245  16.394 -0.3067 -0.8459  0.2878
  176MPD1    H6 2744   3.865   0.291  16.456  0.9309 -0.6417 -1.1955
  176MPD1    H7 2745   3.837   0.237  16.300  0.0406 -0.6272  0.4133
  177MPD1     C 2746   1.999   0.219   9.464  0.0763 -0.5975 -0.0295
  177MPD1    C1 2747   1.875   0.200   9.405  0.0388 -0.5686  0.1229
  177MPD1    C2 2748   1.791   0.308   9.419 -0.1508 -0.2311 -0.2176
  177MPD1    C3 2749   1.823   0.431   9.475  0.2213 -0.7318  0.5228
  177MPD1    C4 2750   1.957   0.448   9.522  0.5910 -0.4115  0.3182
  177MPD1    C5 2751   2.035   0.339   9.518  0.2789 -1.0808  0.7352
  177MPD1     H 2752   1.690   0.289   9.383 -0.2133 -3.8925  1.8836
  177MPD1    H1 2753   2.002   0.533   9.572 -0.9420  0.5654  0.0009
  177MPD1    H2 2754   2.069   0.136   9.471 -2.0449 -2.3354  0.6427
  177MPD1    H3 2755   2.134   0.343   9.562  0.4511  2.9537 -0.0253
  177MPD1     N 2756   1.717   0.529   9.494 -0.3349 -0.2435  0.3183
  177MPD1    H5 2757   1.627   0.504   9.456  0.2777 -0.6489 -0.8845
  177MPD1    N1 2758   1.818   0.074   9.371  0.1973 -0.3368  0.0774
  177MPD1    H6 2759   1.749   0.088   9.297  0.5897 -0.2956 -0.2840
  177MPD1    H7 2760   1.883   0.006   9.331 -1.1766 -2.0539  0.7720
  178MPD1     C 2761   0.146   2.345   0.100  0.2535 -0.7850 -0.3915
  178MPD1    C1 2762   0.035   2.327   0.014  0.4828  0.2778 -0.1215
  178MPD1    C2 2763   0.002   2.199  17.713 -0.0081 -0.0140 -0.6619
  178MPD1    C3 2764   0.082   2.088   0.010  0.3598  0.4210 -0.3406
  178MPD1    C4 2765   0.188   2.114   0.094  0.0981  0.2806 -0.2454
  178MPD1    C5 2766   0.218   2.240   0.140  0.4173 -0.0622 -0.0731
  178MPD1     H 2767   4.648   2.185  17.653  0.3407  0.7421 -1.3596
  178MPD1    H1 2768   0.257   2.034   0.118  0.8611  0.0969 -3.0502
  178MPD1    H2 2769   0.165   2.445   0.137 -1.8655 -0.4172 -0.3180
  178MPD1    H3 2770   0.306   2.265   0.199  0.1373  1.9167 -0.4985
  178MPD1     N 2771   0.057   1.959  17.706 -0.2891 -0.1310  0.0920
  178MPD1    H5 2772   0.124   1.891  17.740  1.1462  1.2748  0.1187
  178MPD1    N1 2773   4.684   2.437  17.737 -0.3703  0.3751 -0.1380
  178MPD1    H6 2774   4.731   2.527  17.724  0.0862  0.1168 -0.2762
  178MPD1    H7 2775   4.632   2.428  17.650 -0.1813  0.8240 -0.2994
  179MPD1     C 2776   3.717   0.171  15.578  0.4536 -0.0413 -1.1318
  179MPD1    C1 2777   3.827   0.097  15.547  0.5198 -0.4400 -0.3480
  179MPD1    C2 2778   3.851   4.716  15.612  0.1299 -0.1974 -0.0037
  179MPD1    C3 2779   3.768   4.672  15.715 -0.5591 -0.1488  0.5774
  179MPD1    C4 2780   3.661   0.013  15.746 -0.5757  0.0641  0.5729
  179MPD1    C5 2781   3.631   0.127  15.680 -0.2061  0.4308 -0.1861
  179MPD1     H 2782   3.944   4.663  15.593  0.0766 -0.5816  0.7953
  179MPD1    H1 2783   3.600   4.708  15.827 -3.4115  1.4283 -0.8713
  179MPD1    H2 2784   3.682   0.251  15.515  0.8645 -1.1106 -2.7271
  179MPD1    H3 2785   3.542   0.180  15.711 -0.5031  0.7584 -1.5874
  179MPD1     N 2786   3.777   4.549  15.778 -0.0442  0.2548  1.0755
  179MPD1    H5 2787   3.704   4.527  15.845 -1.2770  1.6121  0.1554
  179MPD1    N1 2788   3.901   0.131  15.435 -0.4409  0.3515  0.1556
  179MPD1    H6 2789   3.997   0.107  15.458  0.1225  2.0334 -0.4463
  179MPD1    H7 2790   3.882   0.074  15.353  1.5300 -1.7187  1.1330
  180MPD1     C 2791   4.135   1.130  15.258 -0.3920 -0.2657 -0.1485
  180MPD1    C1 2792   4.195   1.182  15.144  0.3042 -0.2427  0.2609
  180MPD1    C2 2793   4.112   1.197  15.035 -0.4317 -0.0268 -0.2226
  180MPD1    C3 2794   3.975   1.154  15.039  0.2912  0.2334 -0.1266
  180MPD1    C4 2795   3.932   1.096  15.152 -0.7558  0.1842 -0.6530
  180MPD1    C5 2796   4.003   1.097  15.270 -0.4250 -0.8440  0.2537
  180MPD1     H 2797   4.149   1.240  14.943 -0.6303 -1.0816 -0.7893
  180MPD1    H1 2798   3.835   1.047  15.146 -0.4612 -0.5042  0.2324
  180MPD1    H2 2799   4.190   1.117  15.350 -1.4463 -0.3362  0.4682
  180MPD1    H3 2800   3.964   1.047  15.359  0.3636 -0.6658  0.7030
  180MPD1     N 2801   3.894   1.178  14.930 -0.2987  0.3138 -0.1997
  180MPD1    H5 2802   3.934   1.214  14.844  0.2443  1.2464  0.4459
  180MPD1    N1 2803   4.331   1.207  15.143  0.6513  0.4973  0.3714
  180MPD1    H6 2804   4.358   1.237  15.236  0.9980 -1.4050  0.8702
  180MPD1    H7 2805   4.354   1.274  15.069  0.5810  1.6899  1.4263
  181MPD1     C 2806   4.616   2.887  10.073 -0.1640 -0.1574  0.3974
  181MPD1    C1 2807   4.658   2.952   9.956  0.2111 -0.2405  0.8785
  181MPD1    C2 2808   0.049   3.008   9.961  0.0076 -0.1540  0.7291
  181MPD1    C3 2809   0.133   3.001  10.071  0.1249  0.1936 -0.3309
  181MPD1    C4 2810   0.092   2.941  10.182 -0.4362  0.1074  1.0851
  181MPD1    C5 2811   4.701   2.886  10.180 -0.2033  0.1279 -0.0928
  181MPD1     H 2812   0.087   3.051   9.869  1.2433  1.2164  1.8885
  181MPD1    H1 2813   0.151   2.941  10.273  0.1087 -0.4368  0.7364
  181MPD1    H2 2814   4.518   2.842  10.082 -0.0698 -0.7793 -1.8126
  181MPD1    H3 2815   4.670   2.848  10.276 -0.5923  0.8380  0.0640
  181MPD1     N 2816   0.265   3.055  10.072 -0.2180 -0.1453  0.0834
  181MPD1    H5 2817   0.326   3.033  10.151  0.7988  1.2580 -0.3150
  181MPD1    N1 2818   4.589   2.931   9.842 -0.2199 -0.5858  0.6297
  181MPD1    H6 2819   4.620   2.991   9.766 -0.9351 -0.7238  0.2203
  181MPD1    H7 2820   4.490   2.943   9.862 -0.8224 -1.9110 -1.5532
  182MPD1     C 2821   2.042   2.572   0.617 -0.0914 -0.7831 -0.0880
  182MPD1    C1 2822   1.929   2.652   0.611  0.2912  0.2424 -0.3041
  182MPD1    C2 2823   1.816   2.598   0.557  0.5093 -0.0737 -0.6529
  182MPD1    C3 2824   1.826   2.496   0.459  0.4629  0.2138  0.0039
  182MPD1    C4 2825   1.953   2.442   0.442  0.1272  0.1111 -0.2487
  182MPD1    C5 2826   2.058   2.470   0.523  0.2077  0.0605 -1.2160
  182MPD1     H 2827   1.722   2.648   0.577  0.5199 -0.5688  0.6667
  182MPD1    H1 2828   1.968   2.366   0.367  2.0779 -0.1277  0.3899
  182MPD1    H2 2829   2.124   2.599   0.682 -0.0308 -1.3012  0.0482
  182MPD1    H3 2830   2.148   2.411   0.523 -0.6808 -1.2889 -0.4552
  182MPD1     N 2831   1.709   2.449   0.384 -0.0219  0.0173  0.1456
  182MPD1    H5 2832   1.727   2.363   0.333 -2.0211 -1.4493  1.8922
  182MPD1    N1 2833   1.919   2.761   0.698 -0.3307 -0.3050 -0.4117
  182MPD1    H6 2834   2.007   2.811   0.685 -0.8579  0.8919  0.6924
  182MPD1    H7 2835   1.844   2.824   0.673  0.3381  0.5427 -0.2790
  183MPD1     C 2836   1.619   2.491   8.986  0.2161  0.3863 -0.2645
  183MPD1    C1 2837   1.674   2.445   9.104  0.4879  0.2129  0.0286
  183MPD1    C2 2838   1.618   2.485   9.222 -0.1453  0.2582  0.6507
  183MPD1    C3 2839   1.526   2.581   9.225  0.1708 -0.0473  0.1079
  183MPD1    C4 2840   1.473   2.630   9.105  0.3195 -0.1845 -0.1024
  183MPD1    C5 2841   1.528   2.593   8.989 -0.6761  0.3570  0.7947
  183MPD1     H 2842   1.654   2.454   9.319 -0.3389  0.8932  0.9271
  183MPD1    H1 2843   1.395   2.704   9.089  0.4250  0.2372  1.3621
  183MPD1    H2 2844   1.659   2.458   8.891  0.2275 -0.2971 -0.0215
  183MPD1    H3 2845   1.502   2.633   8.891  1.8595 -0.6768 -0.2957
  183MPD1     N 2846   1.483   2.630   9.352 -0.1251 -0.0296 -0.0267
  183MPD1    H5 2847   1.534   2.595   9.432  0.4001  1.9567  0.5160
  183MPD1    N1 2848   1.768   2.338   9.092 -0.3668 -0.0962  0.8266
  183MPD1    H6 2849   1.822   2.345   9.005 -1.8281  0.3752 -0.0406
  183MPD1    H7 2850   1.821   2.346   9.178 -0.9824 -2.5021  1.4305
  184MPD1     C 2851   1.153   0.030  10.714  0.0634 -0.6520  0.4581
  184MPD1    C1 2852   1.028   0.029  10.659  0.1984  0.3282 -0.0598
  184MPD1    C2 2853   1.013   0.108  10.537  0.7939  0.1920  0.1337
  184MPD1    C3 2854   1.123   0.179  10.488 -0.1687  0.3028 -0.1864
  184MPD1    C4 2855   1.245   0.180  10.552  0.3364  0.1504  0.3613
  184MPD1    C5 2856   1.252   0.107  10.665  0.0283 -0.1368 -0.4131
  184MPD1     H 2857   0.917   0.129  10.493  1.0144 -0.8426 -0.8352
  184MPD1    H1 2858   1.331   0.240  10.524 -0.3800  1.8229  1.7749
  184MPD1    H2 2859   1.184   4.704  10.797 -1.5898  0.2408  1.7432
  184MPD1    H3 2860   1.351   0.112  10.710 -0.1042  0.5332 -0.1867
  184MPD1     N 2861   1.116   0.257  10.369 -0.4160 -0.2764 -0.3575
  184MPD1    H5 2862   1.211   0.285  10.347 -0.6587  0.9247  0.1106
  184MPD1    N1 2863   0.919   4.689  10.706 -0.0536 -0.9566 -0.0129
  184MPD1    H6 2864   0.923   4.657  10.803  1.9950 -1.1812 -0.1782
  184MPD1    H7 2865   0.831   0.001  10.685 -1.2634 -2.5622  1.4188
  185MPD1     C 2866   0.328   0.537   9.776  0.2824 -0.5084  0.1756
  185MPD1    C1 2867   0.414   0.638   9.776  0.2883  0.0202 -0.5720
  185MPD1    C2 2868   0.539   0.622   9.835  0.5140  0.5807 -0.0728
  185MPD1    C3 2869   0.573   0.508   9.894 -0.6134 -0.7872  0.2439
  185MPD1    C4 2870   0.478   0.405   9.915 -0.0031  0.1277 -0.2636
  185MPD1    C5 2871   0.362   0.428   9.853 -0.8500 -0.2909  0.5594
  185MPD1     H 2872   0.612   0.699   9.816  1.5658 -0.1756  0.9239
  185MPD1    H1 2873   0.496   0.308   9.958 -0.8329  0.1048  0.0376
  185MPD1    H2 2874   0.230   0.546   9.730  1.5817  2.1189 -2.0680
  185MPD1    H3 2875   0.294   0.344   9.854  0.3059 -1.2663 -1.0644
  185MPD1     N 2876   0.704   0.471   9.947  0.6544  0.1217  0.4898
  185MPD1    H5 2877   0.710   0.381   9.994  1.7917 -0.2055 -0.2605
  185MPD1    N1 2878   0.391   0.743   9.686 -0.8801 -0.8232 -0.0694
  185MPD1    H6 2879   0.292   0.759   9.666  0.3964  3.6497 -2.6769
  185MPD1    H7 2880   0.431   0.833   9.710 -0.5018 -1.1114  0.3822
  186MPD1     C 2881   4.240   4.654  16.073 -0.0674  0.3165  0.3901
  186MPD1    C1 2882   4.128   4.732  16.049 -0.6968  0.5789  0.0754
  186MPD1    C2 2883   4.114   0.110  16.119  0.1368  0.2484  0.0074
  186MPD1    C3 2884   4.218   0.153  16.193 -0.0691 -0.3747  0.2453
  186MPD1    C4 2885   4.331   0.081  16.210  0.4931  0.1265 -0.0384
  186MPD1    C5 2886   4.340   4.689  16.158  0.1605  0.3452 -0.2291
  186MPD1     H 2887   4.026   0.165  16.090 -0.5740 -0.2215  1.3130
  186MPD1    H1 2888   4.417   0.108  16.270 -0.1051 -0.2209  0.9710
  186MPD1    H2 2889   4.245   4.561  16.019 -3.6065  0.2325  0.1909
  186MPD1    H3 2890   4.419   4.616  16.162 -0.7642 -0.5633  1.4500
  186MPD1     N 2891   4.206   0.281  16.258  0.4397  0.0588 -0.5217
  186MPD1    H5 2892   4.279   0.315  16.320  0.4520  2.2947 -1.7618
  186MPD1    N1 2893   4.015   4.674  15.991 -0.6896 -1.1127 -0.4619
  186MPD1    H6 2894   4.030   4.613  15.910  1.0305  0.2767 -1.2006
  186MPD1    H7 2895   3.946   0.011  15.969  1.4110  1.3939  1.1898
  187MPD1     C 2896   3.700   2.364   0.694  0.2532  0.0466  0.5803
  187MPD1    C1 2897   3.653   2.239   0.666  0.2612  0.2147 -0.5004
  187MPD1    C2 2898   3.624   2.200   0.539  0.2154 -0.4621  0.6362
  187MPD1    C3 2899   3.609   2.300   0.438 -0.0606  0.5775  0.2407
  187MPD1    C4 2900   3.640   2.434   0.473  0.2378  0.1676 -0.1656
  187MPD1    C5 2901   3.688   2.466   0.599  0.0322  0.7971 -0.4007
  187MPD1     H 2902   3.595   2.098   0.518  0.8287 -0.6538  0.7291
  187MPD1    H1 2903   3.636   2.517   0.404 -0.1045  0.3518  0.0740
  187MPD1    H2 2904   3.740   2.385   0.792  0.5089 -2.1323  0.9478
  187MPD1    H3 2905   3.734   2.562   0.618  0.0426  0.8487 -0.6768
  187MPD1     N 2906   3.571   2.276   0.307 -0.3663  0.0600  0.0288
  187MPD1    H5 2907   3.575   2.357   0.247  1.5356  0.0839  0.1886
  187MPD1    N1 2908   3.669   2.130   0.757 -0.6360  0.0359 -0.2424
  187MPD1    H6 2909   3.602   2.056   0.739  1.7145 -2.7586  2.6352
  187MPD1    H7 2910   3.653   2.159   0.854  0.3257  2.1161 -0.6923
  188MPD1     C 2911   3.363   2.366  11.050 -0.0688  0.4260 -1.1058
  188MPD1    C1 2912   3.418   2.265  11.125 -0.1325 -0.1169 -0.2652
  188MPD1    C2 2913   3.465   2.153  11.059  0.0726 -0.0467 -0.2103
  188MPD1    C3 2914   3.471   2.146  10.923  1.0254  0.0112 -0.0438
  188MPD1    C4 2915   3.437   2.250  10.854  0.1044 -0.2685  0.0715
  188MPD1    C5 2916   3.375   2.355  10.912 -0.2668 -0.3147 -0.6244
  188MPD1     H 2917   3.504   2.071  11.119 -0.1546 -0.0428 -0.0585
  188MPD1    H1 2918   3.423   2.251  10.746 -2.6052  2.7123  0.4600
  188MPD1    H2 2919   3.335   2.463  11.090  1.6215  0.4008  0.1542
  188MPD1    H3 2920   3.335   2.438  10.854 -1.7260  0.0491  0.9093
  188MPD1     N 2921   3.502   2.038  10.845 -0.2110  0.2358  0.3185
  188MPD1    H5 2922   3.478   2.046  10.747 -0.1480  2.4970  0.5060
  188MPD1    N1 2923   3.392   2.269  11.267  0.0565 -0.2289  0.4804
  188MPD1    H6 2924   3.392   2.364  11.304  2.5180 -0.9138  2.1887
  188MPD1    H7 2925   3.469   2.227  11.318  0.9837  0.7378 -0.1475
  189MPD1     C 2926   0.868   2.957   0.594 -0.6167 -0.8044  0.4505
  189MPD1    C1 2927   0.878   3.051   0.498 -0.6897 -0.4823 -1.1113
  189MPD1    C2 2928   0.763   3.126   0.492  0.2769 -0.2633  0.7792
  189MPD1    C3 2929   0.662   3.125   0.586 -0.0601  0.4296 -0.0290
  189MPD1    C4 2930   0.669   3.035   0.685  0.1946 -0.7700 -0.3143
  189MPD1    C5 2931   0.765   2.952   0.683  0.3895  0.2652 -0.1561
  189MPD1     H 2932   0.753   3.203   0.416 -0.4128 -0.1579  0.9820
  189MPD1    H1 2933   0.584   3.016   0.749  1.6038  0.2028  1.8273
  189MPD1    H2 2934   0.936   2.873   0.603 -2.3409 -2.3816 -1.3295
  189MPD1    H3 2935   0.760   2.867   0.750  0.8802  2.4694  2.6353
  189MPD1     N 2936   0.548   3.209   0.579 -0.1417 -0.5311  0.7319
  189MPD1    H5 2937   0.465   3.192   0.634 -0.0121 -0.4946  0.9403
  189MPD1    N1 2938   0.975   3.040   0.400 -0.3529 -0.1798 -0.1743
  189MPD1    H6 2939   0.991   3.130   0.355  1.7840  0.8958  2.7873
  189MPD1    H7 2940   1.067   3.015   0.435 -0.3315  0.1550  0.0036
  190MPD1     C 2941   3.522   0.906  15.861 -0.1084  0.4405 -0.0575
  190MPD1    C1 2942   3.577   0.972  15.965  0.5041  0.2753 -0.0105
  190MPD1    C2 2943   3.688   1.046  15.941  0.2824  0.2069  0.4504
  190MPD1    C3 2944   3.761   1.030  15.825 -0.8479  0.1117 -0.0649
  190MPD1    C4 2945   3.709   0.950  15.728  0.0873 -0.0574 -0.0158
  190MPD1    C5 2946   3.581   0.896  15.740  0.5080  0.0804  0.2373
  190MPD1     H 2947   3.730   1.108  16.019  2.7780 -1.4553  0.4143
  190MPD1    H1 2948   3.748   0.941  15.627 -2.7671  1.7221 -1.2855
  190MPD1    H2 2949   3.421   0.867  15.859 -0.3894  1.1070  0.9981
  190MPD1    H3 2950   3.537   0.831  15.665 -0.0305  0.9304 -0.1775
  190MPD1     N 2951   3.884   1.100  15.815  0.3799 -0.4444 -0.3364
  190MPD1    H5 2952   3.904   1.158  15.896  2.0510 -2.2985  0.5716
  190MPD1    N1 2953   3.486   0.993  16.073  0.0825 -0.2873 -0.0072
  190MPD1    H6 2954   3.415   0.925  16.098 -0.8474  0.5990 -0.2191
  190MPD1    H7 2955   3.533   1.012  16.161 -0.8706  1.1568  0.1877
  191MPD1     C 2956   2.979   3.338  12.468  0.1427 -0.3061  0.9948
  191MPD1    C1 2957   2.944   3.470  12.495 -0.0938  0.3743  0.3315
  191MPD1    C2 2958   2.870   3.493  12.600  0.3530 -0.2299  0.2396
  191MPD1    C3 2959   2.819   3.394  12.682 -0.3854  0.3018 -0.5478
  191MPD1    C4 2960   2.858   3.257  12.653  0.5700 -0.0810 -0.1128
  191MPD1    C5 2961   2.929   3.234  12.541  0.1051  1.0366 -0.3555
  191MPD1     H 2962   2.830   3.590  12.624  0.7940 -0.3879  1.6048
  191MPD1    H1 2963   2.828   3.172  12.713  0.8134 -0.0773  0.0124
  191MPD1    H2 2964   3.045   3.318  12.385 -0.1651 -1.4638  1.0345
  191MPD1    H3 2965   2.976   3.139  12.519 -1.6156  0.4263 -1.3447
  191MPD1     N 2966   2.737   3.439  12.790 -0.0538 -0.2082 -0.9945
  191MPD1    H5 2967   2.721   3.540  12.792 -0.9445 -0.3868  0.7135
  191MPD1    N1 2968   3.016   3.576  12.439 -0.2341 -0.7610  0.2997
  191MPD1    H6 2969   3.062   3.540  12.356 -0.5120  1.2777 -0.7425
  191MPD1    H7 2970   2.940   3.630  12.397 -1.7159 -2.7310  0.4721
  192MPD1     C 2971   1.821   3.324  13.342  0.1685 -0.3225  0.1413
  192MPD1    C1 2972   1.932   3.246  13.356 -0.0877  0.7264  0.3480
  192MPD1    C2 2973   2.053   3.292  13.307 -0.3101  0.2007  0.2426
  192MPD1    C3 2974   2.057   3.418  13.241  0.0019 -0.4099 -0.0394
  192MPD1    C4 2975   1.940   3.489  13.231  0.0452 -0.4373 -0.1243
  192MPD1    C5 2976   1.823   3.444  13.280  0.5004  0.0449  0.1784
  192MPD1     H 2977   2.143   3.233  13.317  1.3693  2.5129 -1.1171
  192MPD1    H1 2978   1.926   3.589  13.192  1.4436 -0.5909 -1.0379
  192MPD1    H2 2979   1.721   3.298  13.374  0.1539 -0.0243  0.3432
  192MPD1    H3 2980   1.733   3.505  13.270 -0.1375 -0.4273  2.8978
  192MPD1     N 2981   2.173   3.472  13.166  0.4948 -0.3997 -0.1534
  192MPD1    H5 2982   2.167   3.558  13.113  2.6291  0.2910  0.7146
  192MPD1    N1 2983   1.934   3.132  13.439  0.3602 -0.2451  0.0345
  192MPD1    H6 2984   2.000   3.061  13.408 -0.5394 -0.8754 -0.4471
  192MPD1    H7 2985   1.840   3.091  13.438  0.2815 -0.0387 -1.4369
  193MPD1     C 2986   2.738   3.529  16.231  0.0518  0.6237  1.0438
  193MPD1    C1 2987   2.778   3.401  16.271 -0.3392 -0.7612  0.1309
  193MPD1    C2 2988   2.886   3.388  16.357 -0.7409  0.3396 -0.0619
  193MPD1    C3 2989   2.943   3.500  16.415 -0.4878 -0.1346  0.1271
  193MPD1    C4 2990   2.891   3.625  16.386 -0.1147  1.1603 -0.7242
  193MPD1    C5 2991   2.789   3.642  16.295  0.4461  0.2029 -0.4572
  193MPD1     H 2992   2.921   3.291  16.389 -0.3189  0.4090 -0.3088
  193MPD1    H1 2993   2.918   3.709  16.449  0.3130  0.2076  0.3601
  193MPD1    H2 2994   2.640   3.533  16.183 -0.3146 -0.9844  1.6639
  193MPD1    H3 2995   2.750   3.739  16.268  0.7900 -0.0978 -1.9913
  193MPD1     N 2996   3.035   3.502  16.518 -0.1402  0.2797  0.0764
  193MPD1    H5 2997   3.073   3.589  16.553  0.3669 -0.1287  0.5593
  193MPD1    N1 2998   2.716   3.296  16.208  0.8612 -0.0724  0.0327
  193MPD1    H6 2999   2.706   3.220  16.275  1.1133 -0.4152 -0.3177
  193MPD1    H7 3000   2.624   3.324  16.176  0.3906 -1.6408  0.0297
  194MPD1     C 3001   0.240   0.813  16.827 -0.0051 -0.8931 -0.0721
  194MPD1    C1 3002   0.247   0.681  16.768 -0.5137  0.0285  0.0013
  194MPD1    C2 3003   0.325   0.585  16.827 -0.2671 -0.4133  0.1548
  194MPD1    C3 3004   0.411   0.618  16.933  0.4228  0.2420 -0.2345
  194MPD1    C4 3005   0.410   0.750  16.977 -1.0157 -0.0113 -0.1599
  194MPD1    C5 3006   0.318   0.840  16.931 -0.8190 -0.0301  0.3658
  194MPD1     H 3007   0.323   0.486  16.784 -1.2301  0.3290 -1.5045
  194MPD1    H1 3008   0.487   0.775  17.049  0.0571 -0.9511 -0.9871
  194MPD1    H2 3009   0.187   0.895  16.780  2.0228 -0.2449 -1.1791
  194MPD1    H3 3010   0.328   0.940  16.974  0.1788 -0.2046  0.5355
  194MPD1     N 3011   0.493   0.528  17.014 -0.2639  0.3210 -0.3055
  194MPD1    H5 3012   0.553   0.576  17.080  0.0372 -0.7192  0.1700
  194MPD1    N1 3013   0.149   0.644  16.669 -0.1473  0.0743 -0.6111
  194MPD1    H6 3014   0.124   0.728  16.618 -0.3473  0.2097 -0.2864
  194MPD1    H7 3015   0.197   0.583  16.603  3.1180  1.2723  0.6564
  195MPD1     C 3016   2.769   2.116  17.334  0.1655  0.0121 -0.4291
  195MPD1    C1 3017   2.898   2.102  17.379 -0.2933  0.2718  0.4096
  195MPD1    C2 3018   2.938   1.984  17.441  0.4935 -0.2966 -0.9637
  195MPD1    C3 3019   2.852   1.879  17.448 -0.8303  0.1599  0.5824
  195MPD1    C4 3020   2.728   1.899  17.399 -0.6429  0.0594 -0.0092
  195MPD1    C5 3021   2.682   2.013  17.352 -0.5638  0.1276  0.2731
  195MPD1     H 3022   3.034   1.984  17.490 -0.8076  2.4854  1.5925
  195MPD1    H1 3023   2.651   1.823  17.389 -0.8253  0.1283  0.8565
  195MPD1    H2 3024   2.738   2.217  17.307  1.7756  0.7970  0.6810
  195MPD1    H3 3025   2.576   2.016  17.330 -0.2565 -0.7084 -1.2762
  195MPD1     N 3026   2.880   1.751  17.500  0.0095  0.8355  0.6521
  195MPD1    H5 3027   2.803   1.690  17.475 -0.5292  1.6730  0.3096
  195MPD1    N1 3028   2.984   2.216  17.384 -0.4725  0.1174 -0.0306
  195MPD1    H6 3029   3.081   2.192  17.360 -0.8840  0.0091 -1.6019
  195MPD1    H7 3030   2.948   2.289  17.323  1.5613  2.1477  1.1775
  196MPD1     C 3031   3.423   1.217   1.085  0.5448  0.3249  0.6451
  196MPD1    C1 3032   3.484   1.338   1.112 -0.3363 -0.3402  0.2556
  196MPD1    C2 3033   3.404   1.448   1.123 -0.4301  0.4358  0.0969
  196MPD1    C3 3034   3.273   1.444   1.088  0.1307  0.3586 -0.5286
  196MPD1    C4 3035   3.212   1.327   1.049 -0.2764  0.2570 -0.0126
  196MPD1    C5 3036   3.290   1.217   1.052 -0.2933  0.5468  0.7599
  196MPD1     H 3037   3.445   1.532   1.177  1.1865 -0.6485  0.5617
  196MPD1    H1 3038   3.106   1.317   1.030 -0.6431  1.6115  1.3566
  196MPD1    H2 3039   3.473   1.121   1.084  1.7470  0.9823 -2.5395
  196MPD1    H3 3040   3.242   1.121   1.035 -2.5565  1.7352  0.4608
  196MPD1     N 3041   3.202   1.566   1.088  0.8711  0.0359  0.3587
  196MPD1    H5 3042   3.105   1.556   1.061  0.2438  0.2659  2.4809
  196MPD1    N1 3043   3.608   1.349   1.169  0.6801 -0.2618 -0.2211
  196MPD1    H6 3044   3.684   1.310   1.113  0.1270 -3.9290  1.6071
  196MPD1    H7 3045   3.634   1.448   1.172 -1.2210  0.2442 -0.8368
  197MPD1     C 3046   1.982   2.995  17.617 -0.5547  0.0066  0.1455
  197MPD1    C1 3047   2.008   3.107  17.690 -0.3102  0.0098 -0.3668
  197MPD1    C2 3048   2.050   3.216  17.627 -0.0759 -0.2823  0.8203
  197MPD1    C3 3049   2.012   3.237  17.494 -0.2670 -0.1909 -0.0159
  197MPD1    C4 3050   1.958   3.130  17.423 -0.4208 -0.1642  0.0034
  197MPD1    C5 3051   1.950   3.005  17.487  0.1851  1.0578  0.0022
  197MPD1     H 3052   2.103   3.286  17.691  0.3270  1.6784 -1.6305
  197MPD1    H1 3053   1.929   3.132  17.319  0.5908  0.3561 -0.2629
  197MPD1    H2 3054   1.971   2.898  17.664 -2.7670  0.0036 -0.4173
  197MPD1    H3 3055   1.935   2.913  17.432  0.9586  0.5058  0.7277
  197MPD1     N 3056   2.016   3.358  17.425  0.3096  0.2578  0.9174
  197MPD1    H5 3057   1.968   3.362  17.336  0.6719 -0.2259  0.7032
  197MPD1    N1 3058   2.032   3.092   0.087  0.1134 -0.3335 -0.1180
  197MPD1    H6 3059   2.002   3.176   0.135 -2.0772 -2.1357  1.6429
  197MPD1    H7 3060   1.967   3.023   0.123  1.1875 -0.8619  0.8257
  198MPD1     C 3061   3.245   2.771  16.060  0.6227  0.2657 -0.7814
  198MPD1    C1 3062   3.283   2.705  16.167 -0.2842 -0.2167 -0.4333
  198MPD1    C2 3063   3.397   2.629  16.155  0.2216 -0.5408  0.0381
  198MPD1    C3 3064   3.448   2.594  16.031  0.2362  0.4805  0.4981
  198MPD1    C4 3065   3.396   2.656  15.916 -0.2202  0.0798  0.2380
  198MPD1    C5 3066   3.289   2.741  15.935 -0.2253  0.3828  0.4006
  198MPD1     H 3067   3.428   2.583  16.248  1.8355  0.1167 -0.1714
  198MPD1    H1 3068   3.425   2.637  15.813 -1.5727 -2.0426  0.2508
  198MPD1    H2 3069   3.173   2.850  16.075 -1.0542 -2.1151  3.7513
  198MPD1    H3 3070   3.248   2.790  15.847 -2.2606 -2.4439 -0.2284
  198MPD1     N 3071   3.562   2.515  16.035 -0.1573  0.1955  0.9195
  198MPD1    H5 3072   3.601   2.490  16.125 -1.6095 -1.3601  1.1285
  198MPD1    N1 3073   3.232   2.735  16.293 -0.0719  0.2778  0.8013
  198MPD1    H6 3074   3.232   2.653  16.353  0.6354 -0.0494  0.3514
  198MPD1    H7 3075   3.136   2.762  16.272 -0.0824  0.6251  1.2913
  199MPD1     C 3076   0.942   3.119   9.873 -0.0138  0.6069 -0.6411
  199MPD1    C1 3077   1.023   3.212   9.935 -0.0147 -0.4383 -0.3378
  199MPD1    C2 3078   0.985   3.344   9.919 -1.0810  0.7134 -0.2659
  199MPD1    C3 3079   0.862   3.383   9.867  0.3889 -0.4615 -0.1067
  199MPD1    C4 3080   0.766   3.287   9.834  0.3305 -0.5897  0.1141
  199MPD1    C5 3081   0.813   3.161   9.834 -1.1418 -0.3957  0.1581
  199MPD1     H 3082   1.065   3.415   9.936 -2.0038  1.1734  2.2345
  199MPD1    H1 3083   0.667   3.307   9.794 -0.7956  0.1689  3.2482
  199MPD1    H2 3084   0.974   3.016   9.871 -0.9001  0.3288 -0.2224
  199MPD1    H3 3085   0.751   3.078   9.801 -0.2863 -1.3484  0.9572
  199MPD1     N 3086   0.827   3.518   9.851  0.0960  0.4695  0.4873
  199MPD1    H5 3087   0.740   3.530   9.801 -0.5098 -0.0603  1.4039
  199MPD1    N1 3088   1.157   3.175   9.964  0.0461  0.1625 -0.4656
  199MPD1    H6 3089   1.159   3.088  10.017  2.0210  0.0410 -0.7758
  199MPD1    H7 3090   1.204   3.243  10.023 -1.4768  0.1447  0.7722
  200MPD1     C 3091   4.344   3.370  15.145 -0.0413 -0.0381 -1.1184
  200MPD1    C1 3092   4.387   3.440  15.029 -0.3145  0.4763  0.1606
  200MPD1    C2 3093   4.515   3.413  14.976 -0.3229  0.2507 -0.0191
  200MPD1    C3 3094   4.602   3.342  15.049 -0.2622 -0.3545  0.5229
  200MPD1    C4 3095   4.560   3.276  15.165  0.6023  0.0058 -0.3492
  200MPD1    C5 3096   4.431   3.288  15.208 -0.1766  0.0146  0.0208
  200MPD1     H 3097   4.547   3.463  14.885 -0.8253  1.2315  0.3420
  200MPD1    H1 3098   4.631   3.227  15.231 -0.6560 -0.8149  0.3975
  200MPD1    H2 3099   4.244   3.378  15.186  0.4835  1.4533 -0.1554
  200MPD1    H3 3100   4.401   3.240  15.301 -0.7812 -1.1784 -0.7882
  200MPD1     N 3101   0.006   3.332  15.006 -0.5991 -0.2506  0.1044
  200MPD1    H5 3102   0.027   3.377  14.918 -0.0536 -2.3605 -0.8257
  200MPD1    N1 3103   4.296   3.525  14.963 -0.6451  0.2440 -0.3758
  200MPD1    H6 3104   4.217   3.561  15.017  1.1360  0.9077  1.7929
  200MPD1    H7 3105   4.343   3.601  14.914  1.4863 -0.9755 -0.1890
  201MPD1     C 3106   1.844   2.504  13.465 -0.2439 -0.9017  0.0506
  201MPD1    C1 3107   1.848   2.416  13.354 -0.1646 -0.0975  0.1815
  201MPD1    C2 3108   1.958   2.409  13.276 -0.0139  0.0511  0.2095
  201MPD1    C3 3109   2.077   2.465  13.316 -0.3293 -0.5485 -0.0661
  201MPD1    C4 3110   2.084   2.539  13.432  0.1219 -0.0276 -0.4139
  201MPD1    C5 3111   1.963   2.563  13.493 -0.1773  0.1699  0.3780
  201MPD1     H 3112   1.964   2.349  13.186 -2.3356  0.1817 -0.0325
  201MPD1    H1 3113   2.170   2.593  13.471 -1.8807  1.3108  2.2167
  201MPD1    H2 3114   1.750   2.526  13.514  0.7627  1.3214  0.9728
  201MPD1    H3 3115   1.964   2.628  13.580  0.5680 -1.3352  1.5029
  201MPD1     N 3116   2.192   2.448  13.237  0.3030 -0.1586  0.1797
  201MPD1    H5 3117   2.175   2.395  13.152  0.2085  0.6570 -0.3125
  201MPD1    N1 3118   1.723   2.366  13.305 -0.1484  0.2289  0.1043
  201MPD1    H6 3119   1.647   2.343  13.369  0.6128  0.3714  1.0642
  201MPD1    H7 3120   1.723   2.287  13.241 -0.2214 -0.6895  1.2391
  202MPD1     C 3121   1.808   2.011   9.216 -0.0014  0.3476 -0.2562
  202MPD1    C1 3122   1.917   1.927   9.245 -0.1038 -0.8015  0.6689
  202MPD1    C2 3123   1.993   1.970   9.351  0.1315 -0.1643  0.7690
  202MPD1    C3 3124   1.934   2.053   9.451  0.1873 -0.6633 -0.8184
  202MPD1    C4 3125   1.812   2.113   9.427  0.1063 -0.0029  0.7225
  202MPD1    C5 3126   1.752   2.101   9.308  0.4422 -0.0669  0.1852
  202MPD1     H 3127   2.086   1.916   9.351  0.1023 -0.2250 -0.4654
  202MPD1    H1 3128   1.762   2.182   9.494  1.2145  1.2752  0.2322
  202MPD1    H2 3129   1.748   1.981   9.131  1.5565  1.4176 -1.7425
  202MPD1    H3 3130   1.661   2.156   9.288 -1.1257 -2.5715  0.4553
  202MPD1     N 3131   1.996   2.083   9.576  0.4494 -0.3926 -0.1616
  202MPD1    H5 3132   1.942   2.134   9.646 -0.4282  0.9619 -1.8142
  202MPD1    N1 3133   1.981   1.856   9.143 -0.4992  0.0265  0.0365
  202MPD1    H6 3134   2.027   1.774   9.183 -0.8434  0.2449  0.8810
  202MPD1    H7 3135   1.917   1.824   9.072  0.5426 -0.4291 -0.7053
  203MPD1     C 3136   0.918   3.279  12.420  0.1581  0.1752  0.3168
  203MPD1    C1 3137   0.923   3.188  12.315  0.6653  0.2158 -0.0303
  203MPD1    C2 3138   0.954   3.054  12.352  0.3831 -0.4247 -0.6094
  203MPD1    C3 3139   0.970   3.021  12.485  0.2504  0.4366  0.0217
  203MPD1    C4 3140   0.954   3.110  12.582  0.0420  0.8792 -0.9284
  203MPD1    C5 3141   0.922   3.242  12.550  0.7584  0.4313  0.1482
  203MPD1     H 3142   0.949   2.972  12.281 -0.6688 -1.8565  1.1082
  203MPD1    H1 3143   0.948   3.087  12.687 -0.9765 -1.3376 -1.4920
  203MPD1    H2 3144   0.881   3.380  12.405 -1.2931 -0.4803 -0.5641
  203MPD1    H3 3145   0.905   3.317  12.627  0.5727  1.3480 -0.7861
  203MPD1     N 3146   0.980   2.886  12.512  0.2869 -0.4549 -0.0626
  203MPD1    H5 3147   0.986   2.822  12.433 -0.0443  0.3557 -0.7369
  203MPD1    N1 3148   0.904   3.218  12.181  0.3104 -0.2745  0.0727
  203MPD1    H6 3149   0.837   3.293  12.172  0.5312  0.2388  2.6032
  203MPD1    H7 3150   0.861   3.138  12.134  2.3882 -1.5451  0.3422
  204MPD1     C 3151   0.482   4.254  17.474  0.3005  0.7745  0.0480
  204MPD1    C1 3152   0.565   4.286  17.367 -0.3428 -0.0201 -0.4361
  204MPD1    C2 3153   0.680   4.210  17.356  0.7302 -0.1176  0.4621
  204MPD1    C3 3154   0.698   4.097  17.435 -0.3896 -0.2328  0.5275
  204MPD1    C4 3155   0.618   4.077  17.541  0.2358  0.4552  0.3725
  204MPD1    C5 3156   0.503   4.145  17.550  0.0061 -0.3836  0.1642
  204MPD1     H 3157   0.747   4.224  17.271 -0.1369  0.8463 -0.0653
  204MPD1    H1 3158   0.632   3.994  17.609  3.6664  0.4463 -0.3348
  204MPD1    H2 3159   0.399   4.317  17.504 -0.9334 -0.5041 -0.6886
  204MPD1    H3 3160   0.436   4.118  17.631  1.0778 -1.7563  0.5872
  204MPD1     N 3161   0.807   4.013  17.398  0.3356  0.6656  0.2281
  204MPD1    H5 3162   0.858   4.046  17.317  0.6908  0.2407  0.2853
  204MPD1    N1 3163   0.545   4.406  17.297  0.1691  0.6443  0.1069
  204MPD1    H6 3164   0.571   4.390  17.200  1.1884  1.9732  0.1550
  204MPD1    H7 3165   0.449   4.440  17.305 -0.2810 -0.6959  0.4364
  205MPD1     C 3166   1.009   2.262  16.733 -0.5724  0.2411  0.7999
  205MPD1    C1 3167   0.935   2.381  16.726 -0.7401 -0.3176 -0.1092
  205MPD1    C2 3168   0.906   2.439  16.847  0.3889  0.0550  0.0200
  205MPD1    C3 3169   0.955   2.390  16.967 -0.5843 -0.2247 -0.3425
  205MPD1    C4 3170   1.028   2.269  16.970 -0.0037  0.7418  0.7406
  205MPD1    C5 3171   1.053   2.206  16.849 -0.1570 -0.2163 -0.3456
  205MPD1     H 3172   0.843   2.527  16.846  2.1487  1.3192 -1.5466
  205MPD1    H1 3173   1.078   2.221  17.054  2.3292 -0.2097 -1.1799
  205MPD1    H2 3174   1.034   2.212  16.640 -1.3911 -0.6691  1.0661
  205MPD1    H3 3175   1.106   2.111  16.849  2.3136  1.1251  1.9624
  205MPD1     N 3176   0.944   2.456  17.092 -0.2029 -0.4045  0.4595
  205MPD1    H5 3177   0.970   2.405  17.176  1.1004  0.4130  0.5426
  205MPD1    N1 3178   0.869   2.415  16.608 -0.0732  0.5380 -0.0254
  205MPD1    H6 3179   0.914   2.396  16.519 -2.0926 -1.0463 -0.7033
  205MPD1    H7 3180   0.820   2.504  16.599 -0.8973 -0.1398 -2.0649
  206MPD1     C 3181   0.882   1.158  16.621 -0.2544  0.4401 -0.7161
  206MPD1    C1 3182   0.976   1.058  16.635  0.6203 -0.4383  0.1229
  206MPD1    C2 3183   0.998   0.972  16.526  0.7812 -0.1991  0.0740
  206MPD1    C3 3184   0.948   1.001  16.403 -0.3656 -0.2881 -0.4245
  206MPD1    C4 3185   0.874   1.117  16.385  0.4437  0.2665  0.4831
  206MPD1    C5 3186   0.838   1.186  16.495 -0.5292  0.0605 -0.5481
  206MPD1     H 3187   1.075   0.896  16.539 -1.7320 -2.7518  0.0060
  206MPD1    H1 3188   0.829   1.149  16.292 -1.4174 -0.1768  1.2331
  206MPD1    H2 3189   0.845   1.211  16.708  0.5246 -0.1815 -0.0067
  206MPD1    H3 3190   0.772   1.271  16.481 -2.6853 -1.6553 -0.8056
  206MPD1     N 3191   0.967   0.922  16.292 -0.2889  0.0897  0.2436
  206MPD1    H5 3192   0.951   0.967  16.203  1.8758 -0.8712 -0.6384
  206MPD1    N1 3193   1.041   1.025  16.758 -0.0961  0.0595  0.4563
  206MPD1    H6 3194   1.059   1.101  16.824  0.5137  1.6344 -1.5055
  206MPD1    H7 3195   1.115   0.956  16.748  0.5248  1.2454 -3.5512
  207MPD1     C 3196   3.258   4.296   9.548 -0.1852 -0.9037  0.2498
  207MPD1    C1 3197   3.282   4.162   9.536  0.2362 -0.8817  0.0457
  207MPD1    C2 3198   3.358   4.100   9.637 -0.5484  0.3235 -0.0352
  207MPD1    C3 3199   3.417   4.183   9.737 -0.3340  0.0639  0.5146
  207MPD1    C4 3200   3.402   4.323   9.736  0.1402 -0.1630  0.4247
  207MPD1    C5 3201   3.320   4.375   9.640  0.4922  0.1663  0.0597
  207MPD1     H 3202   3.368   3.992   9.633 -1.4354  0.2785 -1.3407
  207MPD1    H1 3203   3.454   4.385   9.808  0.3884  0.2597 -0.1150
  207MPD1    H2 3204   3.186   4.353   9.491  1.0785 -1.8477 -2.2603
  207MPD1    H3 3205   3.289   4.478   9.653  0.7829  0.5165 -2.1230
  207MPD1     N 3206   3.490   4.134   9.845 -0.1458 -0.0951 -0.3956
  207MPD1    H5 3207   3.537   4.197   9.909  0.5946 -1.7753  0.6936
  207MPD1    N1 3208   3.207   4.081   9.450 -0.0488 -0.6575  0.0032
  207MPD1    H6 3209   3.260   4.007   9.404  0.1615 -1.6458  1.8492
  207MPD1    H7 3210   3.174   4.135   9.370  0.4356 -0.3609  0.0056
  208MPD1     C 3211   0.741   1.035   0.365  0.4670  0.9865  0.3028
  208MPD1    C1 3212   0.636   1.122   0.344  0.0093  0.2505  0.6499
  208MPD1    C2 3213   0.664   1.234   0.267  0.1299 -0.2614  0.7288
  208MPD1    C3 3214   0.790   1.266   0.214 -0.2479 -0.0286 -0.7232
  208MPD1    C4 3215   0.894   1.179   0.245  0.3197 -0.3429  0.0808
  208MPD1    C5 3216   0.863   1.064   0.314  0.7110  0.9173 -0.1724
  208MPD1     H 3217   0.582   1.299   0.241  1.0921  1.0040  0.8628
  208MPD1    H1 3218   0.989   1.189   0.194  0.9160 -0.1526  1.2479
  208MPD1    H2 3219   0.720   0.945   0.422  1.7339  0.1265 -0.6035
  208MPD1    H3 3220   0.949   1.008   0.351  0.1522  0.4852  0.4857
  208MPD1     N 3221   0.811   1.382   0.137 -0.0189  0.0006  0.1370
  208MPD1    H5 3222   0.729   1.435   0.109  0.7040  2.5554  2.9132
  208MPD1    N1 3223   0.508   1.087   0.408 -0.1757  0.5637 -0.2875
  208MPD1    H6 3224   0.502   0.992   0.444  0.5889 -0.1334 -1.9648
  208MPD1    H7 3225   0.428   1.129   0.362 -0.1516  1.8121  0.8081
  209MPD1     C 3226   3.212   2.936  11.298 -0.2809  0.3389  0.2515
  209MPD1    C1 3227   3.176   2.997  11.180 -0.1510  0.1488 -0.0237
  209MPD1    C2 3228   3.252   3.102  11.137 -0.2658  0.1705  0.6667
  209MPD1    C3 3229   3.352   3.151  11.205  0.4453 -0.0773 -0.9624
  209MPD1    C4 3230   3.399   3.079  11.308 -0.7312  0.1512  0.5339
  209MPD1    C5 3231   3.320   2.980  11.360  0.5620  0.3992  0.0337
  209MPD1     H 3232   3.221   3.152  11.046 -0.9229 -1.1651  0.1641
  209MPD1    H1 3233   3.492   3.103  11.359 -0.1085 -0.9278 -0.1034
  209MPD1    H2 3234   3.157   2.852  11.339  0.0535 -0.3667 -0.7431
  209MPD1    H3 3235   3.340   2.937  11.457  0.7724 -2.1987 -1.1852
  209MPD1     N 3236   3.420   3.263  11.151  0.4826  0.4946  0.3687
  209MPD1    H5 3237   3.378   3.298  11.066  0.8113  0.1365  0.0540
  209MPD1    N1 3238   3.070   2.944  11.100  0.8760  0.0064 -1.1049
  209MPD1    H6 3239   2.999   2.894  11.152  0.7764  0.5271 -0.7311
  209MPD1    H7 3240   3.021   3.013  11.044  0.1449  0.4156  0.0459
  210MPD1     C 3241   4.143   4.057  11.304 -0.0269 -0.1183  0.5964
  210MPD1    C1 3242   4.032   4.035  11.384  0.1442 -0.0532 -0.4099
  210MPD1    C2 3243   3.925   3.970  11.334 -0.3155 -0.9697  0.3169
  210MPD1    C3 3244   3.920   3.920  11.205  0.4623  0.1222 -0.0619
  210MPD1    C4 3245   4.025   3.957  11.118 -0.7584 -0.1046  0.4235
  210MPD1    C5 3246   4.132   4.018  11.169  0.1585 -0.2219  0.3472
  210MPD1     H 3247   3.839   3.957  11.398 -0.2965 -3.8746 -0.2349
  210MPD1    H1 3248   4.033   3.929  11.014  2.2986  1.5658  0.2073
  210MPD1    H2 3249   4.238   4.096  11.340 -0.9941  2.2935  0.4974
  210MPD1    H3 3250   4.211   4.041  11.099 -2.7413  2.5990 -2.0070
  210MPD1     N 3251   3.823   3.837  11.156  0.8408 -0.0926 -0.5149
  210MPD1    H5 3252   3.835   3.816  11.057 -2.2214  1.1276 -1.1699
  210MPD1    N1 3253   4.014   4.096  11.508  0.6071 -0.6053  0.2084
  210MPD1    H6 3254   3.961   4.043  11.578  1.5101 -0.5356  0.9425
  210MPD1    H7 3255   4.106   4.122  11.541  0.6278  0.1055 -0.4242
  211MPD1     C 3256   1.734   2.754  16.118 -0.2056 -0.1788 -0.2012
  211MPD1    C1 3257   1.710   2.857  16.034 -0.1123 -0.5376  0.2252
  211MPD1    C2 3258   1.579   2.912  16.024  0.6238  0.2444 -0.0343
  211MPD1    C3 3259   1.480   2.860  16.096 -0.0961 -0.3462 -0.1751
  211MPD1    C4 3260   1.512   2.759  16.192  0.9231  0.4585  0.2961
  211MPD1    C5 3261   1.639   2.706  16.197  0.0313 -0.2057 -0.5234
  211MPD1     H 3262   1.573   2.995  15.955 -2.5689  1.2900  1.5521
  211MPD1    H1 3263   1.442   2.724  16.267  1.7748  0.0350  0.8976
  211MPD1    H2 3264   1.831   2.707  16.127 -1.2276 -1.9399  1.4985
  211MPD1    H3 3265   1.644   2.627  16.272 -0.7055 -0.3921 -0.6719
  211MPD1     N 3266   1.350   2.918  16.086 -0.0071  0.6352 -0.0156
  211MPD1    H5 3267   1.345   3.004  16.033 -0.0375  0.0234 -1.0031
  211MPD1    N1 3268   1.807   2.881  15.940  0.0559 -0.0023  0.1273
  211MPD1    H6 3269   1.795   2.969  15.891  1.1492 -0.7115 -1.4042
  211MPD1    H7 3270   1.897   2.889  15.987  0.4060 -0.8951 -0.4021
  212MPD1     C 3271   0.543   0.287   0.076 -0.2870 -0.6661 -0.1428
  212MPD1    C1 3272   0.563   0.233  17.697  0.1254 -0.2886 -0.0023
  212MPD1    C2 3273   0.486   0.280  17.591  0.0452  0.8938 -0.0099
  212MPD1    C3 3274   0.389   0.377  17.614 -0.4426 -0.2487 -0.3462
  212MPD1    C4 3275   0.374   0.424   0.002 -0.7238 -0.1116 -0.5366
  212MPD1    C5 3276   0.437   0.364   0.104 -0.7858 -0.2114  0.1455
  212MPD1     H 3277   0.498   0.231  17.496  0.1769 -1.5129  1.2364
  212MPD1    H1 3278   0.301   0.501   0.023 -0.1571  0.2048  0.2654
  212MPD1    H2 3279   0.603   0.268   0.164 -0.1534 -0.5755 -0.2148
  212MPD1    H3 3280   0.421   0.397   0.207 -2.2141 -0.6507  0.0708
  212MPD1     N 3281   0.302   0.435  17.525 -0.4545  0.8780 -0.0145
  212MPD1    H5 3282   0.243   0.513  17.552 -0.3649  1.3843 -1.2518
  212MPD1    N1 3283   0.667   0.135  17.682 -0.3540  0.4194  0.3615
  212MPD1    H6 3284   0.651   0.075  17.601 -1.2186 -0.3084  1.0763
  212MPD1    H7 3285   0.677   0.075   0.022 -0.8007 -3.1933 -2.2248
  213MPD1     C 3286   3.771   1.546  16.243  0.3322  0.0273 -0.5186
  213MPD1    C1 3287   3.684   1.441  16.225 -0.5607 -0.1600 -0.2526
  213MPD1    C2 3288   3.568   1.462  16.153  0.4975 -0.3287 -0.3963
  213MPD1    C3 3289   3.510   1.588  16.155  0.1238 -0.0293  0.1413
  213MPD1    C4 3290   3.589   1.692  16.193  0.1381 -0.0691  0.4473
  213MPD1    C5 3291   3.715   1.669  16.240  0.5214 -0.8272 -0.5150
  213MPD1     H 3292   3.516   1.378  16.109 -2.2643  1.4485 -0.5096
  213MPD1    H1 3293   3.559   1.795  16.182  0.1472 -0.0628  0.4798
  213MPD1    H2 3294   3.871   1.542  16.286  0.4637 -0.6924 -0.8841
  213MPD1    H3 3295   3.772   1.759  16.262 -0.4093 -0.7219  1.4255
  213MPD1     N 3296   3.388   1.603  16.084  0.1690  0.3043 -0.4940
  213MPD1    H5 3297   3.342   1.524  16.039 -0.1873 -0.3217  0.9846
  213MPD1    N1 3298   3.751   1.322  16.217 -0.0567 -0.2709  0.5032
  213MPD1    H6 3299   3.827   1.324  16.284 -0.3802  1.5759  0.8152
  213MPD1    H7 3300   3.693   1.239  16.228 -0.8938  0.2481 -0.0609
  214MPD1     C 3301   2.805   0.966  15.749  0.0164  0.2928 -0.0883
  214MPD1    C1 3302   2.820   1.012  15.880 -0.0985  0.4734  0.1392
  214MPD1    C2 3303   2.883   1.130  15.894  0.0795  0.1199 -0.1090
  214MPD1    C3 3304   2.946   1.201  15.787 -0.6269  0.0253  0.2502
  214MPD1    C4 3305   2.928   1.152  15.656 -0.2801  0.0709 -0.4447
  214MPD1    C5 3306   2.852   1.034  15.635  0.2837  0.0475  0.1934
  214MPD1     H 3307   2.894   1.176  15.991 -1.0085 -2.2973  1.1550
  214MPD1    H1 3308   2.956   1.212  15.571 -0.0422  0.1078 -0.3389
  214MPD1    H2 3309   2.740   0.881  15.736  2.3384 -1.5273  0.1718
  214MPD1    H3 3310   2.848   0.990  15.536 -2.2327  0.5214  0.0826
  214MPD1     N 3311   2.999   1.329  15.803 -0.0538 -0.0013  0.1984
  214MPD1    H5 3312   3.044   1.366  15.720 -0.4489 -0.2359 -0.1213
  214MPD1    N1 3313   2.800   0.931  15.988 -0.9370 -0.2404  0.2587
  214MPD1    H6 3314   2.786   0.985  16.073 -0.8817 -1.1585  0.8461
  214MPD1    H7 3315   2.721   0.867  15.976 -0.1066 -1.3373  0.6443
  215MPD1     C 3316   2.420   2.936  11.224 -0.0991  0.3437  0.6721
  215MPD1    C1 3317   2.465   3.068  11.195 -0.2606 -0.0896  0.3340
  215MPD1    C2 3318   2.588   3.111  11.238  0.0111  0.6368  0.2293
  215MPD1    C3 3319   2.659   3.047  11.332 -0.1617 -0.0046 -0.7679
  215MPD1    C4 3320   2.602   2.929  11.380  0.4226  0.6560 -0.5605
  215MPD1    C5 3321   2.487   2.865  11.321  0.4737  0.1951 -0.4702
  215MPD1     H 3322   2.628   3.208  11.210  0.9186  0.8153  2.0900
  215MPD1    H1 3323   2.649   2.869  11.457  0.3970  0.6381 -0.5588
  215MPD1    H2 3324   2.331   2.899  11.175 -0.2428 -0.2610  1.3810
  215MPD1    H3 3325   2.446   2.770  11.353 -0.5466  0.7205 -0.2132
  215MPD1     N 3326   2.783   3.096  11.379  0.1597 -0.8106 -0.4902
  215MPD1    H5 3327   2.810   3.186  11.340  0.1044 -0.1221  1.0740
  215MPD1    N1 3328   2.403   3.144  11.091 -0.9216 -0.1307 -1.0016
  215MPD1    H6 3329   2.303   3.128  11.102 -0.3506 -3.2781 -0.2457
  215MPD1    H7 3330   2.423   3.241  11.113 -1.1068 -0.3006 -0.0649
  216MPD1     C 3331   4.689   1.093   0.419 -0.1447  0.9612  0.0340
  216MPD1    C1 3332   4.573   1.016   0.423 -0.1066 -0.3096 -0.5205
  216MPD1    C2 3333   4.602   0.878   0.430 -0.5666  0.0103  0.4173
  216MPD1    C3 3334   4.727   0.827   0.445 -0.6730  0.6147 -0.1757
  216MPD1    C4 3335   0.100   0.912   0.442 -0.2048 -0.7258  0.6092
  216MPD1    C5 3336   0.080   1.045   0.423 -0.2590  0.1280  0.5537
  216MPD1     H 3337   4.523   0.805   0.415 -1.0081  0.4330  0.6717
  216MPD1    H1 3338   0.200   0.873   0.453 -0.1780 -0.4891  1.2022
  216MPD1    H2 3339   4.671   1.195   0.387 -1.1176 -0.1261 -2.8694
  216MPD1    H3 3340   0.164   1.114   0.421 -0.1950  0.1130  2.4473
  216MPD1     N 3341   0.007   0.688   0.427  0.3396 -0.4394  0.8200
  216MPD1    H5 3342   4.671   0.631   0.385  0.0975  0.4866 -0.0272
  216MPD1    N1 3343   4.447   1.070   0.389 -0.3354  0.3919  0.1983
  216MPD1    H6 3344   4.373   1.013   0.430  0.5803  0.1944  1.5755
  216MPD1    H7 3345   4.439   1.169   0.410 -0.5494  0.3065  0.5171
  217MPD1     C 3346   1.775   0.751   9.194 -0.4612 -0.0513  0.0522
  217MPD1    C1 3347   1.656   0.798   9.145 -0.4626 -0.0948  0.7459
  217MPD1    C2 3348   1.626   0.935   9.173 -0.3620 -0.7692  0.2899
  217MPD1    C3 3349   1.711   1.022   9.236 -0.0779  0.2141  0.4082
  217MPD1    C4 3350   1.832   0.967   9.273 -0.0375 -0.0326  0.6210
  217MPD1    C5 3351   1.857   0.833   9.259 -0.2871 -0.9527  0.0227
  217MPD1     H 3352   1.534   0.978   9.135 -0.4731 -2.7661 -1.7386
  217MPD1    H1 3353   1.907   1.025   9.325 -1.1369  0.3031  1.8460
  217MPD1    H2 3354   1.805   0.647   9.181 -0.0564 -0.0624  1.0973
  217MPD1    H3 3355   1.954   0.804   9.298 -0.0959 -0.5988 -0.1852
  217MPD1     N 3356   1.684   1.159   9.255  0.5167  0.4126  0.5005
  217MPD1    H5 3357   1.746   1.203   9.322  1.4009  0.2848 -0.2424
  217MPD1    N1 3358   1.562   0.717   9.086 -0.6072  0.2804  0.6323
  217MPD1    H6 3359   1.599   0.655   9.014  1.2399 -0.1904  1.9738
  217MPD1    H7 3360   1.491   0.780   9.048 -0.9006 -1.8398 -2.2913
  218MPD1     C 3361   2.092   2.808  13.249  0.2277 -0.4300  0.2266
  218MPD1    C1 3362   2.183   2.888  13.313 -0.0972  0.1278  0.1230
  218MPD1    C2 3363   2.294   2.927  13.235 -0.2560 -0.6735 -0.0768
  218MPD1    C3 3364   2.315   2.870  13.110  0.5970  0.1208 -0.1140
  218MPD1    C4 3365   2.227   2.779  13.062  0.1662  0.2534 -0.3470
  218MPD1    C5 3366   2.109   2.754  13.127 -0.1597  0.7713 -0.2886
  218MPD1     H 3367   2.375   2.986  13.277  0.3738 -2.5246  1.3198
  218MPD1    H1 3368   2.244   2.725  12.969  1.6238  0.1579 -0.0274
  218MPD1    H2 3369   1.999   2.787  13.300 -0.4442 -1.6433 -1.4718
  218MPD1    H3 3370   2.033   2.685  13.091  0.7699 -1.2140  1.5488
  218MPD1     N 3371   2.431   2.909  13.036  0.7147  0.3345 -0.2547
  218MPD1    H5 3372   2.504   2.950  13.095  3.2742 -0.3503 -2.9511
  218MPD1    N1 3373   2.163   2.936  13.441  0.2017 -0.1466 -0.1577
  218MPD1    H6 3374   2.104   2.882  13.504  2.6713 -1.3036  1.1672
  218MPD1    H7 3375   2.252   2.974  13.474  0.0034  1.2935 -1.2617
  219MPD1     C 3376   2.630   2.702  12.054  0.0593  0.4283 -0.0036
  219MPD1    C1 3377   2.736   2.772  12.097  0.0086 -0.9772  0.7670
  219MPD1    C2 3378   2.757   2.776  12.237 -0.1014  0.0523  0.8214
  219MPD1    C3 3379   2.653   2.753  12.321  0.3283  0.5147  0.5575
  219MPD1    C4 3380   2.537   2.695  12.275  0.2295  0.4936  0.8409
  219MPD1    C5 3381   2.526   2.670  12.144 -0.0289 -0.1596  0.0074
  219MPD1     H 3382   2.847   2.820  12.278 -0.2585  1.8404 -0.7365
  219MPD1    H1 3383   2.461   2.653  12.341 -0.5210 -0.4285 -0.6043
  219MPD1    H2 3384   2.608   2.668  11.954 -1.8667 -0.0554  0.5774
  219MPD1    H3 3385   2.443   2.614  12.102  0.0567  0.5940 -1.1435
  219MPD1     N 3386   2.667   2.782  12.456 -0.2641  0.6791 -0.1084
  219MPD1    H5 3387   2.580   2.780  12.508 -0.9770  1.3963 -1.2789
  219MPD1    N1 3388   2.843   2.799  12.022  0.6770 -0.2327  0.2345
  219MPD1    H6 3389   2.809   2.800  11.926  1.4326  1.5264 -0.0070
  219MPD1    H7 3390   2.877   2.887  12.059 -1.5167  1.1032 -0.9507
  220MPD1     C 3391   3.218   4.141  10.007 -0.7608  0.3364 -0.2844
  220MPD1    C1 3392   3.245   4.161  10.135 -0.1569  0.4524 -0.0837
  220MPD1    C2 3393   3.197   4.070  10.222  0.4123 -0.2369  0.5056
  220MPD1    C3 3394   3.135   3.947  10.191 -0.0058  0.3795 -0.8153
  220MPD1    C4 3395   3.115   3.928  10.056  0.1996  0.6644  0.7542
  220MPD1    C5 3396   3.159   4.022   9.967  0.4695 -0.2098 -0.2649
  220MPD1     H 3397   3.216   4.073  10.329 -1.5791 -0.9549  0.8707
  220MPD1    H1 3398   3.085   3.832  10.017  0.8493  0.2278  1.3461
  220MPD1    H2 3399   3.243   4.210   9.928 -0.4386  0.6945  0.1260
  220MPD1    H3 3400   3.140   4.013   9.861  4.0328 -0.5628 -0.8615
  220MPD1     N 3401   3.111   3.867  10.306  0.1111 -0.3290  0.2918
  220MPD1    H5 3402   3.158   3.900  10.389 -0.2135 -0.6851  0.6127
  220MPD1    N1 3403   3.304   4.270  10.188 -1.0593  0.4485 -0.5936
  220MPD1    H6 3404   3.367   4.310  10.119  1.3846  0.1997  1.5121
  220MPD1    H7 3405   3.354   4.258  10.276  1.5097  2.5768 -1.7523
  221MPD1     C 3406   0.513   2.079  16.537 -0.3886  0.5731 -0.2369
  221MPD1    C1 3407   0.542   1.949  16.525  0.3378 -0.0080  0.1726
  221MPD1    C2 3408   0.671   1.909  16.501 -0.4740 -0.2650 -0.1095
  221MPD1    C3 3409   0.763   2.014  16.468  0.7187  0.3534  0.9514
  221MPD1    C4 3410   0.732   2.149  16.486 -0.2133 -0.3029  0.3373
  221MPD1    C5 3411   0.603   2.176  16.521  0.3470  0.1921  0.5667
  221MPD1     H 3412   0.691   1.803  16.510 -0.2444 -0.3813 -1.8961
  221MPD1    H1 3413   0.802   2.229  16.467  0.4147 -0.8171  0.4769
  221MPD1    H2 3414   0.416   2.109  16.577 -1.1181  0.5506 -2.0085
  221MPD1    H3 3415   0.584   2.278  16.553  1.0411  0.2554  0.7781
  221MPD1     N 3416   0.894   1.983  16.411  0.2177  0.2509 -1.0045
  221MPD1    H5 3417   0.949   2.068  16.400 -0.7410  0.8669 -1.0876
  221MPD1    N1 3418   0.447   1.858  16.562  0.2598 -0.2624  0.2474
  221MPD1    H6 3419   0.461   1.775  16.505 -0.0522 -0.6513  0.7402
  221MPD1    H7 3420   0.356   1.900  16.544  0.8058  0.8696  0.1568
  222MPD1     C 3421   0.461   0.947  17.227  0.4282 -0.2111  0.2985
  222MPD1    C1 3422   0.453   0.833  17.314 -0.2413  0.3559 -0.0611
  222MPD1    C2 3423   0.341   0.825  17.397  0.7974  0.7252  0.0149
  222MPD1    C3 3424   0.256   0.930  17.410  0.2802  0.4594 -0.2966
  222MPD1    C4 3425   0.280   1.045  17.339 -0.5100  0.6458 -0.4471
  222MPD1    C5 3426   0.368   1.043  17.238 -0.5335  1.3995 -0.1029
  222MPD1     H 3427   0.316   0.730  17.443  3.1566 -0.4915 -1.2327
  222MPD1    H1 3428   0.207   1.125  17.346 -2.2853 -0.8882 -1.1709
  222MPD1    H2 3429   0.537   0.946  17.149  3.0578 -0.3727  2.8656
  222MPD1    H3 3430   0.363   1.129  17.171 -1.9043  0.4168 -1.2577
  222MPD1     N 3431   0.141   0.931  17.493 -0.7369 -0.3327 -0.3441
  222MPD1    H5 3432   0.077   1.009  17.485 -0.4087 -0.0937 -0.6470
  222MPD1    N1 3433   0.542   0.723  17.310  0.1254 -0.2937 -0.3933
  222MPD1    H6 3434   0.635   0.748  17.279 -0.0783  2.0696  0.8799
  222MPD1    H7 3435   0.551   0.688  17.405  0.9194  1.4108  0.1675
  223MPD1     C 3436   4.246   0.229   0.056  0.2662  0.0671  0.1041
  223MPD1    C1 3437   4.369   0.239  17.739 -0.2538  0.1206  0.0520
  223MPD1    C2 3438   4.438   0.358  17.731  0.2627  0.6949 -0.5109
  223MPD1    C3 3439   4.394   0.469   0.049  0.2389 -0.4112 -0.2495
  223MPD1    C4 3440   4.274   0.465   0.106  0.1483  0.3287  0.1719
  223MPD1    C5 3441   4.203   0.346   0.112 -0.3458 -0.6687  0.1551
  223MPD1     H 3442   4.532   0.363  17.678 -0.1818 -0.0608 -1.3596
  223MPD1    H1 3443   4.234   0.557   0.147 -0.9449 -0.3424  0.6046
  223MPD1    H2 3444   4.183   0.141   0.052  0.5209 -0.0525 -1.1111
  223MPD1    H3 3445   4.103   0.358   0.153 -0.4948 -0.7052 -0.1901
  223MPD1     N 3446   4.478   0.585   0.045  0.1287  1.1661  0.1681
  223MPD1    H5 3447   4.563   0.586  17.732  0.4679  1.0737  0.6934
  223MPD1    N1 3448   4.424   0.127  17.680  0.0037 -0.4275 -0.1855
  223MPD1    H6 3449   4.525   0.128  17.672  0.0110  0.7687  0.0465
  223MPD1    H7 3450   4.384   0.042  17.720  2.3972 -0.4861  2.0846
  224MPD1     C 3451   0.976   2.513   9.220  0.6472 -0.1520 -0.0477
  224MPD1    C1 3452   1.094   2.450   9.246  0.0630 -0.7051  0.0551
  224MPD1    C2 3453   1.127   2.423   9.379  0.0255 -0.7729  1.2280
  224MPD1    C3 3454   1.055   2.472   9.492  0.1617  0.5748  0.1834
  224MPD1    C4 3455   0.947   2.545   9.463 -0.1415 -0.1229 -0.0615
  224MPD1    C5 3456   0.906   2.559   9.330 -0.5695  0.3030  0.0273
  224MPD1     H 3457   1.211   2.360   9.402  0.6396 -0.4560 -0.1334
  224MPD1    H1 3458   0.898   2.600   9.542 -0.2677  0.9161 -0.8641
  224MPD1    H2 3459   0.945   2.543   9.121 -1.1984 -1.0472  0.2626
  224MPD1    H3 3460   0.814   2.612   9.308 -1.6308 -0.7772  1.8779
  224MPD1     N 3461   1.094   2.455   9.625 -0.1233 -0.0416 -0.0858
  224MPD1    H5 3462   1.041   2.487   9.705  0.7792  1.8891 -0.2412
  224MPD1    N1 3463   1.158   2.388   9.136 -0.4621 -0.3973  0.3263
  224MPD1    H6 3464   1.165   2.455   9.060 -0.6236  1.5978  2.0690
  224MPD1    H7 3465   1.252   2.361   9.165  0.3238  2.1225  0.1819
  225MPD1     C 3466   2.945   3.886  12.216  0.7309 -0.2794 -0.7414
  225MPD1    C1 3467   2.883   3.788  12.145 -0.7030  0.4761 -0.3926
  225MPD1    C2 3468   2.787   3.709  12.213  0.2652 -0.4724  0.7628
  225MPD1    C3 3469   2.752   3.740  12.339  0.5914 -0.2942  0.5805
  225MPD1    C4 3470   2.813   3.843  12.405  0.0048  0.2612  0.0576
  225MPD1    C5 3471   2.907   3.918  12.345 -0.3378 -0.0043  0.3677
  225MPD1     H 3472   2.733   3.634  12.157  1.5802 -0.4497 -0.5317
  225MPD1    H1 3473   2.776   3.878  12.501 -1.2841 -3.2811  0.8288
  225MPD1    H2 3474   3.023   3.950  12.175 -0.5407  0.6609 -1.6738
  225MPD1    H3 3475   2.941   4.012  12.386  0.0637 -0.3630  0.8524
  225MPD1     N 3476   2.655   3.667  12.413  0.4855  0.1492  0.0727
  225MPD1    H5 3477   2.629   3.694  12.508  0.6198  1.7156 -0.3413
  225MPD1    N1 3478   2.928   3.753  12.016  0.5878 -0.2092  0.5453
  225MPD1    H6 3479   2.957   3.832  11.958  1.4327 -0.7292  0.2611
  225MPD1    H7 3480   2.855   3.711  11.959 -1.2019  3.3158  0.2810
  226MPD1     C 3481   4.383   2.397  10.291 -0.1463  0.3328  0.2788
  226MPD1    C1 3482   4.455   2.448  10.387 -0.5512 -0.4508 -0.1163
  226MPD1    C2 3483   4.581   2.485  10.360  0.2570 -0.0989  0.2289
  226MPD1    C3 3484   4.628   2.469  10.231 -0.8729  0.3560 -0.5216
  226MPD1    C4 3485   4.547   2.419  10.129  0.0771  0.0108 -0.2089
  226MPD1    C5 3486   4.419   2.389  10.162 -0.2367  0.4170 -0.6900
  226MPD1     H 3487   4.650   2.510  10.440  0.1521 -0.7078  0.5059
  226MPD1    H1 3488   4.581   2.413  10.027 -0.8518  1.0335 -0.5785
  226MPD1    H2 3489   4.281   2.366  10.313 -1.3595  2.6137 -2.1716
  226MPD1    H3 3490   4.348   2.355  10.088 -0.6929 -1.9168  0.8298
  226MPD1     N 3491   0.020   2.518  10.217  0.2671 -0.4393 -0.1525
  226MPD1    H5 3492   0.081   2.531  10.298  0.5912 -0.8205 -0.3372
  226MPD1    N1 3493   4.411   2.427  10.518  0.4665 -0.4109 -0.5458
  226MPD1    H6 3494   4.447   2.497  10.582 -0.3969 -0.4745  0.0131
  226MPD1    H7 3495   4.311   2.446  10.517  0.8085  1.3363 -0.5498
  227MPD1     C 3496   0.964   2.457  10.516 -0.2767 -0.3169 -0.1475
  227MPD1    C1 3497   0.988   2.551  10.420 -0.6722  0.5659 -1.0829
  227MPD1    C2 3498   0.878   2.612  10.358  0.6823 -0.0590 -0.0446
  227MPD1    C3 3499   0.751   2.555  10.377  0.8709 -0.1172  0.2802
  227MPD1    C4 3500   0.728   2.449  10.461 -0.4464  0.7250  0.3497
  227MPD1    C5 3501   0.837   2.398  10.529 -0.4269 -0.2789  0.4101
  227MPD1     H 3502   0.885   2.700  10.296 -2.0426  1.0586  1.2067
  227MPD1    H1 3503   0.635   2.395  10.466  0.7689 -1.2959  1.0944
  227MPD1    H2 3504   1.046   2.411  10.570  0.5344 -0.3996 -1.4395
  227MPD1    H3 3505   0.816   2.315  10.595 -0.8338 -1.1011 -0.7558
  227MPD1     N 3506   0.648   2.612  10.301  0.9478  0.6176 -0.5515
  227MPD1    H5 3507   0.671   2.687  10.236 -1.0614  0.1803 -1.7753
  227MPD1    N1 3508   1.118   2.601  10.408 -0.1455 -0.7402 -0.4006
  227MPD1    H6 3509   1.184   2.524  10.418  1.2737  0.0574 -3.4820
  227MPD1    H7 3510   1.128   2.665  10.329  2.7256 -0.2256  0.4068
  228MPD1     C 3511   4.532   2.120  13.008  0.1469 -0.8041 -0.0130
  228MPD1    C1 3512   4.485   2.072  12.888  0.2248 -0.8994  0.0467
  228MPD1    C2 3513   4.377   1.985  12.893 -0.5530 -0.0470 -0.7156
  228MPD1    C3 3514   4.342   1.917  13.007 -0.0378  0.0583 -0.5539
  228MPD1    C4 3515   4.402   1.952  13.129  0.0952  0.0418 -0.5087
  228MPD1    C5 3516   4.489   2.064  13.130 -0.0102 -0.5245 -0.3733
  228MPD1     H 3517   4.314   1.951  12.812 -1.0475 -1.6163  0.3346
  228MPD1    H1 3518   4.364   1.915  13.224 -0.5996 -0.1361 -0.8541
  228MPD1    H2 3519   4.604   2.201  13.006 -1.3822  0.5360 -1.0148
  228MPD1    H3 3520   4.529   2.094  13.226  0.8337 -0.0036 -0.8876
  228MPD1     N 3521   4.234   1.820  12.995  0.1356 -0.3700 -0.1065
  228MPD1    H5 3522   4.197   1.807  12.902 -3.3019  2.4470  0.8952
  228MPD1    N1 3523   4.514   2.149  12.769 -0.5499 -0.0146  0.6593
  228MPD1    H6 3524   4.504   2.103  12.679 -1.0043 -0.5381  0.9823
  228MPD1    H7 3525   4.604   2.197  12.778 -1.1161  1.3026 -0.7391
  229MPD1     C 3526   4.067   0.102  15.030 -0.2835  0.3773  0.0922
  229MPD1    C1 3527   4.003   4.714  15.010 -0.1961 -0.6075  0.0393
  229MPD1    C2 3528   4.012   4.619  15.109  0.1149  0.2801 -0.7675
  229MPD1    C3 3529   4.090   4.637  15.216 -0.9466  0.0954 -0.0261
  229MPD1    C4 3530   4.160   0.016  15.234  0.3287 -0.1478  0.3803
  229MPD1    C5 3531   4.144   0.115  15.141  0.0864  0.3169 -0.1161
  229MPD1     H 3532   3.965   4.523  15.093  0.2520 -0.1149  1.2039
  229MPD1    H1 3533   4.230   0.038  15.313  0.4690 -2.0655  0.7990
  229MPD1    H2 3534   4.063   0.182  14.957 -1.7310  0.9591  0.8011
  229MPD1    H3 3535   4.197   0.207  15.159 -0.0091  0.2126  0.7148
  229MPD1     N 3536   4.109   4.534  15.312 -0.1571  0.4256  0.3000
  229MPD1    H5 3537   4.170   4.567  15.386 -0.2065  0.0233  0.5167
  229MPD1    N1 3538   3.938   4.684  14.892 -0.2061 -0.4801 -0.0178
  229MPD1    H6 3539   3.855   4.625  14.888 -0.5991  0.0076  1.3031
  229MPD1    H7 3540   3.909   0.031  14.840  2.8845  0.9619  0.5498
  230MPD1     C 3541   4.533   4.268  16.189 -0.5447  0.7262 -0.6293
  230MPD1    C1 3542   4.453   4.159  16.169  0.2263 -0.4493 -0.4543
  230MPD1    C2 3543   4.368   4.163  16.054 -0.0059  0.1304 -0.0820
  230MPD1    C3 3544   4.364   4.269  15.966  0.2897  0.3515 -0.6895
  230MPD1    C4 3545   4.440   4.378  15.997 -0.1497  0.3025 -0.1237
  230MPD1    C5 3546   4.521   4.377  16.100 -0.3844 -0.0419  0.5767
  230MPD1     H 3547   4.296   4.085  16.035 -1.4912  1.1850  1.1643
  230MPD1    H1 3548   4.439   4.466  15.934 -1.3704  0.8503  0.6850
  230MPD1    H2 3549   4.602   4.282  16.272 -2.2581  0.5485  0.8360
  230MPD1    H3 3550   4.584   4.464  16.119  1.6036 -1.8931  2.4468
  230MPD1     N 3551   4.285   4.256  15.855 -0.1197 -0.3155  0.6480
  230MPD1    H5 3552   4.237   4.166  15.847 -1.8657  1.0641 -3.7842
  230MPD1    N1 3553   4.426   4.072  16.282  0.4706  0.2016  0.2700
  230MPD1    H6 3554   4.512   4.053  16.334  0.6733 -1.0370 -0.5234
  230MPD1    H7 3555   4.368   3.989  16.275  0.0355  0.4718  0.6399
  231MPD1     C 3556   2.921   1.704  15.409  0.6040  0.0138 -0.3799
  231MPD1    C1 3557   2.949   1.620  15.305 -0.7111 -0.4037  0.8571
  231MPD1    C2 3558   3.008   1.676  15.196 -0.1956 -0.4608 -0.2325
  231MPD1    C3 3559   3.034   1.811  15.185 -0.0580 -0.3878  0.7639
  231MPD1    C4 3560   3.001   1.897  15.294  0.3110 -0.1910 -0.0392
  231MPD1    C5 3561   2.944   1.839  15.406  1.0770 -0.3882  0.3003
  231MPD1     H 3562   3.036   1.616  15.110 -0.2335  0.1635 -0.6823
  231MPD1    H1 3563   3.010   2.005  15.300 -0.8369 -0.2008  1.7950
  231MPD1    H2 3564   2.884   1.669  15.505  2.4626 -1.5412 -0.2471
  231MPD1    H3 3565   2.939   1.903  15.493  0.7511 -0.3462  0.2486
  231MPD1     N 3566   3.084   1.855  15.065  0.2834 -0.3758 -0.3821
  231MPD1    H5 3567   3.086   1.788  14.988 -1.3743 -0.5737 -0.2489
  231MPD1    N1 3568   2.941   1.481  15.321  0.5782 -0.1615 -0.0410
  231MPD1    H6 3569   2.935   1.434  15.231 -1.8809  2.5943 -1.3234
  231MPD1    H7 3570   2.890   1.428  15.391  0.1262 -2.7119 -2.2976
  232MPD1     C 3571   4.330   4.191   0.106 -0.4250 -0.2306 -0.3682
  232MPD1    C1 3572   4.208   4.144   0.063 -0.0995 -0.8272 -1.4389
  232MPD1    C2 3573   4.157   4.032   0.118  0.2238 -0.1237  0.1111
  232MPD1    C3 3574   4.212   3.965   0.225  0.4974  0.9468  0.2094
  232MPD1    C4 3575   4.322   4.023   0.284 -0.1956  0.2371 -0.1017
  232MPD1    C5 3576   4.380   4.135   0.225 -0.6050 -0.7393 -0.0803
  232MPD1     H 3577   4.075   3.980   0.071  0.1402 -0.7827  0.9807
  232MPD1    H1 3578   4.369   3.988   0.375  0.7182  0.3414 -0.5304
  232MPD1    H2 3579   4.375   4.276   0.056  0.3075 -1.8762 -2.5363
  232MPD1    H3 3580   4.473   4.172   0.267  0.7028 -2.6604 -1.2982
  232MPD1     N 3581   4.150   3.842   0.267  0.3889 -0.0527  0.3771
  232MPD1    H5 3582   4.074   3.804   0.212 -0.9768  1.2089  1.4114
  232MPD1    N1 3583   4.128   4.200  17.699  0.1094 -0.0968  1.0795
  232MPD1    H6 3584   4.031   4.195  17.730 -0.2368  1.3749  0.2240
  232MPD1    H7 3585   4.150   4.299  17.694 -0.7424  0.0949  1.1763
  233MPD1     C 3586   4.652   1.592   0.651  0.1182 -0.7206 -0.7819
  233MPD1    C1 3587   4.681   1.723   0.677  0.5444  0.6039 -0.0230
  233MPD1    C2 3588   0.080   1.764   0.695  0.1690 -0.1726 -0.4679
  233MPD1    C3 3589   0.180   1.671   0.681  0.0858  0.0786 -0.1619
  233MPD1    C4 3590   0.143   1.541   0.641  0.2419 -0.0594  0.4101
  233MPD1    C5 3591   0.012   1.500   0.629  0.9287 -0.3346 -0.1195
  233MPD1     H 3592   0.095   1.868   0.722  1.4354 -0.2099 -1.0353
  233MPD1    H1 3593   0.215   1.464   0.618  1.1914  0.1757  2.5762
  233MPD1    H2 3594   4.550   1.559   0.634 -0.2294  0.0931 -0.2397
  233MPD1    H3 3595   4.721   1.398   0.606 -3.5875  1.1213 -1.2431
  233MPD1     N 3596   0.319   1.700   0.692  0.1167 -0.0242 -0.1128
  233MPD1    H5 3597   0.391   1.628   0.693 -0.2233 -0.3615  1.1666
  233MPD1    N1 3598   4.572   1.803   0.709  0.2599  0.1985 -0.0818
  233MPD1    H6 3599   4.487   1.791   0.654  0.1636  0.4145  0.0176
  233MPD1    H7 3600   4.587   1.904   0.707 -3.4001  0.7464 -0.8817
  234MPD1     C 3601   2.687   1.579  10.619 -0.4233 -0.0498  0.6484
  234MPD1    C1 3602   2.678   1.708  10.597 -0.5851  0.1913 -1.3731
  234MPD1    C2 3603   2.595   1.747  10.497 -0.7622 -0.0136  0.9951
  234MPD1    C3 3604   2.512   1.663  10.427 -0.2327  0.2352  0.2699
  234MPD1    C4 3605   2.522   1.531  10.452 -0.5132  0.6217 -0.4322
  234MPD1    C5 3606   2.607   1.487  10.553  0.4153 -0.3802 -0.3423
  234MPD1     H 3607   2.592   1.854  10.480  2.3386 -0.1149 -0.2181
  234MPD1    H1 3608   2.469   1.450  10.404  0.3471  0.4291 -1.0359
  234MPD1    H2 3609   2.743   1.541  10.704  1.6133  2.1706  0.3101
  234MPD1    H3 3610   2.618   1.383  10.580  1.7086 -0.1232  0.1434
  234MPD1     N 3611   2.429   1.713  10.328  0.0965 -0.2601 -0.5525
  234MPD1    H5 3612   2.414   1.813  10.319  1.7075  0.0190 -0.1744
  234MPD1    N1 3613   2.768   1.798  10.660  0.2928 -0.0748  0.0413
  234MPD1    H6 3614   2.803   1.765  10.750 -0.8300 -0.9342  0.1750
  234MPD1    H7 3615   2.724   1.887  10.678 -0.9638  0.0315 -3.4551
  235MPD1     C 3616   3.646   4.467  10.405  0.1667 -0.0462 -0.2857
  235MPD1    C1 3617   3.670   4.592  10.370 -0.2122  0.2572 -0.4056
  235MPD1    C2 3618   3.776   4.660  10.419 -0.1816  0.6335  0.3205
  235MPD1    C3 3619   3.853   4.607  10.517 -0.0761 -0.2121  0.1650
  235MPD1    C4 3620   3.814   4.484  10.567  0.4106  0.3214 -0.2094
  235MPD1    C5 3621   3.708   4.411  10.509  0.0073  0.4295 -0.8016
  235MPD1     H 3622   3.808   0.020  10.379  1.6516 -0.4914 -0.9422
  235MPD1    H1 3623   3.869   4.436  10.648  2.7045  0.3771 -1.7279
  235MPD1    H2 3624   3.572   4.406  10.354 -0.6807  0.9515 -0.2574
  235MPD1    H3 3625   3.674   4.320  10.556 -1.8066  1.6569  0.2782
  235MPD1     N 3626   3.959   4.679  10.577 -0.1271 -0.1669  0.0573
  235MPD1    H5 3627   3.987   0.033  10.537  0.8231 -0.0764  0.9378
  235MPD1    N1 3628   3.611   4.643  10.251  0.0790 -0.2488 -0.0046
  235MPD1    H6 3629   3.604   0.009  10.258 -0.1644 -0.1828 -1.1038
  235MPD1    H7 3630   3.526   4.594  10.223 -0.3207  2.1268 -2.9156
  236MPD1     C 3631   2.820   0.257   9.900  0.2789 -0.2942  0.1350
  236MPD1    C1 3632   2.949   0.313   9.909  1.0643 -0.0189 -0.3278
  236MPD1    C2 3633   3.008   0.294  10.033  0.1431  0.0758  0.2163
  236MPD1    C3 3634   2.939   0.234  10.135 -0.1941 -0.2980  0.2444
  236MPD1    C4 3635   2.813   0.190  10.123  0.0329  0.3560 -0.7256
  236MPD1    C5 3636   2.750   0.210  10.006  0.5559  0.5466 -0.8423
  236MPD1     H 3637   3.108   0.333  10.048  0.3879 -0.4168 -0.1194
  236MPD1    H1 3638   2.756   0.143  10.202  0.4389 -1.1783 -1.3430
  236MPD1    H2 3639   2.768   0.258   9.805 -0.2011 -0.1556  0.4036
  236MPD1    H3 3640   2.653   0.164   9.994  1.1429 -0.9444  0.0395
  236MPD1     N 3641   3.009   0.213  10.252  0.0185 -0.3257  0.2128
  236MPD1    H5 3642   3.105   0.245  10.264 -0.4308  0.5446  1.4679
  236MPD1    N1 3643   3.022   0.351   9.796 -0.0803  0.1875  0.3879
  236MPD1    H6 3644   3.096   0.413   9.829  1.0981 -1.1371  0.2342
  236MPD1    H7 3645   2.959   0.395   9.731 -0.6715 -0.2840  0.6402
  237MPD1     C 3646   3.359   3.445  14.483  0.0640  0.4528  0.1044
  237MPD1    C1 3647   3.365   3.452  14.617  1.0553 -0.7513  0.1243
  237MPD1    C2 3648   3.271   3.376  14.685 -0.2350  0.5837  0.9583
  237MPD1    C3 3649   3.175   3.292  14.631  0.2772  0.3023 -0.1186
  237MPD1    C4 3650   3.173   3.289  14.492  0.0768 -0.2986  0.1832
  237MPD1    C5 3651   3.252   3.377  14.419 -0.0797 -0.0832 -0.2353
  237MPD1     H 3652   3.266   3.384  14.793 -1.0403 -0.1300  0.9770
  237MPD1    H1 3653   3.097   3.235  14.437 -0.9788  1.3854 -0.0346
  237MPD1    H2 3654   3.419   3.509  14.420 -0.5546  0.8780 -0.0590
  237MPD1    H3 3655   3.242   3.364  14.312  2.2036 -1.3908 -0.2898
  237MPD1     N 3656   3.074   3.229  14.702 -0.5914  0.5442  0.1458
  237MPD1    H5 3657   2.995   3.202  14.645 -1.1474  1.7535  0.3441
  237MPD1    N1 3658   3.463   3.523  14.678 -0.9896 -0.9273 -0.0018
  237MPD1    H6 3659   3.465   3.546  14.777  2.6083 -1.2384  0.0187
  237MPD1    H7 3660   3.486   3.609  14.628  0.9614 -0.6702  1.3268
  238MPD1     C 3661   0.076   1.513  15.234  0.4569 -0.5333 -0.0944
  238MPD1    C1 3662   4.728   1.441  15.324  0.4737 -0.4405 -0.0524
  238MPD1    C2 3663   4.586   1.454  15.321  0.4932  0.6712  0.0050
  238MPD1    C3 3664   4.530   1.530  15.221 -0.2861 -0.0738 -0.3351
  238MPD1    C4 3665   4.613   1.597  15.133  0.2486  0.0192  0.0136
  238MPD1    C5 3666   0.010   1.594  15.143 -0.1945 -0.0126  0.0724
  238MPD1     H 3667   4.524   1.390  15.383 -1.6137  1.5617 -1.1865
  238MPD1    H1 3668   4.575   1.657  15.051  0.7851  2.1678  1.3282
  238MPD1    H2 3669   0.184   1.507  15.228  0.2196 -3.5995 -1.0495
  238MPD1    H3 3670   0.071   1.643  15.068 -1.2433 -0.0897 -0.8253
  238MPD1     N 3671   4.387   1.537  15.197 -0.2354 -0.1752  0.3065
  238MPD1    H5 3672   4.350   1.575  15.110  1.8667 -1.2924 -1.0561
  238MPD1    N1 3673   0.058   1.342  15.393  0.7543  0.1925 -0.2959
  238MPD1    H6 3674   4.729   1.288  15.451  0.2590 -0.6362 -1.6229
  238MPD1    H7 3675   0.120   1.392  15.456  0.4081 -0.6501  0.7330
  239MPD1     C 3676   4.440   2.442  15.268 -0.4115  0.4660  0.3806
  239MPD1    C1 3677   4.553   2.479  15.204  0.0238 -0.5822 -0.1268
  239MPD1    C2 3678   4.544   2.533  15.080 -0.4296  0.4378 -0.5154
  239MPD1    C3 3679   4.420   2.546  15.015 -0.1708 -0.0258 -0.1889
  239MPD1    C4 3680   4.308   2.504  15.085  0.1829  0.0576  0.4470
  239MPD1    C5 3681   4.318   2.454  15.214  0.1816 -1.2190 -0.1702
  239MPD1     H 3682   4.632   2.576  15.035 -0.6431  0.1430 -1.2153
  239MPD1    H1 3683   4.211   2.513  15.038  0.0929  0.4641  0.7077
  239MPD1    H2 3684   4.447   2.416  15.373  0.9917 -0.8233 -0.0202
  239MPD1    H3 3685   4.235   2.426  15.277 -0.8822  1.4459 -0.4146
  239MPD1     N 3686   4.397   2.618  14.892 -0.0134 -0.0715  0.2692
  239MPD1    H5 3687   4.300   2.644  14.883 -0.2256 -1.1664 -0.5307
  239MPD1    N1 3688   4.657   2.504  15.283  0.4899  0.4897 -0.2864
  239MPD1    H6 3689   4.673   2.421  15.339  0.8360 -0.6869 -2.1172
  239MPD1    H7 3690   0.007   2.509  15.227 -0.5815  1.2641 -1.8406
  240MPD1     C 3691   4.214   2.175  14.447 -0.0053  0.9054  0.7942
  240MPD1    C1 3692   4.079   2.189  14.449 -0.1766  0.1221 -0.2310
  240MPD1    C2 3693   4.010   2.158  14.561  0.4358 -0.2611 -0.0350
  240MPD1    C3 3694   4.075   2.107  14.669 -0.4528  0.2638  0.5808
  240MPD1    C4 3695   4.211   2.097  14.670  0.2905 -0.3566  0.1797
  240MPD1    C5 3696   4.283   2.145  14.560  0.2534 -0.0412 -0.6724
  240MPD1     H 3697   3.902   2.150  14.553  0.1837  1.9688  1.1992
  240MPD1    H1 3698   4.265   2.053  14.752 -0.3495  0.5477  1.0854
  240MPD1    H2 3699   4.277   2.186  14.360 -1.5594 -0.5619 -0.4960
  240MPD1    H3 3700   4.386   2.117  14.544 -0.0593 -1.1851 -0.7267
  240MPD1     N 3701   3.989   2.058  14.773 -0.1011  0.3554  0.2327
  240MPD1    H5 3702   3.890   2.073  14.762  0.0748  0.5477 -1.0943
  240MPD1    N1 3703   4.008   2.214  14.335 -0.0178  0.3093 -0.3883
  240MPD1    H6 3704   4.050   2.281  14.270 -0.4615  1.4196  0.4640
  240MPD1    H7 3705   3.916   2.245  14.364 -0.4232  1.5646 -3.0301
  241MPD1     C 3706   3.791   1.789  15.798  0.6519  1.2287 -0.1600
  241MPD1    C1 3707   3.906   1.825  15.735 -0.0910  0.1137  1.0374
  241MPD1    C2 3708   3.907   1.837  15.596 -0.7367 -0.3465  0.3297
  241MPD1    C3 3709   3.793   1.811  15.520 -0.4433  0.3788  0.2760
  241MPD1    C4 3710   3.681   1.773  15.588 -0.9870 -0.1053 -0.1883
  241MPD1    C5 3711   3.682   1.758  15.724 -0.0947  0.1311 -0.0028
  241MPD1     H 3712   4.003   1.867  15.557  0.1443  0.7110  3.3352
  241MPD1    H1 3713   3.593   1.742  15.533 -0.4505  1.3826 -1.8522
  241MPD1    H2 3714   3.785   1.771  15.904 -2.2461 -0.7117 -0.6656
  241MPD1    H3 3715   3.587   1.749  15.774  1.7478 -0.1907  3.4092
  241MPD1     N 3716   3.795   1.808  15.382 -0.0757  0.4187  0.2218
  241MPD1    H5 3717   3.708   1.794  15.331 -0.2205  1.9550  0.0457
  241MPD1    N1 3718   4.025   1.846  15.813  0.5745  0.2335 -0.5836
  241MPD1    H6 3719   4.014   1.847  15.914 -0.4260 -1.3082 -0.6653
  241MPD1    H7 3720   4.054   1.941  15.793 -0.8698  0.8577  0.2836
  242MPD1     C 3721   3.492   0.816  16.424 -0.2485  0.4763 -0.3497
  242MPD1    C1 3722   3.628   0.823  16.422  0.3118 -0.9326 -0.2024
  242MPD1    C2 3723   3.689   0.771  16.300  0.5433  0.7588 -0.4164
  242MPD1    C3 3724   3.617   0.708  16.205 -0.3137  0.1521  0.4883
  242MPD1    C4 3725   3.478   0.698  16.217 -0.3171 -0.6839 -0.5813
  242MPD1    C5 3726   3.416   0.755  16.327  0.2089  0.4431  0.1608
  242MPD1     H 3727   3.797   0.783  16.304  0.6337 -0.8292  2.3106
  242MPD1    H1 3728   3.424   0.637  16.145  0.3530  0.0198 -1.6792
  242MPD1    H2 3729   3.433   0.873  16.495  0.3010  0.5270  0.0670
  242MPD1    H3 3730   3.309   0.742  16.341  0.3434 -0.5301  0.3207
  242MPD1     N 3731   3.677   0.654  16.090 -0.1704  0.1552  0.3460
  242MPD1    H5 3732   3.622   0.598  16.026  0.2713 -1.1487  1.0954
  242MPD1    N1 3733   3.693   0.914  16.507 -0.1349  0.2737 -0.0357
  242MPD1    H6 3734   3.785   0.881  16.536 -0.5345  0.0428  0.9787
  242MPD1    H7 3735   3.641   0.911  16.595 -0.4538 -2.1110 -0.3253
  243MPD1     C 3736   4.671   4.050   0.021  0.4950  0.1751  0.8607
  243MPD1    C1 3737   0.014   3.940   0.045  0.4504 -0.4920 -0.1054
  243MPD1    C2 3738   0.103   3.906  17.691  0.3334  0.0572 -0.2158
  243MPD1    C3 3739   0.132   3.978  17.579  0.3585  0.3950 -0.8518
  243MPD1    C4 3740   0.065   4.101  17.572 -0.5478  0.4431  0.7660
  243MPD1    C5 3741   4.699   4.132  17.660  0.3384 -0.1227  0.4234
  243MPD1     H 3742   0.152   3.811  17.704 -4.3197 -2.4056 -0.6359
  243MPD1    H1 3743   0.084   4.169  17.489 -3.0630  1.3629  0.9595
  243MPD1    H2 3744   4.588   4.079   0.085 -0.0474 -0.2178  0.3289
  243MPD1    H3 3745   4.635   4.216  17.636  2.4035  1.1251 -0.7811
  243MPD1     N 3746   0.238   3.944  17.492  0.0419  0.3160 -0.6330
  243MPD1    H5 3747   0.293   3.864  17.519  1.7205  1.5825 -0.2868
  243MPD1    N1 3748   4.701   3.846   0.143 -0.0519  0.3908  0.0040
  243MPD1    H6 3749   4.685   3.894   0.231 -1.3341  0.9255 -0.5306
  243MPD1    H7 3750   0.037   3.777   0.165  1.3051  0.9747 -2.5060
  244MPD1     C 3751   0.561   3.209  17.599  0.5019 -0.1132  0.4660
  244MPD1    C1 3752   0.569   3.319  17.688 -0.5292  0.2719 -0.1414
  244MPD1    C2 3753   0.579   3.443  17.636  0.9800 -0.0310 -1.1346
  244MPD1    C3 3754   0.604   3.461  17.499  0.1728  0.0543  0.4559
  244MPD1    C4 3755   0.620   3.354  17.412 -0.0848 -0.1643 -0.2512
  244MPD1    C5 3756   0.596   3.225  17.465  0.2083 -0.6397  0.0467
  244MPD1     H 3757   0.579   3.527  17.705 -1.3354 -0.4358 -0.6473
  244MPD1    H1 3758   0.636   3.381  17.308  0.1267 -2.8554 -0.9154
  244MPD1    H2 3759   0.533   3.116  17.647  0.4159 -0.1363  0.3711
  244MPD1    H3 3760   0.594   3.138  17.401  0.9158  1.0071 -2.2014
  244MPD1     N 3761   0.590   3.599  17.458 -0.1929  0.0020  0.1570
  244MPD1    H5 3762   0.540   3.664  17.518  0.2756  0.7706 -0.2746
  244MPD1    N1 3763   0.518   3.308   0.077 -0.1043  0.4254 -0.5209
  244MPD1    H6 3764   0.529   3.211   0.105 -0.7437  0.2507 -0.8767
  244MPD1    H7 3765   0.557   3.379   0.139 -0.0158 -0.4895  0.4700
  245MPD1     C 3766   2.512   4.606  13.120  0.6685  0.0707  0.1598
  245MPD1    C1 3767   2.527   4.541  13.243  0.3440 -0.6209  0.2037
  245MPD1    C2 3768   2.524   4.615  13.362  0.2805  0.4103 -0.0102
  245MPD1    C3 3769   2.514   0.017  13.352 -0.1048  0.1071  0.6415
  245MPD1    C4 3770   2.505   0.078  13.226 -0.3844 -0.0890 -0.3498
  245MPD1    C5 3771   2.500   4.734  13.116 -0.1575  0.5652  0.1378
  245MPD1     H 3772   2.525   4.566  13.459 -0.7697  3.2549  1.4268
  245MPD1    H1 3773   2.491   0.185  13.215  2.0368  0.2566 -0.0623
  245MPD1    H2 3774   2.504   4.548  13.029  0.4302 -0.8298  0.7423
  245MPD1    H3 3775   2.468   0.036  13.019  0.9865  2.2885  0.4287
  245MPD1     N 3776   2.521   0.088  13.472 -0.4526  0.0456 -0.7538
  245MPD1    H5 3777   2.526   0.041  13.562  0.5438  0.7869 -0.4257
  245MPD1    N1 3778   2.562   4.404  13.246  0.6147 -0.2968  0.1859
  245MPD1    H6 3779   2.617   4.381  13.329 -0.5305  1.0378  1.3268
  245MPD1    H7 3780   2.616   4.373  13.166  0.9264 -0.2877  0.3915
  246MPD1     C 3781   0.077   1.607  10.256  0.2235 -0.3142 -0.0830
  246MPD1    C1 3782   0.088   1.473  10.251  0.4853 -0.4281  0.3281
  246MPD1    C2 3783   0.024   1.407  10.147  0.5583  0.0742  0.8951
  246MPD1    C3 3784   4.684   1.481  10.053  0.4976 -0.1592  0.3270
  246MPD1    C4 3785   4.677   1.622  10.054  0.0468 -0.5912 -0.9145
  246MPD1    C5 3786   0.012   1.678  10.156 -0.0295  1.0979 -0.8352
  246MPD1     H 3787   0.041   1.300  10.134 -2.3462 -0.4496  1.3797
  246MPD1    H1 3788   4.641   1.682   9.971 -2.2511 -1.4003 -0.5073
  246MPD1    H2 3789   0.112   1.654  10.348 -1.3527 -0.8119  0.7707
  246MPD1    H3 3790   0.020   1.783  10.181 -0.0143  1.3323 -1.8189
  246MPD1     N 3791   4.623   1.408   9.948 -0.1816  0.1150  0.3097
  246MPD1    H5 3792   4.654   1.313   9.934  2.2524  1.0454 -0.6869
  246MPD1    N1 3793   0.171   1.407  10.350  0.1085  0.0039 -0.0774
  246MPD1    H6 3794   0.173   1.308  10.373 -1.4719 -0.6201 -2.6741
  246MPD1    H7 3795   0.187   1.467  10.431 -0.1186  4.8772 -3.6924
  247MPD1     C 3796   2.092   0.770  16.677  0.2079  0.6333 -0.4348
  247MPD1    C1 3797   1.997   0.714  16.760  0.0378  0.0833  0.0192
  247MPD1    C2 3798   1.974   0.573  16.741  0.3084  0.0269  0.1893
  247MPD1    C3 3799   2.038   0.491  16.652 -0.8203 -0.5183  0.9013
  247MPD1    C4 3800   2.130   0.554  16.569  0.1013 -0.2840 -0.1721
  247MPD1    C5 3801   2.151   0.690  16.583 -0.5856 -0.4526 -0.2083
  247MPD1     H 3802   1.911   0.521  16.811  1.0538 -1.6892 -0.4043
  247MPD1    H1 3803   2.181   0.497  16.492  0.7146  2.1333 -1.5420
  247MPD1    H2 3804   2.118   0.875  16.689 -0.6321  0.9831 -1.6947
  247MPD1    H3 3805   2.223   0.734  16.515  0.4573  1.1835  1.9755
  247MPD1     N 3806   2.023   0.354  16.641  0.8718 -0.0099 -0.0167
  247MPD1    H5 3807   2.061   0.311  16.557  0.2215  0.9691 -0.8088
  247MPD1    N1 3808   1.919   0.793  16.843  0.0232  0.0676  0.3615
  247MPD1    H6 3809   1.881   0.729  16.913 -0.2067 -0.5172 -0.2954
  247MPD1    H7 3810   1.975   0.864  16.891 -0.7369 -0.1760  1.6214
  248MPD1     C 3811   3.128   3.614   0.529 -0.5457 -0.0805 -0.0634
  248MPD1    C1 3812   2.996   3.592   0.498 -0.0312 -0.4747  0.2836
  248MPD1    C2 3813   2.890   3.645   0.578  0.2094 -0.0325  0.9233
  248MPD1    C3 3814   2.924   3.712   0.694 -0.0088  0.4329 -0.5351
  248MPD1    C4 3815   3.055   3.720   0.727  0.0992 -0.9139  0.6730
  248MPD1    C5 3816   3.153   3.674   0.645  0.1590 -0.0957 -0.2432
  248MPD1     H 3817   2.786   3.622   0.559  0.7310 -0.7777 -1.0734
  248MPD1    H1 3818   3.090   3.775   0.814 -2.6196 -1.2786  1.9796
  248MPD1    H2 3819   3.204   3.578   0.460 -0.8205 -1.1017  0.1659
  248MPD1    H3 3820   3.256   3.696   0.673  0.7230 -1.5107 -1.2103
  248MPD1     N 3821   2.822   3.776   0.767 -0.6831 -0.2095 -0.4191
  248MPD1    H5 3822   2.727   3.786   0.733 -1.6275  1.8771  2.8115
  248MPD1    N1 3823   2.958   3.517   0.392 -1.0509  0.0594 -0.0662
  248MPD1    H6 3824   3.003   3.427   0.373  0.2333  0.1718  2.4544
  248MPD1    H7 3825   2.857   3.503   0.401 -0.9954  0.3093  0.9704
  249MPD1     C 3826   3.837   3.180  11.138  0.2108 -0.8367  0.5326
  249MPD1    C1 3827   3.910   3.297  11.140  0.0018 -0.2080 -0.3107
  249MPD1    C2 3828   3.913   3.376  11.030  0.4515  0.5390 -0.7163
  249MPD1    C3 3829   3.844   3.342  10.916 -0.6474  0.1716  0.0901
  249MPD1    C4 3830   3.770   3.226  10.915  0.2426  0.6956 -0.2183
  249MPD1    C5 3831   3.766   3.144  11.024 -0.2716 -0.5385  0.3507
  249MPD1     H 3832   3.983   3.459  11.028  1.7279 -0.5497 -1.0375
  249MPD1    H1 3833   3.708   3.209  10.828 -0.5424  2.8880 -0.1032
  249MPD1    H2 3834   3.829   3.108  11.219 -0.4401 -2.2511 -0.7774
  249MPD1    H3 3835   3.712   3.050  11.022 -2.3888  0.6690  0.7221
  249MPD1     N 3836   3.854   3.426  10.803 -0.1742  0.5168 -0.5240
  249MPD1    H5 3837   3.906   3.511  10.822 -0.5710  0.7749 -0.5927
  249MPD1    N1 3838   4.005   3.321  11.239 -0.3135 -0.6333 -0.8187
  249MPD1    H6 3839   3.975   3.287  11.330  1.1975  0.2479  0.0156
  249MPD1    H7 3840   4.015   3.422  11.249  1.2033 -0.6665 -1.9560
  250MPD2     C 3841   0.277   3.577  13.415 -0.3393  0.0242 -0.1440
  250MPD2    C1 3842   0.393   3.546  13.350 -0.7539 -0.5386 -0.2166
  250MPD2    C2 3843   0.382   3.445  13.261  0.1162  0.0350 -0.2845
  250MPD2    C3 3844   0.268   3.369  13.245  0.5917 -0.0103 -0.0822
  250MPD2    C4 3845   0.151   3.420  13.299 -0.3878  0.7659  0.2648
  250MPD2    C5 3846   0.161   3.515  13.391  0.0131 -0.4739 -0.1138
  250MPD2     H 3847   0.466   3.415  13.199 -1.4424  0.0092 -2.3758
  250MPD2    H1 3848   0.053   3.378  13.281  0.6288 -1.2953 -0.4914
  250MPD2    H2 3849   0.280   3.662  13.482 -1.2523  0.8922 -1.2147
  250MPD2    H3 3850   0.074   3.549  13.446  0.5394  2.9009 -1.3644
  250MPD2     N 3851   0.255   3.263  13.158  0.1386 -0.6571 -0.3931
  250MPD2    H5 3852   0.159   3.229  13.150 -0.3299  0.4830  0.3513
  250MPD2    N1 3853   0.513   3.617  13.378  0.4249 -0.3182  0.1417
  250MPD2    H7 3854   0.502   3.692  13.446 -3.1353 -1.6935  1.0486
  251TMC3    C1 3855   0.741   3.684  13.358  0.4012  0.7170 -0.5831
  251TMC3    C2 3856   0.717   3.800  13.422 -0.0045  0.2002 -0.6110
  251TMC3    C3 3857   0.809   3.901  13.403 -0.3128 -0.1248  0.1469
  251TMC3    C4 3858   0.869   3.651  13.304  0.5091 -0.3050  0.5342
  251TMC3    C5 3859   0.953   3.761  13.289  0.3518 -0.2639  0.5803
  251TMC3    C6 3860   0.925   3.880  13.340 -0.3141 -0.0666 -0.7854
  251TMC3     C 3861   0.637   3.593  13.318  0.2887 -0.0582 -0.6994
  251TMC3     O 3862   0.667   3.510  13.233  0.7448  0.4342  0.2090
  251TMC3     H 3863   0.616   3.835  13.442 -0.0776  0.5488 -1.6057
  251TMC3    H1 3864   0.888   3.562  13.245 -1.0236  0.8849 -1.7063
  251TMC3    H2 3865   0.999   3.957  13.356  2.3163 -2.6210 -0.7770
  251TMC3    C7 3866   1.088   3.730  13.252  0.2050  0.2865 -0.3491
  251TMC3    C8 3867   0.773   4.031  13.460  0.0201  0.5833  1.0856
  251TMC3    O1 3868   1.121   3.617  13.276  0.0906 -0.5859 -0.8913
  251TMC3    O2 3869   0.738   4.038  13.576  0.5759  0.1296 -0.3223
  252TMC3    C1 3870   1.241   0.032   9.553 -0.1873  0.0506 -0.0598
  252TMC3    C2 3871   1.327   0.140   9.557  0.0764  0.1647  0.2131
  252TMC3    C3 3872   1.411   0.131   9.665  0.4195 -0.0805 -0.0572
  252TMC3    C4 3873   1.241   4.667   9.636  0.3549 -0.2099  0.6343
  252TMC3    C5 3874   1.334   4.664   9.734  0.0227 -0.0826 -0.1170
  252TMC3    C6 3875   1.428   0.025   9.745 -0.1482 -1.4265 -0.0303
  252TMC3     C 3876   1.113   0.046   9.481 -0.0554  0.5209 -0.1140
  252TMC3     O 3877   1.024   4.706   9.508  0.1470  0.1733 -0.3448
  252TMC3     H 3878   1.321   0.225   9.491 -0.0128 -1.1016 -1.4042
  252TMC3    H1 3879   1.170   4.585   9.638  1.2503 -0.9899 -0.2457
  252TMC3    H2 3880   1.508   0.017   9.817 -0.3561  0.0323  0.3486
  252TMC3    C7 3881   1.344   4.562   9.838 -0.3776  0.3661 -0.4227
  252TMC3    C8 3882   1.472   0.255   9.696  1.0807 -0.0016  1.2786
  252TMC3    O1 3883   1.423   4.586   9.925 -0.0769  0.5007 -1.0414
  252TMC3    O2 3884   1.473   0.342   9.608 -0.1370 -0.8157 -0.6966
  253MPD2     C 3885   1.658   3.015  14.750 -0.6929 -0.0374 -0.2921
  253MPD2    C1 3886   1.575   3.112  14.797  0.5041  0.2959  0.4598
  253MPD2    C2 3887   1.584   3.158  14.925  0.1287  0.3614  0.2710
  253MPD2    C3 3888   1.686   3.115  15.009 -0.2067 -0.2932  0.2385
  253MPD2    C4 3889   1.760   3.007  14.971 -0.0046  0.3617  0.3327
  253MPD2    C5 3890   1.750   2.967  14.838 -0.5711  0.4858 -0.2955
  253MPD2     H 3891   1.503   3.221  14.960 -0.4752 -0.6659  0.7481
  253MPD2    H1 3892   1.827   2.961  15.042  0.4818  1.0845  0.3447
  253MPD2    H2 3893   1.646   2.961  14.657 -3.3848 -1.6675  1.0081
  253MPD2    H3 3894   1.791   2.877  14.793 -1.4005  0.2489 -0.5883
  253MPD2     N 3895   1.704   3.181  15.131  0.1360  0.0882 -0.1059
  253MPD2    H5 3896   1.648   3.263  15.149  2.0173  1.2987  0.2583
  253MPD2    N1 3897   1.473   3.161  14.717  0.1849 -0.0224  0.0116
  253MPD2    H7 3898   1.434   3.242  14.764 -0.3518  0.4398 -1.2220
  254TMC3    C1 3899   1.775   3.209  15.356  0.2674  0.9428  0.2826
  254TMC3    C2 3900   1.644   3.230  15.397 -0.4868 -0.1911 -0.0445
  254TMC3    C3 3901   1.605   3.208  15.532  0.1659 -0.1892 -0.0512
  254TMC3    C4 3902   1.867   3.179  15.457  0.6987  0.5714  0.2570
  254TMC3    C5 3903   1.830   3.169  15.589 -0.6585 -0.1810  0.0694
  254TMC3    C6 3904   1.701   3.181  15.623  0.6677 -0.8541 -0.7068
  254TMC3     C 3905   1.795   3.140  15.227  0.4439  0.1207  0.0995
  254TMC3     O 3906   1.883   3.058  15.230 -0.9312  0.0200  0.6252
  254TMC3     H 3907   1.559   3.262  15.338 -0.5329 -0.5157 -0.1517
  254TMC3    H1 3908   1.972   3.167  15.433  0.1111  0.5983 -2.3237
  254TMC3    H2 3909   1.662   3.176  15.724 -1.9433 -0.7372 -1.6948
  254TMC3    C7 3910   1.906   3.144  15.706  0.2375  0.5369  0.6241
  254TMC3    C8 3911   1.502   3.284  15.594 -0.5732  0.1623  0.0066
  254TMC3    O1 3912   1.847   3.135  15.811  0.8881 -0.1409  0.3957
  254TMC3    O2 3913   1.445   3.224  15.685  0.2385  0.8944  0.3297
  255MPD2     C 3914   0.135   1.648  10.617  0.4981 -0.0365 -0.4400
  255MPD2    C1 3915   0.252   1.712  10.595  0.0723 -0.0959 -0.0145
  255MPD2    C2 3916   0.362   1.633  10.589  0.4473 -1.1370  0.1584
  255MPD2    C3 3917   0.365   1.500  10.628  0.2146  0.2747 -0.3182
  255MPD2    C4 3918   0.244   1.438  10.665  0.3865  0.2114 -0.4790
  255MPD2    C5 3919   0.133   1.512  10.659  0.5205 -1.0944  0.1197
  255MPD2     H 3920   0.454   1.680  10.557 -0.1811  1.9971  3.0237
  255MPD2    H1 3921   0.237   1.331  10.680 -0.8413  0.5024  1.0657
  255MPD2    H2 3922   0.037   1.692  10.604  0.7696  0.2261 -1.5618
  255MPD2    H3 3923   0.040   1.461  10.684 -0.7789  1.2621  0.0677
  255MPD2     N 3924   0.472   1.414  10.617  0.7746  0.0270 -0.0818
  255MPD2    H5 3925   0.469   1.318  10.649 -1.7062 -0.7426 -2.6698
  255MPD2    N1 3926   0.244   1.847  10.554 -0.0259 -0.5589 -0.2336
  255MPD2    H7 3927   0.154   1.891  10.571 -0.2241 -1.3241  0.6915
  256TMC3    C1 3928   0.283   2.044  10.427 -0.0252  1.0837  0.0406
  256TMC3    C2 3929   0.363   2.099  10.333  0.6006 -0.2522 -0.3838
  256TMC3    C3 3930   0.302   2.165  10.236 -0.6047  0.3773 -0.0500
  256TMC3    C4 3931   0.148   2.059  10.434 -0.2338 -0.2421 -0.1738
  256TMC3    C5 3932   0.098   2.133  10.330 -0.1947  0.2073  0.7153
  256TMC3    C6 3933   0.165   2.186  10.232 -0.2502  0.8002  0.1332
  256TMC3     C 3934   0.336   1.921  10.481 -0.4227  0.1657  0.4492
  256TMC3     O 3935   0.447   1.882  10.446 -0.2728 -0.1811 -0.1018
  256TMC3     H 3936   0.469   2.076  10.332  0.8767  1.0481 -1.7867
  256TMC3    H1 3937   0.087   2.011  10.510  0.0496 -1.8105 -0.9335
  256TMC3    H2 3938   0.119   2.232  10.145 -0.7911  1.0430  0.5466
  256TMC3    C7 3939   4.689   2.115  10.324  0.2606  0.1889 -0.2447
  256TMC3    C8 3940   0.380   2.201  10.117 -0.1173 -0.7436 -0.5134
  256TMC3    O1 3941   4.630   2.078  10.425  0.4636  0.1361 -0.0883
  256TMC3    O2 3942   0.331   2.203  10.005  0.3158  0.5959  0.0114
  257MPD2     C 3943   3.931   3.616  13.573  0.1279 -0.6411  0.0397
  257MPD2    C1 3944   3.836   3.537  13.502  0.0819  0.2285  0.5463
  257MPD2    C2 3945   3.834   3.400  13.529 -0.4120 -0.4531  0.5129
  257MPD2    C3 3946   3.928   3.345  13.619 -0.1733 -0.2165  0.2923
  257MPD2    C4 3947   4.011   3.425  13.684  0.7145  0.2895  0.1948
  257MPD2    C5 3948   4.018   3.563  13.664  0.5088 -0.8414 -0.7520
  257MPD2     H 3949   3.760   3.334  13.484  0.1506  0.1985 -1.3803
  257MPD2    H1 3950   4.088   3.387  13.751 -0.3679 -1.1003  0.6356
  257MPD2    H2 3951   3.941   3.723  13.556 -1.0909 -0.3752  1.0547
  257MPD2    H3 3952   4.086   3.628  13.718 -0.0694 -0.7664 -0.1144
  257MPD2     N 3953   3.918   3.205  13.644 -0.3686 -0.4199 -0.2131
  257MPD2    H5 3954   3.850   3.159  13.584 -2.7564  1.0500  1.3639
  257MPD2    N1 3955   3.757   3.598  13.407  0.1401  0.1734 -0.5159
  257MPD2    H7 3956   3.776   3.697  13.397  0.9260 -0.0217 -0.9452
  258TMC3    C1 3957   3.944   2.993  13.754  0.3709  0.4169 -0.7934
  258TMC3    C2 3958   3.933   2.938  13.629  0.2270 -0.1759 -0.0982
  258TMC3    C3 3959   3.996   2.821  13.609 -0.2558 -0.2601  0.3128
  258TMC3    C4 3960   4.010   2.929  13.856  0.5621 -0.7833 -0.2940
  258TMC3    C5 3961   4.071   2.814  13.833  0.1760 -0.2159  0.1643
  258TMC3    C6 3962   4.071   2.758  13.707  0.3996  0.2408 -0.5123
  258TMC3     C 3963   3.970   3.137  13.754  0.2372 -0.1500 -0.5458
  258TMC3     O 3964   4.026   3.185  13.852 -0.2807 -0.3372  0.1392
  258TMC3     H 3965   3.869   2.982  13.553 -0.6293 -4.0768 -1.6342
  258TMC3    H1 3966   4.012   2.980  13.952 -0.1972 -1.0630 -0.1276
  258TMC3    H2 3967   4.130   2.668  13.691  0.0705 -0.0597 -0.0093
  258TMC3    C7 3968   4.170   2.770  13.929  1.0094  0.3379 -0.4439
  258TMC3    C8 3969   4.022   2.776  13.475 -0.3533  0.8761  0.5657
  258TMC3    O1 3970   4.279   2.747  13.874  0.2226 -0.4997 -0.4656
  258TMC3    O2 3971   4.119   2.703  13.466  0.2420 -0.4143 -0.1704
  259MPD2     C 3972   3.105   4.521   0.604 -0.8367 -0.7173 -0.1747
  259MPD2    C1 3973   3.221   4.527   0.670  0.0841 -0.7469 -0.0233
  259MPD2    C2 3974   3.327   4.451   0.616 -0.3736  1.2349 -0.1632
  259MPD2    C3 3975   3.317   4.377   0.499  0.0246 -0.3981 -0.1448
  259MPD2    C4 3976   3.201   4.383   0.427 -0.4801  0.1424 -0.1518
  259MPD2    C5 3977   3.096   4.449   0.484  0.6322  0.6175 -0.0510
  259MPD2     H 3978   3.424   4.457   0.663 -0.6660  0.2400  0.5704
  259MPD2    H1 3979   3.175   4.322   0.341  0.7828  0.3780 -0.7043
  259MPD2    H2 3980   3.021   4.578   0.642  0.5827  2.1476 -1.3247
  259MPD2    H3 3981   3.005   4.457   0.426 -0.1681 -3.6072  0.6215
  259MPD2     N 3982   3.427   4.310   0.456  0.4710 -0.2333 -0.0528
  259MPD2    H5 3983   3.507   4.306   0.518  0.9287 -0.1714 -0.6491
  259MPD2    N1 3984   3.234   4.611   0.785 -0.1951  0.6187  0.6370
  259MPD2    H7 3985   3.146   4.641   0.824 -0.8801 -0.3126 -0.1841
  260TMC3    C1 3986   3.575   4.183   0.338 -0.0812 -0.2432 -0.5790
  260TMC3    C2 3987   3.650   4.195   0.222 -0.6478  0.0891  0.3403
  260TMC3    C3 3988   3.779   4.162   0.215  1.1368  0.0337  0.3860
  260TMC3    C4 3989   3.621   4.104   0.442  0.2223 -0.8147 -0.4449
  260TMC3    C5 3990   3.752   4.072   0.436 -0.1866 -0.3618  0.1813
  260TMC3    C6 3991   3.824   4.088   0.325  0.6159  0.1901 -0.0704
  260TMC3     C 3992   3.439   4.227   0.346 -0.6604 -0.0319  0.0557
  260TMC3     O 3993   3.362   4.217   0.251  0.0986  0.1663  0.1661
  260TMC3     H 3994   3.591   4.247   0.148 -2.3459 -0.6806  1.1466
  260TMC3    H1 3995   3.565   4.104   0.535 -0.8708  1.0795 -1.1103
  260TMC3    H2 3996   3.926   4.050   0.322  0.6861  0.4506 -1.1070
  260TMC3    C7 3997   3.779   3.934   0.479 -0.1351  0.1888  0.1277
  260TMC3    C8 3998   3.815   4.098   0.090  0.6533  0.0444 -0.3646
  260TMC3    O1 3999   3.823   3.863   0.386 -0.0221  0.3956  0.1765
  260TMC3    O2 4000   3.849   4.164  17.736 -0.2175  0.0671 -0.0676
  261MPD2     C 4001   4.574   3.111  12.610  0.6390  0.2426 -0.0509
  261MPD2    C1 4002   4.692   3.172  12.619 -0.2224  0.8385 -0.1380
  261MPD2    C2 4003   4.731   3.270  12.521  0.7577 -0.4852 -0.3739
  261MPD2    C3 4004   4.648   3.303  12.417  0.2540 -0.5674 -1.0366
  261MPD2    C4 4005   4.524   3.246  12.418  0.1047  0.2323 -0.7902
  261MPD2    C5 4006   4.491   3.146  12.504  0.6793  0.8147  0.1439
  261MPD2     H 4007   0.093   3.317  12.524 -0.1611  1.3982  0.0756
  261MPD2    H1 4008   4.442   3.271  12.352  0.5500 -2.2780 -2.2615
  261MPD2    H2 4009   4.538   3.026  12.668 -2.3682 -0.2874 -2.7093
  261MPD2    H3 4010   4.392   3.103  12.498  1.4434 -0.8978 -0.1539
  261MPD2     N 4011   4.697   3.400  12.323 -0.3360 -0.6936 -0.2935
  261MPD2    H5 4012   0.058   3.425  12.338 -0.2006 -0.0435 -2.2159
  261MPD2    N1 4013   0.046   3.144  12.721  0.6891  0.2708  0.2423
  261MPD2    H7 4014   0.122   3.211  12.728  0.7603  0.3518 -1.2067
  262TMC3    C1 4015   4.691   3.576  12.164  1.2056  0.2924 -0.2457
  262TMC3    C2 4016   4.627   3.688  12.123  0.1028 -1.4111 -0.2665
  262TMC3    C3 4017   4.703   3.791  12.073  0.0490 -0.3158  0.1063
  262TMC3    C4 4018   0.093   3.552  12.154  0.0474 -0.4639  0.3129
  262TMC3    C5 4019   0.162   3.657  12.101 -0.6987 -0.6232 -0.3046
  262TMC3    C6 4020   0.100   3.769  12.058  0.0425 -0.1212 -0.3079
  262TMC3     C 4021   4.616   3.477  12.240 -0.3500 -0.9228 -0.4095
  262TMC3     O 4022   4.495   3.491  12.238 -0.4617 -0.0621 -0.4168
  262TMC3     H 4023   4.523   3.693  12.153  0.6812  2.9855  1.0453
  262TMC3    H1 4024   0.124   3.448  12.166  1.8583  0.2539  1.7344
  262TMC3    H2 4025   0.167   3.849  12.031  1.4058 -1.1988 -0.1724
  262TMC3    C7 4026   0.311   3.649  12.117 -0.1413  0.4266  0.4870
  262TMC3    C8 4027   4.646   3.919  12.060 -0.5291 -0.4189  1.1114
  262TMC3    O1 4028   0.350   3.532  12.090 -0.3969 -0.3696  0.1115
  262TMC3    O2 4029   4.730   4.002  12.031  0.2801  0.0945  0.0640
  263MPD2     C 4030   0.879   2.843  11.958  0.0227 -0.2991  0.2830
  263MPD2    C1 4031   0.847   2.793  11.835  0.2729  0.6462  0.4778
  263MPD2    C2 4032   0.882   2.867  11.725 -0.5355  0.4944  1.0575
  263MPD2    C3 4033   0.943   2.986  11.751 -0.2580 -0.4629 -0.3120
  263MPD2    C4 4034   0.976   3.034  11.878  0.3569 -0.3469 -0.3202
  263MPD2    C5 4035   0.945   2.957  11.980  0.4783 -0.5359 -0.3634
  263MPD2     H 4036   0.857   2.834  11.625 -2.0145 -0.6564  1.8035
  263MPD2    H1 4037   1.031   3.127  11.891  0.5900 -0.2021 -2.2957
  263MPD2    H2 4038   0.850   2.790  12.048 -0.1207  0.6398  0.7861
  263MPD2    H3 4039   0.971   2.983  12.082 -0.9106  0.9482 -0.3840
  263MPD2     N 4040   0.976   3.082  11.653 -0.4354  0.3647 -0.1091
  263MPD2    H5 4041   0.994   3.176  11.687  1.9870  0.9809 -3.1476
  263MPD2    N1 4042   0.782   2.663  11.834 -0.0681  0.2956  0.4951
  263MPD2    H7 4043   0.766   2.614  11.921 -3.6490 -0.7105 -0.7214
  264TMC3    C1 4044   1.056   3.158  11.437 -0.3861 -0.3277  1.0384
  264TMC3    C2 4045   1.045   3.293  11.481 -0.1092  0.2203  0.0258
  264TMC3    C3 4046   1.102   3.383  11.395  0.2901 -0.9437  0.0947
  264TMC3    C4 4047   1.139   3.118  11.336  0.2857 -0.2931 -0.0326
  264TMC3    C5 4048   1.206   3.220  11.272  0.1463  0.8299 -0.0027
  264TMC3    C6 4049   1.181   3.349  11.292  0.3603  0.5367  0.3766
  264TMC3     C 4050   0.995   3.050  11.517 -0.6067  0.5520 -0.2062
  264TMC3     O 4051   0.989   2.943  11.456  0.3128  0.3386 -0.7734
  264TMC3     H 4052   0.976   3.323  11.559  2.1557  1.8624  1.3851
  264TMC3    H1 4053   1.156   3.015  11.311 -2.1710 -0.3319 -1.5510
  264TMC3    H2 4054   1.250   3.419  11.247  1.0998 -0.1079  0.5216
  264TMC3    C7 4055   1.316   3.199  11.186  0.5229 -0.8526  0.0778
  264TMC3    C8 4056   1.110   3.524  11.434 -0.2346 -1.0747 -0.7908
  264TMC3    O1 4057   1.315   3.184  11.065  0.0678  0.3383 -0.1176
  264TMC3    O2 4058   1.152   3.595  11.347  0.4607 -0.3254 -0.2036
  265MPD2     C 4059   2.945   2.710  15.612 -0.6173  0.3033 -0.2937
  265MPD2    C1 4060   3.047   2.793  15.572 -0.8116 -0.6054  0.1936
  265MPD2    C2 4061   3.129   2.749  15.471 -0.1279 -0.1636  0.0812
  265MPD2    C3 4062   3.125   2.612  15.429  0.1896 -0.4040  0.4935
  265MPD2    C4 4063   3.032   2.527  15.483 -0.2923  0.2374 -0.4761
  265MPD2    C5 4064   2.944   2.580  15.568 -0.1027 -0.4314 -0.0921
  265MPD2     H 4065   3.201   2.819  15.432 -1.8957  0.4739 -2.0658
  265MPD2    H1 4066   3.028   2.420  15.467  1.5273  0.5310 -2.8307
  265MPD2    H2 4067   2.866   2.730  15.684 -2.1952  2.7041 -2.6680
  265MPD2    H3 4068   2.870   2.516  15.616 -0.7539  0.6262  0.3143
  265MPD2     N 4069   3.224   2.558  15.332 -0.2139 -0.2840 -0.5060
  265MPD2    H5 4070   3.231   2.457  15.332 -1.6859 -0.3914 -1.4983
  265MPD2    N1 4071   3.071   2.923  15.633  0.6482 -0.1299  0.6895
  265MPD2    H7 4072   3.128   2.993  15.587 -1.2501  0.7290 -0.3708
  266TMC3    C1 4073   3.066   3.091  15.799  0.9330  0.4420 -0.6473
  266TMC3    C2 4074   3.085   3.113  15.931  0.2368 -0.7890 -0.4328
  266TMC3    C3 4075   3.122   3.235  15.970 -0.5375  0.2240 -0.1642
  266TMC3    C4 4076   3.053   3.195  15.710  0.7076  0.7762 -0.8072
  266TMC3    C5 4077   3.082   3.314  15.754 -0.2341  0.4745  0.4946
  266TMC3    C6 4078   3.116   3.344  15.884 -0.0322 -0.2394  0.4810
  266TMC3     C 4079   3.028   2.954  15.763 -0.5351 -0.3764 -0.5474
  266TMC3     O 4080   2.989   2.882  15.857  0.4452 -0.4891 -0.2603
  266TMC3     H 4081   3.093   3.028  15.998  0.5345  0.4201  1.0509
  266TMC3    H1 4082   3.046   3.176  15.603 -1.1735  0.8573 -0.6870
  266TMC3    H2 4083   3.153   3.442  15.912  2.0453 -1.2925  1.3893
  266TMC3    C7 4084   3.079   3.431  15.659  0.1601  0.2310  0.5099
  266TMC3    C8 4085   3.185   3.248  16.099  0.4864  0.2749 -0.2930
  266TMC3    O1 4086   3.064   3.416  15.540  0.3401  0.6966 -0.1523
  266TMC3    O2 4087   3.231   3.141  16.140 -0.2656  0.2033 -0.2118
  267MPD2     C 4088   0.768   0.137   0.774 -0.3648 -0.2717  0.6612
  267MPD2    C1 4089   0.764   0.154   0.637 -0.1573 -0.1286  0.0647
  267MPD2    C2 4090   0.642   0.179   0.572 -0.0641  0.2672 -0.1474
  267MPD2    C3 4091   0.523   0.179   0.653  0.2106 -0.2459 -0.5881
  267MPD2    C4 4092   0.531   0.160   0.789 -0.4295  0.1180 -0.2141
  267MPD2    C5 4093   0.653   0.144   0.849  0.3418 -0.2203 -0.3993
  267MPD2     H 4094   0.641   0.195   0.464 -0.1036  0.1128 -0.1690
  267MPD2    H1 4095   0.439   0.171   0.845  0.0012  1.3774  0.2478
  267MPD2    H2 4096   0.859   0.112   0.827 -0.1343 -1.2552 -0.2113
  267MPD2    H3 4097   0.654   0.124   0.955  0.6961 -0.7463 -0.5038
  267MPD2     N 4098   0.394   0.217   0.595  0.0024  0.3187 -0.2477
  267MPD2    H5 4099   0.315   0.241   0.654  0.8082  0.3098  0.8527
  267MPD2    N1 4100   0.894   0.165   0.579 -0.2394 -0.1179  0.2632
  267MPD2    H7 4101   0.979   0.174   0.634  0.1818  0.1928 -0.4365
  268TMC3    C1 4102   1.058   0.177   0.420 -1.0263 -0.6796  0.6113
  268TMC3    C2 4103   1.105   0.244   0.313 -0.0902 -0.9576 -0.0939
  268TMC3    C3 4104   1.228   0.208   0.261 -0.2591  0.6464 -0.3619
  268TMC3    C4 4105   1.124   0.062   0.458 -0.4480 -0.1642  0.2178
  268TMC3    C5 4106   1.222   0.012   0.380 -0.8076 -0.2580  0.3684
  268TMC3    C6 4107   1.289   0.097   0.297  0.3807 -0.4293  0.2876
  268TMC3     C 4108   0.915   0.195   0.447 -0.0361 -0.3024 -0.0956
  268TMC3     O 4109   0.842   0.243   0.363  0.6571  0.1502  0.0154
  268TMC3     H 4110   1.049   0.332   0.282  1.1716  0.0991  0.6199
  268TMC3    H1 4111   1.084   0.000   0.538  2.3579 -1.4110  0.6407
  268TMC3    H2 4112   1.377   0.067   0.240 -0.0345 -3.3795  1.1735
  268TMC3    C7 4113   1.269   4.613   0.408 -0.0978  0.3186 -0.5429
  268TMC3    C8 4114   1.272   0.262   0.133  0.1285  0.4856 -0.5667
  268TMC3    O1 4115   1.237   4.561   0.513 -0.1540 -0.1371  0.7047
  268TMC3    O2 4116   1.390   0.275   0.101  0.0561  0.3731 -0.3419
  269MPD2     C 4117   1.037   3.542  15.602 -0.5453  0.5697  0.1267
  269MPD2    C1 4118   1.002   3.489  15.725 -0.6583  0.2595  0.2015
  269MPD2    C2 4119   0.969   3.575  15.825 -0.6171 -0.0125  0.0259
  269MPD2    C3 4120   0.980   3.712  15.810  0.2144 -0.0138  0.1897
  269MPD2    C4 4121   1.015   3.765  15.681  0.4394 -1.0418  0.0653
  269MPD2    C5 4122   1.044   3.679  15.583  0.1880  0.2524 -0.5701
  269MPD2     H 4123   0.941   3.537  15.922 -1.7208 -1.1406 -0.7409
  269MPD2    H1 4124   1.000   3.871  15.665  3.4393 -0.3836  1.5596
  269MPD2    H2 4125   1.067   3.481  15.517  1.4974 -1.1696  2.0933
  269MPD2    H3 4126   1.079   3.730  15.494 -0.7926  0.0725 -1.0692
  269MPD2     N 4127   0.947   3.800  15.921 -0.5902  0.4262 -0.3640
  269MPD2    H5 4128   0.884   3.772  15.995  0.8300 -0.2441  0.5975
  269MPD2    N1 4129   1.018   3.348  15.736  0.2338 -0.6857  0.9873
  269MPD2    H7 4130   1.043   3.294  15.654  1.0885 -0.8954  1.3759
  270TMC3    C1 4131   0.984   3.132  15.816  0.4041 -0.5517  0.8142
  270TMC3    C2 4132   0.881   3.046  15.817 -0.2288 -0.4915  0.1411
  270TMC3    C3 4133   0.905   2.911  15.798  0.3002  0.2369  0.2120
  270TMC3    C4 4134   1.116   3.084  15.806  0.0290 -0.2127 -0.2176
  270TMC3    C5 4135   1.136   2.947  15.808 -0.4103  0.2433  0.1186
  270TMC3    C6 4136   1.034   2.858  15.820  0.3448 -0.5254  0.4176
  270TMC3     C 4137   0.957   3.271  15.832  1.0773 -0.3242  0.0571
  270TMC3     O 4138   0.861   3.302  15.907 -0.6274 -1.0654 -0.8399
  270TMC3     H 4139   0.777   3.077  15.813 -0.0395  0.3386  2.0466
  270TMC3    H1 4140   1.198   3.149  15.779 -0.2082  0.3637  0.4503
  270TMC3    H2 4141   1.050   2.753  15.795 -0.3807 -0.0767 -2.0161
  270TMC3    C7 4142   1.261   2.892  15.758 -0.0197 -0.0949  0.6421
  270TMC3    C8 4143   0.855   2.872  15.672 -0.2426  0.3499 -0.3712
  270TMC3    O1 4144   1.297   2.790  15.814  0.9761 -0.3646 -0.4577
  270TMC3    O2 4145   0.936   2.826  15.589  0.0484  0.0250 -0.3261
  271MPD2     C 4146   0.154   3.220  14.010 -0.6706  0.1922 -0.9129
  271MPD2    C1 4147   0.094   3.207  14.140 -0.4674  0.4868  0.0992
  271MPD2    C2 4148   4.724   3.293  14.168 -0.0910 -0.5652 -0.2408
  271MPD2    C3 4149   4.671   3.382  14.075  0.0614  0.7175 -0.5104
  271MPD2    C4 4150   4.732   3.384  13.952  0.0117 -0.2119 -0.4601
  271MPD2    C5 4151   0.109   3.314  13.923 -0.7035 -0.2264 -0.1953
  271MPD2     H 4152   4.667   3.270  14.258  0.9302  0.3606  0.6326
  271MPD2    H1 4153   4.694   3.454  13.878  0.0646 -1.5757 -1.7740
  271MPD2    H2 4154   0.240   3.158  13.985 -0.6983 -0.9988  1.9400
  271MPD2    H3 4155   0.155   3.302  13.826 -1.4213  0.3918 -0.6125
  271MPD2     N 4156   4.553   3.459  14.104 -0.4236 -0.7691  0.1118
  271MPD2    H5 4157   4.521   3.522  14.031  1.8218 -0.4860 -0.6413
  271MPD2    N1 4158   0.134   3.108  14.234  0.5997  0.1600 -1.0722
  271MPD2    H7 4159   0.083   3.116  14.322 -0.4877  0.7860 -1.7574
  272TMC3    C1 4160   0.243   2.916  14.322  0.2835 -0.6273 -0.2989
  272TMC3    C2 4161   0.331   2.813  14.306  0.1594 -0.1354  0.5171
  272TMC3    C3 4162   0.387   2.750  14.410  0.2996  0.0901  0.6008
  272TMC3    C4 4163   0.201   2.949  14.452  0.0078  0.4115 -0.1281
  272TMC3    C5 4164   0.250   2.877  14.554  0.8296  0.4356  0.4229
  272TMC3    C6 4165   0.345   2.776  14.542 -0.0141 -0.5716 -0.9133
  272TMC3     C 4166   0.229   3.013  14.213  0.0406  0.1427  0.4242
  272TMC3     O 4167   0.318   2.999  14.130  0.1625 -0.4909 -0.8612
  272TMC3     H 4168   0.361   2.789  14.205  0.3004 -0.2735  0.5919
  272TMC3    H1 4169   0.126   3.025  14.471  1.8887  2.0972  0.6803
  272TMC3    H2 4170   0.395   2.741  14.632 -0.0365  0.8347 -0.3538
  272TMC3    C7 4171   0.196   2.912  14.685  0.2276  0.8036  0.1511
  272TMC3    C8 4172   0.502   2.675  14.373  0.3940  0.0624  0.3071
  272TMC3    O1 4173   0.080   2.956  14.685 -0.8352  0.1036  0.2331
  272TMC3    O2 4174   0.550   2.693  14.261  0.5023  0.2640  0.6077
  273MPD2     C 4175   1.530   0.934  11.974 -0.3690  0.3010 -0.4646
  273MPD2    C1 4176   1.527   1.068  11.999 -0.2375 -0.3984 -0.2356
  273MPD2    C2 4177   1.434   1.148  11.940 -1.0879 -0.5290  0.5354
  273MPD2    C3 4178   1.348   1.090  11.845 -0.3108 -0.0519  0.2462
  273MPD2    C4 4179   1.353   0.957  11.818 -0.2374  0.1536  0.3419
  273MPD2    C5 4180   1.445   0.880  11.879  0.5941  0.5613  0.2778
  273MPD2     H 4181   1.415   1.251  11.968  0.7431  0.3600 -1.5231
  273MPD2    H1 4182   1.281   0.906  11.755 -1.9213  1.7162  0.9986
  273MPD2    H2 4183   1.598   0.867  12.025 -0.2887  1.2004  0.6208
  273MPD2    H3 4184   1.453   0.775  11.853 -3.0730  0.4377 -0.3870
  273MPD2     N 4185   1.243   1.160  11.785 -0.3037  0.6328 -0.7848
  273MPD2    H5 4186   1.170   1.115  11.732 -0.4899 -0.2301  0.2104
  273MPD2    N1 4187   1.612   1.114  12.103 -0.2085  0.0678  0.1541
  273MPD2    H7 4188   1.666   1.038  12.143  1.0972  0.7813 -0.2439
  274TMC3    C1 4189   1.146   1.357  11.687  0.4116  0.5635  0.0879
  274TMC3    C2 4190   1.103   1.274  11.584 -1.0491  0.2096 -0.2120
  274TMC3    C3 4191   1.012   1.316  11.496  0.6966 -0.3649 -0.5251
  274TMC3    C4 4192   1.105   1.487  11.699  0.0967 -0.2519 -0.7457
  274TMC3    C5 4193   1.033   1.529  11.593  0.3597 -0.2818 -0.1783
  274TMC3    C6 4194   0.974   1.442  11.501 -0.4965 -0.1312 -0.4677
  274TMC3     C 4195   1.234   1.299  11.788 -0.1705 -0.3162 -0.1597
  274TMC3     O 4196   1.296   1.387  11.840  0.0491  0.5286 -0.1999
  274TMC3     H 4197   1.165   1.190  11.556 -0.8624 -0.6338  2.6699
  274TMC3    H1 4198   1.149   1.561  11.764 -0.4273 -1.2037  0.6904
  274TMC3    H2 4199   0.918   1.483  11.418 -1.5046 -3.0395 -1.2284
  274TMC3    C7 4200   0.995   1.668  11.597 -0.4401 -0.1512 -0.4928
  274TMC3    C8 4201   1.030   1.272  11.362  0.4767  0.4709 -0.1562
  274TMC3    O1 4202   0.939   1.712  11.695 -0.5680  0.2792  0.5227
  274TMC3    O2 4203   1.134   1.322  11.322  0.4088  0.3651 -0.4721
  275MPD2     C 4204   1.505   4.182  14.909  0.4490 -0.3395 -0.9468
  275MPD2    C1 4205   1.517   4.041  14.919 -0.8450 -0.0406 -0.0326
  275MPD2    C2 4206   1.414   3.959  14.888  0.5235 -0.5255  0.0993
  275MPD2    C3 4207   1.291   4.018  14.861  0.0325  0.1704 -0.1438
  275MPD2    C4 4208   1.270   4.157  14.872  0.1460 -0.1395  0.4147
  275MPD2    C5 4209   1.375   4.229  14.902  0.2144  0.5400 -0.2780
  275MPD2     H 4210   1.428   3.851  14.889  0.4253 -0.5370  0.2347
  275MPD2    H1 4211   1.169   4.196  14.867  1.0991  2.4611  1.5880
  275MPD2    H2 4212   1.587   4.250  14.933 -1.1487  1.0997  0.4435
  275MPD2    H3 4213   1.363   4.335  14.925  0.9321  1.0590 -2.2460
  275MPD2     N 4214   1.176   3.941  14.838 -0.6965  0.0102 -0.0771
  275MPD2    H5 4215   1.084   3.983  14.848 -1.1952 -1.2863  0.6815
  275MPD2    N1 4216   1.644   3.985  14.943 -0.5817 -0.3763 -0.3686
  275MPD2    H7 4217   1.650   3.884  14.938 -0.3600 -0.3738 -0.1701
  276TMC3    C1 4218   1.848   3.949  15.037 -0.6519 -0.1866  0.0629
  276TMC3    C2 4219   1.894   3.855  14.943  0.4010 -0.2795 -0.5111
  276TMC3    C3 4220   2.011   3.786  14.964  0.3686 -0.6929 -0.0685
  276TMC3    C4 4221   1.928   3.980  15.146 -0.4569  0.5185 -0.4920
  276TMC3    C5 4222   2.053   3.910  15.160 -0.1883  0.2453 -0.8931
  276TMC3    C6 4223   2.094   3.813  15.073 -0.4060 -0.3684 -0.4416
  276TMC3     C 4224   1.754   4.047  14.989 -0.3238  0.7833  0.1469
  276TMC3     O 4225   1.766   4.163  15.026  0.2618 -0.4703  0.9592
  276TMC3     H 4226   1.848   3.858  14.845  2.1615 -2.1127 -1.3866
  276TMC3    H1 4227   1.892   4.049  15.221  1.3546  1.5922 -0.5969
  276TMC3    H2 4228   2.192   3.767  15.080 -1.0721 -1.7535  0.0047
  276TMC3    C7 4229   2.142   3.958  15.264 -1.0351 -0.5366 -0.6678
  276TMC3    C8 4230   2.053   3.686  14.871  0.5767 -0.6142  0.0295
  276TMC3    O1 4231   2.090   4.029  15.352 -0.0499  0.0318 -0.2976
  276TMC3    O2 4232   2.155   3.629  14.905  0.4225 -0.6815 -0.6476
  277MPD2     C 4233   3.580   3.598  13.698 -0.4742  0.2286  0.6154
  277MPD2    C1 4234   3.461   3.612  13.635 -0.0206 -0.4966 -0.2080
  277MPD2    C2 4235   3.370   3.510  13.633 -0.4394  0.5962  0.1379
  277MPD2    C3 4236   3.384   3.400  13.715 -0.1662  0.1991 -0.1308
  277MPD2    C4 4237   3.498   3.397  13.792  0.5935  0.2520 -0.4383
  277MPD2    C5 4238   3.599   3.493  13.779  0.2432  0.6077  0.1363
  277MPD2     H 4239   3.287   3.519  13.564 -0.4718  0.8369  0.2070
  277MPD2    H1 4240   3.524   3.309  13.850 -3.2018  0.9154  2.2224
  277MPD2    H2 4241   3.660   3.671  13.700 -0.0371 -0.2615  1.1055
  277MPD2    H3 4242   3.697   3.484  13.825  0.1323 -1.3575 -0.0186
  277MPD2     N 4243   3.284   3.302  13.717 -0.2670 -0.3132 -1.0453
  277MPD2    H5 4244   3.204   3.317  13.656  1.1641  0.7599 -2.6672
  277MPD2    N1 4245   3.425   3.731  13.572  0.2758  0.3006  0.0322
  277MPD2    H7 4246   3.330   3.739  13.537  0.1944  0.4588  0.2869
  278TMC3    C1 4247   3.162   3.112  13.789  0.3619  0.0596 -0.4053
  278TMC3    C2 4248   3.174   2.977  13.786  0.4009 -0.4145 -0.1862
  278TMC3    C3 4249   3.062   2.914  13.727  0.0632  0.1243  0.0295
  278TMC3    C4 4250   3.055   3.185  13.736  0.0373  0.5754  0.1702
  278TMC3    C5 4251   2.949   3.108  13.689 -0.4382 -0.7441 -0.3861
  278TMC3    C6 4252   2.953   2.974  13.675 -0.5668 -0.0047  0.0283
  278TMC3     C 4253   3.288   3.184  13.790  0.2883 -0.2665  0.8732
  278TMC3     O 4254   3.381   3.129  13.841 -0.4415 -0.2789 -0.1834
  278TMC3     H 4255   3.252   2.920  13.835 -0.1555 -0.3186  0.8025
  278TMC3    H1 4256   3.053   3.293  13.730 -2.1216  0.5702  0.7829
  278TMC3    H2 4257   2.861   2.927  13.643 -0.6928  0.5936 -0.4784
  278TMC3    C7 4258   2.837   3.182  13.632 -0.3835  0.6074 -0.2208
  278TMC3    C8 4259   3.080   2.769  13.705  0.5135  1.0898 -0.3032
  278TMC3    O1 4260   2.855   3.254  13.535  0.0885  0.0125 -0.2116
  278TMC3    O2 4261   3.182   2.709  13.749  0.0877  0.2602  0.4679
  279MPD2     C 4262   2.892   2.606  17.618  0.1759 -0.4050  0.2704
  279MPD2    C1 4263   2.850   2.718  17.683 -0.6174  0.1479  0.7575
  279MPD2    C2 4264   2.832   2.840  17.611 -0.3285  0.6371  0.2964
  279MPD2    C3 4265   2.838   2.847  17.472  0.2478 -0.3539  0.3372
  279MPD2    C4 4266   2.886   2.733  17.410 -0.0693 -0.9696 -0.8591
  279MPD2    C5 4267   2.911   2.614  17.482 -0.2102 -0.5808 -0.0452
  279MPD2     H 4268   2.792   2.925  17.666  1.3573  1.3528  0.4151
  279MPD2    H1 4269   2.915   2.749  17.307 -2.4616 -1.2251 -1.5847
  279MPD2    H2 4270   2.906   2.516  17.677 -3.5479 -0.6054  0.9064
  279MPD2    H3 4271   2.953   2.533  17.423  0.7590 -1.0156  1.2474
  279MPD2     N 4272   2.799   2.964  17.395 -0.0372  0.3464  0.1117
  279MPD2    H5 4273   2.826   2.960  17.297 -1.1049 -1.8924 -0.0984
  279MPD2    N1 4274   2.817   2.706   0.074  0.1117 -0.3341  0.1214
  279MPD2    H7 4275   2.804   2.610   0.102 -0.2005 -0.5427 -0.7463
  280TMC3    C1 4276   2.689   2.780   0.264  0.0007  0.1651  0.7155
  280TMC3    C2 4277   2.592   2.690   0.216  0.6327 -0.1642  0.2020
  280TMC3    C3 4278   2.458   2.731   0.219 -0.0326  0.1950  0.2531
  280TMC3    C4 4279   2.654   2.895   0.329 -0.2597  0.3025 -0.7866
  280TMC3    C5 4280   2.524   2.941   0.302  0.1284 -0.5659 -0.5461
  280TMC3    C6 4281   2.424   2.858   0.241  0.5184 -0.5928 -0.5712
  280TMC3     C 4282   2.794   2.805   0.167  0.2747  1.0529 -0.1165
  280TMC3     O 4283   2.827   2.921   0.166 -0.5077  0.1176 -0.6200
  280TMC3     H 4284   2.617   2.598   0.165  1.4059  0.5625 -0.7273
  280TMC3    H1 4285   2.728   2.964   0.365 -0.0999  0.2030 -0.9235
  280TMC3    H2 4286   2.322   2.892   0.227  1.6001  0.5450 -5.6054
  280TMC3    C7 4287   2.494   3.074   0.346  0.0683 -0.0955  0.2898
  280TMC3    C8 4288   2.353   2.652   0.159  0.5350 -0.4987 -0.1306
  280TMC3    O1 4289   2.573   3.123   0.425  0.1115 -0.1573  0.5713
  280TMC3    O2 4290   2.267   2.703   0.086 -0.1993 -0.4478 -0.3010
  281TMC3    C1 4291   1.397   3.413  13.383  0.3771  0.5886 -0.1195
  281TMC3    C2 4292   1.461   3.478  13.286 -0.0997 -0.0765  0.8534
  281TMC3    C3 4293   1.460   3.423  13.157  0.5943 -0.2566 -0.1056
  281TMC3    C4 4294   1.331   3.293  13.368  0.1244  0.2519 -0.0266
  281TMC3    C5 4295   1.342   3.240  13.244 -0.2093  0.0588 -0.0225
  281TMC3    C6 4296   1.402   3.300  13.131 -0.3500  0.1396 -0.0406
  281TMC3     C 4297   1.358   3.492  13.505  0.0629 -0.5958  0.3001
  281TMC3     O 4298   1.359   3.423  13.605  0.1797  0.2480 -0.2438
  281TMC3     H 4299   1.521   3.562  13.317  0.4680 -0.3903  0.6117
  281TMC3    H1 4300   1.292   3.242  13.455  0.6075 -1.8344 -1.0499
  281TMC3    H2 4301   1.406   3.256  13.033 -1.0430 -3.1201  1.4143
  281TMC3    C7 4302   1.269   3.117  13.226  0.1908  0.6285  0.2456
  281TMC3    C8 4303   1.560   3.468  13.061  0.5823 -0.0877 -0.0171
  281TMC3    O1 4304   1.288   3.051  13.124 -0.1370  0.3258 -0.5237
  281TMC3    O2 4305   1.601   3.381  12.987  0.6151 -0.6920  0.1625
  282MPD2     C 4306   3.275   4.551  15.204  0.5436 -0.9034  1.1490
  282MPD2    C1 4307   3.148   4.570  15.250  0.1257 -0.3672 -0.0533
  282MPD2    C2 4308   3.045   4.550  15.167 -0.1741 -1.2581 -0.1244
  282MPD2    C3 4309   3.064   4.510  15.037  0.1495 -0.1681  0.1746
  282MPD2    C4 4310   3.194   4.502  14.993  0.6960 -0.2239  0.2370
  282MPD2    C5 4311   3.302   4.516  15.079  0.0995 -0.7556 -0.0837
  282MPD2     H 4312   2.942   4.557  15.200 -0.0228 -4.1768  0.9796
  282MPD2    H1 4313   3.224   4.475  14.893 -0.8841 -0.2114 -0.2267
  282MPD2    H2 4314   3.365   4.559  15.263  0.1758 -1.5231  1.8001
  282MPD2    H3 4315   3.406   4.496  15.056  1.0139  4.1651 -0.2185
  282MPD2     N 4316   2.951   4.500  14.957 -0.0407  0.0154 -0.0816
  282MPD2    H5 4317   2.861   4.530  14.993 -0.1118 -1.5029  1.0136
  282MPD2    N1 4318   3.114   4.583  15.388 -0.0247  0.5008  0.0121
  282MPD2    H7 4319   3.016   4.586  15.412  0.0945  1.3987  0.4115
  283TMC3    C1 4320   3.139   4.646  15.616  0.4169  0.4354  0.4762
  283TMC3    C2 4321   3.145   0.041  15.655 -0.1659  0.3735 -0.0144
  283TMC3    C3 4322   3.069   0.079  15.757  0.5977 -0.4520  0.3371
  283TMC3    C4 4323   3.042   4.565  15.665  0.0950  0.0790  0.6802
  283TMC3    C5 4324   2.978   4.604  15.782  0.9001  0.7772  0.5975
  283TMC3    C6 4325   2.983   0.004  15.823 -0.0889  0.7958 -0.0528
  283TMC3     C 4326   3.203   4.601  15.490 -0.0990 -0.3576  0.0277
  283TMC3     O 4327   3.321   4.628  15.470 -0.4344  0.4425  0.3783
  283TMC3     H 4328   3.219   0.109  15.613 -0.5212 -0.4233 -1.9257
  283TMC3    H1 4329   3.061   4.463  15.634  0.6571  0.8573 -1.5833
  283TMC3    H2 4330   2.918   0.046  15.899  0.0162 -0.1016  0.5369
  283TMC3    C7 4331   2.876   4.526  15.849  0.5193  0.3369  0.0469
  283TMC3    C8 4332   3.054   0.218  15.794  0.4498  0.4704 -0.7510
  283TMC3    O1 4333   2.848   4.574  15.957  0.6414 -0.4346  0.4387
  283TMC3    O2 4334   3.069   0.299  15.699  0.1140 -0.3631 -0.2634
  284MPD2     C 4335   1.386   4.103  12.364 -0.5071  0.1133 -0.1311
  284MPD2    C1 4336   1.505   4.117  12.291  0.4721 -0.1151 -0.1679
  284MPD2    C2 4337   1.515   4.057  12.171 -0.4604 -0.5926  0.5319
  284MPD2    C3 4338   1.415   3.979  12.116 -0.0515  0.1978  0.3241
  284MPD2    C4 4339   1.297   3.962  12.193 -0.5499  0.6721 -0.6523
  284MPD2    C5 4340   1.281   4.028  12.312  0.4684 -0.3379  0.3099
  284MPD2     H 4341   1.610   4.070  12.122 -0.4973 -1.5062  0.2013
  284MPD2    H1 4342   1.215   3.901  12.157 -0.5824  1.4957 -1.9758
  284MPD2    H2 4343   1.364   4.150  12.459  1.0692 -0.7086  0.6304
  284MPD2    H3 4344   1.189   4.010  12.367  0.8593  2.5081  1.9028
  284MPD2     N 4345   1.433   3.912  11.990 -0.0523  0.5675  0.6698
  284MPD2    H5 4346   1.521   3.943  11.949  0.3836  0.4156  1.4878
  284MPD2    N1 4347   1.611   4.208  12.323 -0.3682  0.0231  0.0993
  284MPD2    H7 4348   1.689   4.225  12.261  0.5555 -0.6580  1.0699
  285TMC3    C1 4349   1.734   4.342  12.471  0.4959 -0.0086 -0.4588
  285TMC3    C2 4350   1.828   4.312  12.377 -0.9606 -0.1755  0.3832
  285TMC3    C3 4351   1.870   4.413  12.297  0.0135 -0.1905  0.3541
  285TMC3    C4 4352   1.699   4.474  12.500  0.2405 -0.7619  0.1065
  285TMC3    C5 4353   1.757   4.572  12.422 -0.7216 -0.0607  0.2100
  285TMC3    C6 4354   1.837   4.536  12.318 -0.5996  0.3920 -0.4506
  285TMC3     C 4355   1.614   4.270  12.447 -0.3401  0.4900 -0.4322
  285TMC3     O 4356   1.519   4.281  12.524 -0.8334  0.0481 -0.2375
  285TMC3     H 4357   1.851   4.210  12.351  1.3580  0.5970 -0.5947
  285TMC3    H1 4358   1.623   4.505  12.570  1.8310  2.8959  0.1949
  285TMC3    H2 4359   1.865   4.621  12.257  1.7387  0.2676  0.4360
  285TMC3    C7 4360   1.697   4.710  12.415 -0.1456 -0.3842  0.1454
  285TMC3    C8 4361   1.877   4.379  12.163  0.7044 -0.1779  0.1137
  285TMC3    O1 4362   1.770   0.060  12.376 -0.1230  0.0461  0.3131
  285TMC3    O2 4363   1.808   4.285  12.126 -0.3844 -0.0077 -0.2019
  286MPD2     C 4364   2.042   2.669   1.491  0.0841 -0.8049 -0.3570
  286MPD2    C1 4365   2.036   2.627   1.357 -0.5480  0.5219  0.0696
  286MPD2    C2 4366   2.145   2.567   1.298  0.1180 -0.0036 -0.6327
  286MPD2    C3 4367   2.272   2.553   1.367 -0.0325  0.4117  0.4805
  286MPD2    C4 4368   2.277   2.610   1.492 -0.2169 -0.2316  0.3556
  286MPD2    C5 4369   2.167   2.663   1.550 -0.2001  0.6472  0.1112
  286MPD2     H 4370   2.120   2.522   1.203 -0.9172 -1.9436  0.5640
  286MPD2    H1 4371   2.373   2.613   1.543  0.1611  1.1718 -0.4517
  286MPD2    H2 4372   1.959   2.711   1.547 -1.4587 -1.2792 -2.3387
  286MPD2    H3 4373   2.171   2.714   1.646  0.9510 -0.4051  0.6241
  286MPD2     N 4374   2.391   2.491   1.315 -0.1096  0.1490  0.1454
  286MPD2    H5 4375   2.482   2.510   1.357  0.3565  0.5184 -1.0338
  286MPD2    N1 4376   1.924   2.638   1.280  0.5500 -0.2507 -0.0109
  286MPD2    H7 4377   1.936   2.637   1.179 -0.4266  0.5281 -0.1370
  287TMC3    C1 4378   2.514   2.357   1.158 -0.0789  0.0665 -0.0237
  287TMC3    C2 4379   2.500   2.250   1.078 -0.0927 -0.2980  0.8019
  287TMC3    C3 4380   2.608   2.169   1.050  0.3393  1.4104 -0.3045
  287TMC3    C4 4381   2.636   2.389   1.215 -0.1116  0.5427 -0.6482
  287TMC3    C5 4382   2.747   2.308   1.184  0.1365  0.0700  0.2640
  287TMC3    C6 4383   2.731   2.204   1.098 -0.1061 -0.0950  0.0129
  287TMC3     C 4384   2.393   2.429   1.191  0.0205  0.1138  0.3598
  287TMC3     O 4385   2.299   2.405   1.123  0.2063 -0.7570 -0.2924
  287TMC3     H 4386   2.402   2.228   1.039  0.5431  2.5675 -2.4441
  287TMC3    H1 4387   2.650   2.486   1.261 -1.5113  0.7040 -0.5452
  287TMC3    H2 4388   2.810   2.129   1.089  0.7723  0.7404  0.7404
  287TMC3    C7 4389   2.868   2.344   1.250 -0.0985  0.3516  0.0389
  287TMC3    C8 4390   2.595   2.098   0.920  0.4896  0.2573  0.4431
  287TMC3    O1 4391   2.860   2.429   1.337 -0.1383 -0.2781 -0.3487
  287TMC3    O2 4392   2.480   2.069   0.889  0.6717  0.7515  0.5708
  288TMC3    C1 4393   3.800   2.204  13.839  0.0736 -0.5266  0.2947
  288TMC3    C2 4394   3.805   2.245  13.969  0.2550 -0.1606  0.3013
  288TMC3    C3 4395   3.765   2.369  14.000 -0.0349 -0.0220  0.4060
  288TMC3    C4 4396   3.777   2.296  13.739 -0.4244  0.0884 -0.6922
  288TMC3    C5 4397   3.755   2.427  13.772  0.1226 -0.9476  0.0212
  288TMC3    C6 4398   3.754   2.466  13.898  0.5150 -0.5658  0.5080
  288TMC3     C 4399   3.829   2.065  13.791  0.4119  0.1233 -0.7859
  288TMC3     O 4400   3.819   1.977  13.877 -0.4402 -0.5462  0.2562
  288TMC3     H 4401   3.827   2.176  14.049  0.2924 -0.0953  0.3469
  288TMC3    H1 4402   3.771   2.266  13.635  0.2207 -0.6396 -0.5230
  288TMC3    H2 4403   3.735   2.570  13.921  0.3867 -0.8184  1.5747
  288TMC3    C7 4404   3.720   2.532  13.674  0.3332  0.7307 -0.1369
  288TMC3    C8 4405   3.780   2.412  14.138  0.2806  0.0370  0.3262
  288TMC3    O1 4406   3.667   2.633  13.721  0.2036 -0.2611  0.4751
  288TMC3    O2 4407   3.824   2.525  14.153 -0.0498  0.1040 -0.5793
  289MPD2     C 4408   3.468   1.442  14.975  0.3285  0.2031 -0.0903
  289MPD2    C1 4409   3.487   1.565  14.917  0.1457 -0.0801 -0.3053
  289MPD2    C2 4410   3.422   1.597  14.802 -0.6054  0.5873 -0.0247
  289MPD2    C3 4411   3.344   1.497  14.740 -0.4087  0.4764  0.2841
  289MPD2    C4 4412   3.322   1.374  14.800  0.6733 -0.0478 -0.9989
  289MPD2    C5 4413   3.381   1.349  14.917  0.2374  0.5024 -0.1648
  289MPD2     H 4414   3.432   1.692  14.752  2.1864 -0.3380 -1.2406
  289MPD2    H1 4415   3.292   1.284  14.747 -1.2709 -0.5378  0.9195
  289MPD2    H2 4416   3.522   1.412  15.064  0.5044 -2.3561 -1.0507
  289MPD2    H3 4417   3.363   1.248  14.954  0.8290  1.2716  2.2658
  289MPD2     N 4418   3.283   1.513  14.617  0.0623 -0.4988 -0.8344
  289MPD2    H5 4419   3.228   1.432  14.588 -1.3037  0.0950  0.0710
  289MPD2    N1 4420   3.567   1.664  14.985  0.1867  0.1887 -0.3973
  289MPD2    H7 4421   3.605   1.639  15.076  0.4217  0.2185 -0.4856
  290TMC3    C1 4422   3.189   1.601  14.420  0.8359 -0.5851 -0.3754
  290TMC3    C2 4423   3.206   1.697  14.326  0.0332  0.9982 -0.1337
  290TMC3    C3 4424   3.132   1.685  14.213  0.6943  0.3827 -0.1177
  290TMC3    C4 4425   3.110   1.492  14.410  0.4021  0.0461 -0.4011
  290TMC3    C5 4426   3.034   1.489  14.294  0.2394 -0.4632  0.2501
  290TMC3    C6 4427   3.050   1.577  14.192  0.1445 -0.1497  0.3474
  290TMC3     C 4428   3.282   1.617  14.532  0.1915  0.9676 -0.0805
  290TMC3     O 4429   3.345   1.722  14.542 -0.7969  0.4408  0.5863
  290TMC3     H 4430   3.289   1.766  14.335  0.2759  0.7779 -0.6568
  290TMC3    H1 4431   3.088   1.424  14.492 -0.2691  0.9953  0.2126
  290TMC3    H2 4432   2.992   1.576  14.101  1.4015  0.5372 -0.4661
  290TMC3    C7 4433   2.908   1.426  14.303  0.0050  0.5170 -0.1012
  290TMC3    C8 4434   3.133   1.786  14.108 -0.2909 -0.1141  0.3165
  290TMC3    O1 4435   2.826   1.460  14.219  0.2931 -0.0026  0.0089
  290TMC3    O2 4436   3.091   1.758  13.994  0.1801 -0.2145 -0.3784
  291MPD2     C 4437   3.181   1.337   0.596  1.3967 -0.3917  0.0122
  291MPD2    C1 4438   3.073   1.279   0.522  0.7327 -0.1343  0.2098
  291MPD2    C2 4439   3.063   1.291   0.384 -0.0010 -0.2778 -0.5674
  291MPD2    C3 4440   3.159   1.367   0.322 -0.2487 -0.3058 -0.6374
  291MPD2    C4 4441   3.263   1.426   0.389  0.0886 -0.2853  0.4957
  291MPD2    C5 4442   3.283   1.400   0.522  0.6429  0.8813 -0.1870
  291MPD2     H 4443   2.980   1.240   0.338 -0.2682  1.6758 -2.1950
  291MPD2    H1 4444   3.331   1.497   0.342 -1.2846  0.4225 -0.4159
  291MPD2    H2 4445   3.188   1.333   0.704  0.4565  2.3247  0.1899
  291MPD2    H3 4446   3.363   1.447   0.577 -0.4413  0.5983  1.6116
  291MPD2     N 4447   3.158   1.393   0.184  0.4381  0.5880  0.3597
  291MPD2    H5 4448   3.215   1.471   0.151  0.4963  0.0465 -0.7923
  291MPD2    N1 4449   2.965   1.219   0.585  0.3206  0.4148  0.8402
  291MPD2    H7 4450   2.884   1.196   0.529  0.5772  0.1092  0.6039
  292TMC3    C1 4451   2.838   1.129   0.756 -0.0945  0.0111 -0.4925
  292TMC3    C2 4452   2.739   1.197   0.696  0.5299 -0.4435  0.5666
  292TMC3    C3 4453   2.613   1.142   0.697  0.2911 -0.8762  0.1132
  292TMC3    C4 4454   2.821   1.007   0.821  0.3059 -0.3794  0.0993
  292TMC3    C5 4455   2.695   0.953   0.812  0.3675 -1.2393  0.1954
  292TMC3    C6 4456   2.594   1.018   0.745 -0.3046  0.5445 -0.4926
  292TMC3     C 4457   2.972   1.170   0.716  0.1793  0.1222 -0.5388
  292TMC3     O 4458   3.065   1.125   0.782  0.2872 -0.5694 -0.5877
  292TMC3     H 4459   2.745   1.301   0.663 -1.4867 -0.8226 -1.0619
  292TMC3    H1 4460   2.913   0.953   0.837 -0.7133 -2.0075  0.4359
  292TMC3    H2 4461   2.489   0.994   0.755 -0.2257 -0.0159 -1.0061
  292TMC3    C7 4462   2.694   0.811   0.776 -0.0632  0.4799 -0.4420
  292TMC3    C8 4463   2.526   1.180   0.593 -0.5878  1.1075  0.0760
  292TMC3    O1 4464   2.641   0.781   0.668 -0.2118  0.3857  0.0860
  292TMC3    O2 4465   2.519   1.300   0.566  0.0353  0.3478  0.6190
  293MPD2     C 4466   4.313   3.332  12.820  0.7142 -0.4056  1.1176
  293MPD2    C1 4467   4.230   3.408  12.897  0.4226  0.0053 -0.9633
  293MPD2    C2 4468   4.272   3.420  13.027 -0.5897  0.8088  0.2380
  293MPD2    C3 4469   4.389   3.366  13.082  0.1171  0.2418  0.7000
  293MPD2    C4 4470   4.473   3.302  12.993  0.1221  1.0864  0.0865
  293MPD2    C5 4471   4.428   3.277  12.866  0.0941  0.6199  0.0588
  293MPD2     H 4472   4.213   3.479  13.096  0.2304  0.5069  1.1991
  293MPD2    H1 4473   4.574   3.268  13.014  0.0879 -0.2724 -1.9658
  293MPD2    H2 4474   4.290   3.324  12.714  0.8302  0.5953  1.0215
  293MPD2    H3 4475   4.492   3.219  12.801 -0.2201  0.7536 -0.3705
  293MPD2     N 4476   4.406   3.364  13.221 -0.9550 -0.2469  0.4044
  293MPD2    H5 4477   4.334   3.411  13.274  0.3220 -0.5955  2.4372
  293MPD2    N1 4478   4.121   3.473  12.838  0.2690 -0.2815 -0.2650
  293MPD2    H7 4479   4.093   3.445  12.744  1.2818  1.9956 -1.2398
  294TMC3    C1 4480   3.909   3.565  12.821  0.6616 -0.6097  0.1028
  294TMC3    C2 4481   3.781   3.585  12.876  0.4799 -0.4302  0.7031
  294TMC3    C3 4482   3.677   3.632  12.804  0.2931  0.1664 -0.4713
  294TMC3    C4 4483   3.932   3.596  12.694 -0.4331 -0.1364 -0.4514
  294TMC3    C5 4484   3.822   3.648  12.620  0.1200 -0.4348  0.2803
  294TMC3    C6 4485   3.702   3.656  12.669 -1.3188  0.0507  0.0643
  294TMC3     C 4486   4.018   3.537  12.910 -0.2930  0.6118  0.2170
  294TMC3     O 4487   4.015   3.570  13.027  0.0918  0.3766 -0.6194
  294TMC3     H 4488   3.756   3.558  12.978  0.2121  1.2296  1.0838
  294TMC3    H1 4489   4.031   3.590  12.651 -0.0114 -3.0535  0.8808
  294TMC3    H2 4490   3.627   3.681  12.594 -1.9541 -0.1566  0.6268
  294TMC3    C7 4491   3.861   3.689  12.482 -0.3158  0.2688  0.2695
  294TMC3    C8 4492   3.565   3.541  12.818 -0.0641 -0.4663  0.3553
  294TMC3    O1 4493   3.956   3.634  12.430 -0.1745  0.2110  0.3766
  294TMC3    O2 4494   3.504   3.561  12.920  0.4110  0.4795  0.8157
  295MPD2     C 4495   0.651   1.889   0.205 -0.3124  0.1290  0.0793
  295MPD2    C1 4496   0.594   1.805   0.299  0.0994  0.5378 -0.8687
  295MPD2    C2 4497   0.674   1.707   0.347  0.0692  0.5168 -0.5852
  295MPD2    C3 4498   0.811   1.702   0.320 -0.1708 -0.3974  0.9089
  295MPD2    C4 4499   0.867   1.798   0.237  0.5898 -0.0958  0.3846
  295MPD2    C5 4500   0.784   1.887   0.172  0.1236 -0.1857  0.2442
  295MPD2     H 4501   0.630   1.629   0.407  1.1965  0.4174  0.1193
  295MPD2    H1 4502   0.967   1.781   0.200  0.1811 -1.2939 -0.2110
  295MPD2    H2 4503   0.599   1.967   0.151 -2.0801 -0.2396  1.2870
  295MPD2    H3 4504   0.832   1.961   0.108 -0.3059  1.3227  1.6726
  295MPD2     N 4505   0.899   1.603   0.368  0.2308 -0.8523  0.3565
  295MPD2    H5 4506   0.997   1.606   0.340  0.6781 -1.1274  1.8446
  295MPD2    N1 4507   0.455   1.804   0.323  0.8575 -0.5625  0.0569
  295MPD2    H7 4508   0.400   1.723   0.351  2.0975 -1.5090 -0.2653
  296TMC3    C1 4509   0.965   1.415   0.501  0.3949 -0.0033 -0.4702
  296TMC3    C2 4510   1.074   1.402   0.425 -0.0785 -0.1031  0.5101
  296TMC3    C3 4511   1.168   1.314   0.466  0.3163 -0.1935  0.5827
  296TMC3    C4 4512   0.942   1.325   0.604  0.2790  0.0652  0.5273
  296TMC3    C5 4513   1.037   1.235   0.635  0.5542  0.0158 -0.1746
  296TMC3    C6 4514   1.156   1.227   0.565 -0.7073 -0.1847 -0.9695
  296TMC3     C 4515   0.864   1.509   0.466 -0.2945 -0.2223 -0.7827
  296TMC3     O 4516   0.768   1.500   0.536  0.2267  0.3244  0.2636
  296TMC3     H 4517   1.095   1.465   0.340 -1.9710  2.6940  2.1019
  296TMC3    H1 4518   0.854   1.343   0.664  0.2094  1.1630  0.0953
  296TMC3    H2 4519   1.232   1.154   0.592 -0.8037  0.4541  1.0068
  296TMC3    C7 4520   1.034   1.152   0.756  0.1911 -0.7515  0.2680
  296TMC3    C8 4521   1.288   1.328   0.389  0.2622  0.2991  0.3280
  296TMC3    O1 4522   1.137   1.101   0.800 -0.4275  0.7260 -0.3216
  296TMC3    O2 4523   1.286   1.355   0.271 -0.3046 -0.4128 -0.0570
  297MPD2     C 4524   2.214   3.437  16.587  0.1690  0.1719 -0.4151
  297MPD2    C1 4525   2.215   3.503  16.464 -0.6388 -0.5552 -0.0567
  297MPD2    C2 4526   2.300   3.619  16.455 -0.1188  0.1716 -0.1027
  297MPD2    C3 4527   2.377   3.661  16.559 -0.0021  0.8634 -0.8558
  297MPD2    C4 4528   2.367   3.606  16.685  0.1546  0.0900  0.6836
  297MPD2    C5 4529   2.284   3.493  16.689 -0.4115  0.5038  0.7068
  297MPD2     H 4530   2.312   3.671  16.360 -1.7943 -3.5013 -2.3716
  297MPD2    H1 4531   2.401   3.652  16.777  0.5536 -1.0579  1.1138
  297MPD2    H2 4532   2.161   3.343  16.604  0.0811  0.1840 -0.6200
  297MPD2    H3 4533   2.276   3.467  16.794  0.2940  0.5439  0.7689
  297MPD2     N 4534   2.441   3.784  16.541 -0.3569 -0.0543 -0.0464
  297MPD2    H5 4535   2.438   3.829  16.450  0.8823  2.5369  1.1812
  297MPD2    N1 4536   2.137   3.459  16.357  0.1439  0.1537 -0.0553
  297MPD2    H7 4537   2.134   3.528  16.283  1.9982  0.0362 -0.2341
  298TMC3    C1 4538   1.935   3.385  16.263  0.7987 -0.2916  0.4075
  298TMC3    C2 4539   1.962   3.392  16.130 -0.2419 -0.3416  0.1201
  298TMC3    C3 4540   1.858   3.447  16.051  0.8746  0.3031  0.4085
  298TMC3    C4 4541   1.835   3.447  16.331  0.1330  0.6201  0.2974
  298TMC3    C5 4542   1.761   3.523  16.245 -0.8671 -0.0936 -0.5569
  298TMC3    C6 4543   1.764   3.525  16.107 -0.0255  0.7564 -0.1205
  298TMC3     C 4544   2.047   3.358  16.360 -0.5308 -0.4557  0.1412
  298TMC3     O 4545   2.036   3.261  16.436 -0.2110 -0.0517  1.3819
  298TMC3     H 4546   2.048   3.346  16.084  1.1357  1.3107  1.0826
  298TMC3    H1 4547   1.818   3.447  16.438 -1.3589  2.4539  0.0615
  298TMC3    H2 4548   1.690   3.577  16.048 -0.2287 -1.4819 -1.8276
  298TMC3    C7 4549   1.716   3.642  16.313  0.2541  0.6174 -0.2931
  298TMC3    C8 4550   1.866   3.455  15.903 -0.9525  0.0233 -0.6082
  298TMC3    O1 4551   1.719   3.634  16.432 -0.2605 -0.6586 -0.1231
  298TMC3    O2 4552   1.762   3.485  15.845 -0.6332  0.4438 -0.4568
  299MPD2     C 4553   2.945   4.066  10.652  0.1442  0.6301  0.2510
  299MPD2    C1 4554   2.866   3.995  10.740  0.2410 -0.1098 -0.5037
  299MPD2    C2 4555   2.740   3.954  10.704  0.0305 -0.3858  0.7097
  299MPD2    C3 4556   2.691   3.973  10.576 -0.3451  0.0210  0.0277
  299MPD2    C4 4557   2.780   4.015  10.486 -0.2738  0.3470 -0.1845
  299MPD2    C5 4558   2.906   4.057  10.521  0.2333 -0.0362  0.3075
  299MPD2     H 4559   2.676   3.903  10.775 -0.5533 -1.2433 -0.4402
  299MPD2    H1 4560   2.743   4.030  10.386  0.5696  0.0114 -0.5473
  299MPD2    H2 4561   3.040   4.111  10.678 -0.0856  2.5085 -2.0862
  299MPD2    H3 4562   2.969   4.098  10.443  1.0988 -0.5143  0.7446
  299MPD2     N 4563   2.555   3.934  10.550 -0.1714  0.3483  0.1349
  299MPD2    H5 4564   2.539   3.921  10.451  1.5337  1.7932 -0.3455
  299MPD2    N1 4565   2.926   3.959  10.866  0.3428  0.0129 -0.2322
  299MPD2    H7 4566   3.003   4.019  10.896  1.7980 -0.3795 -3.1284
  300TMC3    C1 4567   2.324   3.894  10.586 -0.3056  0.8888  0.5551
  300TMC3    C2 4568   2.315   3.868  10.450 -0.8808 -0.2913 -0.1332
  300TMC3    C3 4569   2.193   3.864  10.395  0.1615 -0.7492 -0.3404
  300TMC3    C4 4570   2.217   3.892  10.670  0.4041  0.1840 -0.3219
  300TMC3    C5 4571   2.089   3.884  10.609 -0.2633  0.3110 -0.2203
  300TMC3    C6 4572   2.078   3.868  10.474 -0.1403  0.1221 -0.4078
  300TMC3     C 4573   2.456   3.917  10.638 -0.0750 -0.2140  0.0432
  300TMC3     O 4574   2.469   3.950  10.756  0.4049  0.0822 -0.4003
  300TMC3     H 4575   2.393   3.879  10.376  0.2326 -0.5480  0.9925
  300TMC3    H1 4576   2.223   3.886  10.778  0.1489 -1.7028 -0.4223
  300TMC3    H2 4577   1.979   3.860  10.431  0.4093  1.3239 -1.8715
  300TMC3    C7 4578   1.972   3.849  10.686  0.0912 -0.5771 -0.0742
  300TMC3    C8 4579   2.181   3.876  10.249 -0.2612  0.5220 -0.3871
  300TMC3    O1 4580   1.884   3.781  10.629  0.1255  0.4991 -0.3115
  300TMC3    O2 4581   2.226   3.784  10.181  0.3695 -0.2488  0.4609
  301MPD2     C 4582   0.462   0.090   1.215 -0.7716  0.1815  0.3201
  301MPD2    C1 4583   0.340   0.035   1.239  0.4424 -0.0133 -0.5102
  301MPD2    C2 4584   0.318   4.634   1.238 -0.3413 -0.2313  0.3327
  301MPD2    C3 4585   0.424   4.551   1.212  0.1848  0.0796 -0.3186
  301MPD2    C4 4586   0.554   4.607   1.199  0.3376  0.3758  0.0174
  301MPD2    C5 4587   0.571   0.008   1.196 -0.2061  0.1836 -0.5210
  301MPD2     H 4588   0.220   4.593   1.258 -0.2742 -0.9923 -0.8977
  301MPD2    H1 4589   0.642   4.544   1.187  0.4346  0.5141  0.0019
  301MPD2    H2 4590   0.490   0.195   1.214  1.2842 -0.3729  1.0546
  301MPD2    H3 4591   0.672   0.046   1.187  0.5093 -1.4314  0.6507
  301MPD2     N 4592   0.410   4.411   1.191  0.1179  0.1298 -0.4692
  301MPD2    H5 4593   0.498   4.365   1.170  1.0511  0.2506  3.1944
  301MPD2    N1 4594   0.222   0.110   1.239  0.6917 -0.3752  0.3923
  301MPD2    H7 4595   0.142   0.050   1.259  0.9085  0.0478  2.6168
  302TMC3    C1 4596   0.299   4.209   1.143 -0.6849 -0.4190 -0.7778
  302TMC3    C2 4597   0.407   4.126   1.184  0.9742 -0.1292  0.0262
  302TMC3    C3 4598   0.397   4.006   1.109  0.2669 -0.6813  0.2056
  302TMC3    C4 4599   0.202   4.180   1.054  0.6781 -0.6839 -0.6749
  302TMC3    C5 4600   0.205   4.059   0.982  0.3758 -0.2397 -0.2124
  302TMC3    C6 4601   0.307   3.977   1.009 -0.3417 -0.3639  0.0857
  302TMC3     C 4602   0.293   4.346   1.184 -0.0151  0.2211  0.7618
  302TMC3     O 4603   0.181   4.388   1.206 -0.5582 -0.0053 -0.3786
  302TMC3     H 4604   0.479   4.151   1.261  2.2728  0.5855 -1.4119
  302TMC3    H1 4605   0.131   4.257   1.027 -0.5471 -0.8484  2.1035
  302TMC3    H2 4606   0.312   3.884   0.953  1.6433  0.7944 -1.6854
  302TMC3    C7 4607   0.114   4.032   0.871  0.1558  0.0943 -0.3570
  302TMC3    C8 4608   0.474   3.896   1.174  0.8561  0.3847  0.7685
  302TMC3    O1 4609   0.139   3.929   0.816  0.2582 -0.2761  0.3729
  302TMC3    O2 4610   0.580   3.918   1.229  0.4092 -0.4312  0.1915
  303MPD2     C 4611   0.516   3.235  10.631 -0.1786 -0.1151  0.1053
  303MPD2    C1 4612   0.401   3.166  10.648 -0.3118 -0.3706  0.0178
  303MPD2    C2 4613   0.299   3.175  10.551 -0.1842 -0.6913  0.5486
  303MPD2    C3 4614   0.308   3.275  10.452  0.2943  0.4462  0.3972
  303MPD2    C4 4615   0.429   3.339  10.434 -0.6905  0.4122  0.7176
  303MPD2    C5 4616   0.533   3.319  10.519 -0.5213  0.0865  0.2170
  303MPD2     H 4617   0.209   3.115  10.562  0.4696 -1.6728  0.5912
  303MPD2    H1 4618   0.442   3.415  10.358  2.0789 -0.0502  0.7281
  303MPD2    H2 4619   0.592   3.236  10.708  0.2692 -2.1569 -0.2904
  303MPD2    H3 4620   0.619   3.384  10.520 -0.1976 -0.3353 -0.0447
  303MPD2     N 4621   0.199   3.312  10.366 -0.1568 -0.4664  0.3549
  303MPD2    H5 4622   0.223   3.389  10.304 -0.3891 -1.6642 -1.2316
  303MPD2    N1 4623   0.389   3.101  10.771  0.4432 -0.0806 -0.4383
  303MPD2    H7 4624   0.461   3.104  10.842 -1.6332  0.1951  1.6894
  304TMC3    C1 4625   0.304   2.978  10.944  0.0491  0.5665 -0.6802
  304TMC3    C2 4626   0.300   3.071  11.043 -0.2888  0.1565  0.0073
  304TMC3    C3 4627   0.240   3.048  11.166 -0.0091  0.1597  0.1426
  304TMC3    C4 4628   0.249   2.854  10.966  0.4474  0.4101 -0.8189
  304TMC3    C5 4629   0.184   2.828  11.083  0.5364  0.5867  0.0245
  304TMC3    C6 4630   0.176   2.927  11.181  0.1860 -0.1937  0.1135
  304TMC3     C 4631   0.292   3.022  10.808 -0.5080 -0.4585 -0.7068
  304TMC3     O 4632   0.199   2.979  10.743  0.4498 -0.1169 -0.2115
  304TMC3     H 4633   0.319   3.175  11.020 -1.1077 -0.0738 -1.7648
  304TMC3    H1 4634   0.253   2.788  10.880  1.5215  3.1262 -2.8663
  304TMC3    H2 4635   0.131   2.894  11.274 -0.7649  1.4948  0.2559
  304TMC3    C7 4636   0.059   2.763  11.080  0.5908  0.3983 -0.4944
  304TMC3    C8 4637   0.142   3.155  11.179 -0.1183  0.0505  0.0436
  304TMC3    O1 4638   4.706   2.828  11.129  0.6865 -0.3629 -0.7496
  304TMC3    O2 4639   0.175   3.270  11.191  0.1239  0.0301 -0.1117
  305MPD2     C 4640   3.209   0.412  14.421 -0.2197 -0.3618 -0.4286
  305MPD2    C1 4641   3.240   0.285  14.460  0.7112  0.0442 -0.3076
  305MPD2    C2 4642   3.207   0.182  14.375 -0.0634 -0.1015 -0.8457
  305MPD2    C3 4643   3.143   0.204  14.249  0.1663  0.0245  0.0079
  305MPD2    C4 4644   3.131   0.335  14.204  0.2022 -0.7173 -0.1492
  305MPD2    C5 4645   3.158   0.438  14.291  0.4373  0.0626  0.2133
  305MPD2     H 4646   3.242   0.081  14.394 -0.4073 -0.3926 -1.7583
  305MPD2    H1 4647   3.109   0.350  14.099 -0.8717 -0.8648  0.0519
  305MPD2    H2 4648   3.242   0.500  14.475  2.6671 -2.3307  1.0196
  305MPD2    H3 4649   3.152   0.540  14.257  0.3439 -0.4276 -1.2472
  305MPD2     N 4650   3.116   0.102  14.163  0.6381  0.6639  0.0339
  305MPD2    H5 4651   3.097   0.128  14.067  0.0083 -0.8643 -0.2611
  305MPD2    N1 4652   3.293   0.268  14.589  0.1884  0.0765 -0.2919
  305MPD2    H7 4653   3.322   0.356  14.630 -0.1990 -1.1664  2.6392
  306TMC3    C1 4654   3.388   0.164  14.777 -0.4164 -0.2428  0.1016
  306TMC3    C2 4655   3.469   0.067  14.819 -0.1085  0.0866 -0.8795
  306TMC3    C3 4656   3.536   0.090  14.937  0.2602 -0.1345 -0.1824
  306TMC3    C4 4657   3.376   0.283  14.849 -0.3598  0.6293  0.0888
  306TMC3    C5 4658   3.441   0.296  14.968  0.1213  0.4342 -0.4552
  306TMC3    C6 4659   3.517   0.195  15.019 -0.7266  0.0066  0.6299
  306TMC3     C 4660   3.317   0.147  14.655  0.6445  0.3101 -0.8657
  306TMC3     O 4661   3.304   0.036  14.618  0.4755  0.6484  0.0902
  306TMC3     H 4662   3.476   4.707  14.768  1.2939 -0.1663 -0.1985
  306TMC3    H1 4663   3.306   0.365  14.836 -0.6599  0.2836 -0.4982
  306TMC3    H2 4664   3.566   0.206  15.115 -2.8618  0.6007  1.6559
  306TMC3    C7 4665   3.370   0.392  15.055  0.1207 -0.1748 -0.1090
  306TMC3    C8 4666   3.617   4.710  14.984 -0.1449  0.0109  0.1167
  306TMC3    O1 4667   3.248   0.410  15.042  0.0856 -0.1077  0.5180
  306TMC3    O2 4668   3.653   4.627  14.895 -0.1219  0.2457  0.0650
  307MPD2     C 4669   1.317   2.838   0.354 -0.3927  0.7140 -0.2257
  307MPD2    C1 4670   1.328   2.976   0.334  0.0258  0.0260  0.5330
  307MPD2    C2 4671   1.297   3.063   0.434 -1.3091 -0.2164 -0.0998
  307MPD2    C3 4672   1.268   3.016   0.560  0.0916 -0.2299  0.2153
  307MPD2    C4 4673   1.269   2.885   0.587 -0.4137  0.0894  0.2889
  307MPD2    C5 4674   1.295   2.794   0.483 -0.1282  0.2660  0.7906
  307MPD2     H 4675   1.305   3.166   0.402 -1.1781  0.0837  0.9155
  307MPD2    H1 4676   1.261   2.850   0.689 -0.1917  1.0338  0.6259
  307MPD2    H2 4677   1.311   2.770   0.270 -2.3830  3.0864 -2.0048
  307MPD2    H3 4678   1.278   2.687   0.496  1.6517  0.2634  2.9804
  307MPD2     N 4679   1.224   3.101   0.664  0.0258  0.1463  0.6813
  307MPD2    H5 4680   1.194   3.064   0.754  1.2709 -0.2158  0.9462
  307MPD2    N1 4681   1.325   3.029   0.205  0.5700 -0.5185 -0.2405
  307MPD2    H7 4682   1.329   3.131   0.200 -1.5213 -0.5896 -2.8912
  308TMC3    C1 4683   0.946   3.312   0.909 -0.3301  0.2069  0.5796
  308TMC3    C2 4684   0.955   3.444   0.925  0.2983 -0.5639 -0.5009
  308TMC3    C3 4685   1.046   3.505   0.843  0.1471 -0.0997  0.5432
  308TMC3    C4 4686   1.032   3.235   0.829  0.0134 -0.3312 -0.4190
  308TMC3    C5 4687   1.130   3.302   0.755  0.5159 -0.5637  0.5627
  308TMC3    C6 4688   1.136   3.438   0.760  0.5248 -0.3636  0.7008
  308TMC3     C 4689   0.845   3.229   0.979  0.1594 -0.0876 -0.1408
  308TMC3     O 4690   0.869   3.110   0.993  0.3465  0.2839  0.1501
  308TMC3     H 4691   0.901   3.509   0.994 -2.6633 -1.8683 -1.6291
  308TMC3    H1 4692   1.014   3.130   0.809  0.2534 -0.4764  0.1296
  308TMC3    H2 4693   1.208   3.493   0.702  0.4108  0.6646  1.5397
  308TMC3    C7 4694   1.212   3.236   0.649  0.4348  0.7140  1.0830
  308TMC3    C8 4695   1.068   3.639   0.868 -0.5190 -0.7496 -0.0257
  308TMC3    O1 4696   1.257   3.320   0.568 -0.3483 -0.0520 -0.0486
  308TMC3    O2 4697   1.028   3.687   0.970  0.3143  0.3813  0.2134
  309MPD2     C 4698   0.285   3.500  17.246  0.0743  0.1570 -0.4097
  309MPD2    C1 4699   0.229   3.602  17.175 -0.2212  0.3196 -0.1615
  309MPD2    C2 4700   0.122   3.671  17.238  0.0802  0.1650  0.4404
  309MPD2    C3 4701   0.087   3.642  17.370 -0.0399 -0.0984 -0.4250
  309MPD2    C4 4702   0.143   3.536  17.437 -0.0608  0.3723 -0.5697
  309MPD2    C5 4703   0.249   3.472  17.379 -0.2071 -0.3863 -0.9058
  309MPD2     H 4704   0.089   3.762  17.190 -0.8822 -0.0593  0.6781
  309MPD2    H1 4705   0.103   3.501  17.531  2.2160  0.5634  0.4723
  309MPD2    H2 4706   0.347   3.423  17.200 -2.1638 -0.8970 -1.6519
  309MPD2    H3 4707   0.304   3.392  17.427 -1.5798  0.4718  2.0645
  309MPD2     N 4708   4.719   3.709  17.433 -0.3132  0.6640  0.8474
  309MPD2    H5 4709   4.699   3.673  17.525  0.4870 -0.0294  0.7409
  309MPD2    N1 4710   0.270   3.649  17.049 -0.3299 -0.7864 -0.1278
  309MPD2    H7 4711   0.223   3.729  17.008  0.8703  0.8281  1.6606
  310TMC3    C1 4712   0.401   3.655  16.837  0.2796  0.0472 -0.0500
  310TMC3    C2 4713   0.302   3.714  16.764 -0.0311  0.0530  0.0585
  310TMC3    C3 4714   0.338   3.765  16.646 -0.5929 -0.0090 -0.2907
  310TMC3    C4 4715   0.538   3.666  16.808  0.5853  0.4423 -0.0448
  310TMC3    C5 4716   0.572   3.726  16.689 -0.6102  0.7135 -0.3340
  310TMC3    C6 4717   0.466   3.777  16.607  0.6394  0.0214  0.1127
  310TMC3     C 4718   0.380   3.599  16.969 -0.5345 -0.2094 -0.0232
  310TMC3     O 4719   0.444   3.498  17.005 -0.0279 -0.1232  0.2796
  310TMC3     H 4720   0.201   3.717  16.804 -0.6136  1.3299 -1.5023
  310TMC3    H1 4721   0.608   3.636  16.885 -1.9401 -0.2654  1.9331
  310TMC3    H2 4722   0.493   3.826  16.514  0.6614  2.6125  1.5065
  310TMC3    C7 4723   0.690   3.677  16.618  0.1497  0.6711 -0.3191
  310TMC3    C8 4724   0.225   3.801  16.560 -0.1604  0.4702 -0.7538
  310TMC3    O1 4725   0.688   3.699  16.500 -0.6588  0.1986 -0.1131
  310TMC3    O2 4726   0.114   3.777  16.608 -0.5366 -0.7450 -0.0222
  311MPD2     C 4727   1.978   4.568  12.722  0.1968  0.3622 -0.3058
  311MPD2    C1 4728   1.941   4.700  12.719  0.2824 -0.8006 -0.3801
  311MPD2    C2 4729   1.848   0.011  12.807 -0.2473 -0.2119 -0.0020
  311MPD2    C3 4730   1.791   4.659  12.902  0.5067  0.9078 -0.1925
  311MPD2    C4 4731   1.828   4.531  12.908  0.0229 -0.1844  1.2407
  311MPD2    C5 4732   1.925   4.485  12.817  0.1038 -0.9088  0.1262
  311MPD2     H 4733   1.816   0.115  12.799  1.3233  0.2779  0.0881
  311MPD2    H1 4734   1.780   4.462  12.976 -6.1548  0.6557 -2.1834
  311MPD2    H2 4735   2.047   4.521  12.653  0.5883 -0.5692  0.7253
  311MPD2    H3 4736   1.978   4.390  12.820  0.5577 -0.6499  0.3242
  311MPD2     N 4737   1.700   4.724  12.988 -0.5184 -0.0560 -0.5074
  311MPD2    H5 4738   1.673   0.083  12.964  0.2532  0.3194  0.1212
  311MPD2    N1 4739   1.997   0.065  12.638  0.6652  0.3017 -0.0464
  311MPD2    H7 4740   1.973   0.161  12.659 -1.4885 -0.1897 -0.1988
  312TMC3    C1 4741   1.568   0.023  13.179 -0.7448  0.4536  0.8235
  312TMC3    C2 4742   1.465   0.096  13.120  0.1511 -0.1360  0.3678
  312TMC3    C3 4743   1.417   0.203  13.193 -0.3221  0.1923 -0.4527
  312TMC3    C4 4744   1.593   0.022  13.314  0.1546  0.1191  0.5635
  312TMC3    C5 4745   1.536   0.124  13.384  0.0392  0.6989  0.0694
  312TMC3    C6 4746   1.447   0.212  13.325  0.7230  0.0435  1.0195
  312TMC3     C 4747   1.649   4.667  13.100 -0.1941 -0.3581  0.0915
  312TMC3     O 4748   1.688   4.564  13.156 -0.3146 -0.5883  0.1262
  312TMC3     H 4749   1.439   0.085  13.015  1.0933 -0.2636  0.1507
  312TMC3    H1 4750   1.685   4.709  13.343 -1.2714 -1.7221  2.1043
  312TMC3    H2 4751   1.429   0.309  13.369  0.9294  0.4216  0.2825
  312TMC3    C7 4752   1.612   0.175  13.491 -0.0865  0.3133  0.6052
  312TMC3    C8 4753   1.282   0.250  13.169 -0.0767 -0.0645 -0.0312
  312TMC3    O1 4754   1.696   0.262  13.472  0.4861 -0.3534 -0.1984
  312TMC3    O2 4755   1.272   0.370  13.195 -0.1369 -0.3206 -0.1143
  313MPD2     C 4756   1.469   4.422  11.133  0.4671  0.3487  0.5157
  313MPD2    C1 4757   1.361   4.392  11.212 -0.1784  0.0406 -0.2108
  313MPD2    C2 4758   1.274   4.288  11.173 -0.1265  0.0674 -0.1790
  313MPD2    C3 4759   1.293   4.217  11.053  0.5614  0.1347  0.3744
  313MPD2    C4 4760   1.408   4.254  10.976 -0.2444  0.2668  0.8242
  313MPD2    C5 4761   1.499   4.346  11.022  0.0797  0.4953 -0.2062
  313MPD2     H 4762   1.186   4.265  11.233  1.2776 -2.6821  0.8122
  313MPD2    H1 4763   1.422   4.201  10.883  0.0232 -0.0768  1.0649
  313MPD2    H2 4764   1.544   4.497  11.156  2.2842 -1.2106 -0.3464
  313MPD2    H3 4765   1.586   4.365  10.960  1.3890 -1.8867  0.8877
  313MPD2     N 4766   1.207   4.120  11.002 -0.4700 -0.0179  0.0902
  313MPD2    H5 4767   1.221   4.083  10.908  1.9916  0.5143  0.2614
  313MPD2    N1 4768   1.328   4.470  11.325  0.1666 -0.3730  0.7082
  313MPD2    H7 4769   1.235   4.451  11.360  1.1031 -2.3876  2.0903
  314TMC3    C1 4770   1.352   4.637  11.490  0.1675  0.3640  0.2684
  314TMC3    C2 4771   1.450   4.700  11.571 -0.3366 -0.5201 -0.2585
  314TMC3    C3 4772   1.452   0.099  11.555  0.2548 -0.3220  0.2821
  314TMC3    C4 4773   1.248   4.699  11.422 -0.8668  1.0511 -0.7245
  314TMC3    C5 4774   1.261   0.100  11.426  0.0606  0.0012 -0.0223
  314TMC3    C6 4775   1.364   0.165  11.477 -0.1138  0.1197 -0.0599
  314TMC3     C 4776   1.417   4.546  11.394  0.0586 -0.1886  0.0525
  314TMC3     O 4777   1.542   4.542  11.393 -0.5857 -0.2179  0.2772
  314TMC3     H 4778   1.533   4.642  11.609  0.6226  0.0608 -1.4711
  314TMC3    H1 4779   1.173   4.653  11.359  0.6294  0.1400 -1.8637
  314TMC3    H2 4780   1.370   0.272  11.493  1.8977 -0.0572  0.3104
  314TMC3    C7 4781   1.211   0.155  11.303 -0.5665  0.2891  0.0719
  314TMC3    C8 4782   1.575   0.169  11.579  0.0805 -0.2662  0.2058
  314TMC3    O1 4783   1.101   0.120  11.265 -0.2294 -0.2829  0.1230
  314TMC3    O2 4784   1.621   0.232  11.485  0.3051  0.1443  0.2735
  315MPD2     C 4785   1.568   2.970  17.468  0.0905 -0.0505 -0.4299
  315MPD2    C1 4786   1.612   2.975  17.599 -0.2902  0.4533 -0.6648
  315MPD2    C2 4787   1.647   3.100  17.646  0.6528 -0.3953 -0.0273
  315MPD2    C3 4788   1.659   3.211  17.559  0.0554  0.6554  0.2561
  315MPD2    C4 4789   1.609   3.200  17.433  0.0688  0.3391  1.1660
  315MPD2    C5 4790   1.560   3.080  17.393 -1.4625  0.0187  0.0187
  315MPD2     H 4791   1.701   3.113  17.739  1.1335 -1.1640 -0.1958
  315MPD2    H1 4792   1.604   3.282  17.363 -0.6493 -1.1486 -0.5355
  315MPD2    H2 4793   1.528   2.882  17.419  1.9067 -0.1039 -1.8195
  315MPD2    H3 4794   1.523   3.072  17.292 -2.3845  0.8110  0.2939
  315MPD2     N 4795   1.704   3.330  17.615 -0.3996 -0.7295 -0.5639
  315MPD2    H5 4796   1.741   3.334  17.710  1.6682 -3.3611 -1.2422
  315MPD2    N1 4797   1.632   2.863  17.672 -0.5681  0.0245 -0.3102
  315MPD2    H7 4798   1.685   2.885   0.014 -0.4244 -0.6657 -0.2214
  316TMC3    C1 4799   1.757   3.552  17.649  0.0961  0.2175 -0.2758
  316TMC3    C2 4800   1.861   3.525  17.736 -0.1419 -0.0458  0.4633
  316TMC3    C3 4801   1.918   3.629   0.064 -0.1994 -0.4150 -0.9039
  316TMC3    C4 4802   1.711   3.678  17.620  0.8999  0.0611 -0.3554
  316TMC3    C5 4803   1.763   3.775  17.695  0.1319 -0.0803 -0.3623
  316TMC3    C6 4804   1.870   3.758   0.050  0.3789  0.6628  0.0600
  316TMC3     C 4805   1.699   3.453  17.558  0.3940 -0.1582 -0.1218
  316TMC3     O 4806   1.658   3.491  17.450  0.4662 -0.2099 -0.4239
  316TMC3     H 4807   1.902   3.425  17.733 -0.0067 -0.0063  1.1613
  316TMC3    H1 4808   1.625   3.689  17.555  0.0532  0.8302  0.9089
  316TMC3    H2 4809   1.911   3.846   0.098  0.9000 -0.3344  1.4302
  316TMC3    C7 4810   1.734   3.919  17.666 -0.1678  0.5976 -0.1883
  316TMC3    C8 4811   2.008   3.598   0.178  0.7133 -1.0643 -0.1428
  316TMC3    O1 4812   1.783   4.001  17.734 -0.1217 -0.2889 -0.3447
  316TMC3    O2 4813   2.010   3.674   0.276  0.0767 -0.0792 -0.1196
  317MPD2     C 4814   3.081   2.179  12.997  0.4011  0.5608 -0.5433
  317MPD2    C1 4815   3.156   2.069  12.953 -0.0131  0.2936  1.1933
  317MPD2    C2 4816   3.229   1.991  13.039  0.0685 -0.0532  1.0140
  317MPD2    C3 4817   3.214   2.018  13.174 -0.7693  0.1940  0.8917
  317MPD2    C4 4818   3.154   2.131  13.211 -0.0175 -0.3983  0.7246
  317MPD2    C5 4819   3.092   2.217  13.125 -0.4153 -0.1262 -0.3258
  317MPD2     H 4820   3.283   1.899  13.019 -1.8020 -0.9288  0.0380
  317MPD2    H1 4821   3.148   2.143  13.318  2.3989 -0.4655  0.8680
  317MPD2    H2 4822   3.029   2.246  12.930 -2.9498 -2.0521 -0.5218
  317MPD2    H3 4823   3.035   2.301  13.162  1.6098  2.1748 -2.4634
  317MPD2     N 4824   3.265   1.922  13.263 -0.5306 -0.6932  0.0752
  317MPD2    H5 4825   3.315   1.845  13.221  3.5367  1.7446  0.4051
  317MPD2    N1 4826   3.158   2.024  12.817  0.9964  0.2331 -0.3287
  317MPD2    H7 4827   3.229   1.955  12.796 -0.4520 -0.7393 -2.0405
  318TMC3    C1 4828   3.305   1.802  13.463  0.2579 -0.4117  0.2591
  318TMC3    C2 4829   3.293   1.685  13.387  0.2215  0.4275  0.2770
  318TMC3    C3 4830   3.350   1.574  13.432 -0.6839  0.1930 -0.0245
  318TMC3    C4 4831   3.355   1.809  13.590  0.6123 -0.6394 -0.1094
  318TMC3    C5 4832   3.418   1.693  13.630  0.0835  0.5001 -0.1762
  318TMC3    C6 4833   3.415   1.571  13.553 -0.6481 -0.3840  0.4430
  318TMC3     C 4834   3.259   1.928  13.400  0.4140  0.1472 -0.0675
  318TMC3     O 4835   3.212   2.012  13.479 -0.1534  0.2287  0.0554
  318TMC3     H 4836   3.234   1.685  13.296  0.2873  0.5248  0.2333
  318TMC3    H1 4837   3.354   1.902  13.646  1.9030 -0.1527 -0.8963
  318TMC3    H2 4838   3.441   1.477  13.599 -0.4354 -0.5780 -0.0786
  318TMC3    C7 4839   3.505   1.701  13.741  0.0698 -0.0612  0.7620
  318TMC3    C8 4840   3.312   1.443  13.376 -0.2138 -0.4534 -1.0090
  318TMC3    O1 4841   3.499   1.805  13.808  1.1476 -0.3052  0.3446
  318TMC3    O2 4842   3.392   1.351  13.396 -0.1718 -0.3851  0.6265
  319MPD2     C 4843   4.615   2.693  16.294  0.0298  0.4781  0.3824
  319MPD2    C1 4844   4.551   2.710  16.418  0.2277 -0.3960 -0.4550
  319MPD2    C2 4845   4.418   2.742  16.422  0.8372 -0.7310 -0.3698
  319MPD2    C3 4846   4.344   2.761  16.307 -0.0165 -0.4590  0.7952
  319MPD2    C4 4847   4.409   2.735  16.185 -0.1761  0.0478 -0.2637
  319MPD2    C5 4848   4.539   2.699  16.175  0.8473 -0.4834 -0.2872
  319MPD2     H 4849   4.386   2.772  16.521 -1.3356 -1.8261 -0.7517
  319MPD2    H1 4850   4.349   2.739  16.095  3.3096 -0.1051 -2.5843
  319MPD2    H2 4851   4.714   2.650  16.287 -0.8853 -1.8024  1.7937
  319MPD2    H3 4852   4.579   2.672  16.078  1.7665 -0.1465 -0.0011
  319MPD2     N 4853   4.209   2.801  16.305  0.0010 -0.0944 -0.3085
  319MPD2    H5 4854   4.159   2.812  16.217  0.8364 -0.2885 -0.8048
  319MPD2    N1 4855   4.617   2.689  16.543  0.9150 -0.2905 -0.3533
  319MPD2    H7 4856   4.559   2.678  16.626  2.7777 -1.1904  0.8469
  320TMC3    C1 4857   3.990   2.845  16.392 -0.0846 -0.8092 -1.1375
  320TMC3    C2 4858   3.957   2.913  16.278  0.2914 -0.4630 -0.4851
  320TMC3    C3 4859   3.835   2.895  16.217 -0.8371  0.0442 -0.3963
  320TMC3    C4 4860   3.896   2.777  16.456  0.4188 -0.3974 -0.4397
  320TMC3    C5 4861   3.780   2.755  16.391  0.1026 -0.1466 -0.4189
  320TMC3    C6 4862   3.749   2.805  16.268 -0.1808 -0.0020 -0.1048
  320TMC3     C 4863   4.129   2.807  16.422 -0.4214  0.1468 -0.0105
  320TMC3     O 4864   4.160   2.778  16.536  0.5210 -0.0192  0.5025
  320TMC3     H 4865   4.028   2.977  16.226  0.8594 -1.1027 -0.5074
  320TMC3    H1 4866   3.943   2.724  16.539 -1.6827  1.0415  1.6879
  320TMC3    H2 4867   3.649   2.791  16.227  0.5468 -1.7161 -1.2912
  320TMC3    C7 4868   3.712   2.634  16.429 -0.3277 -0.1350 -0.6029
  320TMC3    C8 4869   3.789   3.005  16.141  0.4368 -0.2916 -0.0345
  320TMC3    O1 4870   3.658   2.561  16.346  0.4182  0.0059  0.1005
  320TMC3    O2 4871   3.841   3.118  16.156 -0.7027 -0.6607  0.3633
  321TMC3    C1 4872   0.059   2.679  16.702 -0.0863  0.2842 -0.3231
  321TMC3    C2 4873   4.721   2.605  16.787 -0.0228 -0.1274  0.2886
  321TMC3    C3 4874   0.050   2.556  16.902  0.2494  0.4259 -0.0702
  321TMC3    C4 4875   0.189   2.709  16.729 -0.3039 -0.6522 -0.2125
  321TMC3    C5 4876   0.242   2.680  16.848 -0.0217 -0.8061  0.0597
  321TMC3    C6 4877   0.177   2.598  16.930  0.9232 -0.6179 -0.2295
  321TMC3     C 4878   0.014   2.696  16.564 -1.0187 -0.3807 -0.4332
  321TMC3     O 4879   0.100   2.743  16.489 -0.1094  0.0033 -0.8483
  321TMC3     H 4880   4.619   2.572  16.770  0.3643 -1.4211  0.4870
  321TMC3    H1 4881   0.252   2.764  16.660 -0.8908 -0.2524 -0.4349
  321TMC3    H2 4882   0.229   2.548  17.011  0.4631  1.9452  1.6540
  321TMC3    C7 4883   0.294   2.792  16.925 -0.3088 -0.0198 -0.7186
  321TMC3    C8 4884   4.707   2.553  17.022  0.3640 -0.2906  0.0252
  321TMC3    O1 4885   0.345   2.885  16.860 -0.1453  0.3624  0.1228
  321TMC3    O2 4886   0.045   2.556  17.124  0.4476 -0.0490 -0.9154
  322MPD2     C 4887   2.930   4.387  14.318 -0.6729  0.1407  0.2870
  322MPD2    C1 4888   3.041   4.309  14.335  0.5644 -0.5861  0.1077
  322MPD2    C2 4889   3.089   4.218  14.237 -0.1651  0.1752 -0.0091
  322MPD2    C3 4890   3.014   4.197  14.125  0.2764 -0.2335 -0.0142
  322MPD2    C4 4891   2.892   4.263  14.111 -0.2817 -0.2928  0.3909
  322MPD2    C5 4892   2.860   4.363  14.204 -0.2221  0.7509  0.7471
  322MPD2     H 4893   3.185   4.171  14.253  1.8401  4.1519 -0.3212
  322MPD2    H1 4894   2.825   4.242  14.029 -1.1097  0.0813  0.9710
  322MPD2    H2 4895   2.912   4.474  14.379 -1.0777  0.2437  0.0216
  322MPD2    H3 4896   2.772   4.424  14.184 -1.5116 -0.1955  3.4815
  322MPD2     N 4897   3.069   4.101  14.043 -0.1774 -0.6308 -0.0858
  322MPD2    H5 4898   3.163   4.066  14.063 -0.7430 -2.7165 -1.0471
  322MPD2    N1 4899   3.100   4.309  14.462 -0.2660 -0.5315  0.1891
  322MPD2    H7 4900   3.089   4.391  14.521  1.4736  1.2152 -1.9064
  323TMC3    C1 4901   3.261   4.226  14.626  0.1228  0.4664  0.6070
  323TMC3    C2 4902   3.349   4.334  14.626  0.2206  0.3572  0.2795
  323TMC3    C3 4903   3.456   4.335  14.706  0.2153 -0.1710  0.1711
  323TMC3    C4 4904   3.284   4.122  14.712  0.0541 -0.7850 -0.0088
  323TMC3    C5 4905   3.391   4.122  14.795  0.0179  0.3914 -0.1497
  323TMC3    C6 4906   3.479   4.229  14.794  0.1306 -0.5163 -0.6564
  323TMC3     C 4907   3.174   4.199  14.508 -0.0656  0.0683  0.0938
  323TMC3     O 4908   3.158   4.082  14.476  0.0705  0.0530  0.0646
  323TMC3     H 4909   3.320   4.410  14.555 -2.9071 -2.4818 -1.5066
  323TMC3    H1 4910   3.206   4.051  14.735 -0.1146 -0.6239 -0.0882
  323TMC3    H2 4911   3.567   4.230  14.857 -0.8165  1.3709  0.6281
  323TMC3    C7 4912   3.458   4.004  14.802  0.5827  0.3312  0.0515
  323TMC3    C8 4913   3.581   4.401  14.655 -0.7959 -0.0889 -0.3377
  323TMC3    O1 4914   3.438   3.925  14.708  0.3859 -0.6475  0.2182
  323TMC3    O2 4915   3.684   4.342  14.685  0.1689  0.2492 -0.5223
  324MPD2     C 4916   0.148   0.455  15.018  0.4372 -0.2151  0.1317
  324MPD2    C1 4917   0.195   0.509  14.898  0.6793 -0.0294 -0.3729
  324MPD2    C2 4918   0.113   0.575  14.813 -0.2196  0.0889 -0.0782
  324MPD2    C3 4919   4.711   0.564  14.837  0.1799  0.3328 -0.1227
  324MPD2    C4 4920   4.661   0.500  14.946  0.4696  0.1863  0.0912
  324MPD2    C5 4921   0.012   0.440  15.035 -0.1336 -0.4679  1.0099
  324MPD2     H 4922   0.153   0.617  14.722 -1.6187 -1.1709 -1.2583
  324MPD2    H1 4923   4.555   0.486  14.963  0.3008  0.1963 -1.0033
  324MPD2    H2 4924   0.217   0.424  15.096  0.8714  1.3065  0.3500
  324MPD2    H3 4925   4.717   0.394  15.128 -1.9193 -0.7037  0.3015
  324MPD2     N 4926   4.610   0.611  14.753  0.4461 -0.6857 -0.1137
  324MPD2    H5 4927   4.517   0.574  14.769  0.4743 -0.6803  0.0654
  324MPD2    N1 4928   0.333   0.514  14.868 -0.3499  0.8366 -0.7874
  324MPD2    H7 4929   0.355   0.566  14.783  1.8899 -1.0226 -1.3737
  325TMC3    C1 4930   4.507   0.718  14.573  0.6846 -0.2999 -0.3249
  325TMC3    C2 4931   4.405   0.631  14.555 -0.2030 -0.1769  0.1246
  325TMC3    C3 4932   4.300   0.665  14.468 -1.0971  0.1521  0.0754
  325TMC3    C4 4933   4.503   0.844  14.522 -0.4788 -0.1391  0.3574
  325TMC3    C5 4934   4.408   0.874  14.433  0.4995 -0.3928 -0.2318
  325TMC3    C6 4935   4.302   0.792  14.416  0.2145 -0.6022  0.5679
  325TMC3     C 4936   4.629   0.691  14.645 -0.6188  0.4043  0.2944
  325TMC3     O 4937   4.730   0.761  14.620 -0.1996 -0.2586 -0.1818
  325TMC3     H 4938   4.418   0.531  14.596 -0.4504 -0.8970 -1.5487
  325TMC3    H1 4939   4.573   0.921  14.553 -1.0220  0.2731  0.5383
  325TMC3    H2 4940   4.227   0.821  14.343 -0.8802 -1.1620  1.4639
  325TMC3    C7 4941   4.392   1.015  14.401  0.0624  0.1477  0.1674
  325TMC3    C8 4942   4.216   0.556  14.414  0.5254  0.4388 -0.0637
  325TMC3    O1 4943   4.493   1.078  14.420  0.1295 -0.1678 -0.0402
  325TMC3    O2 4944   4.258   0.446  14.436  0.0957 -0.5219 -0.7256
  326MPD2     C 4945   1.569   1.877  11.219  0.4895 -0.2479  0.0653
  326MPD2    C1 4946   1.570   1.920  11.087 -0.4449  0.2912  0.8316
  326MPD2    C2 4947   1.681   1.982  11.040 -0.0264 -0.2665 -0.0546
  326MPD2    C3 4948   1.793   2.016  11.118  0.1470 -0.0958 -0.3616
  326MPD2    C4 4949   1.785   1.984  11.247 -0.3764  0.2266  0.1274
  326MPD2    C5 4950   1.682   1.902  11.289 -0.3388  0.2280  0.1304
  326MPD2     H 4951   1.678   2.007  10.935  1.7794 -4.0966 -1.0590
  326MPD2    H1 4952   1.864   2.015  11.314  0.3801 -1.5154  0.0609
  326MPD2    H2 4953   1.483   1.828  11.264 -0.0689  1.7159  1.1250
  326MPD2    H3 4954   1.695   1.868  11.391 -2.3726  0.5456  0.4964
  326MPD2     N 4955   1.901   2.100  11.068  0.3118  0.7103  0.2062
  326MPD2    H5 4956   1.981   2.122  11.127 -0.0640  1.3349  0.4888
  326MPD2    N1 4957   1.466   1.894  10.994 -0.5178 -0.1208 -0.0029
  326MPD2    H7 4958   1.491   1.922  10.900  0.5367 -1.1165 -0.0138
  327TMC3    C1 4959   1.267   1.830  10.899 -0.0649  0.2086 -0.1861
  327TMC3    C2 4960   1.230   1.953  10.864 -0.4895  0.1436  0.2775
  327TMC3    C3 4961   1.101   1.974  10.822 -0.1768  0.2825  0.0832
  327TMC3    C4 4962   1.180   1.724  10.885 -0.5736 -0.2836 -0.1276
  327TMC3    C5 4963   1.059   1.746  10.822 -0.0870  0.3796 -0.0782
  327TMC3    C6 4964   1.013   1.874  10.791  0.3534 -0.0814 -0.7511
  327TMC3     C 4965   1.351   1.819  11.012  0.4229 -0.3140 -0.2488
  327TMC3     O 4966   1.324   1.739  11.103 -0.0223  0.3432  0.0855
  327TMC3     H 4967   1.281   2.041  10.900 -1.6968  0.1944  1.8659
  327TMC3    H1 4968   1.213   1.624  10.911  0.3043  0.4575  1.6119
  327TMC3    H2 4969   0.909   1.894  10.766  0.3349  1.0921  0.2846
  327TMC3    C7 4970   0.960   1.652  10.833 -0.1378 -0.2345  0.0523
  327TMC3    C8 4971   1.055   2.110  10.841  0.2975  0.7794  0.1052
  327TMC3    O1 4972   0.863   1.656  10.756 -0.2953  0.7071  0.4421
  327TMC3    O2 4973   1.136   2.203  10.845 -0.5478 -0.3068 -0.3500
  328MPD2     C 4974   3.384   0.952  17.338  0.2520  0.4354 -0.0839
  328MPD2    C1 4975   3.420   0.929  17.207  0.6817 -0.3745  0.1627
  328MPD2    C2 4976   3.422   1.036  17.119 -0.1611  0.6010 -0.3674
  328MPD2    C3 4977   3.427   1.163  17.175  0.5084 -0.2081  0.7764
  328MPD2    C4 4978   3.417   1.177  17.308 -0.0689  0.2896 -0.0237
  328MPD2    C5 4979   3.384   1.075  17.392 -0.3648 -0.4923  0.1204
  328MPD2     H 4980   3.440   1.025  17.013  0.4400  0.6023 -0.2651
  328MPD2    H1 4981   3.394   1.275  17.349 -1.2048 -0.2450  0.6194
  328MPD2    H2 4982   3.374   0.868  17.405 -1.4098  0.7942  0.1088
  328MPD2    H3 4983   3.367   1.090  17.498 -2.4095 -2.1773  0.0365
  328MPD2     N 4984   3.427   1.280  17.096  0.1830  0.5684 -0.7849
  328MPD2    H5 4985   3.445   1.372  17.133 -2.6109  0.6510  0.4234
  328MPD2    N1 4986   3.424   0.790  17.161  0.0536  0.4183 -0.3495
  328MPD2    H7 4987   3.383   0.722  17.224  0.0825 -0.1448 -0.9495
  329TMC3    C1 4988   3.368   0.656  16.988  0.2489  0.7876 -0.3940
  329TMC3    C2 4989   3.243   0.669  17.023 -0.2048 -0.4078  0.2588
  329TMC3    C3 4990   3.138   0.632  16.938  0.2503 -0.0532  0.6564
  329TMC3    C4 4991   3.399   0.621  16.857  0.5216  0.2486 -0.3133
  329TMC3    C5 4992   3.299   0.581  16.771 -0.0931 -0.4566  0.1196
  329TMC3    C6 4993   3.167   0.593  16.809  0.1538 -0.6950  0.5909
  329TMC3     C 4994   3.445   0.758  17.032 -0.1230 -0.3079  0.5714
  329TMC3     O 4995   3.503   0.822  16.945  0.3345 -1.0486  0.2768
  329TMC3     H 4996   3.221   0.693  17.127 -1.2246 -0.0250 -0.0478
  329TMC3    H1 4997   3.506   0.616  16.837  0.7130 -2.4816  1.4454
  329TMC3    H2 4998   3.090   0.576  16.735 -0.5019 -0.0505  1.1321
  329TMC3    C7 4999   3.323   0.509  16.651 -0.0725 -0.6990 -0.3895
  329TMC3    C8 5000   3.013   0.702  16.957 -0.2393 -0.7104 -0.3276
  329TMC3    O1 5001   3.227   0.487  16.580  0.5073 -0.2671 -0.4504
  329TMC3    O2 5002   2.911   0.637  16.939  0.5696  0.1912 -0.4764
  330TMC3    C1 5003   1.495   0.945   9.549  0.6108  0.0409  0.3710
  330TMC3    C2 5004   1.375   0.877   9.558  0.5034 -0.9638 -0.1224
  330TMC3    C3 5005   1.382   0.737   9.561  0.4967  0.1470 -0.2767
  330TMC3    C4 5006   1.615   0.869   9.537 -0.4863 -0.4964 -0.5387
  330TMC3    C5 5007   1.611   0.730   9.543 -0.3372 -0.0613 -0.0912
  330TMC3    C6 5008   1.492   0.661   9.543  0.4149 -0.3868 -0.1115
  330TMC3     C 5009   1.519   1.091   9.556 -0.0946  0.7809 -0.1091
  330TMC3     O 5010   1.630   1.140   9.567  0.2384 -0.3527  0.3946
  330TMC3     H 5011   1.282   0.931   9.570  1.3340  0.5545 -0.5217
  330TMC3    H1 5012   1.707   0.923   9.559 -1.0167  0.4073 -0.5168
  330TMC3    H2 5013   1.483   0.553   9.546  1.2868 -0.4151  1.6711
  330TMC3    C7 5014   1.738   0.659   9.537  0.3433  0.9291  0.2030
  330TMC3    C8 5015   1.248   0.674   9.553 -0.4755 -0.6355 -0.4580
  330TMC3    O1 5016   1.839   0.724   9.558  0.0026 -0.0831 -0.5876
  330TMC3    O2 5017   1.151   0.744   9.528  0.1636  0.1948 -0.0009
  331MPD2     C 5018   3.716   0.027  12.897  0.4388  0.2275  0.4675
  331MPD2    C1 5019   3.830   0.094  12.851  0.2916  0.0877  0.1617
  331MPD2    C2 5020   3.913   0.024  12.765 -0.1358  1.0459 -0.0121
  331MPD2    C3 5021   3.901   4.629  12.727  0.6232 -0.0181  0.4285
  331MPD2    C4 5022   3.794   4.561  12.781  0.0463 -0.1359 -0.2561
  331MPD2    C5 5023   3.706   4.627  12.868 -0.2039  0.0534  0.2965
  331MPD2     H 5024   3.992   0.079  12.716  0.4727  0.8752  0.7689
  331MPD2    H1 5025   3.788   4.453  12.766  1.8573 -0.3509  0.5623
  331MPD2    H2 5026   3.644   0.084  12.955  1.9924  2.1672  0.4684
  331MPD2    H3 5027   3.618   4.571  12.898 -0.7628  0.9588  0.3372
  331MPD2     N 5028   4.002   4.581  12.635  0.0015 -0.1328 -0.6531
  331MPD2    H5 5029   4.072   4.650  12.606 -1.1401  1.0801 -0.5103
  331MPD2    N1 5030   3.841   0.226  12.893  0.1745 -0.0712 -0.5806
  331MPD2    H7 5031   3.757   0.279  12.916 -0.9742 -1.8256 -0.7598
  332TMC3    C1 5032   4.141   4.435  12.533 -0.5515 -0.0309 -0.8308
  332TMC3    C2 5033   4.192   4.534  12.463 -0.7061  0.1066  0.3472
  332TMC3    C3 5034   4.329   4.544  12.458 -0.5020 -0.0558  0.1221
  332TMC3    C4 5035   4.217   4.343  12.598  1.1756  0.2789  0.5833
  332TMC3    C5 5036   4.354   4.354  12.578  0.0974 -0.3254  0.1176
  332TMC3    C6 5037   4.417   4.455  12.508 -1.1274  0.4229 -0.3409
  332TMC3     C 5038   4.016   4.450  12.598  0.3499  0.7824 -0.0928
  332TMC3     O 5039   3.955   4.351  12.643 -0.2217  0.3463  0.2872
  332TMC3     H 5040   4.121   4.599  12.414  0.1724  2.1024  1.7213
  332TMC3    H1 5041   4.160   4.274  12.659 -0.1994 -0.5202 -1.6173
  332TMC3    H2 5042   4.519   4.459  12.471 -1.3824  2.1460 -0.8348
  332TMC3    C7 5043   4.438   4.252  12.634  0.3895 -0.1202 -0.5396
  332TMC3    C8 5044   4.377   4.667  12.403 -0.0952  0.5975 -0.3937
  332TMC3    O1 5045   4.383   4.160  12.696 -0.0750  0.6357  0.4670
  332TMC3    O2 5046   4.490   4.697  12.443 -0.0995 -0.4890 -0.7231
  333MPD2     C 5047   4.552   0.459  11.671  0.2941 -0.1740 -0.4395
  333MPD2    C1 5048   4.613   0.353  11.609 -0.1147 -0.1595  0.1516
  333MPD2    C2 5049   4.558   0.225  11.609 -0.2410 -0.2758  0.8214
  333MPD2    C3 5050   4.439   0.203  11.668  0.1613 -0.0094  0.3011
  333MPD2    C4 5051   4.373   0.313  11.724  0.2609 -0.1278  0.3329
  333MPD2    C5 5052   4.427   0.440  11.719  0.8028  0.3539  0.3552
  333MPD2     H 5053   4.617   0.142  11.571  1.5585  1.0078  0.8226
  333MPD2    H1 5054   4.273   0.309  11.765  0.2124  0.3110  0.2525
  333MPD2    H2 5055   4.587   0.561  11.667 -2.9000  0.9591  0.5464
  333MPD2    H3 5056   4.358   0.509  11.766  0.6204  0.5136 -0.1502
  333MPD2     N 5057   4.385   0.075  11.659 -0.3988 -0.6071 -1.0134
  333MPD2    H5 5058   4.442   0.001  11.617 -0.6121 -0.3357 -1.7781
  333MPD2    N1 5059   0.003   0.370  11.547  0.1276 -0.2554  0.2913
  333MPD2    H7 5060   0.040   0.464  11.546  2.2919 -1.0997  0.2425
  334TMC3    C1 5061   0.190   0.349  11.413  0.3631 -0.3391  0.1824
  334TMC3    C2 5062   0.319   0.315  11.445  0.3429 -0.6191  0.1312
  334TMC3    C3 5063   0.418   0.401  11.396  0.1213 -0.2835 -0.1788
  334TMC3    C4 5064   0.159   0.452  11.326 -0.5345  0.1909  0.5885
  334TMC3    C5 5065   0.256   0.534  11.274 -0.5810  0.8711  0.4079
  334TMC3    C6 5066   0.390   0.508  11.309  0.0917 -0.8263  0.5167
  334TMC3     C 5067   0.081   0.282  11.484  0.8854  0.1684  1.0653
  334TMC3     O 5068   0.077   0.162  11.475  0.3624 -0.1292 -0.4759
  334TMC3     H 5069   0.332   0.233  11.514 -0.2860  0.4808  1.5437
  334TMC3    H1 5070   0.058   0.468  11.289 -0.2959  1.3319  0.4630
  334TMC3    H2 5071   0.468   0.579  11.283 -0.6880  0.2032  1.0183
  334TMC3    C7 5072   0.235   0.658  11.205  0.1031 -0.8735  0.4432
  334TMC3    C8 5073   0.552   0.369  11.423 -0.2068 -0.5690  0.0587
  334TMC3    O1 5074   0.312   0.747  11.234 -0.1750  0.4221  0.1316
  334TMC3    O2 5075   0.583   0.285  11.508 -0.6947 -0.4262  0.1383
  335TMC3    C1 5076   4.671   1.766  17.651  0.0584  1.2789  0.4609
  335TMC3    C2 5077   4.558   1.693  17.676 -0.3127  0.5197 -0.4068
  335TMC3    C3 5078   4.559   1.561  17.637  0.1260 -0.8696  0.0654
  335TMC3    C4 5079   0.053   1.703  17.615  0.5435  0.1814  0.5527
  335TMC3    C5 5080   0.052   1.567  17.608  0.0010  0.3513  0.2509
  335TMC3    C6 5081   4.674   1.492  17.619 -0.3893 -0.0957  0.3838
  335TMC3     C 5082   4.673   1.917  17.663  0.2834 -0.5250  1.4103
  335TMC3     O 5083   4.559   1.966  17.663  0.0628  0.1865  0.0970
  335TMC3     H 5084   4.466   1.736  17.714  0.8091  2.4607  0.1215
  335TMC3    H1 5085   0.142   1.757  17.585 -0.2502  0.1596 -1.8212
  335TMC3    H2 5086   4.670   1.387  17.591  2.5517  0.6719 -2.8702
  335TMC3    C7 5087   0.177   1.504  17.612  0.6649  0.0664 -0.2968
  335TMC3    C8 5088   4.435   1.498  17.603 -0.7196  0.2457 -0.0824
  335TMC3    O1 5089   0.266   1.568  17.566 -0.2018 -0.1977 -0.8836
  335TMC3    O2 5090   4.424   1.376  17.597 -0.2273 -0.2393  0.1837
  336MPD2     C 5091   4.115   4.000  16.342 -0.1760 -0.1324  0.0954
  336MPD2    C1 5092   4.064   3.933  16.232 -0.0735  0.8996 -0.6763
  336MPD2    C2 5093   4.099   3.797  16.217 -0.1836 -0.7278  0.1134
  336MPD2    C3 5094   4.151   3.731  16.326 -0.5383 -0.0048 -0.2178
  336MPD2    C4 5095   4.177   3.797  16.441  0.3974  0.0785  0.5389
  336MPD2    C5 5096   4.159   3.934  16.451 -0.7402 -0.2189 -0.1379
  336MPD2     H 5097   4.064   3.758  16.122 -1.3891  0.9400 -0.1468
  336MPD2    H1 5098   4.214   3.742  16.527  0.1652 -0.3997  0.3381
  336MPD2    H2 5099   4.104   4.106  16.365 -2.4607  0.0721 -1.8793
  336MPD2    H3 5100   4.194   3.992  16.536 -1.8137  0.0487  0.1192
  336MPD2     N 5101   4.172   3.593  16.329 -0.4911  0.3832  0.0609
  336MPD2    H5 5102   4.213   3.559  16.415  0.9488  3.3911  0.5263
  336MPD2    N1 5103   3.989   4.005  16.129 -0.2765  0.3390 -0.0657
  336MPD2    H7 5104   3.954   3.955  16.048  0.7920 -1.1037  0.3432
  337TMC3    C1 5105   3.897   4.185  16.008  0.2196 -0.3348 -0.2081
  337TMC3    C2 5106   3.776   4.124  15.994  0.7798  0.0472 -0.0979
  337TMC3    C3 5107   3.693   4.179  15.904 -0.0748  0.3962 -0.4222
  337TMC3    C4 5108   3.934   4.299  15.944  0.1645 -0.5842 -0.6049
  337TMC3    C5 5109   3.848   4.350  15.859  0.0305  1.1066  0.6732
  337TMC3    C6 5110   3.721   4.292  15.838  0.2484 -0.2499  0.9562
  337TMC3     C 5111   3.972   4.141  16.125 -0.3441  0.0512 -0.9796
  337TMC3     O 5112   4.032   4.224  16.186 -0.2284  0.1276  0.5190
  337TMC3     H 5113   3.741   4.056  16.071  1.0471 -0.3090 -0.2904
  337TMC3    H1 5114   4.031   4.344  15.962 -0.2107 -1.1721  2.9561
  337TMC3    H2 5115   3.650   4.332  15.766 -1.2473 -0.8549  2.1044
  337TMC3    C7 5116   3.883   4.467  15.777 -0.1454 -0.5752  0.2096
  337TMC3    C8 5117   3.548   4.144  15.905 -0.6168 -0.1021  0.3056
  337TMC3    O1 5118   4.000   4.489  15.757 -0.3170 -0.0095  0.2413
  337TMC3    O2 5119   3.510   4.102  16.013 -0.1214  0.6625  0.0459
  338MPD2     C 5120   4.695   3.973   1.208 -0.5681  0.0457  0.4938
  338MPD2    C1 5121   4.607   3.914   1.117 -1.0398  0.3350 -0.2310
  338MPD2    C2 5122   4.480   3.961   1.109 -0.0897 -0.4079 -0.2746
  338MPD2    C3 5123   4.428   4.061   1.197 -1.1338 -0.5224  0.0395
  338MPD2    C4 5124   4.523   4.119   1.289 -0.1978 -0.3027 -0.1645
  338MPD2    C5 5125   4.658   4.082   1.286  0.5190 -1.1590 -0.1239
  338MPD2     H 5126   4.407   3.914   1.043  0.6490 -0.4826 -1.0344
  338MPD2    H1 5127   4.492   4.187   1.367 -1.2412 -0.1398 -0.7248
  338MPD2    H2 5128   0.066   3.956   1.210 -0.5114  0.4827  1.4897
  338MPD2    H3 5129   4.723   4.133   1.356 -1.2705  2.0963 -0.8174
  338MPD2     N 5130   4.289   4.104   1.203 -0.4029 -0.3647  0.3160
  338MPD2    H5 5131   4.214   4.057   1.153 -0.3559 -0.6654  0.5321
  338MPD2    N1 5132   4.649   3.810   1.037 -0.8379 -0.9205  0.5058
  338MPD2    H7 5133   4.583   3.770   0.972 -0.5965 -0.8895  0.2404
  339TMC3    C1 5134   4.105   4.233   1.244 -0.0256 -0.0904  0.2368
  339TMC3    C2 5135   4.023   4.293   1.332  0.0110 -0.2544  0.1797
  339TMC3    C3 5136   3.890   4.280   1.310 -0.5187 -0.7556  0.4625
  339TMC3    C4 5137   4.060   4.178   1.121 -0.2189 -0.1439  0.4307
  339TMC3    C5 5138   3.927   4.160   1.110  0.0916  0.4930  0.3736
  339TMC3    C6 5139   3.835   4.206   1.208 -0.4307 -0.7360 -0.1837
  339TMC3     C 5140   4.238   4.214   1.271 -0.1870 -0.7339  0.3831
  339TMC3     O 5141   4.290   4.282   1.362  0.0566 -0.1586  0.8315
  339TMC3     H 5142   4.054   4.355   1.416 -0.9921 -0.8873  1.0122
  339TMC3    H1 5143   4.126   4.150   1.040  0.4874  1.1285  0.5650
  339TMC3    H2 5144   3.729   4.186   1.202 -0.2543 -1.9157  0.6034
  339TMC3    C7 5145   3.895   4.061   1.015 -0.3121 -0.1902 -0.2612
  339TMC3    C8 5146   3.813   4.340   1.420 -0.3403  1.0396  0.3215
  339TMC3    O1 5147   3.955   4.062   0.905 -0.0905 -0.4820 -0.5834
  339TMC3    O2 5148   3.868   4.429   1.486 -1.0164 -0.1439 -0.3897
  340MPD2     C 5149   4.309   1.874  10.073  0.3320  0.1641  0.5596
  340MPD2    C1 5150   4.365   1.849  10.196  0.3968  0.2710 -0.0889
  340MPD2    C2 5151   4.476   1.929  10.238  0.3994  0.1548 -0.1330
  340MPD2    C3 5152   4.526   2.033  10.161 -0.1810  0.5581  0.6769
  340MPD2    C4 5153   4.466   2.052  10.032 -0.4104  1.2314 -0.0369
  340MPD2    C5 5154   4.359   1.971   9.999 -0.4312  0.3146 -0.2179
  340MPD2     H 5155   4.525   1.904  10.332 -0.5562  0.3164  0.4120
  340MPD2    H1 5156   4.504   2.132   9.970  2.3671 -1.0796 -1.3085
  340MPD2    H2 5157   4.228   1.807  10.045  0.9290  0.2633 -1.3902
  340MPD2    H3 5158   4.310   1.990   9.905  1.0767  0.1217 -1.0349
  340MPD2     N 5159   4.640   2.113  10.191  0.3482  0.2182 -0.1192
  340MPD2    H5 5160   4.697   2.160  10.122 -1.1859 -0.3038 -1.7439
  340MPD2    N1 5161   4.327   1.731  10.271  0.2931  0.0579 -0.3794
  340MPD2    H7 5162   4.267   1.667  10.220  0.0182 -1.0588  1.3305
  341TMC3    C1 5163   4.364   1.560  10.443  0.3700 -0.4987 -0.8415
  341TMC3    C2 5164   4.371   1.538  10.577 -0.3878 -0.4752 -0.0804
  341TMC3    C3 5165   4.397   1.413  10.614  0.3628 -0.2982  1.0549
  341TMC3    C4 5166   4.381   1.469  10.344 -0.2984 -0.2102 -0.4314
  341TMC3    C5 5167   4.405   1.344  10.389  0.5067  0.2677 -0.1640
  341TMC3    C6 5168   4.406   1.307  10.525  0.2257  0.0916 -0.3595
  341TMC3     C 5169   4.366   1.699  10.402 -0.1287 -0.1629 -0.5118
  341TMC3     O 5170   4.407   1.776  10.489 -0.7419  0.0761 -0.2513
  341TMC3     H 5171   4.350   1.615  10.650 -0.0940  0.1993 -0.6998
  341TMC3    H1 5172   4.407   1.493  10.241  0.1383  0.0319 -0.2630
  341TMC3    H2 5173   4.419   1.202  10.549  0.2148 -0.0828 -1.1297
  341TMC3    C7 5174   4.406   1.235  10.297  0.3562 -0.0678 -0.3763
  341TMC3    C8 5175   4.435   1.378  10.747 -0.2487  0.0711 -0.1139
  341TMC3    O1 5176   4.438   1.129  10.353  0.0450 -0.2607  0.2409
  341TMC3    O2 5177   4.450   1.260  10.770 -0.1766  0.1609  0.6137
  342MPD2     C 5178   2.593   4.112   0.243 -0.9172  0.2037  0.0752
  342MPD2    C1 5179   2.591   4.191   0.138 -0.3256 -0.1643  0.1219
  342MPD2    C2 5180   2.607   4.325   0.154  0.4455 -0.2408  0.6139
  342MPD2    C3 5181   2.626   4.380   0.280  0.3312 -0.1310  0.4559
  342MPD2    C4 5182   2.621   4.298   0.390  0.5120  0.0107  0.4830
  342MPD2    C5 5183   2.613   4.163   0.370 -0.9068  0.0066  0.0752
  342MPD2     H 5184   2.606   4.384   0.063 -2.6671  0.0025  0.8228
  342MPD2    H1 5185   2.627   4.342   0.489 -1.0156 -0.6762  0.8696
  342MPD2    H2 5186   2.592   4.005   0.229 -1.6684 -0.1048  2.4314
  342MPD2    H3 5187   2.596   4.097   0.454 -2.0701 -1.7599 -1.5546
  342MPD2     N 5188   2.661   4.513   0.305 -1.1273 -0.2543  0.4138
  342MPD2    H5 5189   2.677   4.537   0.402  2.5239  3.6793 -1.1586
  342MPD2    N1 5190   2.583   4.138   0.005  0.1102  0.2984 -0.1387
  342MPD2    H7 5191   2.588   4.200  17.667  0.7020 -0.3406 -0.5993
  343TMC3    C1 5192   2.577   3.987  17.580 -0.2251  0.6274 -0.2618
  343TMC3    C2 5193   2.665   4.048  17.502  0.1241 -0.0898 -0.3056
  343TMC3    C3 5194   2.673   4.013  17.362 -0.1658  0.0440 -0.5622
  343TMC3    C4 5195   2.501   3.882  17.526  0.2206 -0.2437 -0.6972
  343TMC3    C5 5196   2.510   3.860  17.391 -0.4344 -0.0714 -0.6197
  343TMC3    C6 5197   2.604   3.911  17.307 -0.2937 -0.3812 -0.7977
  343TMC3     C 5198   2.572   4.002  17.721 -0.1566  0.2170  0.3118
  343TMC3     O 5199   2.540   3.904   0.047 -0.2676  0.1800  0.2571
  343TMC3     H 5200   2.737   4.116  17.547 -0.6837  0.2880  0.4174
  343TMC3    H1 5201   2.435   3.823  17.589  0.5577  1.1047  0.9245
  343TMC3    H2 5202   2.601   3.879  17.204 -1.7590  3.2661 -1.8857
  343TMC3    C7 5203   2.461   3.736  17.355 -0.0437 -0.1614 -0.3725
  343TMC3    C8 5204   2.797   4.057  17.297 -0.0117  0.8568 -0.5458
  343TMC3    O1 5205   2.395   3.726  17.256  0.1413  0.0986 -0.1042
  343TMC3    O2 5206   2.857   4.153  17.340  0.1542 -0.6594  0.0273
  344MPD2     C 5207   3.208   4.397  11.343  0.4159 -0.0971  0.9125
  344MPD2    C1 5208   3.212   4.320  11.224 -0.4105 -0.2709  0.7145
  344MPD2    C2 5209   3.298   4.358  11.121  0.5822  0.3900  0.2289
  344MPD2    C3 5210   3.375   4.467  11.149 -0.0689 -0.6905  0.3365
  344MPD2    C4 5211   3.373   4.541  11.262  0.1187  0.3448  0.0452
  344MPD2    C5 5212   3.289   4.508  11.362 -0.0538 -0.2104 -0.0849
  344MPD2     H 5213   3.299   4.305  11.027  0.2901  0.7589  0.0176
  344MPD2    H1 5214   3.430   4.632  11.280  0.9389  0.0378 -0.9852
  344MPD2    H2 5215   3.150   4.361  11.427 -0.6484  0.6756  0.5174
  344MPD2    H3 5216   3.282   4.563  11.455 -0.4005  0.2275 -0.3647
  344MPD2     N 5217   3.465   4.516  11.052 -0.4691  0.1711 -0.5247
  344MPD2    H5 5218   3.537   4.581  11.083 -0.6532  0.1592 -0.0792
  344MPD2    N1 5219   3.145   4.196  11.212  0.1003  0.1036 -0.3243
  344MPD2    H7 5220   3.134   4.157  11.119  1.5522  4.0539 -2.1725
  345TMC3    C1 5221   3.558   4.569  10.847 -0.0532  0.1049  0.1056
  345TMC3    C2 5222   3.663   4.599  10.926 -0.2234 -0.0567  0.1575
  345TMC3    C3 5223   3.708   4.727  10.929 -0.1938 -0.6242  0.0850
  345TMC3    C4 5224   3.507   4.648  10.751  0.5024  0.5088  0.9550
  345TMC3    C5 5225   3.565   0.035  10.740 -0.0864 -0.2400  0.2031
  345TMC3    C6 5226   3.664   0.077  10.830 -0.4409  0.1504 -0.0656
  345TMC3     C 5227   3.452   4.488  10.919  0.7091  0.9684 -0.7964
  345TMC3     O 5228   3.355   4.449  10.855 -0.2190 -0.1364  0.1903
  345TMC3     H 5229   3.697   4.528  10.999  2.9128  0.4130 -0.8584
  345TMC3    H1 5230   3.427   4.613  10.686 -1.4440  0.5024  3.3689
  345TMC3    H2 5231   3.715   0.172  10.821 -1.2037  0.7680  2.1502
  345TMC3    C7 5232   3.532   0.125  10.631 -0.4201  0.6609 -0.0672
  345TMC3    C8 5233   3.720   0.046  11.066 -0.4067  0.3542 -0.3808
  345TMC3    O1 5234   3.573   0.237  10.656 -0.1672  0.4087  0.1448
  345TMC3    O2 5235   3.686   4.708  11.158  0.0962  0.1583  0.0442
  346MPD2     C 5236   3.442   0.648  14.252  0.5413  0.5100  1.0728
  346MPD2    C1 5237   3.457   0.769  14.189 -0.0874 -0.0575  0.5032
  346MPD2    C2 5238   3.451   0.884  14.255  0.3541 -0.1923  0.0214
  346MPD2    C3 5239   3.444   0.883  14.393 -0.5169 -0.2698  0.4783
  346MPD2    C4 5240   3.437   0.764  14.457  0.1610 -0.2285  0.3082
  346MPD2    C5 5241   3.449   0.650  14.386  0.3081 -0.1426 -0.3669
  346MPD2     H 5242   3.481   0.978  14.210 -1.1153 -0.1408 -0.8592
  346MPD2    H1 5243   3.439   0.758  14.565 -2.0676 -1.8069  0.2460
  346MPD2    H2 5244   3.440   0.555  14.196 -0.3193  0.9418  0.3834
  346MPD2    H3 5245   3.453   0.552  14.432  0.8915  0.9512  1.9222
  346MPD2     N 5246   3.466   1.008  14.467  0.6135  0.1744  0.3702
  346MPD2    H5 5247   3.504   1.084  14.411  3.1402  1.8601  4.3674
  346MPD2    N1 5248   3.478   0.774  14.051 -0.0021 -0.1836 -0.1930
  346MPD2    H7 5249   3.502   0.860  14.003  1.2195 -0.2523  0.2952
  347TMC3    C1 5250   3.514   1.144  14.647 -0.4188 -0.6301 -0.1941
  347TMC3    C2 5251   3.580   1.221  14.555  0.4363  0.1516  0.1289
  347TMC3    C3 5252   3.698   1.286  14.582  0.8762  0.1042 -0.7697
  347TMC3    C4 5253   3.578   1.124  14.766  0.1910  0.6259  0.4242
  347TMC3    C5 5254   3.697   1.192  14.796 -0.0769 -0.3996 -0.3446
  347TMC3    C6 5255   3.761   1.277  14.708  0.2195  0.1272 -0.8521
  347TMC3     C 5256   3.443   1.027  14.604 -0.9831 -0.4828 -0.0900
  347TMC3     O 5257   3.395   0.957  14.694 -0.3650  0.4818  0.2002
  347TMC3     H 5258   3.534   1.241  14.458 -0.2786 -1.1044  0.2109
  347TMC3    H1 5259   3.530   1.067  14.845  0.0153  1.8803  1.2154
  347TMC3    H2 5260   3.848   1.330  14.743 -1.3781  2.2831 -0.1513
  347TMC3    C7 5261   3.755   1.175  14.930 -0.2841  0.0645 -0.2115
  347TMC3    C8 5262   3.789   1.261  14.478 -0.3280 -0.4018  0.1118
  347TMC3    O1 5263   3.687   1.137  15.023 -0.2990 -0.3642 -0.2284
  347TMC3    O2 5264   3.777   1.166  14.405 -0.0574  0.1918 -0.0782
  348MPD2     C 5265   2.304   0.747  12.187 -0.8904 -1.1211  0.2833
  348MPD2    C1 5266   2.361   0.781  12.066 -0.4428 -0.1359  0.2884
  348MPD2    C2 5267   2.286   0.840  11.969 -0.0016 -0.6206  0.0382
  348MPD2    C3 5268   2.148   0.856  11.991  0.2386 -0.2767  0.3192
  348MPD2    C4 5269   2.084   0.798  12.104 -0.8244  0.6923 -0.5933
  348MPD2    C5 5270   2.164   0.758  12.207  0.7906 -0.2936 -0.3762
  348MPD2     H 5271   2.327   0.885  11.879  0.6832 -0.9163  0.2003
  348MPD2    H1 5272   1.977   0.809  12.119 -0.4571  0.2862  2.2450
  348MPD2    H2 5273   2.362   0.709  12.271  0.6844  2.3350  0.7459
  348MPD2    H3 5274   2.123   0.726  12.302 -0.0025  1.3507 -0.1782
  348MPD2     N 5275   2.076   0.936  11.900 -0.2515  0.3380  0.6227
  348MPD2    H5 5276   2.132   0.973  11.824  0.3881 -1.6223  0.1379
  348MPD2    N1 5277   2.500   0.755  12.037  0.4621  0.2423  0.3363
  348MPD2    H7 5278   2.541   0.781  11.948  0.6514  0.8210  0.5919
  349TMC3    C1 5279   2.685   0.603  12.063  0.0429 -0.5284  0.1492
  349TMC3    C2 5280   2.711   0.500  12.149  0.1121 -0.1369  0.2517
  349TMC3    C3 5281   2.693   0.373  12.101 -0.6462  0.0584  0.0238
  349TMC3    C4 5282   2.662   0.574  11.928 -0.6598 -0.4596  0.3028
  349TMC3    C5 5283   2.627   0.450  11.884  0.1698 -0.3601  0.1999
  349TMC3    C6 5284   2.655   0.347  11.974  0.3113 -0.2997 -0.3005
  349TMC3     C 5285   2.583   0.688  12.128 -0.3413  0.1969 -0.4126
  349TMC3     O 5286   2.573   0.685  12.250  0.4072 -0.0024  0.0320
  349TMC3     H 5287   2.729   0.516  12.255 -0.9413 -1.1313  0.5717
  349TMC3    H1 5288   2.648   0.661  11.866  1.0845 -0.4553 -0.0765
  349TMC3    H2 5289   2.635   0.245  11.944 -0.0750 -0.3854  0.2569
  349TMC3    C7 5290   2.499   0.446  11.821  0.3684  0.4369 -0.0430
  349TMC3    C8 5291   2.721   0.269  12.198  0.7059  0.1055 -0.5065
  349TMC3    O1 5292   2.423   0.360  11.855  0.4995  0.3279 -0.1829
  349TMC3    O2 5293   2.821   0.275  12.265  0.1278 -0.6322 -0.3026
  350MPD2     C 5294   0.660   3.772  10.215 -0.6164 -0.2942  0.4842
  350MPD2    C1 5295   0.703   3.658  10.278  0.3130  0.0191  0.0408
  350MPD2    C2 5296   0.768   3.668  10.404 -0.0327 -0.3657 -0.4589
  350MPD2    C3 5297   0.786   3.800  10.460 -0.1201 -0.6985 -0.5432
  350MPD2    C4 5298   0.751   3.910  10.393  0.3618  0.3527  0.9097
  350MPD2    C5 5299   0.683   3.896  10.272  0.1153  0.5683  0.7214
  350MPD2     H 5300   0.781   3.578  10.462 -3.1196 -0.6285 -0.1859
  350MPD2    H1 5301   0.758   4.011  10.432 -0.4101  0.6761  0.2302
  350MPD2    H2 5302   0.609   3.766  10.119  0.5908 -1.2494 -0.1078
  350MPD2    H3 5303   0.647   3.983  10.218 -1.3482 -0.2042  0.4396
  350MPD2     N 5304   0.838   3.809  10.589  0.1910 -0.0039 -0.6496
  350MPD2    H5 5305   0.852   3.721  10.637 -1.8036  0.0543  0.0520
  350MPD2    N1 5306   0.665   3.531  10.223 -0.2988 -1.0631  0.3697
  350MPD2    H7 5307   0.683   3.447  10.277  2.8874  0.6587  1.9411
  351TMC3    C1 5308   0.581   3.365  10.090 -0.4541 -0.1376  0.9536
  351TMC3    C2 5309   0.672   3.270  10.141  1.0704  0.2489 -0.1945
  351TMC3    C3 5310   0.647   3.139  10.116 -0.1951  0.0641 -0.2595
  351TMC3    C4 5311   0.463   3.327  10.027  0.0385  0.6626  0.5289
  351TMC3    C5 5312   0.436   3.191  10.019  1.3127 -0.0199  0.2688
  351TMC3    C6 5313   0.532   3.100  10.064  0.3845  0.6434  0.6319
  351TMC3     C 5314   0.606   3.504  10.102 -0.0622 -0.3224  0.6778
  351TMC3     O 5315   0.548   3.575  10.019  0.7834  0.1375  0.2273
  351TMC3     H 5316   0.775   3.303  10.142  1.4923 -1.1247  0.7011
  351TMC3    H1 5317   0.385   3.391   9.989 -1.0579 -1.6078 -1.0609
  351TMC3    H2 5318   0.510   2.993  10.065 -1.5596  1.0402  0.3022
  351TMC3    C7 5319   0.305   3.156   9.996  0.4577  0.5053  0.0527
  351TMC3    C8 5320   0.755   3.039  10.134 -0.1211  0.2261 -0.2347
  351TMC3    O1 5321   0.243   3.220   9.915  0.2944 -0.3114 -0.4922
  351TMC3    O2 5322   0.744   2.923  10.094  0.1263 -0.8408 -0.1752
  352MPD2     C 5323   4.736   1.085   1.111  0.4563  0.5433  0.3006
  352MPD2    C1 5324   4.616   1.024   1.128  0.2701  1.0016  0.1580
  352MPD2    C2 5325   4.608   0.887   1.140 -0.2131 -0.0236 -0.5554
  352MPD2    C3 5326   4.726   0.810   1.129  0.3995 -0.2985 -0.0916
  352MPD2    C4 5327   0.106   0.875   1.100  0.3379  0.1614  0.5221
  352MPD2    C5 5328   0.106   1.010   1.073  0.6901 -0.3935  0.2305
  352MPD2     H 5329   4.510   0.846   1.159  0.2800  0.2415  2.6596
  352MPD2    H1 5330   0.199   0.819   1.095  0.7821  1.1594 -2.4312
  352MPD2    H2 5331   0.004   1.193   1.120  0.5572  0.2826  3.7095
  352MPD2    H3 5332   0.196   1.069   1.057  0.3716  0.1807  0.5501
  352MPD2     N 5333   4.731   0.668   1.139  0.0487  0.2519  0.2168
  352MPD2    H5 5334   0.089   0.630   1.138  0.1534  0.5027  0.4890
  352MPD2    N1 5335   4.502   1.114   1.149 -0.1525 -0.8774 -0.1830
  352MPD2    H7 5336   4.530   1.212   1.148 -1.2352 -0.5769 -0.4678
  353TMC3    C1 5337   4.653   0.456   1.185 -0.1632 -0.3826 -0.4676
  353TMC3    C2 5338   0.043   0.421   1.201 -0.0822 -0.7535  0.4958
  353TMC3    C3 5339   0.069   0.290   1.209  0.6853 -0.0626  0.4185
  353TMC3    C4 5340   4.548   0.365   1.182 -0.8648 -0.4750 -0.6015
  353TMC3    C5 5341   4.583   0.230   1.191 -0.4394 -0.1111  0.5889
  353TMC3    C6 5342   4.711   0.191   1.191 -0.6942  0.5628  0.6603
  353TMC3     C 5343   4.619   0.591   1.158  0.1330  0.3044  0.7622
  353TMC3     O 5344   4.498   0.620   1.151 -0.6435 -0.3361 -0.0579
  353TMC3     H 5345   0.129   0.486   1.216 -0.2606 -0.7848  1.6376
  353TMC3    H1 5346   4.442   0.390   1.177 -1.1898 -1.3629  1.9493
  353TMC3    H2 5347   4.725   0.084   1.182 -0.2800  0.6837 -0.0784
  353TMC3    C7 5348   4.480   0.129   1.174  0.2215 -0.3307 -0.1639
  353TMC3    C8 5349   0.208   0.246   1.219  0.1193 -0.3336  0.9525
  353TMC3    O1 5350   4.503   0.043   1.089  0.3772 -0.1089  0.0280
  353TMC3    O2 5351   0.298   0.327   1.216 -0.3859 -0.1409  0.0157
  354TMC3    C1 5352   1.300   1.925  13.623  0.6251 -0.0503 -0.2460
  354TMC3    C2 5353   1.360   2.041  13.586 -0.2789  0.1522  0.8918
  354TMC3    C3 5354   1.381   2.059  13.452  0.8498  0.1236 -0.3149
  354TMC3    C4 5355   1.267   1.831  13.538 -0.1395 -0.1918  0.6631
  354TMC3    C5 5356   1.300   1.846  13.409 -0.7486  0.0724  0.2142
  354TMC3    C6 5357   1.356   1.960  13.360 -0.6827  0.4116  0.1847
  354TMC3     C 5358   1.276   1.911  13.766  0.2474 -0.3856 -0.7644
  354TMC3     O 5359   1.339   1.990  13.831 -0.3976  0.3606 -0.4168
  354TMC3     H 5360   1.379   2.120  13.657  1.2073 -0.7168  1.4585
  354TMC3    H1 5361   1.270   1.729  13.576  1.3719 -0.9428 -1.4939
  354TMC3    H2 5362   1.390   1.964  13.257 -0.5301 -0.3986  0.2036
  354TMC3    C7 5363   1.267   1.737  13.319  0.4235 -0.5858  0.8546
  354TMC3    C8 5364   1.401   2.197  13.412  0.3885 -0.6739  0.1332
  354TMC3    O1 5365   1.259   1.629  13.376 -0.4036  0.5273  0.8262
  354TMC3    O2 5366   1.457   2.262  13.499 -0.2473 -0.4757 -0.3687
  355MPD2     C 5367   1.487   2.665  11.419  0.2048 -0.4424 -0.5670
  355MPD2    C1 5368   1.513   2.744  11.526 -0.0471  0.3270  0.1916
  355MPD2    C2 5369   1.515   2.691  11.656 -0.0368  0.4476 -0.8812
  355MPD2    C3 5370   1.491   2.556  11.671 -0.5741  0.3580 -0.6875
  355MPD2    C4 5371   1.459   2.474  11.566  0.1619  0.2407  1.0283
  355MPD2    C5 5372   1.457   2.532  11.439  0.3409 -0.3341  0.0793
  355MPD2     H 5373   1.535   2.759  11.738  0.6629 -2.6507  1.4831
  355MPD2    H1 5374   1.440   2.368  11.577 -0.7618  0.1292 -1.6304
  355MPD2    H2 5375   1.482   2.696  11.316 -0.0416  0.5713 -0.2456
  355MPD2    H3 5376   1.436   2.472  11.350 -0.2773 -1.1069  0.7486
  355MPD2     N 5377   1.485   2.493  11.800  0.2503 -0.1455  0.4592
  355MPD2    H5 5378   1.448   2.398  11.797  0.3628 -0.1981  0.7995
  355MPD2    N1 5379   1.560   2.877  11.505  0.4667  0.3488  0.4307
  355MPD2    H7 5380   1.567   2.911  11.410  0.6742 -1.7720 -0.3080
  356TMC3    C1 5381   1.629   2.643  11.940 -0.0248 -0.3617  0.1930
  356TMC3    C2 5382   1.729   2.644  11.853 -0.1306  0.7054  0.0871
  356TMC3    C3 5383   1.831   2.730  11.880 -0.0911 -0.2924 -0.1379
  356TMC3    C4 5384   1.628   2.713  12.058 -0.1622 -0.3166  0.7409
  356TMC3    C5 5385   1.739   2.789  12.090 -0.3532 -0.2883  0.0827
  356TMC3    C6 5386   1.840   2.796  12.000 -0.1744  0.2357  0.3305
  356TMC3     C 5387   1.522   2.545  11.928 -0.2045 -0.3957  0.3285
  356TMC3     O 5388   1.508   2.474  12.027 -0.0085 -0.1233  0.3044
  356TMC3     H 5389   1.722   2.588  11.760  0.6323  1.1599 -0.2376
  356TMC3    H1 5390   1.548   2.704  12.130  0.4536 -0.2988  1.4329
  356TMC3    H2 5391   1.929   2.851  12.028 -0.2132 -0.8418  2.5109
  356TMC3    C7 5392   1.756   2.824  12.231  0.1032  0.3223 -0.1116
  356TMC3    C8 5393   1.904   2.783  11.764 -0.1483 -0.1287  0.2370
  356TMC3    O1 5394   1.715   2.740  12.312  0.0974 -0.1393 -0.5107
  356TMC3    O2 5395   1.911   2.716  11.662 -0.4322 -0.3441 -0.6496
  357MPD2     C 5396   0.820   2.359   0.141  0.5065 -0.7835 -0.5609
  357MPD2    C1 5397   0.903   2.346   0.249 -0.2582  0.7025 -0.5557
  357MPD2    C2 5398   0.871   2.261   0.359 -0.5216 -0.1910 -0.2067
  357MPD2    C3 5399   0.745   2.212   0.359 -0.2836 -0.3971 -0.8323
  357MPD2    C4 5400   0.648   2.255   0.267  0.2320  0.0442 -0.2755
  357MPD2    C5 5401   0.689   2.326   0.159 -0.3898 -0.1419 -1.0109
  357MPD2     H 5402   0.951   2.227   0.424 -0.1900  0.5028 -0.2516
  357MPD2    H1 5403   0.544   2.224   0.267  0.1260  0.4356  1.8575
  357MPD2    H2 5404   0.847   2.410   0.049 -1.8751  1.7132  0.1155
  357MPD2    H3 5405   0.621   2.361   0.082 -3.5108 -0.4390  1.6446
  357MPD2     N 5406   0.694   2.113   0.449 -0.0529  0.2916 -0.0172
  357MPD2    H5 5407   0.604   2.068   0.433 -0.5404  1.2182  0.0987
  357MPD2    N1 5408   1.032   2.397   0.239  0.1199 -0.0307 -0.2815
  357MPD2    H7 5409   1.060   2.434   0.148  1.1128 -1.1538 -0.4348
  358TMC3    C1 5410   1.255   2.398   0.264 -0.2194  0.7260 -0.2182
  358TMC3    C2 5411   1.283   2.340   0.149  0.6583  0.4451 -0.9411
  358TMC3    C3 5412   1.413   2.332   0.104 -0.9364  0.0200 -0.6342
  358TMC3    C4 5413   1.358   2.447   0.339  0.0899  0.1240 -0.3301
  358TMC3    C5 5414   1.483   2.430   0.305  0.1794  0.0373  0.0560
  358TMC3    C6 5415   1.519   2.375   0.179 -0.3507  0.0341  0.3241
  358TMC3     C 5416   1.134   2.380   0.331 -0.4676  1.0962 -0.3705
  358TMC3     O 5417   1.134   2.374   0.456  0.0646 -0.1341 -0.1150
  358TMC3     H 5418   1.200   2.308   0.088  0.0583 -0.5289  0.3903
  358TMC3    H1 5419   1.330   2.489   0.435 -2.6812 -0.7416 -0.7422
  358TMC3    H2 5420   1.621   2.347   0.156 -0.0221 -1.0707  3.2276
  358TMC3    C7 5421   1.582   2.506   0.386 -0.8232  0.3221  0.0030
  358TMC3    C8 5422   1.458   2.250  17.730 -0.0178 -1.0843 -0.8434
  358TMC3    O1 5423   1.531   2.591   0.459 -0.4540 -0.4328 -0.3451
  358TMC3    O2 5424   1.574   2.252  17.693  0.6753 -0.1349  0.4327
  359MPD2     C 5425   1.480   1.044  12.833 -0.0302 -0.4672  0.0920
  359MPD2    C1 5426   1.621   1.076  12.832 -0.4268 -0.0030 -0.2399
  359MPD2    C2 5427   1.692   1.058  12.951  0.1959  0.8383 -0.3690
  359MPD2    C3 5428   1.639   1.002  13.066  0.1441 -0.2513 -0.5552
  359MPD2    C4 5429   1.503   0.963  13.062 -1.1049 -0.2883  0.1678
  359MPD2    C5 5430   1.430   0.993  12.947  0.5726  0.2276 -0.3324
  359MPD2     H 5431   1.792   1.101  12.956  0.1288  0.9417  0.0609
  359MPD2    H1 5432   1.449   0.915  13.143 -0.9016  1.5470  1.4092
  359MPD2    H2 5433   1.426   1.072  12.744 -0.0512 -0.4121  0.1220
  359MPD2    H3 5434   1.324   0.972  12.961  0.6823  0.4765  0.8826
  359MPD2     N 5435   1.709   0.971  13.186  0.3037  0.2538 -0.0025
  359MPD2    H5 5436   1.662   0.925  13.264 -0.4288 -0.8963 -1.1194
  359MPD2    N1 5437   1.686   1.130  12.714 -0.1241  0.2452  0.3270
  359MPD2    H7 5438   1.786   1.149  12.717  0.4499 -2.4995 -0.6737
  360TMC3    C1 5439   1.716   1.192  12.486  0.3228 -0.7354  0.7932
  360TMC3    C2 5440   1.836   1.123  12.468 -0.1192  0.1172  0.2766
  360TMC3    C3 5441   1.890   1.114  12.341  0.0236  1.0473 -0.7454
  360TMC3    C4 5442   1.662   1.260  12.375 -0.0479 -0.6051  0.2085
  360TMC3    C5 5443   1.723   1.242  12.257  0.3998 -0.1998  1.0493
  360TMC3    C6 5444   1.830   1.162  12.226 -0.2493  0.1159  0.0945
  360TMC3     C 5445   1.622   1.161  12.595  0.0210  0.0070 -1.1132
  360TMC3     O 5446   1.507   1.175  12.568 -0.3210  0.4831  0.4161
  360TMC3     H 5447   1.877   1.073  12.554  0.8689  0.8890  0.2439
  360TMC3    H1 5448   1.560   1.296  12.374  0.2291  0.2252  1.1718
  360TMC3    H2 5449   1.865   1.148  12.125  1.0808  0.3068  0.5295
  360TMC3    C7 5450   1.623   1.245  12.155  0.2042  0.2803  0.4147
  360TMC3    C8 5451   2.035   1.096  12.344 -0.0645  0.1567 -0.2450
  360TMC3    O1 5452   1.556   1.340  12.138 -0.3497 -0.3725 -0.0814
  360TMC3    O2 5453   2.078   1.075  12.456 -0.0206 -0.2339  0.0274
  361MPD2     C 5454   3.296   0.182  16.781  0.3690  0.7549 -0.0570
  361MPD2    C1 5455   3.259   0.223  16.902 -0.2327 -0.0732 -0.0820
  361MPD2    C2 5456   3.341   0.223  17.010  0.6867 -0.0399  0.6054
  361MPD2    C3 5457   3.471   0.184  16.994  0.4216  0.1875  0.1841
  361MPD2    C4 5458   3.513   0.152  16.866 -0.0194  0.0086  0.0874
  361MPD2    C5 5459   3.428   0.155  16.763  0.8170 -0.1139 -0.5542
  361MPD2     H 5460   3.305   0.256  17.107  0.1137 -1.0736  0.7495
  361MPD2    H1 5461   3.617   0.130  16.847  0.1856  1.0795 -0.0291
  361MPD2    H2 5462   3.231   0.192  16.695 -0.1671 -3.1331 -0.1153
  361MPD2    H3 5463   3.464   0.129  16.664  3.2077 -0.1306  0.3226
  361MPD2     N 5464   3.570   0.177  17.095 -0.1362 -0.1308 -0.4666
  361MPD2    H5 5465   3.668   0.177  17.071  0.5886  2.9162  2.4918
  361MPD2    N1 5466   3.123   0.259  16.932  0.0969  0.0011 -0.2704
  361MPD2    H7 5467   3.108   0.293  17.027 -1.2467 -0.2696 -0.3874
  362TMC3    C1 5468   2.888   0.308  16.911 -0.6615  0.0685  0.2136
  362TMC3    C2 5469   2.872   0.309  17.047 -0.7238  0.3477  0.3259
  362TMC3    C3 5470   2.757   0.375  17.089 -0.2506  0.4647  0.4069
  362TMC3    C4 5471   2.783   0.337  16.822 -0.5363 -0.1797  0.2968
  362TMC3    C5 5472   2.676   0.403  16.870  0.1846 -0.4301  0.0682
  362TMC3    C6 5473   2.662   0.433  17.001  0.1480  0.1087  0.5403
  362TMC3     C 5474   3.012   0.258  16.848  0.0370 -0.1160  0.0379
  362TMC3     O 5475   3.009   0.223  16.731  0.4855  0.4968  0.2962
  362TMC3     H 5476   2.944   0.258  17.110 -0.2190  0.5604 -0.0834
  362TMC3    H1 5477   2.801   0.323  16.716  1.7508  0.0428  0.6539
  362TMC3    H2 5478   2.569   0.478  17.032 -1.9424 -3.7907 -0.1508
  362TMC3    C7 5479   2.591   0.476  16.770 -0.1913 -0.3899  0.4118
  362TMC3    C8 5480   2.757   0.382  17.238 -0.1962 -0.3814 -0.4177
  362TMC3    O1 5481   2.555   0.589  16.798 -0.8334 -0.4475 -0.4948
  362TMC3    O2 5482   2.869   0.376  17.283 -0.2951 -0.8450 -0.0583
  363TMC3    C1 5483   1.352   2.755   9.498 -0.4677  0.1199 -0.5220
  363TMC3    C2 5484   1.443   2.728   9.594 -1.1897 -0.6960  0.2311
  363TMC3    C3 5485   1.397   2.734   9.725  0.3893  0.5764 -0.3870
  363TMC3    C4 5486   1.227   2.803   9.521 -0.7507  0.1490 -0.5164
  363TMC3    C5 5487   1.192   2.819   9.654 -0.1056 -0.5669  0.7012
  363TMC3    C6 5488   1.278   2.788   9.757 -0.0778  0.3474 -0.2052
  363TMC3     C 5489   1.385   2.727   9.361 -0.0346 -0.9954  0.0894
  363TMC3     O 5490   1.303   2.771   9.279  0.3708  0.0978 -0.5813
  363TMC3     H 5491   1.548   2.705   9.583 -0.9496  0.6993 -0.4481
  363TMC3    H1 5492   1.149   2.810   9.446  0.0694  0.5127 -1.3362
  363TMC3    H2 5493   1.249   2.798   9.861 -1.1616  2.1127 -0.6858
  363TMC3    C7 5494   1.051   2.799   9.698  0.3657 -0.8391  0.1542
  363TMC3    C8 5495   1.500   2.738   9.826  0.7166 -0.0845 -0.6787
  363TMC3    O1 5496   1.023   2.740   9.797  0.2404 -0.3526 -0.0511
  363TMC3    O2 5497   1.470   2.797   9.930  0.0042 -0.4514 -0.7236
  364MPD2     C 5498   0.669   2.442  10.898 -0.5907 -0.1556 -0.8157
  364MPD2    C1 5499   0.797   2.463  10.856  0.3891  0.0554  0.0053
  364MPD2    C2 5500   0.884   2.352  10.855 -0.2361 -0.5229 -0.2827
  364MPD2    C3 5501   0.846   2.221  10.876  0.1785  0.0152 -0.5333
  364MPD2    C4 5502   0.713   2.206  10.918  0.5256  0.1104 -0.4105
  364MPD2    C5 5503   0.631   2.314  10.928 -0.2869 -0.5317 -0.8447
  364MPD2     H 5504   0.987   2.374  10.830 -0.1114  0.7749  1.3802
  364MPD2    H1 5505   0.671   2.109  10.941  0.1950  0.7991  1.8763
  364MPD2    H2 5506   0.598   2.524  10.908 -1.4901 -0.8096 -1.7996
  364MPD2    H3 5507   0.526   2.294  10.949 -0.6851  0.5124 -1.8684
  364MPD2     N 5508   0.926   2.111  10.872  0.5561  0.3233  0.0555
  364MPD2    H5 5509   0.883   2.024  10.901  5.9484 -1.7935  1.6910
  364MPD2    N1 5510   0.835   2.598  10.826  0.3811  0.2999 -0.8382
  364MPD2    H7 5511   0.762   2.668  10.830  0.6357  0.4579  1.1125
  365TMC3    C1 5512   0.948   2.781  10.770  0.1023  1.2831  0.6793
  365TMC3    C2 5513   1.031   2.821  10.669 -0.3471 -0.4798 -0.1040
  365TMC3    C3 5514   1.087   2.942  10.670  0.4033 -0.1907  0.5230
  365TMC3    C4 5515   0.919   2.858  10.883  0.5521 -0.3841 -0.5427
  365TMC3    C5 5516   0.968   2.983  10.879  0.0497 -0.1518  0.2320
  365TMC3    C6 5517   1.044   3.025  10.769 -0.3019  0.2720 -0.2196
  365TMC3     C 5518   0.956   2.645  10.793  0.1834  0.3396  0.2521
  365TMC3     O 5519   1.064   2.584  10.775  0.1096  0.1021  0.1701
  365TMC3     H 5520   1.048   2.752  10.587 -0.9885 -1.3849  0.5273
  365TMC3    H1 5521   0.839   2.829  10.950 -1.1345  0.5756 -2.1512
  365TMC3    H2 5522   1.104   3.115  10.779  1.1275 -0.8652  1.5634
  365TMC3    C7 5523   0.884   3.082  10.936 -0.7306 -0.1233 -0.9580
  365TMC3    C8 5524   1.230   2.937  10.647  0.1973  0.2803 -0.2244
  365TMC3    O1 5525   0.856   3.176  10.861  0.2178 -0.3887  0.8971
  365TMC3    O2 5526   1.292   3.036  10.680  0.0454 -0.1423  0.6226
  366MPD2     C 5527   3.457   2.853  15.534 -0.3458 -0.0973  0.0381
  366MPD2    C1 5528   3.558   2.931  15.475  0.1049 -0.3642  0.6548
  366MPD2    C2 5529   3.666   2.874  15.418  0.2959 -0.7118  0.3435
  366MPD2    C3 5530   3.690   2.744  15.457 -0.0402  0.1692  0.6748
  366MPD2    C4 5531   3.595   2.665  15.522  0.1587  0.0218  0.6634
  366MPD2    C5 5532   3.474   2.724  15.558  0.2246 -0.2789 -0.4122
  366MPD2     H 5533   3.746   2.921  15.361 -0.0992  1.5544  1.6992
  366MPD2    H1 5534   3.621   2.568  15.564  0.7640 -0.6829 -1.3480
  366MPD2    H2 5535   3.369   2.906  15.568  0.0444 -0.1792  1.1831
  366MPD2    H3 5536   3.393   2.669  15.604 -1.6498 -0.2458 -3.6562
  366MPD2     N 5537   3.820   2.695  15.427 -0.0444 -0.3369  0.0369
  366MPD2    H5 5538   3.887   2.752  15.376  0.9920 -2.2165 -0.7055
  366MPD2    N1 5539   3.536   3.071  15.463 -0.4256  0.4332 -0.3602
  366MPD2    H7 5540   3.619   3.115  15.425 -0.8353  1.9804  0.5493
  367TMC3    C1 5541   3.440   3.287  15.491  0.3116 -0.4949  0.5464
  367TMC3    C2 5542   3.547   3.341  15.566 -0.1894 -0.4127  0.2026
  367TMC3    C3 5543   3.579   3.473  15.542  0.2625 -0.1344 -0.2525
  367TMC3    C4 5544   3.371   3.363  15.397 -0.0647 -0.7649  0.1384
  367TMC3    C5 5545   3.404   3.500  15.392 -0.8571  0.0262  0.8495
  367TMC3    C6 5546   3.507   3.560  15.461  0.3617 -0.5014  0.3421
  367TMC3     C 5547   3.417   3.142  15.477 -0.7562  0.2069  0.8015
  367TMC3     O 5548   3.306   3.096  15.491  0.7106 -0.6842  0.4493
  367TMC3     H 5549   3.601   3.270  15.627  0.3259  1.4532  1.8617
  367TMC3    H1 5550   3.293   3.322  15.334  0.4742 -0.2231 -0.8864
  367TMC3    H2 5551   3.530   3.666  15.452  0.1347 -0.5144 -0.4027
  367TMC3    C7 5552   3.335   3.599  15.305  0.0386  0.6721 -0.4145
  367TMC3    C8 5553   3.689   3.520  15.617 -0.0059  0.1603 -0.0413
  367TMC3    O1 5554   3.326   3.716  15.346  0.0984  0.0108  0.4559
  367TMC3    O2 5555   3.783   3.447  15.641  0.1626 -0.1590 -0.0871
  368MPD2     C 5556   0.210   0.762  13.942  0.0784  0.7747 -0.2401
  368MPD2    C1 5557   0.239   0.809  13.817  1.1926 -0.5668 -0.1265
  368MPD2    C2 5558   0.369   0.816  13.772 -0.0536 -0.0974 -0.2911
  368MPD2    C3 5559   0.471   0.791  13.861  0.2950  0.3925 -0.3376
  368MPD2    C4 5560   0.449   0.732  13.983 -0.6636 -0.6916  0.1197
  368MPD2    C5 5561   0.317   0.722  14.022 -0.2997  0.0745 -0.6259
  368MPD2     H 5562   0.395   0.846  13.672 -0.2861  0.3458 -0.2188
  368MPD2    H1 5563   0.518   0.700  14.060 -1.2321  1.2975  1.4307
  368MPD2    H2 5564   0.109   0.751  13.979  0.9908  2.5372  2.8395
  368MPD2    H3 5565   0.284   0.681  14.117  1.0785  1.3871  0.4137
  368MPD2     N 5566   0.612   0.789  13.831  0.6316  0.3855 -0.2160
  368MPD2    H5 5567   0.679   0.763  13.902  0.4639  1.5539  0.3707
  368MPD2    N1 5568   0.122   0.844  13.742 -0.0475 -0.0719  0.0609
  368MPD2    H7 5569   0.032   0.830  13.788 -0.0964 -1.0201 -0.3197
  369TMC3    C1 5570   4.723   0.937  13.576  0.1072 -0.2648  0.4465
  369TMC3    C2 5571   4.710   1.037  13.487  0.0788  0.0333 -0.3102
  369TMC3    C3 5572   4.595   1.037  13.403 -0.2696  0.9270 -0.5694
  369TMC3    C4 5573   4.644   0.826  13.566  0.7781  0.5730 -0.3449
  369TMC3    C5 5574   4.539   0.823  13.474  0.0204 -0.0617 -0.5926
  369TMC3    C6 5575   4.514   0.927  13.387 -0.8717 -0.5144  0.0599
  369TMC3     C 5576   0.120   0.921  13.628 -0.2006 -0.2609 -0.3427
  369TMC3     O 5577   0.212   0.977  13.575  0.2804 -0.2204  0.1566
  369TMC3     H 5578   0.028   1.128  13.509  0.6583 -0.6652  1.1394
  369TMC3    H1 5579   4.671   0.739  13.625 -0.4402  1.7075  1.9337
  369TMC3    H2 5580   4.430   0.923  13.318 -1.4501 -0.5480  0.7619
  369TMC3    C7 5581   4.433   0.722  13.500 -0.4626 -0.3424 -0.0526
  369TMC3    C8 5582   4.598   1.132  13.293  0.3484 -0.1081 -0.2220
  369TMC3    O1 5583   4.450   0.666  13.606 -0.5663  0.0209  0.2740
  369TMC3    O2 5584   4.485   1.167  13.250  0.1077 -0.8329  0.8715
  370TMC3    C1 5585   4.498   1.308  16.411  0.7930  0.1913 -0.1571
  370TMC3    C2 5586   4.423   1.264  16.516 -0.7155  0.1649 -0.6029
  370TMC3    C3 5587   4.318   1.185  16.480  0.2177  0.0524  0.3616
  370TMC3    C4 5588   4.480   1.260  16.281 -0.0934  0.0089  0.1845
  370TMC3    C5 5589   4.382   1.165  16.253 -0.2439 -0.1544  0.1527
  370TMC3    C6 5590   4.297   1.127  16.352  0.0698  0.2228 -0.7097
  370TMC3     C 5591   4.614   1.384  16.451 -0.2961  0.9376  0.0405
  370TMC3     O 5592   4.657   1.382  16.567 -0.8942 -0.1033 -0.1812
  370TMC3     H 5593   4.429   1.306  16.616  0.4483  0.1031 -0.6467
  370TMC3    H1 5594   4.557   1.265  16.205 -1.4576 -0.2748 -1.1925
  370TMC3    H2 5595   4.216   1.056  16.338  0.8447 -1.0732  1.4613
  370TMC3    C7 5596   4.396   1.084  16.138  0.5377  0.3347  0.4532
  370TMC3    C8 5597   4.234   1.128  16.586  0.1580 -0.1848  0.3060
  370TMC3    O1 5598   4.376   1.138  16.026 -0.2899 -0.2926 -0.0325
  370TMC3    O2 5599   4.182   1.021  16.561 -0.5788  0.3535 -0.0252
  371TMC3    C1 5600   0.926   4.024  16.001  0.3733  0.1693 -0.7384
  371TMC3    C2 5601   0.796   4.063  15.954 -0.3032 -0.3464 -0.0543
  371TMC3    C3 5602   0.777   4.194  15.955  0.1537  0.0950  0.8772
  371TMC3    C4 5603   1.015   4.112  16.060  0.3235 -0.9100 -0.1469
  371TMC3    C5 5604   0.986   4.247  16.056 -0.1463  0.5286  0.4206
  371TMC3    C6 5605   0.861   4.290  16.003  0.2789  0.3774 -0.6162
  371TMC3     C 5606   0.999   3.928  15.923 -0.6135 -0.8444  0.7032
  371TMC3     O 5607   1.101   3.963  15.867 -0.0280  0.5048  0.1672
  371TMC3     H 5608   0.717   3.996  15.919 -0.0519  0.2262 -1.7490
  371TMC3    H1 5609   1.113   4.072  16.084  0.9328  0.2029 -0.8067
  371TMC3    H2 5610   0.837   4.395  16.002  0.8293  0.5179  1.2015
  371TMC3    C7 5611   1.091   4.341  16.026 -0.0879 -0.6497 -0.5050
  371TMC3    C8 5612   0.657   4.236  15.887 -0.3674 -0.9231 -0.2215
  371TMC3    O1 5613   1.059   4.425  15.943  0.3359 -0.7632  0.0911
  371TMC3    O2 5614   0.614   4.170  15.792 -0.0733 -0.4143 -0.5843
  372MPD2     C 5615   1.280   0.824  14.099 -0.3965 -0.1143  0.1499
  372MPD2    C1 5616   1.296   0.686  14.094 -0.1141  0.3840 -0.5169
  372MPD2    C2 5617   1.187   0.597  14.099  0.5355  0.1679  0.4768
  372MPD2    C3 5618   1.063   0.655  14.123 -0.9502  0.1046  0.2665
  372MPD2    C4 5619   1.049   0.797  14.135 -0.0613 -0.2258  0.3245
  372MPD2    C5 5620   1.156   0.879  14.115  0.1260  0.2144  0.7163
  372MPD2     H 5621   1.193   0.489  14.087 -0.7771 -0.2176  3.3436
  372MPD2    H1 5622   0.953   0.839  14.163 -1.0128 -1.7168 -0.6864
  372MPD2    H2 5623   1.359   0.896  14.081 -0.1188 -1.0925 -2.5437
  372MPD2    H3 5624   1.146   0.986  14.121 -0.0106  0.2493 -0.1180
  372MPD2     N 5625   0.952   0.563  14.137  0.4234 -0.6283 -0.3530
  372MPD2    H5 5626   0.979   0.466  14.122  3.6599  0.4710 -1.5799
  372MPD2    N1 5627   1.421   0.617  14.067 -0.4509  0.2879  0.2676
  372MPD2    H7 5628   1.426   0.516  14.071 -2.3684  0.1993  0.3635
  373TMC3    C1 5629   0.731   0.485  14.151 -0.8378 -0.2408 -0.0388
  373TMC3    C2 5630   0.620   0.494  14.231  0.8883  0.4397 -0.2465
  373TMC3    C3 5631   0.533   0.390  14.227  0.4640 -0.7129 -0.6675
  373TMC3    C4 5632   0.751   0.388  14.060 -0.2027  0.1565  0.7343
  373TMC3    C5 5633   0.664   0.285  14.058  0.5197  0.3275  0.1235
  373TMC3    C6 5634   0.557   0.282  14.153 -0.0480  0.4194  0.7613
  373TMC3     C 5635   0.820   0.602  14.132  0.0287 -0.4951  0.1655
  373TMC3     O 5636   0.762   0.711  14.126  0.4863 -0.2778  0.1906
  373TMC3     H 5637   0.604   0.571  14.306  1.8835  2.1965 -1.8247
  373TMC3    H1 5638   0.831   0.395  13.988 -1.4651 -1.3451 -0.7919
  373TMC3    H2 5639   0.488   0.198  14.150  0.6267 -0.2014  2.3589
  373TMC3    C7 5640   0.696   0.159  13.989 -0.3329 -0.1594  0.5013
  373TMC3    C8 5641   0.478   0.360  14.357  0.0982 -0.4304  0.1186
  373TMC3    O1 5642   0.756   0.168  13.880  0.1459  0.5003  0.0344
  373TMC3    O2 5643   0.398   0.438  14.413 -0.2614 -0.3914  0.1741
  374TMC3    C1 5644   1.034   0.372  10.170 -1.5654 -0.4049  0.6431
  374TMC3    C2 5645   1.154   0.436  10.165 -0.0229 -0.0768 -0.1085
  374TMC3    C3 5646   1.164   0.541  10.072 -0.7476  0.4408  0.1184
  374TMC3    C4 5647   0.916   0.410  10.100  0.3260  0.8455  0.7175
  374TMC3    C5 5648   0.933   0.499  10.006  0.1151 -0.1524 -0.2454
  374TMC3    C6 5649   1.056   0.565   9.992  0.7889 -0.3097  0.5267
  374TMC3     C 5650   1.007   0.287  10.292  0.1304 -0.0428 -0.0712
  374TMC3     O 5651   0.893   0.243  10.310  0.0375  0.2082 -0.0484
  374TMC3     H 5652   1.247   0.403  10.208  0.4723  1.0715 -0.2911
  374TMC3    H1 5653   0.829   0.344  10.102  1.3992 -0.5991 -1.2901
  374TMC3    H2 5654   1.061   0.635   9.909  1.2540  0.6154  1.3266
  374TMC3    C7 5655   0.814   0.550   9.942  0.0970 -0.0399  0.8454
  374TMC3    C8 5656   1.288   0.619  10.046 -0.0371 -0.1285  0.1282
  374TMC3    O1 5657   0.814   0.658   9.882 -0.1324 -0.3059  0.2864
  374TMC3    O2 5658   1.300   0.683   9.944  0.3062  0.3578 -0.3466
  375MPD2     C 5659   1.404   0.929  17.202  0.1981 -0.2549  0.4949
  375MPD2    C1 5660   1.342   1.022  17.121 -0.9431  0.2539  0.4004
  375MPD2    C2 5661   1.397   1.050  16.993  0.0070 -0.4789  0.1709
  375MPD2    C3 5662   1.524   1.007  16.955 -0.0910 -0.3431  0.1751
  375MPD2    C4 5663   1.591   0.925  17.048 -0.2597  0.0738 -0.5879
  375MPD2    C5 5664   1.534   0.892  17.167 -0.3885  0.8412 -0.4450
  375MPD2     H 5665   1.332   1.109  16.930 -1.5245 -0.8731  1.4081
  375MPD2    H1 5666   1.692   0.894  17.027 -0.0457  1.2315 -1.2558
  375MPD2    H2 5667   1.353   0.898  17.293  0.3169  1.0593  1.0216
  375MPD2    H3 5668   1.584   0.820  17.231  1.8429  1.8150 -1.0991
  375MPD2     N 5669   1.591   1.027  16.837 -0.0617 -0.0420 -0.0494
  375MPD2    H5 5670   1.689   1.001  16.837 -0.3787 -1.1857  2.6127
  375MPD2    N1 5671   1.213   1.075  17.149  0.1902 -0.3706  0.5227
  375MPD2    H7 5672   1.189   1.148  17.082  2.3450 -0.2052 -0.0860
  376TMC3    C1 5673   1.642   1.080  16.613 -0.1469  0.4360 -0.8606
  376TMC3    C2 5674   1.756   1.009  16.630  0.1436 -0.3614  0.5077
  376TMC3    C3 5675   1.831   0.988  16.519  0.7326 -0.2605 -0.5612
  376TMC3    C4 5676   1.592   1.118  16.497 -0.6778 -0.4153  0.0732
  376TMC3    C5 5677   1.658   1.066  16.382 -0.2634  0.3849 -0.4081
  376TMC3    C6 5678   1.777   0.997  16.395 -0.3955  0.4712  0.1815
  376TMC3     C 5679   1.548   1.095  16.724  0.3573 -0.4255  0.3488
  376TMC3     O 5680   1.444   1.158  16.708 -0.1116  0.1905  0.3363
  376TMC3     H 5681   1.794   0.972  16.724 -0.5522 -0.4839  0.7442
  376TMC3    H1 5682   1.507   1.185  16.492 -0.1425  0.5188  3.7683
  376TMC3    H2 5683   1.838   0.973  16.309  0.2325 -0.0714  0.7820
  376TMC3    C7 5684   1.630   1.134  16.254  0.3332 -0.9094 -0.1641
  376TMC3    C8 5685   1.969   1.041  16.519  0.1464  0.4123  0.1165
  376TMC3    O1 5686   1.562   1.233  16.274  0.4539  0.6285  0.0486
  376TMC3    O2 5687   2.022   1.045  16.410 -0.1126 -0.3326  1.0173
  377MPD2     C 5688   3.812   0.870  13.044  0.7095  0.7551  0.0337
  377MPD2    C1 5689   3.935   0.842  13.104  0.0174  0.5987 -0.1468
  377MPD2    C2 5690   3.947   0.738  13.192 -0.4785  0.5326  0.4403
  377MPD2    C3 5691   3.843   0.654  13.225 -0.3799 -0.2704  1.0776
  377MPD2    C4 5692   3.722   0.676  13.160 -0.5457 -0.2745  0.2106
  377MPD2    C5 5693   3.708   0.786  13.075  0.2983 -0.0349  0.0145
  377MPD2     H 5694   4.047   0.721  13.232  0.3803  1.2495 -1.3917
  377MPD2    H1 5695   3.633   0.620  13.187 -1.1186 -0.4022 -1.9566
  377MPD2    H2 5696   3.788   0.954  12.980 -0.7030 -0.4563 -1.0165
  377MPD2    H3 5697   3.612   0.809  13.029  1.7094  1.0364 -2.3804
  377MPD2     N 5698   3.864   0.554  13.331  0.1373  0.1906  0.4411
  377MPD2    H5 5699   3.951   0.564  13.382 -1.4826  0.1465  3.2067
  377MPD2    N1 5700   4.041   0.934  13.079 -0.6928  0.1035 -0.0018
  377MPD2    H7 5701   4.015   1.013  13.021  1.8417 -0.3235 -1.7337
  378TMC3    C1 5702   4.268   1.217  12.925 -0.0712  0.2132  0.9169
  378TMC3    C2 5703   4.202   1.146  13.032 -0.5205 -0.8946  0.0842
  378TMC3    C3 5704   4.259   1.027  13.066 -0.1791 -0.4621  0.5193
  378TMC3    C4 5705   4.394   1.182  12.873 -0.4405  0.1392  0.2485
  378TMC3    C5 5706   4.441   1.065  12.916  0.6263 -0.8824  0.2285
  378TMC3    C6 5707   4.384   0.982  13.008 -0.0255 -0.0512 -0.5373
  378TMC3     C 5708   4.172   1.292  12.837  0.9267  0.6880  0.2578
  378TMC3     O 5709   4.071   1.336  12.884 -0.0435 -0.1285  0.8031
  378TMC3     H 5710   4.105   1.174  13.072 -0.3007 -1.3887  0.9459
  378TMC3    H1 5711   4.451   1.255  12.816  0.3664 -0.7985 -0.1369
  378TMC3    H2 5712   4.427   0.884  13.025 -0.9399 -0.4845 -0.7219
  378TMC3    C7 5713   4.584   1.048  12.894  0.1189  0.9789  0.0531
  378TMC3    C8 5714   4.174   0.915  13.111  0.0126 -0.3949 -0.5702
  378TMC3    O1 5715   4.643   0.997  12.987 -0.2928  0.6589  0.7529
  378TMC3    O2 5716   4.234   0.822  13.152 -0.7000  0.2942 -0.0218
  379MPD2     C 5717   0.026   4.028  16.158  0.5077  0.1973 -0.2887
  379MPD2    C1 5718   4.731   3.913  16.218  0.1797  0.3310  0.0724
  379MPD2    C2 5719   0.082   3.867  16.319  0.1582 -0.4706  0.0914
  379MPD2    C3 5720   0.188   3.947  16.367  0.2926  0.4715  0.4110
  379MPD2    C4 5721   0.208   4.074  16.317 -0.9321 -0.1606 -0.3497
  379MPD2    C5 5722   0.120   4.106  16.219 -0.6555 -0.4613 -0.2725
  379MPD2     H 5723   0.054   3.779  16.376  0.4887 -0.7885 -0.2296
  379MPD2    H1 5724   0.281   4.142  16.358 -2.2734 -0.7457  3.0248
  379MPD2    H2 5725   4.700   4.061  16.076  0.9818  2.7460  0.3960
  379MPD2    H3 5726   0.136   4.199  16.167 -1.9476 -0.5790 -0.8678
  379MPD2     N 5727   0.262   3.901  16.476 -0.3286 -0.2725  0.9111
  379MPD2    H5 5728   0.348   3.949  16.500 -0.5719  0.7843 -0.3544
  379MPD2    N1 5729   4.620   3.837  16.158  0.2202 -0.4033 -0.0936
  379MPD2    H7 5730   4.593   3.869  16.066 -0.1278  0.0769  0.1762
  380TMC3    C1 5731   4.460   3.681  16.131 -0.3394 -0.1884  0.3019
  380TMC3    C2 5732   4.470   3.549  16.096 -0.2830  0.2708  0.3677
  380TMC3    C3 5733   4.424   3.504  15.973  0.2062 -0.5468  0.4402
  380TMC3    C4 5734   4.392   3.769  16.053 -0.0311  0.1331 -0.1620
  380TMC3    C5 5735   4.329   3.715  15.939  0.1054 -0.0932 -0.1314
  380TMC3    C6 5736   4.343   3.584  15.896  0.3603 -0.7415  0.8514
  380TMC3     C 5737   4.556   3.733  16.216 -0.2717 -0.4634 -0.1178
  380TMC3     O 5738   4.577   3.676  16.325  0.3718  0.0020  0.2594
  380TMC3     H 5739   4.527   3.485  16.163  0.4129 -0.5083 -0.9626
  380TMC3    H1 5740   4.373   3.872  16.079 -2.7035 -0.4751  0.3265
  380TMC3    H2 5741   4.304   3.563  15.797  1.5092 -0.1905  0.2833
  380TMC3    C7 5742   4.228   3.800  15.872 -0.0122  0.2445 -0.0035
  380TMC3    C8 5743   4.496   3.397  15.917 -0.2561  0.4097 -0.1354
  380TMC3    O1 5744   4.245   3.922  15.878  0.2004 -0.2766  0.1370
  380TMC3    O2 5745   4.616   3.399  15.941  0.1822 -0.0482 -0.9178
  381TMC3    C1 5746   4.125   0.488  16.325  0.2875 -0.4690  0.3770
  381TMC3    C2 5747   4.251   0.525  16.366 -0.9457  0.3793  0.0583
  381TMC3    C3 5748   4.267   0.618  16.465  0.5616  0.1423  0.4640
  381TMC3    C4 5749   4.011   0.554  16.370  0.5558  0.2053 -0.7456
  381TMC3    C5 5750   4.033   0.633  16.478 -0.0363 -0.2014  0.3583
  381TMC3    C6 5751   4.155   0.669  16.520  0.0639  1.4417 -0.1741
  381TMC3     C 5752   4.100   0.368  16.244  0.0348  0.1525  0.0565
  381TMC3     O 5753   3.991   0.363  16.191 -0.3236 -0.2381 -0.2169
  381TMC3     H 5754   4.344   0.489  16.322 -1.7538 -2.7807  0.9138
  381TMC3    H1 5755   3.913   0.512  16.347 -0.0131  0.9963  0.2553
  381TMC3    H2 5756   4.163   0.741  16.601  0.3501  0.4107  0.7142
  381TMC3    C7 5757   3.968   0.560  16.580 -0.0808 -0.2313 -0.0054
  381TMC3    C8 5758   4.386   0.706  16.448  0.0738  0.0816 -0.3709
  381TMC3    O1 5759   3.941   0.441  16.567 -0.1289 -0.0850  0.1776
  381TMC3    O2 5760   4.438   0.692  16.338  0.1393 -0.5740 -0.0703
  382MPD2     C 5761   4.046   2.279  17.199 -0.1652  0.6793  0.1597
  382MPD2    C1 5762   3.941   2.354  17.223  0.1412  0.5045 -0.2001
  382MPD2    C2 5763   3.872   2.338  17.341  0.3779  0.4944  0.1031
  382MPD2    C3 5764   3.879   2.217  17.406 -1.4829 -0.3948  0.8484
  382MPD2    C4 5765   3.965   2.120  17.360 -1.2697  0.1794  0.1569
  382MPD2    C5 5766   4.060   2.160  17.263 -0.3257 -0.2309 -0.0078
  382MPD2     H 5767   3.789   2.405  17.362  0.6830  1.2988 -1.2465
  382MPD2    H1 5768   3.972   2.022  17.405 -0.4548  1.4511  2.8331
  382MPD2    H2 5769   4.111   2.304  17.116 -1.1966  1.7028 -0.3317
  382MPD2    H3 5770   4.143   2.099  17.229  0.6909  1.3583 -0.4162
  382MPD2     N 5771   3.798   2.182  17.519  0.3579  0.1345 -0.2218
  382MPD2    H5 5772   3.800   2.085  17.550  2.6977  0.6796  1.3409
  382MPD2    N1 5773   3.895   2.454  17.133 -0.3536  0.5115 -0.1332
  382MPD2    H7 5774   3.812   2.509  17.150 -1.6931 -1.7039  0.4062
  383TMC3    C1 5775   3.615   2.192  17.658  0.2064  0.6460 -0.6758
  383TMC3    C2 5776   3.563   2.083  17.604 -0.5482  0.4165  0.2747
  383TMC3    C3 5777   3.482   2.006  17.683 -0.2362 -0.0181 -0.3776
  383TMC3    C4 5778   3.593   2.232   0.036  0.5874  0.0133  0.5971
  383TMC3    C5 5779   3.505   2.164   0.113  0.0768  0.9239  0.5087
  383TMC3    C6 5780   3.449   2.053   0.064  0.6300 -0.3779  0.4464
  383TMC3     C 5781   3.712   2.268  17.586 -0.0176  0.7715 -0.0105
  383TMC3     O 5782   3.688   2.386  17.564  0.7765 -0.3276  0.0720
  383TMC3     H 5783   3.586   2.058  17.501 -1.3989  0.4290  0.0813
  383TMC3    H1 5784   3.664   2.301   0.081  1.2525 -0.6781  0.6185
  383TMC3    H2 5785   3.380   1.997   0.125  0.2197  1.2749  1.4667
  383TMC3    C7 5786   3.522   2.160   0.256 -0.1303  0.3125 -0.2219
  383TMC3    C8 5787   3.423   1.884  17.626 -0.1063  0.1987  0.2808
  383TMC3    O1 5788   3.497   2.054   0.313  0.1662  0.0397 -0.5698
  383TMC3    O2 5789   3.417   1.787  17.694 -0.2108  0.1562 -0.2236
  384MPD2     C 5790   0.049   3.969  12.384 -0.9132 -0.6497  0.0973
  384MPD2    C1 5791   0.022   3.847  12.438  0.4709  0.7511  0.6049
  384MPD2    C2 5792   0.128   3.766  12.479  0.1012 -0.8593 -1.1051
  384MPD2    C3 5793   0.262   3.797  12.460 -0.5291 -0.4334 -0.2427
  384MPD2    C4 5794   0.292   3.928  12.433  0.4408  0.2100 -0.3015
  384MPD2    C5 5795   0.183   4.008  12.389 -0.3964  0.1738 -0.2089
  384MPD2     H 5796   0.102   3.672  12.527 -0.2703 -0.6348 -0.8647
  384MPD2    H1 5797   0.395   3.962  12.431  0.8526 -1.0223 -0.2776
  384MPD2    H2 5798   4.708   4.033  12.343 -1.5968 -1.1872  0.5267
  384MPD2    H3 5799   0.208   4.103  12.343  2.1206 -0.4728 -0.1703
  384MPD2     N 5800   0.360   3.703  12.501 -0.5284  0.3928 -0.3212
  384MPD2    H5 5801   0.328   3.608  12.519  0.3837  0.3849  1.2724
  384MPD2    N1 5802   4.627   3.800  12.468 -0.1587 -0.0927 -0.1765
  384MPD2    H7 5803   4.627   3.712  12.518 -1.7925 -0.1075 -0.2027
  385TMC3    C1 5804   0.547   3.609  12.599 -0.6859 -0.4011 -0.3106
  385TMC3    C2 5805   0.591   3.513  12.514  0.5240  0.2175  0.0610
  385TMC3    C3 5806   0.555   3.386  12.543 -0.0393  0.3237 -0.4043
  385TMC3    C4 5807   0.473   3.579  12.706  0.7437 -0.1223 -0.0239
  385TMC3    C5 5808   0.435   3.452  12.733  0.3906  0.5399 -0.3223
  385TMC3    C6 5809   0.478   3.352  12.651 -0.4823 -0.0742 -0.4596
  385TMC3     C 5810   0.499   3.723  12.525  0.3028  0.0328  0.1883
  385TMC3     O 5811   0.560   3.829  12.513  0.0143 -0.0222  0.6700
  385TMC3     H 5812   0.637   3.536  12.418 -1.3259  0.4592 -0.7732
  385TMC3    H1 5813   0.450   3.669  12.762 -1.9167 -0.7546 -0.0698
  385TMC3    H2 5814   0.439   3.252  12.668  1.6460 -0.9902 -0.9500
  385TMC3    C7 5815   0.311   3.432  12.796 -0.7237 -0.4469  0.5451
  385TMC3    C8 5816   0.579   3.291  12.441  0.5342  0.0552 -0.5709
  385TMC3    O1 5817   0.230   3.353  12.745 -0.1518 -0.0078  0.4482
  385TMC3    O2 5818   0.547   3.322  12.326 -0.0111  0.1944 -0.1014
  386TMC3    C1 5819   0.679   1.255  12.197 -0.5398 -0.2054  0.0047
  386TMC3    C2 5820   0.737   1.293  12.078 -0.4137  0.2899  0.3797
  386TMC3    C3 5821   0.677   1.389  12.006  1.0496  0.1771  0.1600
  386TMC3    C4 5822   0.575   1.327  12.242  0.4680 -0.7645  0.2352
  386TMC3    C5 5823   0.516   1.422  12.167 -0.0458 -0.6725 -0.4649
  386TMC3    C6 5824   0.570   1.464  12.052  0.0090  0.4018  0.1596
  386TMC3     C 5825   0.757   1.172  12.286  0.0952 -0.4678  0.7749
  386TMC3     O 5826   0.790   1.060  12.246  0.2199  0.3969 -0.7334
  386TMC3     H 5827   0.829   1.252  12.037 -0.5979  1.3159 -1.0821
  386TMC3    H1 5828   0.523   1.298  12.333 -0.3151 -0.1858 -0.0277
  386TMC3    H2 5829   0.531   1.543  11.989  2.5599  0.6989 -1.0325
  386TMC3    C7 5830   0.370   1.423  12.185 -0.1473  0.8596  0.2084
  386TMC3    C8 5831   0.711   1.403  11.864  0.4066  0.1053  0.3812
  386TMC3    O1 5832   0.333   1.403  12.298  0.3378 -0.3829  0.3229
  386TMC3    O2 5833   0.645   1.495  11.815 -0.2637 -0.3023  0.2544
  387MPD2     C 5834   3.311   1.547  10.234  0.6266  0.6033 -0.8223
  387MPD2    C1 5835   3.356   1.480  10.347 -0.1902 -0.2421  0.2429
  387MPD2    C2 5836   3.387   1.343  10.333 -0.6998  1.0598 -0.6090
  387MPD2    C3 5837   3.371   1.273  10.214  0.0934 -0.8349  0.3066
  387MPD2    C4 5838   3.315   1.346  10.111 -0.0226  0.6423 -0.3798
  387MPD2    C5 5839   3.290   1.476  10.118 -0.5098 -0.2023 -0.1371
  387MPD2     H 5840   3.409   1.287  10.424  0.2046  1.1256 -0.7934
  387MPD2    H1 5841   3.296   1.294  10.018 -1.0288  1.8136 -0.8374
  387MPD2    H2 5842   3.283   1.651  10.252 -1.4947  0.0737 -1.1113
  387MPD2    H3 5843   3.251   1.521  10.028 -1.2353 -1.0824 -0.2564
  387MPD2     N 5844   3.416   1.142  10.204 -0.0469  0.4592 -0.2693
  387MPD2    H5 5845   3.477   1.110  10.279  1.9204  3.2977 -0.6346
  387MPD2    N1 5846   3.397   1.544  10.466  0.0224 -0.4641  0.4360
  387MPD2    H7 5847   3.419   1.482  10.543  0.4649 -1.2792 -0.3456
  388TMC3    C1 5848   3.501   1.700  10.609  0.1245  0.7581 -0.2357
  388TMC3    C2 5849   3.480   1.808  10.694 -0.6424  0.4049 -0.1912
  388TMC3    C3 5850   3.566   1.817  10.800 -0.5951  0.5137 -0.4613
  388TMC3    C4 5851   3.609   1.614  10.622  0.3003 -0.1258 -0.4823
  388TMC3    C5 5852   3.688   1.618  10.738 -0.0617  0.5799 -0.2648
  388TMC3    C6 5853   3.666   1.723  10.827  0.2148 -0.8826  0.1480
  388TMC3     C 5854   3.402   1.678  10.497 -0.1738 -0.0030  0.0104
  388TMC3     O 5855   3.336   1.770  10.461 -0.6099  0.0887 -0.2624
  388TMC3     H 5856   3.395   1.874  10.683  0.4833  2.0627  1.1680
  388TMC3    H1 5857   3.652   1.565  10.535  0.3966  1.3628 -1.2688
  388TMC3    H2 5858   3.712   1.724  10.925 -0.0084 -0.6580  0.2507
  388TMC3    C7 5859   3.748   1.500  10.784 -0.8829 -0.4046  0.2958
  388TMC3    C8 5860   3.530   1.913  10.897  0.7292  0.0486 -0.6951
  388TMC3    O1 5861   3.819   1.493  10.886 -0.1847  0.0380 -0.0223
  388TMC3    O2 5862   3.573   1.883  11.009  0.3042 -0.2270  0.6971
  389MPD2     C 5863   2.197   3.933  11.162 -0.0076 -0.2555 -0.2692
  389MPD2    C1 5864   2.244   4.060  11.183  0.0387 -0.1069  0.4024
  389MPD2    C2 5865   2.308   4.082  11.308  0.1476  0.0345  0.1594
  389MPD2    C3 5866   2.304   3.994  11.412 -1.0686 -0.6421  0.3047
  389MPD2    C4 5867   2.251   3.871  11.388  0.2513  0.5376  0.4002
  389MPD2    C5 5868   2.196   3.841  11.262  0.1924  0.3010 -0.1036
  389MPD2     H 5869   2.360   4.175  11.327 -0.1328  0.3033 -0.3964
  389MPD2    H1 5870   2.241   3.794  11.464  2.1733  0.6020  0.7111
  389MPD2    H2 5871   2.165   3.895  11.066  0.5705  1.2506 -1.0591
  389MPD2    H3 5872   2.152   3.743  11.249  2.1399 -0.3947 -1.3519
  389MPD2     N 5873   2.351   4.019  11.544  0.6414 -0.3338 -0.2590
  389MPD2    H5 5874   2.334   3.945  11.612 -3.7897  0.2882 -0.6729
  389MPD2    N1 5875   2.250   4.170  11.086 -0.6880 -0.4324 -0.1658
  389MPD2    H7 5876   2.295   4.258  11.111 -1.8709  0.4472 -1.1684
  390TMC3    C1 5877   2.425   4.127  11.726 -0.4739 -0.9362 -0.4349
  390TMC3    C2 5878   2.428   4.002  11.771 -0.1297 -0.2295  0.4755
  390TMC3    C3 5879   2.345   3.960  11.869 -0.2901 -0.2777 -1.3073
  390TMC3    C4 5880   2.343   4.211  11.789  0.6465 -0.3505  0.5270
  390TMC3    C5 5881   2.259   4.174  11.891  0.3185  0.4835 -0.0988
  390TMC3    C6 5882   2.289   4.056  11.948  0.0628  0.1432  0.5429
  390TMC3     C 5883   2.416   4.134  11.583  0.3102  0.3872  0.2934
  390TMC3     O 5884   2.432   4.248  11.536 -0.2402  0.3383  0.3712
  390TMC3     H 5885   2.480   3.921  11.721  0.2040 -0.4616  1.1977
  390TMC3    H1 5886   2.326   4.307  11.742 -0.2147 -1.4889 -1.4661
  390TMC3    H2 5887   2.228   4.036  12.036  0.6336 -0.4944  0.7940
  390TMC3    C7 5888   2.121   4.169  11.844 -0.7429 -0.0209 -0.3330
  390TMC3    C8 5889   2.262   3.841  11.838 -0.2670  0.2371 -0.2886
  390TMC3    O1 5890   2.037   4.118  11.916 -0.6267  0.1865  0.3461
  390TMC3    O2 5891   2.291   3.777  11.740 -0.2877 -0.5774 -0.0053
  391MPD2     C 5892   1.340   1.031  11.425  0.4768 -0.5695 -0.1979
  391MPD2    C1 5893   1.469   1.067  11.413  0.0006  0.2169 -0.1241
  391MPD2    C2 5894   1.517   1.089  11.287  0.6684 -1.0371 -0.1513
  391MPD2    C3 5895   1.442   1.073  11.177  0.0301 -0.1699 -0.2997
  391MPD2    C4 5896   1.306   1.050  11.185 -1.2700 -0.5675 -0.2840
  391MPD2    C5 5897   1.263   1.024  11.309 -0.2389  0.0989 -0.7926
  391MPD2     H 5898   1.619   1.125  11.280 -0.0888  0.8562 -1.2151
  391MPD2    H1 5899   1.230   1.038  11.108 -0.9323 -0.3352 -0.6517
  391MPD2    H2 5900   1.293   1.024  11.522 -0.8938 -1.1848 -0.9000
  391MPD2    H3 5901   1.157   1.005  11.318 -0.1203 -0.6691 -1.0276
  391MPD2     N 5902   1.504   1.115  11.059 -0.0661  0.3682 -0.0985
  391MPD2    H5 5903   1.601   1.141  11.074  0.5732 -0.3880 -2.8605
  391MPD2    N1 5904   1.548   1.086  11.529  0.4401  0.0198  0.6784
  391MPD2    H7 5905   1.509   1.064  11.620  0.3566  0.0979  0.6620
  392TMC3    C1 5906   1.535   1.142  10.831  0.6298  0.2406 -0.3556
  392TMC3    C2 5907   1.502   1.077  10.715 -0.3997 -0.1208 -0.3178
  392TMC3    C3 5908   1.587   1.061  10.609  0.2068 -0.3447 -0.0049
  392TMC3    C4 5909   1.660   1.197  10.836 -0.2274  0.3077 -0.6884
  392TMC3    C5 5910   1.742   1.194  10.724  0.0638 -0.0026 -0.4982
  392TMC3    C6 5911   1.717   1.115  10.614 -0.1554  0.4213 -0.1872
  392TMC3     C 5912   1.445   1.135  10.937  0.5874  0.1335  0.4656
  392TMC3     O 5913   1.328   1.128  10.909 -0.0239  0.1128  0.1590
  392TMC3     H 5914   1.403   1.036  10.697 -0.1692 -1.0102  0.4251
  392TMC3    H1 5915   1.695   1.244  10.927 -3.1013  0.5405  0.3046
  392TMC3    H2 5916   1.800   1.084  10.551  1.3828  1.4448  1.3620
  392TMC3    C7 5917   1.862   1.270  10.746 -0.6283 -0.3796 -0.4308
  392TMC3    C8 5918   1.568   0.944  10.529 -0.3565  0.6358 -0.5664
  392TMC3    O1 5919   1.906   1.298  10.857 -1.1715 -0.1221  0.3025
  392TMC3    O2 5920   1.494   0.859  10.577 -0.0271  0.0411 -0.2215
  393TMC3    C1 5921   0.454   3.919  11.676 -0.2189 -0.0295  0.1275
  393TMC3    C2 5922   0.320   3.903  11.644  0.1311 -0.1173  0.0767
  393TMC3    C3 5923   0.265   3.781  11.680  0.1252 -0.6023 -0.1717
  393TMC3    C4 5924   0.516   3.834  11.757 -0.1625 -0.1122 -0.0142
  393TMC3    C5 5925   0.462   3.711  11.789 -0.5435  0.5632  0.0424
  393TMC3    C6 5926   0.339   3.679  11.735  0.4759  0.0119 -0.1238
  393TMC3     C 5927   0.545   4.004  11.592 -0.3098 -0.6634 -0.0118
  393TMC3     O 5928   0.647   4.041  11.647 -0.5888  0.3545  0.1472
  393TMC3     H 5929   0.267   3.990  11.607  1.7917  0.9890  0.2516
  393TMC3    H1 5930   0.611   3.871  11.795  0.3361  1.3281 -2.6758
  393TMC3    H2 5931   0.303   3.580  11.758  1.1095  0.1118  1.2805
  393TMC3    C7 5932   0.556   3.607  11.767 -0.6863 -0.7314  0.0124
  393TMC3    C8 5933   0.140   3.745  11.621 -0.5842  0.1600  0.1109
  393TMC3    O1 5934   0.520   3.491  11.785 -0.2962  0.1193  0.6796
  393TMC3    O2 5935   0.129   3.626  11.589  0.5974  0.3852 -0.2154
  394TMC3    C1 5936   2.199   4.294  10.890  0.8372  0.0256  0.1450
  394TMC3    C2 5937   2.110   4.332  10.799  0.0686 -0.0223 -0.8344
  394TMC3    C3 5938   2.128   4.449  10.723 -0.1073 -0.0835 -0.3571
  394TMC3    C4 5939   2.305   4.375  10.921 -0.5208  0.4017  0.1894
  394TMC3    C5 5940   2.335   4.485  10.841  0.1817  0.7734 -0.0757
  394TMC3    C6 5941   2.243   4.524  10.745 -0.6918  0.1235  0.5366
  394TMC3     C 5942   2.188   4.164  10.958 -0.2181  0.1763 -0.1920
  394TMC3     O 5943   2.119   4.082  10.905  0.4165 -0.3310  0.4049
  394TMC3     H 5944   2.022   4.271  10.787 -0.4133  0.7689 -1.2907
  394TMC3    H1 5945   2.376   4.342  10.996 -1.7578 -0.5075  0.9431
  394TMC3    H2 5946   2.261   4.612  10.684  1.1785  0.6684  1.8650
  394TMC3    C7 5947   2.466   4.545  10.836  0.3912  0.2939  0.2896
  394TMC3    C8 5948   2.084   4.442  10.585  0.5102 -0.6828 -0.2820
  394TMC3    O1 5949   2.493   4.609  10.736 -0.1492  0.3379 -0.1727
  394TMC3    O2 5950   2.039   4.542  10.533 -0.2499 -0.1742 -0.2356
  395TMC3    C1 5951   2.376   1.302  14.786  0.5749 -0.5068 -0.4867
  395TMC3    C2 5952   2.254   1.335  14.730  0.4133  0.0164 -0.6371
  395TMC3    C3 5953   2.240   1.449  14.660 -0.3223 -0.0377 -0.2941
  395TMC3    C4 5954   2.490   1.371  14.755  0.3574  0.2929  0.3252
  395TMC3    C5 5955   2.483   1.483  14.678 -0.1811  0.3804 -0.3881
  395TMC3    C6 5956   2.357   1.525  14.638  0.1228 -0.2278  0.2166
  395TMC3     C 5957   2.379   1.194  14.882 -0.0223 -0.2583 -0.1695
  395TMC3     O 5958   2.418   1.224  14.989  0.0850  0.3717  0.1780
  395TMC3     H 5959   2.161   1.282  14.744  0.9879 -0.3526  1.8445
  395TMC3    H1 5960   2.586   1.331  14.785 -0.6444 -1.5032  1.1892
  395TMC3    H2 5961   2.342   1.621  14.589 -2.0324 -0.5438  0.2531
  395TMC3    C7 5962   2.610   1.531  14.629  0.4245  1.1000 -0.7915
  395TMC3    C8 5963   2.120   1.522  14.640  0.6709 -0.5409 -0.2880
  395TMC3    O1 5964   2.707   1.496  14.697  0.2663 -0.3832 -0.5518
  395TMC3    O2 5965   2.129   1.635  14.596  0.1571  0.2416 -0.3611
  396MPD2     C 5966   1.841   2.266  16.793 -0.1624 -0.2629  0.1576
  396MPD2    C1 5967   1.950   2.328  16.848 -0.2921 -0.3773 -0.2857
  396MPD2    C2 5968   2.011   2.428  16.776 -1.0247  0.2056 -0.9454
  396MPD2    C3 5969   1.971   2.460  16.647 -0.1581  0.0013  0.0625
  396MPD2    C4 5970   1.868   2.381  16.592  0.0850 -0.2742  1.1313
  396MPD2    C5 5971   1.802   2.289  16.667 -0.9091 -0.8802 -0.2082
  396MPD2     H 5972   2.086   2.491  16.824  0.5196 -1.0160 -1.7306
  396MPD2    H1 5973   1.820   2.402  16.497 -1.5214 -2.6628  1.3932
  396MPD2    H2 5974   1.776   2.203  16.853 -1.5278  0.5704 -0.4477
  396MPD2    H3 5975   1.707   2.247  16.634 -2.8742  2.2508  1.4698
  396MPD2     N 5976   2.047   2.557  16.576  0.0190 -0.0998  0.1793
  396MPD2    H5 5977   2.131   2.592  16.623  0.1697 -2.1201  1.4155
  396MPD2    N1 5978   1.989   2.282  16.975 -0.5931  0.0163  0.3974
  396MPD2    H7 5979   1.923   2.214  17.012 -0.4388 -0.0893  0.4758
  397TMC3    C1 5980   2.132   2.245  17.165  0.2969 -0.9223 -0.3367
  397TMC3    C2 5981   2.268   2.251  17.185 -0.1524  0.4173  0.0952
  397TMC3    C3 5982   2.336   2.136  17.193 -0.7497  0.8934 -0.4229
  397TMC3    C4 5983   2.061   2.127  17.166 -0.1061  0.2166  0.1182
  397TMC3    C5 5984   2.132   2.018  17.192  0.1101 -0.2277  0.2002
  397TMC3    C6 5985   2.264   2.022  17.207 -0.0975  0.6438  0.0906
  397TMC3     C 5986   2.094   2.330  17.051  0.0615 -0.6310 -0.0274
  397TMC3     O 5987   2.166   2.423  17.020  0.1142  0.2915 -0.4773
  397TMC3     H 5988   2.316   2.345  17.161 -1.0971  0.2998 -2.2453
  397TMC3    H1 5989   1.953   2.126  17.155  0.0360 -0.4281 -1.3517
  397TMC3    H2 5990   2.308   1.924  17.221  0.0732  0.8371  0.8836
  397TMC3    C7 5991   2.056   1.905  17.254  0.6857  0.1016  0.1561
  397TMC3    C8 5992   2.425   2.119  17.083 -0.1753  0.7548 -0.4967
  397TMC3    O1 5993   1.940   1.891  17.225  0.1248  0.0139 -0.2917
  397TMC3    O2 5994   2.406   2.033  17.001 -0.0039  0.0876  0.5314
  398MPD2     C 5995   0.351   3.965   0.234  0.0015 -0.7475 -0.0129
  398MPD2    C1 5996   0.458   3.870   0.249 -0.1268  0.7141  0.3543
  398MPD2    C2 5997   0.585   3.910   0.235  0.1568 -0.0650 -0.1609
  398MPD2    C3 5998   0.615   4.044   0.190  0.5317 -0.6267  0.8394
  398MPD2    C4 5999   0.513   4.134   0.165  0.3157 -0.3045 -0.2328
  398MPD2    C5 6000   0.376   4.092   0.189  0.2965  0.2833 -0.0316
  398MPD2     H 6001   0.670   3.842   0.238  0.1139 -0.1959 -1.9857
  398MPD2    H1 6002   0.534   4.232   0.121  2.9729  0.8588  3.7206
  398MPD2    H2 6003   0.247   3.934   0.239 -0.3058  0.1478 -1.1051
  398MPD2    H3 6004   0.294   4.154   0.155 -1.2861 -1.2932  0.9295
  398MPD2     N 6005   0.751   4.072   0.182  0.8058  0.0279 -0.0727
  398MPD2    H5 6006   0.815   4.012   0.232  0.4245  0.0583  0.4514
  398MPD2    N1 6007   0.431   3.731   0.277 -0.2140 -0.4912 -0.0017
  398MPD2    H7 6008   0.512   3.672   0.290  0.9690  1.5180  1.7006
  399TMC3    C1 6009   0.313   3.538   0.337 -0.2872 -0.7179 -1.0868
  399TMC3    C2 6010   0.417   3.499   0.421  0.3176 -0.5906  0.0686
  399TMC3    C3 6011   0.419   3.379   0.487 -0.5037 -0.2373  0.5672
  399TMC3    C4 6012   0.202   3.459   0.323  0.2011 -0.4841 -0.6754
  399TMC3    C5 6013   0.206   3.337   0.383  0.0332  0.6671  0.5408
  399TMC3    C6 6014   0.317   3.290   0.455 -0.3751  0.3226 -0.2009
  399TMC3     C 6015   0.311   3.677   0.294  0.4004  0.0651  0.5315
  399TMC3     O 6016   0.201   3.720   0.264  0.9523 -0.1262  0.4848
  399TMC3     H 6017   0.491   3.575   0.446  0.9276 -2.0499  2.6717
  399TMC3    H1 6018   0.131   3.487   0.246 -1.8435  0.6417  1.6374
  399TMC3    H2 6019   0.313   3.192   0.500 -0.3118  0.6117  0.4279
  399TMC3    C7 6020   0.089   3.259   0.389  1.0743 -0.3002 -0.1755
  399TMC3    C8 6021   0.542   3.323   0.499 -0.1375  0.1694 -0.0118
  399TMC3    O1 6022   0.071   3.197   0.495  0.0797 -0.1553 -0.3497
  399TMC3    O2 6023   0.628   3.388   0.445  0.5713 -0.0841  0.9309
  400TMC3    C1 6024   3.397   1.425  16.911 -0.2834  0.2535  0.6585
  400TMC3    C2 6025   3.298   1.451  16.818 -1.2713 -0.0507 -0.1160
  400TMC3    C3 6026   3.249   1.585  16.812 -0.0075  0.1480  0.2320
  400TMC3    C4 6027   3.460   1.513  16.983  0.3633 -0.5979 -0.0559
  400TMC3    C5 6028   3.414   1.643  16.972  0.6612 -0.2556  0.8187
  400TMC3    C6 6029   3.312   1.681  16.885  0.4438  0.2764  0.1681
  400TMC3     C 6030   3.395   1.283  16.962 -0.2170 -0.2270 -0.2522
  400TMC3     O 6031   3.349   1.199  16.886 -0.1820  0.0829 -0.1990
  400TMC3     H 6032   3.235   1.369  16.783 -1.5943 -1.0435  2.7704
  400TMC3    H1 6033   3.548   1.483  17.039 -1.3615  1.0637  3.5434
  400TMC3    H2 6034   3.282   1.785  16.874 -0.2560  0.1006  0.3984
  400TMC3    C7 6035   3.503   1.750  17.007  0.3214 -0.2713  0.0014
  400TMC3    C8 6036   3.111   1.611  16.789  0.0369 -0.1116  0.1936
  400TMC3    O1 6037   3.622   1.728  17.021 -0.3664  0.1788 -0.3317
  400TMC3    O2 6038   3.064   1.716  16.828 -0.4246 -0.1532  0.2404
  401MPD2     C 6039   1.735   0.383   0.252 -0.9852 -0.2840  0.5605
  401MPD2    C1 6040   1.840   0.296   0.232  0.0728  0.0115  0.5540
  401MPD2    C2 6041   1.834   0.170   0.287  0.7326  0.1962  0.1115
  401MPD2    C3 6042   1.726   0.134   0.364 -0.1841  0.3206 -0.3024
  401MPD2    C4 6043   1.630   0.224   0.384 -0.1472  0.1771  0.1216
  401MPD2    C5 6044   1.631   0.346   0.329 -0.9411 -0.4968  0.4447
  401MPD2     H 6045   1.910   0.095   0.267  0.5482  0.4954 -1.7063
  401MPD2    H1 6046   1.553   0.201   0.457 -0.2858 -2.8369 -0.9605
  401MPD2    H2 6047   1.734   0.484   0.212 -0.8549  0.3638  2.1784
  401MPD2    H3 6048   1.544   0.409   0.348  0.1041  1.0251  0.1832
  401MPD2     N 6049   1.723   0.004   0.419  0.5466  0.0914  0.4575
  401MPD2    H5 6050   1.805   4.685   0.394  0.1014 -0.0106 -0.7801
  401MPD2    N1 6051   1.950   0.327   0.156 -0.8559 -0.1623  0.8168
  401MPD2    H7 6052   2.018   0.252   0.152 -0.3175  0.4740 -2.1301
  402TMC3    C1 6053   1.704   4.569   0.574 -0.0387  0.1603  0.1320
  402TMC3    C2 6054   1.673   4.535   0.708 -0.2344  1.1022 -0.4915
  402TMC3    C3 6055   1.713   4.412   0.751  0.4443 -0.1357  0.5915
  402TMC3    C4 6056   1.776   4.487   0.490  0.5188 -0.2488 -0.3268
  402TMC3    C5 6057   1.809   4.365   0.537  0.3035 -0.1890  0.1757
  402TMC3    C6 6058   1.786   4.327   0.666 -0.2886 -0.2400 -0.2892
  402TMC3     C 6059   1.656   4.700   0.529  0.2373 -0.6715 -0.5906
  402TMC3     O 6060   1.562   0.017   0.586  0.5377  0.1313 -0.0156
  402TMC3     H 6061   1.611   4.608   0.758 -0.0529  0.2594  0.9464
  402TMC3    H1 6062   1.799   4.518   0.388  0.4082 -1.3689 -0.6934
  402TMC3    H2 6063   1.818   4.228   0.698  2.5689  0.7109 -0.2402
  402TMC3    C7 6064   1.905   4.287   0.465  0.3068  0.0897  0.4827
  402TMC3    C8 6065   1.765   4.409   0.896 -0.0193  0.6469  0.0145
  402TMC3    O1 6066   1.912   4.295   0.342  0.0340 -0.6086  0.3695
  402TMC3    O2 6067   1.838   4.313   0.921 -0.3088 -0.5729 -0.0735
  403MPD2     C 6068   4.686   3.903  13.509 -0.1771 -0.7074  0.4341
  403MPD2    C1 6069   4.674   3.794  13.598 -0.0511 -0.0077  0.1964
  403MPD2    C2 6070   0.008   3.805  13.720 -0.1191 -0.3521  1.1832
  403MPD2    C3 6071   0.095   3.907  13.744  0.4119 -0.0524  0.1316
  403MPD2    C4 6072   0.111   4.006  13.648  1.1831 -0.6447  0.4533
  403MPD2    C5 6073   0.040   4.005  13.534 -1.0631 -0.0020 -0.8746
  403MPD2     H 6074   0.008   3.724  13.792 -1.2178  0.7523  2.4507
  403MPD2    H1 6075   0.191   4.079  13.653 -0.1710  0.7796  1.3395
  403MPD2    H2 6076   4.636   3.898  13.413  0.7229 -1.6700  0.0201
  403MPD2    H3 6077   0.074   4.069  13.453  0.0487  1.1309  0.4754
  403MPD2     N 6078   0.183   3.891  13.855  0.0640  0.2990 -0.1202
  403MPD2    H5 6079   0.169   3.808  13.912 -0.5772 -0.1167 -0.8834
  403MPD2    N1 6080   4.586   3.689  13.574  0.0353 -0.5304 -0.2866
  403MPD2    H7 6081   4.549   3.676  13.481 -2.0085  4.6201 -0.1996
  404TMC3    C1 6082   4.514   3.465  13.613  0.3200 -0.1708 -0.9488
  404TMC3    C2 6083   4.511   3.362  13.703  0.3603  0.6067 -0.0316
  404TMC3    C3 6084   4.496   3.233  13.650 -0.2692  0.1729  0.3489
  404TMC3    C4 6085   4.508   3.444  13.477 -0.4403  0.0264 -0.1073
  404TMC3    C5 6086   4.503   3.316  13.430 -0.1439 -0.5089 -1.1551
  404TMC3    C6 6087   4.508   3.211  13.518  0.1484  0.5351 -1.0052
  404TMC3     C 6088   4.555   3.594  13.666  0.2457  0.4168 -0.0099
  404TMC3     O 6089   4.534   3.606  13.786 -0.8909  0.0118  0.2353
  404TMC3     H 6090   4.487   3.377  13.807 -0.0690 -0.7632  0.0642
  404TMC3    H1 6091   4.525   3.519  13.401  3.9626 -0.4783  0.3645
  404TMC3    H2 6092   4.503   3.107  13.486  0.4513  0.2595 -0.1660
  404TMC3    C7 6093   4.503   3.298  13.287 -0.1048  0.1496 -0.1186
  404TMC3    C8 6094   4.586   3.138  13.718 -0.8324  0.0465  0.0107
  404TMC3    O1 6095   4.603   3.233  13.246 -0.4665  0.6295  0.4761
  404TMC3    O2 6096   4.686   3.115  13.655  0.0242  0.1548 -0.0312
  405MPD2     C 6097   0.440   3.767  15.214  0.3876 -0.1256 -0.3297
  405MPD2    C1 6098   0.445   3.717  15.083 -0.0042 -0.0397  1.2045
  405MPD2    C2 6099   0.445   3.810  14.979  0.3271 -0.0266  0.5890
  405MPD2    C3 6100   0.442   3.941  15.010 -0.4861  0.3951 -0.7179
  405MPD2    C4 6101   0.450   3.989  15.139 -0.5007  0.0747 -0.2993
  405MPD2    C5 6102   0.461   3.899  15.242  0.5110 -0.0146 -0.5062
  405MPD2     H 6103   0.454   3.787  14.873 -1.0905  0.2142  0.4230
  405MPD2    H1 6104   0.433   4.093  15.165 -0.2258  0.3173 -1.1161
  405MPD2    H2 6105   0.438   3.691  15.291 -0.4113 -1.3380 -1.5454
  405MPD2    H3 6106   0.468   3.936  15.344 -1.5433 -0.0846 -0.3377
  405MPD2     N 6107   0.434   4.031  14.902 -0.1072  0.0883 -0.4125
  405MPD2    H5 6108   0.435   3.975  14.818 -0.2304  0.9335 -0.9689
  405MPD2    N1 6109   0.458   3.575  15.068  0.3098 -0.2111 -0.3776
  405MPD2    H7 6110   0.455   3.521  15.153  0.6453 -0.1627 -0.3345
  406TMC3    C1 6111   0.150   4.325  14.706 -0.7811 -0.3880  0.1353
  406TMC3    C2 6112   0.147   4.238  14.601 -0.1821  0.4989  0.1863
  406TMC3    C3 6113   0.245   4.136  14.593  0.1625  0.5244 -0.3035
  406TMC3    C4 6114   0.240   4.306  14.813 -0.5734 -0.3594  0.3790
  406TMC3    C5 6115   0.330   4.209  14.792 -0.4675 -0.0673 -0.4090
  406TMC3    C6 6116   0.343   4.133  14.685 -0.5400  0.2588 -0.4745
  406TMC3     C 6117   0.027   4.398  14.739  0.4351  0.1664 -0.3727
  406TMC3     O 6118   0.032   4.519  14.745  0.3684  0.7193 -0.5872
  406TMC3     H 6119   0.059   4.241  14.538  2.3788 -0.3639 -3.3918
  406TMC3    H1 6120   0.237   4.370  14.901 -0.8631  1.7429 -1.1803
  406TMC3    H2 6121   0.434   4.079  14.659 -0.6973  0.2638 -1.0395
  406TMC3    C7 6122   0.405   4.168  14.908  0.2760  0.2168 -0.5388
  406TMC3    C8 6123   0.218   4.022  14.507 -0.6444 -0.6108  0.2575
  406TMC3    O1 6124   0.405   4.247  15.000 -0.1394 -0.3990 -0.2120
  406TMC3    O2 6125   0.141   4.054  14.418  0.9147 -0.0808 -0.1579
  407MPD2     C 6126   2.948   1.014   9.717 -0.7353 -0.1634  0.1378
  407MPD2    C1 6127   3.055   1.019   9.807 -0.7475  0.1309  0.4792
  407MPD2    C2 6128   3.032   1.071   9.935 -0.5343  0.4808  0.4200
  407MPD2    C3 6129   2.917   1.136   9.966 -1.1577 -0.0691 -0.0022
  407MPD2    C4 6130   2.806   1.124   9.879  0.2382 -0.0623 -0.1190
  407MPD2    C5 6131   2.823   1.063   9.758 -0.6634  0.8713 -0.9744
  407MPD2     H 6132   3.115   1.072  10.006 -1.3878  1.9912  1.3825
  407MPD2    H1 6133   2.717   1.182   9.900  0.5916  0.2383  0.5665
  407MPD2    H2 6134   2.959   0.969   9.619  1.3951  0.3686  0.1261
  407MPD2    H3 6135   2.744   1.057   9.685 -1.0489 -1.5082 -0.3446
  407MPD2     N 6136   2.905   1.216  10.082 -0.1228  0.6521  0.7850
  407MPD2    H5 6137   2.828   1.283  10.083 -1.0561 -0.4164  1.6796
  407MPD2    N1 6138   3.189   0.970   9.776  0.2575 -0.0635 -0.1306
  407MPD2    H7 6139   3.252   0.977   9.855 -0.5037 -0.1840  0.4825
  408TMC3    C1 6140   3.379   0.913   9.650 -0.3171 -0.2275 -0.1483
  408TMC3    C2 6141   3.411   0.807   9.728  0.2015  0.7497  0.5498
  408TMC3    C3 6142   3.544   0.777   9.751 -0.1235  0.9035 -0.2427
  408TMC3    C4 6143   3.472   0.998   9.599  0.3958  0.4897 -0.5053
  408TMC3    C5 6144   3.604   0.964   9.626 -0.0114 -0.1372 -0.2487
  408TMC3    C6 6145   3.643   0.852   9.700 -0.3270 -0.0709 -0.0170
  408TMC3     C 6146   3.235   0.948   9.650  0.3009  0.0358 -0.4325
  408TMC3     O 6147   3.179   0.969   9.543  0.3537 -0.8525 -0.3962
  408TMC3     H 6148   3.339   0.735   9.766  0.2295 -0.1558 -1.1205
  408TMC3    H1 6149   3.441   1.076   9.531 -1.3260  0.5149  0.3034
  408TMC3    H2 6150   3.745   0.820   9.717 -0.1242 -0.7918 -2.5123
  408TMC3    C7 6151   3.712   1.051   9.578  0.0862  0.8091 -0.3392
  408TMC3    C8 6152   3.569   0.659   9.821  0.6261 -0.5176 -0.5536
  408TMC3    O1 6153   3.821   0.993   9.558  0.0844 -0.0218 -0.6883
  408TMC3    O2 6154   3.488   0.567   9.819 -0.4085  0.8476  0.4723
  409MPD2     C 6155   2.140   1.499  17.130  0.5374 -0.7821  0.7165
  409MPD2    C1 6156   2.266   1.463  17.177 -0.4734  0.1558  0.5901
  409MPD2    C2 6157   2.379   1.541  17.144  0.0531  1.0767 -0.2913
  409MPD2    C3 6158   2.369   1.653  17.058 -0.2675 -0.5811  0.3313
  409MPD2    C4 6159   2.245   1.693  17.028  0.3413  0.3450  0.5277
  409MPD2    C5 6160   2.138   1.616  17.059  0.0085  0.0866  0.2656
  409MPD2     H 6161   2.480   1.508  17.170  0.1402  2.7044  1.4368
  409MPD2    H1 6162   2.226   1.785  16.972 -3.9372 -0.6806  0.2899
  409MPD2    H2 6163   2.051   1.440  17.148  0.6723 -0.7749  1.3947
  409MPD2    H3 6164   2.042   1.637  17.013  0.6630  0.0585 -1.1171
  409MPD2     N 6165   2.481   1.730  17.012 -0.6368  0.0551  0.7269
  409MPD2    H5 6166   2.461   1.809  16.952 -0.1407 -0.1445  0.2962
  409MPD2    N1 6167   2.281   1.358  17.273 -0.0065  0.0790 -0.2817
  409MPD2    H7 6168   2.371   1.342  17.318  0.5257  1.0301 -1.0288
  410TMC3    C1 6169   2.698   1.825  17.019  0.3785 -0.2172  0.3249
  410TMC3    C2 6170   2.819   1.808  17.088  0.1696  0.5748 -0.3321
  410TMC3    C3 6171   2.922   1.885  17.053  0.0461  0.2683  0.2248
  410TMC3    C4 6172   2.677   1.905  16.912 -0.7799  0.4854  0.3509
  410TMC3    C5 6173   2.788   1.982  16.883 -0.1895  0.5681 -0.0424
  410TMC3    C6 6174   2.901   1.981  16.960 -0.6663  0.3937  0.0742
  410TMC3     C 6175   2.615   1.711  17.040  0.0623 -0.9260 -0.3936
  410TMC3     O 6176   2.671   1.619  17.097  0.3972 -0.4330 -0.3418
  410TMC3     H 6177   2.835   1.739  17.170 -1.5048 -1.8695 -2.0563
  410TMC3    H1 6178   2.590   1.912  16.847  0.0566  0.1085 -0.8058
  410TMC3    H2 6179   2.993   2.024  16.922  1.2583 -1.7780  2.2028
  410TMC3    C7 6180   2.807   2.022  16.744  0.1985 -0.2312 -0.0556
  410TMC3    C8 6181   3.052   1.869  17.100 -0.2746  0.8801 -0.2126
  410TMC3    O1 6182   2.756   1.950  16.662 -0.5233  0.6302  0.2737
  410TMC3    O2 6183   3.127   1.971  17.102  0.0163 -0.7774 -0.3067
  411MPD2     C 6184   2.615   2.367  14.402 -0.2394  0.0052  0.0136
  411MPD2    C1 6185   2.552   2.257  14.360  0.4961  0.1276 -0.3738
  411MPD2    C2 6186   2.598   2.195  14.240 -0.4088  0.0033  0.1880
  411MPD2    C3 6187   2.715   2.245  14.176 -0.1142 -0.2627  0.5322
  411MPD2    C4 6188   2.783   2.353  14.235  0.1876 -0.7954 -0.9505
  411MPD2    C5 6189   2.727   2.413  14.347 -0.0445 -0.8286  0.7218
  411MPD2     H 6190   2.541   2.113  14.199 -0.5892  0.7885 -1.1235
  411MPD2    H1 6191   2.870   2.395  14.185  0.9272 -1.8431 -0.5417
  411MPD2    H2 6192   2.568   2.422  14.483  1.2388 -1.5769  1.9416
  411MPD2    H3 6193   2.773   2.504  14.385  0.2349 -1.0539  0.9199
  411MPD2     N 6194   2.750   2.202  14.047 -0.8677  0.1232 -0.1930
  411MPD2    H5 6195   2.822   2.258  14.002 -0.4118  0.7483  1.3332
  411MPD2    N1 6196   2.434   2.228  14.429  0.3773 -0.2307 -0.1290
  411MPD2    H7 6197   2.390   2.294  14.492 -1.4812 -0.9069 -0.7052
  412TMC3    C1 6198   2.740   2.095  13.841  0.1403 -0.6402 -0.7292
  412TMC3    C2 6199   2.779   1.981  13.777 -0.6135 -0.6166  0.5751
  412TMC3    C3 6200   2.814   1.988  13.644  0.5169 -0.1879  0.3228
  412TMC3    C4 6201   2.714   2.213  13.779 -0.6723  0.8149  0.1769
  412TMC3    C5 6202   2.736   2.215  13.641 -0.3137 -0.0332 -0.2325
  412TMC3    C6 6203   2.789   2.105  13.576 -0.2470  0.2074 -0.4894
  412TMC3     C 6204   2.709   2.088  13.980 -0.0148  0.4521 -0.1782
  412TMC3     O 6205   2.657   1.984  14.019  0.1096 -0.0192  0.6533
  412TMC3     H 6206   2.778   1.888  13.832 -2.0875 -0.4496  0.8371
  412TMC3    H1 6207   2.667   2.297  13.829  1.0490  0.6957  1.9999
  412TMC3    H2 6208   2.821   2.114  13.473 -1.4876 -1.3433 -1.0113
  412TMC3    C7 6209   2.610   2.253  13.579  0.0183  0.0198  0.7837
  412TMC3    C8 6210   2.768   1.885  13.560  0.2275  0.4492 -0.4923
  412TMC3    O1 6211   2.547   2.339  13.638  0.6928 -0.6617  0.0063
  412TMC3    O2 6212   2.715   1.917  13.456  0.4248  0.0858  0.1777
  413MPD2     C 6213   4.450   0.451  16.057 -0.4979 -0.1293 -0.3417
  413MPD2    C1 6214   4.354   0.406  15.961  0.0342 -0.2477 -0.4919
  413MPD2    C2 6215   4.371   0.279  15.904 -0.0185  0.6494 -0.1163
  413MPD2    C3 6216   4.480   0.202  15.930  0.1570  0.3481  0.1365
  413MPD2    C4 6217   4.571   0.243  16.021 -0.0476  0.1711 -0.3411
  413MPD2    C5 6218   4.552   0.363  16.089  1.0175 -0.0877  0.2276
  413MPD2     H 6219   4.294   0.243  15.837  1.2718 -1.1967 -0.6170
  413MPD2    H1 6220   4.658   0.182  16.044  0.2704  1.1482  1.0444
  413MPD2    H2 6221   4.437   0.547  16.104 -1.4797  0.4147 -1.7218
  413MPD2    H3 6222   4.632   0.400  16.152  1.0433 -0.3787  0.3683
  413MPD2     N 6223   4.492   0.075  15.863  0.3019  0.1028 -0.1112
  413MPD2    H5 6224   4.426   0.056  15.788  0.3714  2.4540 -0.7364
  413MPD2    N1 6225   4.235   0.471  15.934 -0.4371 -0.3594  0.2645
  413MPD2    H7 6226   4.213   0.559  15.980 -0.2527  1.3579 -2.9247
  414TMC3    C1 6227   4.606   4.625  15.783 -0.0708  0.6150  0.2357
  414TMC3    C2 6228   4.669   4.509  15.811 -0.0620 -0.0323 -0.1063
  414TMC3    C3 6229   4.675   4.415  15.713  0.1974  0.2517  0.2046
  414TMC3    C4 6230   4.558   4.649  15.658 -0.3652 -0.0158 -0.0644
  414TMC3    C5 6231   4.564   4.556  15.561 -0.1807  0.2698 -0.0568
  414TMC3    C6 6232   4.618   4.434  15.594  0.0643  0.7389  0.0413
  414TMC3     C 6233   4.583   4.712  15.891 -0.0102 -0.0862 -0.4151
  414TMC3     O 6234   4.666   4.703  15.984 -0.1173  0.2812  0.0893
  414TMC3     H 6235   4.713   4.493  15.909  0.3207  1.1536 -0.0881
  414TMC3    H1 6236   4.520   0.013  15.639 -1.3618 -0.2877  0.4842
  414TMC3    H2 6237   4.596   4.346  15.534  2.3683  0.7570 -0.8391
  414TMC3    C7 6238   4.472   4.571  15.449 -0.1535  0.4524  1.0018
  414TMC3    C8 6239   0.022   4.298  15.718 -0.5903 -0.9625 -1.0180
  414TMC3    O1 6240   4.355   4.593  15.478  0.4754 -0.0740  0.3252
  414TMC3    O2 6241   0.014   4.218  15.627  0.1095 -0.7645 -0.6656
  415TMC3    C1 6242   4.713   3.301  10.276  0.0412 -0.1568  0.5410
  415TMC3    C2 6243   0.010   3.315  10.144 -0.8342  0.2586 -0.3774
  415TMC3    C3 6244   4.641   3.339  10.056  0.1487  0.0615  0.0464
  415TMC3    C4 6245   4.583   3.307  10.318  0.1373  1.1351 -0.5551
  415TMC3    C5 6246   4.486   3.333  10.223  0.9352 -0.1630  0.0683
  415TMC3    C6 6247   4.511   3.343  10.088  0.1500 -0.1482 -0.3021
  415TMC3     C 6248   0.076   3.254  10.373 -0.0395 -0.0568  0.1017
  415TMC3     O 6249   0.027   3.179  10.455 -0.0470 -0.7062  0.4216
  415TMC3     H 6250   0.115   3.306  10.119 -0.8011  3.2028 -1.3937
  415TMC3    H1 6251   4.558   3.299  10.423  1.9352 -1.8677 -0.3727
  415TMC3    H2 6252   4.437   3.350  10.010 -1.5738  2.9762  1.6305
  415TMC3    C7 6253   4.342   3.309  10.245 -0.2117  0.1046 -0.7005
  415TMC3    C8 6254   4.671   3.430   9.943  0.5446  0.2489  0.1673
  415TMC3    O1 6255   4.266   3.356  10.162 -0.0848  0.8620 -0.1235
  415TMC3    O2 6256   4.581   3.467   9.875 -0.2911 -0.0594 -0.4234
  416MPD2     C 6257   0.842   2.048  11.301 -0.1347  0.6170  0.7769
  416MPD2    C1 6258   0.833   2.037  11.435 -0.0770  0.2439  0.3252
  416MPD2    C2 6259   0.887   1.922  11.495 -0.0655 -0.1681  0.2511
  416MPD2    C3 6260   0.943   1.827  11.414  0.1463 -0.6290 -0.4531
  416MPD2    C4 6261   0.962   1.849  11.278 -0.0236  0.6840  0.2090
  416MPD2    C5 6262   0.893   1.955  11.219 -0.3604 -0.3722 -0.3226
  416MPD2     H 6263   0.883   1.904  11.602 -0.7439 -1.2601  0.0449
  416MPD2    H1 6264   1.014   1.775  11.219 -2.2520 -0.1706 -0.6946
  416MPD2    H2 6265   0.778   2.129  11.266 -0.4276 -0.4815 -1.2163
  416MPD2    H3 6266   0.898   1.964  11.111 -1.4977  0.0966 -0.3369
  416MPD2     N 6267   0.996   1.706  11.466 -0.3313  0.5922  0.4847
  416MPD2    H5 6268   1.051   1.646  11.405 -0.3298 -0.9189  1.9663
  416MPD2    N1 6269   0.764   2.134  11.500  0.2910 -0.0111  0.4229
  416MPD2    H7 6270   0.723   2.202  11.437  0.8778  0.0518  0.1121
  417TMC3    C1 6271   0.673   2.254  11.676 -0.2045 -0.2194  0.8155
  417TMC3    C2 6272   0.610   2.232  11.795  0.0312  0.4766 -0.4014
  417TMC3    C3 6273   0.583   2.329  11.878  0.2339 -0.3924  0.1480
  417TMC3    C4 6274   0.720   2.376  11.635  0.0586 -0.1438  0.3829
  417TMC3    C5 6275   0.689   2.474  11.731 -0.1333  0.2391 -0.5968
  417TMC3    C6 6276   0.610   2.455  11.846  0.4905  0.1354 -0.5525
  417TMC3     C 6277   0.745   2.136  11.633 -0.5096 -0.2635 -0.4444
  417TMC3     O 6278   0.772   2.060  11.722 -0.8470  0.6603 -0.1369
  417TMC3     H 6279   0.574   2.131  11.812 -0.8657  0.8090 -0.3174
  417TMC3    H1 6280   0.789   2.389  11.552 -1.4979  1.2368 -0.6985
  417TMC3    H2 6281   0.592   2.530  11.922  2.9383  1.1505 -0.9948
  417TMC3    C7 6282   0.765   2.599  11.712  0.0928 -0.5130  0.6533
  417TMC3    C8 6283   0.638   2.302  12.007  0.0663 -0.8529 -0.5279
  417TMC3    O1 6284   0.788   2.628  11.599  0.3089 -0.2752  0.4904
  417TMC3    O2 6285   0.626   2.388  12.094 -0.1660  0.3947  0.0639
  418TMC3    C1 6286   1.136   4.095  17.738 -0.3812  0.0462 -0.3745
  418TMC3    C2 6287   1.005   4.138   0.000  0.0500 -0.0655 -0.9370
  418TMC3    C3 6288   0.947   4.168   0.123 -0.0478  0.0865  0.6286
  418TMC3    C4 6289   1.201   4.052   0.108  0.0790 -0.0937 -0.1776
  418TMC3    C5 6290   1.140   4.087   0.228  0.0042 -0.5663  0.2720
  418TMC3    C6 6291   1.017   4.144   0.233  0.4604  0.1948  0.2793
  418TMC3     C 6292   1.174   4.041  17.612  0.3794  0.3224  0.0565
  418TMC3     O 6293   1.165   4.098  17.506 -0.0891  0.1605 -0.2902
  418TMC3     H 6294   0.954   4.139  17.646 -0.0408  0.9536 -0.8761
  418TMC3    H1 6295   1.298   4.004   0.100 -0.2441 -0.8506  0.4874
  418TMC3    H2 6296   0.954   4.162   0.319  0.8201 -3.0650  1.2194
  418TMC3    C7 6297   1.181   4.010   0.342 -0.2549 -0.0907  0.2534
  418TMC3    C8 6298   0.805   4.184   0.116  0.0933  0.1354 -0.1317
  418TMC3    O1 6299   1.237   3.899   0.326  0.4997 -0.2655 -0.2122
  418TMC3    O2 6300   0.755   4.263   0.038  0.5111  0.5065  0.1069
  419MPD2     C 6301   3.543   2.268  12.537  0.0108  0.0067  0.3957
  419MPD2    C1 6302   3.551   2.393  12.595 -0.1783  0.5290  0.3119
  419MPD2    C2 6303   3.577   2.395  12.728  0.0333 -0.5341  0.1854
  419MPD2    C3 6304   3.589   2.280  12.806  0.6200 -0.0991  0.2626
  419MPD2    C4 6305   3.568   2.159  12.752 -0.2646  0.7161 -0.5869
  419MPD2    C5 6306   3.556   2.157  12.618  1.1959 -0.0441 -0.4750
  419MPD2     H 6307   3.583   2.495  12.771  0.4683 -2.0008  3.4886
  419MPD2    H1 6308   3.592   2.068  12.806  0.9033  0.8818 -0.8203
  419MPD2    H2 6309   3.536   2.255  12.430  0.0915 -0.8281  0.4967
  419MPD2    H3 6310   3.562   2.061  12.567 -1.6787  1.3608 -3.4477
  419MPD2     N 6311   3.603   2.302  12.946 -0.2981 -0.8205 -0.1452
  419MPD2    H5 6312   3.593   2.399  12.972  0.1882 -0.5530 -0.9410
  419MPD2    N1 6313   3.548   2.514  12.519  0.0552  0.2477 -0.2225
  419MPD2    H7 6314   3.555   2.601  12.571 -0.7369  0.1208  0.0990
  420TMC3    C1 6315   3.518   2.279  13.155  0.2484  0.1989 -0.1410
  420TMC3    C2 6316   3.429   2.388  13.135  0.2788 -0.2994 -0.1178
  420TMC3    C3 6317   3.356   2.442  13.232 -0.4091  0.4195 -0.1672
  420TMC3    C4 6318   3.527   2.231  13.282  0.9769  0.0724  0.0832
  420TMC3    C5 6319   3.457   2.293  13.382 -0.5587 -0.2301  0.1667
  420TMC3    C6 6320   3.363   2.395  13.363 -0.2564 -0.2431  0.4858
  420TMC3     C 6321   3.597   2.219  13.047 -0.1559  0.1366 -0.0740
  420TMC3     O 6322   3.616   2.100  13.060 -0.2926 -0.1880 -0.1732
  420TMC3     H 6323   3.417   2.426  13.034 -1.3576 -0.0110  0.1842
  420TMC3    H1 6324   3.606   2.159  13.298  1.4040  0.3223 -0.9051
  420TMC3    H2 6325   3.293   2.428  13.439 -1.0942 -1.4983  0.2565
  420TMC3    C7 6326   3.472   2.222  13.510  0.3676 -0.3749  0.2538
  420TMC3    C8 6327   3.274   2.556  13.198 -0.2006 -0.0154  0.5786
  420TMC3    O1 6328   3.520   2.107  13.509  0.0193 -0.4713  0.2511
  420TMC3    O2 6329   3.205   2.548  13.096 -0.0282  0.2708 -0.3760
  421TMC3    C1 6330   0.348   3.960  14.016  0.3278 -0.0074  0.1379
  421TMC3    C2 6331   0.376   4.064  14.097  0.0699  0.7720 -0.2238
  421TMC3    C3 6332   0.442   4.038  14.216  0.0328  0.5189  0.0564
  421TMC3    C4 6333   0.379   3.837  14.048 -0.3970 -0.0940  0.9145
  421TMC3    C5 6334   0.440   3.806  14.160  0.3980 -0.9462 -0.1861
  421TMC3    C6 6335   0.478   3.910  14.249  0.4426  0.1072  0.0698
  421TMC3     C 6336   0.264   3.991  13.902 -0.6520  0.1100  0.1560
  421TMC3     O 6337   0.262   4.112  13.872  0.1482 -0.2377 -0.4439
  421TMC3     H 6338   0.338   4.164  14.078  1.0106  0.6745 -2.6144
  421TMC3    H1 6339   0.368   3.754  13.979 -1.2143  1.2967 -0.6158
  421TMC3    H2 6340   0.534   3.877  14.336 -2.2226  0.3996  1.8953
  421TMC3    C7 6341   0.531   3.691  14.161 -0.2074  0.5757 -0.3639
  421TMC3    C8 6342   0.502   4.144  14.293 -0.7340  0.3114 -0.5393
  421TMC3    O1 6343   0.640   3.714  14.208  0.1671 -0.1035  0.6285
  421TMC3    O2 6344   0.614   4.119  14.335 -0.4433 -0.1601  0.3210
  422TMC3    C1 6345   2.340   0.281  12.408 -0.8632 -0.8125  0.1785
  422TMC3    C2 6346   2.265   0.398  12.403  0.2955 -0.1498 -0.3904
  422TMC3    C3 6347   2.137   0.399  12.442  0.5724 -0.6642  0.3439
  422TMC3    C4 6348   2.281   0.164  12.448  0.3533 -0.1279  0.3156
  422TMC3    C5 6349   2.151   0.169  12.492  0.5182  0.3622  0.2447
  422TMC3    C6 6350   2.080   0.287  12.489  1.2341 -0.0644  0.4757
  422TMC3     C 6351   2.470   0.305  12.459 -0.3141 -0.6644  0.3952
  422TMC3     O 6352   2.521   0.406  12.412 -0.6082  0.2687 -0.1010
  422TMC3     H 6353   2.319   0.478  12.353  0.3199  0.3759  0.4872
  422TMC3    H1 6354   2.339   0.073  12.443 -0.6061 -0.7244  0.2020
  422TMC3    H2 6355   1.981   0.279  12.532  0.9204 -0.2361 -0.2830
  422TMC3    C7 6356   2.098   0.046  12.550 -0.4251  0.2528 -0.2160
  422TMC3    C8 6357   2.077   0.516  12.505 -0.5262 -0.0770  0.7475
  422TMC3    O1 6358   2.172   4.685  12.532 -0.2292  0.0104  0.2212
  422TMC3    O2 6359   1.963   0.498  12.534 -0.1205  0.3688 -0.4853
  423MPD2     C 6360   3.825   1.335   0.766 -0.1113 -0.2705  0.8642
  423MPD2    C1 6361   3.936   1.257   0.783 -0.0798 -0.4913  0.6793
  423MPD2    C2 6362   4.000   1.200   0.678 -0.2281  0.1224 -0.0037
  423MPD2    C3 6363   3.951   1.204   0.548  0.5580 -0.0967 -0.1881
  423MPD2    C4 6364   3.831   1.273   0.531 -0.9182  0.3317  0.5108
  423MPD2    C5 6365   3.773   1.335   0.640  0.1816 -0.2374 -0.8205
  423MPD2     H 6366   4.083   1.132   0.694 -1.0620 -1.3409 -1.8296
  423MPD2    H1 6367   3.784   1.285   0.434  0.6242  1.0975 -0.1437
  423MPD2    H2 6368   3.771   1.388   0.843  1.7281  1.1279  1.1878
  423MPD2    H3 6369   3.688   1.396   0.610 -0.6850 -0.6309  0.8635
  423MPD2     N 6370   4.012   1.130   0.445  0.4677 -0.4177 -1.1687
  423MPD2    H5 6371   4.062   1.045   0.470 -2.1438 -0.9207  2.3513
  423MPD2    N1 6372   4.008   1.252   0.910  0.0024 -0.5122  0.4459
  423MPD2    H7 6373   4.102   1.215   0.902 -0.9609 -2.3934 -1.9368
  424TMC3    C1 6374   4.060   1.264   1.139 -0.3606 -0.0466  0.1127
  424TMC3    C2 6375   4.161   1.174   1.114  0.2305 -0.1170 -0.8553
  424TMC3    C3 6376   4.288   1.193   1.170 -0.4575 -0.2416  0.6336
  424TMC3    C4 6377   4.091   1.369   1.219 -0.0665 -0.4370 -0.8546
  424TMC3    C5 6378   4.221   1.392   1.268 -0.1174  0.4555 -0.4023
  424TMC3    C6 6379   4.325   1.303   1.247 -0.6442 -1.0301  0.4143
  424TMC3     C 6380   3.961   1.286   1.038 -0.4093 -0.1882 -0.0037
  424TMC3     O 6381   3.860   1.351   1.074 -0.1232  0.0598 -0.3881
  424TMC3     H 6382   4.151   1.076   1.068 -0.8744  0.6273 -2.1763
  424TMC3    H1 6383   4.015   1.445   1.233  1.7478  1.0546  0.8435
  424TMC3    H2 6384   4.418   1.303   1.302 -1.8009 -1.9238  2.3854
  424TMC3    C7 6385   4.243   1.522   1.331 -0.1189 -1.0069  0.0218
  424TMC3    C8 6386   4.373   1.073   1.165  0.6638  0.3600 -0.7017
  424TMC3    O1 6387   4.149   1.603   1.352  0.5101  0.3137  0.1623
  424TMC3    O2 6388   4.315   0.968   1.147 -0.1667  0.0240  0.2168
  425MPD2     C 6389   3.226   0.344  17.515  0.0737  0.5047 -0.6548
  425MPD2    C1 6390   3.181   0.220  17.531 -0.2207 -0.4849 -0.3077
  425MPD2    C2 6391   3.071   0.197  17.609  0.1235 -0.9695 -0.2159
  425MPD2    C3 6392   3.008   0.290  17.687 -0.0622  0.4626  0.3226
  425MPD2    C4 6393   3.067   0.414  17.688 -0.6445 -0.0930 -0.1914
  425MPD2    C5 6394   3.168   0.439  17.600 -0.3494  1.0764 -0.0391
  425MPD2     H 6395   3.024   0.099  17.600 -2.0749  0.2174 -1.7129
  425MPD2    H1 6396   3.022   0.494   0.005 -1.2664 -1.4257  1.1386
  425MPD2    H2 6397   3.301   0.365  17.440  0.6387 -1.2022 -0.5789
  425MPD2    H3 6398   3.207   0.540  17.592 -1.3170  1.5808  1.5323
  425MPD2     N 6399   2.903   0.248   0.025  0.3741 -0.8537  0.1260
  425MPD2    H5 6400   2.872   0.153   0.008  2.6241 -1.8767  1.7010
  425MPD2    N1 6401   3.238   0.119  17.448  0.5892 -0.0649 -0.0535
  425MPD2    H7 6402   3.307   0.143  17.378  1.4589 -0.8915  0.5162
  426TMC3    C1 6403   3.283   4.646  17.367  0.2855  0.0244  0.0848
  426TMC3    C2 6404   3.280   4.687  17.232 -0.1977 -0.2501  0.0962
  426TMC3    C3 6405   3.344   4.605  17.143  0.3295 -0.0710 -0.0595
  426TMC3    C4 6406   3.340   4.528  17.415 -0.5893  0.0477 -0.1764
  426TMC3    C5 6407   3.395   4.450  17.315 -0.3728 -0.0799  1.2168
  426TMC3    C6 6408   3.399   4.490  17.183  0.0518 -0.2641  0.4032
  426TMC3     C 6409   3.216   4.718  17.465 -0.2332 -0.2731  1.1161
  426TMC3     O 6410   3.170   4.652  17.554 -0.1797  0.5120  0.5364
  426TMC3     H 6411   3.240   0.049  17.207  0.3787 -0.3377 -1.1608
  426TMC3    H1 6412   3.365   4.510  17.518 -0.8712 -1.7802 -0.4374
  426TMC3    H2 6413   3.427   4.422  17.103  0.8060  0.8063 -0.2371
  426TMC3    C7 6414   3.427   4.305  17.325  0.2063  0.6349  0.2305
  426TMC3    C8 6415   3.269   4.563  17.027  0.0182  0.3560 -0.6675
  426TMC3    O1 6416   3.494   4.247  17.245 -0.3057  0.2333  0.3571
  426TMC3    O2 6417   3.330   4.545  16.926 -0.0569  0.2283 -0.3395
  427MPD2     C 6418   1.692   1.958  14.643  0.0134 -0.2007 -0.3307
  427MPD2    C1 6419   1.678   1.965  14.784  0.1967  0.0609 -0.0802
  427MPD2    C2 6420   1.563   2.021  14.838 -0.0189 -0.6123 -0.1188
  427MPD2    C3 6421   1.451   2.042  14.758  0.0818 -0.1051 -0.0982
  427MPD2    C4 6422   1.462   2.024  14.621 -0.0629  0.0185 -0.0153
  427MPD2    C5 6423   1.581   1.982  14.567 -0.4169 -0.0718  0.6522
  427MPD2     H 6424   1.553   2.046  14.943 -0.4526  0.8305 -0.5157
  427MPD2    H1 6425   1.383   2.053  14.554 -0.1178 -2.3403 -0.9635
  427MPD2    H2 6426   1.779   1.923  14.589 -0.7527 -1.0872 -0.9896
  427MPD2    H3 6427   1.592   1.962  14.462  0.8405  1.3778  0.5030
  427MPD2     N 6428   1.324   2.103  14.796  0.0484  0.3084 -0.3767
  427MPD2    H5 6429   1.255   2.120  14.723 -2.2193 -3.1338  0.9698
  427MPD2    N1 6430   1.781   1.935  14.872 -0.1693 -0.2287  0.1614
  427MPD2    H7 6431   1.755   1.922  14.970  1.3387 -0.5182  0.5245
  428TMC3    C1 6432   2.005   1.840  14.934  0.9480  0.1895 -0.1463
  428TMC3    C2 6433   1.951   1.782  15.046 -0.0416  0.2092  0.2638
  428TMC3    C3 6434   2.027   1.773  15.158 -0.0260  0.6129 -0.7777
  428TMC3    C4 6435   2.132   1.895  14.938  0.3128 -1.4026  0.2005
  428TMC3    C5 6436   2.211   1.872  15.050  0.1638  0.5547  0.1847
  428TMC3    C6 6437   2.155   1.815  15.162 -0.5692  0.4741  0.0277
  428TMC3     C 6438   1.912   1.892  14.832  0.5682  0.8806  0.5149
  428TMC3     O 6439   1.970   1.924  14.729 -0.1976 -0.1740  0.4144
  428TMC3     H 6440   1.854   1.734  15.042 -0.9307  2.0134  0.2976
  428TMC3    H1 6441   2.162   1.936  14.842  2.0238 -0.5541  1.0861
  428TMC3    H2 6442   2.221   1.811  15.248 -0.1631 -1.2137 -0.3445
  428TMC3    C7 6443   2.306   1.979  15.080  0.6632 -0.3217 -0.3525
  428TMC3    C8 6444   1.977   1.686  15.265  0.1721 -0.5353 -0.2647
  428TMC3    O1 6445   2.348   1.998  15.196 -0.7376 -0.3469 -0.6037
  428TMC3    O2 6446   1.895   1.603  15.236 -0.0667 -0.5579  0.2743
  429MPD2     C 6447   3.208   2.208   0.463 -0.1934  0.1180  0.7118
  429MPD2    C1 6448   3.156   2.131   0.356  0.0011  0.3213 -0.0399
  429MPD2    C2 6449   3.144   2.201   0.233 -0.2223 -0.0808  0.1859
  429MPD2    C3 6450   3.180   2.337   0.219  0.3996 -0.2738  0.2224
  429MPD2    C4 6451   3.226   2.403   0.328  1.0470 -0.0895 -0.3238
  429MPD2    C5 6452   3.238   2.340   0.447  0.3836  0.8352  0.1847
  429MPD2     H 6453   3.111   2.148   0.145  2.6495 -0.1535 -0.8516
  429MPD2    H1 6454   3.247   2.509   0.327  0.5954 -0.0168 -1.9480
  429MPD2    H2 6455   3.225   2.166   0.561 -0.6162 -0.7543  0.4120
  429MPD2    H3 6456   3.268   2.397   0.535 -1.0794 -0.8488  1.7837
  429MPD2     N 6457   3.166   2.390   0.095  0.4050 -0.2148 -0.3037
  429MPD2    H5 6458   3.109   2.339   0.028 -2.9850  1.0952  1.5618
  429MPD2    N1 6459   3.121   1.992   0.363 -0.7045  0.3406  0.0157
  429MPD2    H7 6460   3.078   1.948   0.283  0.1280  0.7299 -0.6425
  430TMC3    C1 6461   3.227   2.498  17.640  0.1418  0.5542 -0.6210
  430TMC3    C2 6462   3.226   2.618  17.565  0.0675  0.1446  0.0602
  430TMC3    C3 6463   3.271   2.607  17.438  0.0837 -0.0291 -0.1064
  430TMC3    C4 6464   3.273   2.383  17.586  0.0487  0.8956  0.3239
  430TMC3    C5 6465   3.318   2.382  17.463 -0.5071 -0.3831  0.0417
  430TMC3    C6 6466   3.310   2.491  17.384 -0.4125  0.8447  0.0184
  430TMC3     C 6467   3.232   2.500   0.045  0.6145  0.9659  0.4991
  430TMC3     O 6468   3.306   2.580   0.099  0.3373  0.0944 -0.2751
  430TMC3     H 6469   3.184   2.703  17.616 -0.7949  0.8481 -1.8242
  430TMC3    H1 6470   3.280   2.293  17.645 -3.0380  0.4701  0.0114
  430TMC3    H2 6471   3.328   2.486  17.278 -1.2794  2.6144 -0.2158
  430TMC3    C7 6472   3.359   2.261  17.403 -0.0582  0.3738 -0.5733
  430TMC3    C8 6473   3.214   2.700  17.337  0.3333  0.0709 -0.5997
  430TMC3    O1 6474   3.291   2.161  17.424  0.0570  0.1123  0.3891
  430TMC3    O2 6475   3.176   2.646  17.233 -0.3728 -0.2401 -0.1072
  431MPD2     C 6476   3.358   3.343  12.765 -0.2053 -0.6617 -0.4064
  431MPD2    C1 6477   3.484   3.338  12.709 -0.0168 -0.5164  0.4952
  431MPD2    C2 6478   3.526   3.231  12.637  0.4244  0.6044  0.3112
  431MPD2    C3 6479   3.442   3.124  12.616 -0.3415 -0.0868 -0.0064
  431MPD2    C4 6480   3.307   3.129  12.660 -0.0012 -0.5013 -0.0733
  431MPD2    C5 6481   3.273   3.241  12.735 -0.3405 -0.3474 -0.1578
  431MPD2     H 6482   3.633   3.221  12.631  0.2589 -1.1356  0.1681
  431MPD2    H1 6483   3.237   3.048  12.642  0.6583 -1.1317  0.1487
  431MPD2    H2 6484   3.313   3.428  12.815 -3.0330 -1.9971 -0.6784
  431MPD2    H3 6485   3.177   3.248  12.784 -1.0258  0.4159 -1.6050
  431MPD2     N 6486   3.492   3.016  12.536  0.2150 -0.0157 -0.6506
  431MPD2    H5 6487   3.419   2.946  12.530  2.3548 -2.2660 -0.5284
  431MPD2    N1 6488   3.575   3.441  12.726 -0.7233  0.7796 -0.1521
  431MPD2    H7 6489   3.648   3.435  12.655 -0.2050  1.3469  0.3317
  432TMC3    C1 6490   3.597   2.894  12.364  0.1703 -0.1633 -0.4011
  432TMC3    C2 6491   3.613   2.918  12.230 -0.1088  1.2323  0.1621
  432TMC3    C3 6492   3.592   2.804  12.148  0.0734 -0.3778  0.1390
  432TMC3    C4 6493   3.567   2.773  12.424  0.1984  0.1983 -0.1980
  432TMC3    C5 6494   3.547   2.668  12.334  0.1434  0.1336 -0.2118
  432TMC3    C6 6495   3.557   2.684  12.202  0.2255  0.0626 -0.1899
  432TMC3     C 6496   3.604   3.005  12.455  0.4011  0.5304  0.7468
  432TMC3     O 6497   3.691   3.087  12.438  0.4290 -0.1173 -0.2775
  432TMC3     H 6498   3.632   3.017  12.190 -0.4795  0.6608 -1.4085
  432TMC3    H1 6499   3.564   2.776  12.532 -2.4282 -1.6703 -0.2275
  432TMC3    H2 6500   3.530   2.605  12.133 -1.0369 -1.2459  1.7797
  432TMC3    C7 6501   3.539   2.526  12.381  0.0011  0.0528 -0.6617
  432TMC3    C8 6502   3.668   2.800  12.019  0.4981  0.3200  0.0624
  432TMC3    O1 6503   3.528   2.444  12.289 -0.3246  0.0328  0.2564
  432TMC3    O2 6504   3.674   2.905  11.953 -0.2039 -0.4479 -0.3223
  433MPD2     C 6505   2.591   1.227  10.845 -0.3281  0.4178  0.0453
  433MPD2    C1 6506   2.705   1.194  10.907  0.9933  0.0963  0.7297
  433MPD2    C2 6507   2.695   1.176  11.044  0.0757  0.3568  0.3022
  433MPD2    C3 6508   2.575   1.200  11.112  0.0299  0.3087  0.2618
  433MPD2    C4 6509   2.463   1.237  11.036  0.4200 -0.3193 -0.2525
  433MPD2    C5 6510   2.470   1.253  10.901 -0.2873 -0.1802 -0.1945
  433MPD2     H 6511   2.786   1.144  11.093  0.7770  1.3585 -0.3612
  433MPD2    H1 6512   2.369   1.253  11.088 -0.6495 -2.7956 -1.3713
  433MPD2    H2 6513   2.599   1.245  10.739  1.2376 -0.9047 -0.0594
  433MPD2    H3 6514   2.386   1.288  10.842  1.8198  0.3870 -2.8553
  433MPD2     N 6515   2.582   1.211  11.255 -0.6389 -0.2395  0.7910
  433MPD2    H5 6516   2.670   1.189  11.299  0.5380 -0.6164 -1.7666
  433MPD2    N1 6517   2.832   1.183  10.853 -0.0332 -0.8411 -0.9506
  433MPD2    H7 6518   2.907   1.155  10.914  0.5516  2.6159 -0.0902
  434TMC3    C1 6519   2.998   1.138  10.694 -0.2349  0.2300  0.2423
  434TMC3    C2 6520   3.066   1.111  10.809 -0.1057  0.0640  1.1357
  434TMC3    C3 6521   3.112   0.986  10.830 -0.2359 -0.2411 -0.5290
  434TMC3    C4 6522   2.966   1.038  10.607 -0.2818  0.2513 -0.6769
  434TMC3    C5 6523   2.996   0.912  10.643 -0.4293  0.3657  0.3695
  434TMC3    C6 6524   3.070   0.883  10.757 -0.2745  0.2341 -0.3278
  434TMC3     C 6525   2.871   1.208  10.725 -0.6413  0.1084  0.1652
  434TMC3     O 6526   2.795   1.242  10.636  0.5916  0.2213 -0.2727
  434TMC3     H 6527   3.105   1.192  10.870  1.4366 -0.2166  0.5249
  434TMC3    H1 6528   2.904   1.059  10.521 -0.5903 -1.2849 -0.8263
  434TMC3    H2 6529   3.122   0.788  10.764  0.7153  0.7673 -0.4259
  434TMC3    C7 6530   2.958   0.800  10.553  0.5265 -0.0621  0.1123
  434TMC3    C8 6531   3.164   0.946  10.962  0.4961 -0.0282 -0.2857
  434TMC3    O1 6532   2.917   0.831  10.441 -0.0664  0.0440 -0.4352
  434TMC3    O2 6533   3.235   1.021  11.027  0.2901  0.0792  0.3538
  435MPD2     C 6534   4.669   1.056  15.570 -0.1165 -0.4643 -0.2894
  435MPD2    C1 6535   4.627   1.119  15.682  0.6490  0.1253 -0.0687
  435MPD2    C2 6536   4.706   1.109  15.795 -0.2488 -0.6825 -0.7155
  435MPD2    C3 6537   0.089   1.041  15.791 -0.3879  0.1363  0.2771
  435MPD2    C4 6538   0.118   0.969  15.675 -0.6488 -0.0649  0.1048
  435MPD2    C5 6539   0.043   0.980  15.560 -0.2272  1.0398  0.1411
  435MPD2     H 6540   4.694   1.156  15.892 -1.9306 -1.0466 -0.7568
  435MPD2    H1 6541   0.194   0.892  15.674  0.0361  0.6523 -2.1066
  435MPD2    H2 6542   4.614   1.069  15.477  0.2292 -0.9178 -0.5564
  435MPD2    H3 6543   0.067   0.925  15.469  0.7888  0.5588  0.6970
  435MPD2     N 6544   0.160   1.019  15.905  0.2031 -0.2572 -0.1629
  435MPD2    H5 6545   0.130   1.071  15.987  0.1179 -0.5442 -0.0131
  435MPD2    N1 6546   4.502   1.191  15.689 -0.1852  0.1951  0.1656
  435MPD2    H7 6547   4.482   1.223  15.783 -1.6732  0.5809 -0.2777
  436TMC3    C1 6548   4.212   1.344  15.858  0.0317 -0.0211 -0.5760
  436TMC3    C2 6549   4.316   1.341  15.766 -0.8006  0.0844 -0.4411
  436TMC3    C3 6550   4.298   1.266  15.657 -0.3222  0.5346  0.1744
  436TMC3    C4 6551   4.096   1.275  15.842  0.5841  0.2640 -0.0542
  436TMC3    C5 6552   4.081   1.196  15.728  0.2347  0.0324  0.5545
  436TMC3    C6 6553   4.180   1.204  15.627 -0.1192  0.4112  0.4717
  436TMC3     C 6554   4.234   1.435  15.968  0.0338 -0.3197  0.2427
  436TMC3     O 6555   4.310   1.524  15.947 -0.0559 -0.1566  0.1573
  436TMC3     H 6556   4.401   1.408  15.770 -0.6806 -0.0175 -1.2483
  436TMC3    H1 6557   4.011   1.290  15.908  0.7937 -1.1024  0.5235
  436TMC3    H2 6558   4.171   1.137  15.542 -0.6920  0.4343  0.5175
  436TMC3    C7 6559   3.976   1.096  15.718  0.0242  0.5181  0.2405
  436TMC3    C8 6560   4.410   1.203  15.596 -0.1913 -0.2680 -0.3273
  436TMC3    O1 6561   3.980   1.029  15.616  0.3850 -0.2822  0.5473
  436TMC3    O2 6562   4.389   1.152  15.485  0.2553 -0.7837 -0.4875
  437TMC3    C1 6563   2.611   3.429  12.983  1.0235  0.3205  0.3637
  437TMC3    C2 6564   2.484   3.379  13.013  0.0751  0.4617  0.0145
  437TMC3    C3 6565   2.398   3.460  13.084  1.1863 -0.2237  0.6473
  437TMC3    C4 6566   2.645   3.554  13.030 -0.2206  0.6318  0.3927
  437TMC3    C5 6567   2.557   3.622  13.115 -0.1711  0.2557  0.2867
  437TMC3    C6 6568   2.433   3.581  13.134 -0.5607  0.2579 -0.2355
  437TMC3     C 6569   2.680   3.356  12.882  0.3795  0.1441 -0.6343
  437TMC3     O 6570   2.675   3.234  12.883  0.3642  0.3986 -0.2976
  437TMC3     H 6571   2.448   3.288  12.967 -0.1687  0.1195  0.8958
  437TMC3    H1 6572   2.734   3.602  12.993  0.5509  0.4286  1.9657
  437TMC3    H2 6573   2.359   3.645  13.182 -1.9084 -1.9553  0.6346
  437TMC3    C7 6574   2.600   3.758  13.165  0.3209 -0.6465  0.6845
  437TMC3    C8 6575   2.283   3.390  13.136  0.2263 -0.6181 -1.0562
  437TMC3    O1 6576   2.508   3.841  13.160 -0.4501 -0.6744  0.6875
  437TMC3    O2 6577   2.289   3.268  13.150  0.8113  0.2363  0.1759
  438MPD2     C 6578   1.048   3.962  16.593 -0.0009 -0.1808  0.0278
  438MPD2    C1 6579   1.147   3.882  16.647  0.0986 -0.3528 -0.2440
  438MPD2    C2 6580   1.159   3.878  16.785 -0.2616  0.0450 -0.0121
  438MPD2    C3 6581   1.047   3.914  16.857 -0.2628 -0.5559  0.5351
  438MPD2    C4 6582   0.957   4.005  16.804  0.1370 -0.3744  0.2442
  438MPD2    C5 6583   0.956   4.030  16.668  0.0659  0.4716  0.5381
  438MPD2     H 6584   1.239   3.820  16.829  0.5796 -0.4399 -2.1631
  438MPD2    H1 6585   0.879   4.038  16.871 -0.9056 -1.7745 -0.2487
  438MPD2    H2 6586   1.031   3.973  16.487 -1.1211  1.8516  0.4200
  438MPD2    H3 6587   0.879   4.092  16.625 -0.2379 -0.2092  0.0970
  438MPD2     N 6588   1.028   3.876  16.994  0.4819  0.6199 -0.6020
  438MPD2    H5 6589   0.943   3.910  17.037 -0.4511  0.2754 -2.1668
  438MPD2    N1 6590   1.233   3.798  16.570 -0.7204  0.6663 -0.2709
  438MPD2    H7 6591   1.304   3.741  16.615 -0.1805  1.9077  0.4521
  439TMC3    C1 6592   1.318   3.680  16.395  0.3633  0.2883  0.4526
  439TMC3    C2 6593   1.318   3.664  16.257  0.0938 -0.0984 -0.2125
  439TMC3    C3 6594   1.384   3.557  16.207  0.3201 -0.1975  0.0029
  439TMC3    C4 6595   1.366   3.586  16.478  0.0602  0.3251  0.1735
  439TMC3    C5 6596   1.428   3.472  16.426  0.1702 -0.0524  0.4975
  439TMC3    C6 6597   1.442   3.461  16.288  0.3007  0.1578 -0.3072
  439TMC3     C 6598   1.232   3.792  16.440 -0.6038 -0.0741  0.4952
  439TMC3     O 6599   1.180   3.876  16.361  0.4256  0.1388 -0.6123
  439TMC3     H 6600   1.269   3.739  16.195 -0.5581 -0.6726 -0.4028
  439TMC3    H1 6601   1.353   3.589  16.585 -0.4811  0.4612  0.1006
  439TMC3    H2 6602   1.511   3.390  16.243  1.2559  0.4001  0.7644
  439TMC3    C7 6603   1.507   3.385  16.502  0.2331 -0.1692  0.0474
  439TMC3    C8 6604   1.389   3.521  16.067  0.6665  0.0106 -0.0519
  439TMC3    O1 6605   1.540   3.424  16.614  0.6709  0.2448  0.3124
  439TMC3    O2 6606   1.413   3.402  16.047 -0.3349 -0.0437  0.2203
  440MPD2     C 6607   4.273   3.677  15.437  0.6706 -0.0386  0.0818
  440MPD2    C1 6608   4.356   3.781  15.441  0.2963  0.0337  0.5051
  440MPD2    C2 6609   4.499   3.765  15.432  0.2161  0.1841 -0.1626
  440MPD2    C3 6610   4.551   3.640  15.421 -0.4079  0.2656 -0.6361
  440MPD2    C4 6611   4.468   3.539  15.419 -0.3790  0.4994 -0.2032
  440MPD2    C5 6612   4.331   3.553  15.433  0.9753  0.3421  0.4111
  440MPD2     H 6613   4.558   3.855  15.424 -0.1118  0.3787 -0.3815
  440MPD2    H1 6614   4.517   3.443  15.405 -1.7332 -0.3282  0.7915
  440MPD2    H2 6615   4.167   3.685  15.455  0.3766 -0.8532 -1.2855
  440MPD2    H3 6616   4.278   3.459  15.441  2.3544 -0.3349  1.6524
  440MPD2     N 6617   4.685   3.613  15.401  0.8969 -0.1390 -0.3912
  440MPD2    H5 6618   4.705   3.520  15.367  0.7775 -0.4400  0.3802
  440MPD2    N1 6619   4.309   3.913  15.466 -0.2261 -0.0318 -0.7944
  440MPD2    H7 6620   4.381   3.981  15.490 -0.6472  0.0628  0.1702
  441TMC3    C1 6621   0.180   3.637  15.390  0.4198 -0.1309 -0.8100
  441TMC3    C2 6622   0.256   3.717  15.472  0.4842 -0.8032  0.3009
  441TMC3    C3 6623   0.324   3.669  15.579 -0.0709  0.6956 -0.7982
  441TMC3    C4 6624   0.175   3.505  15.411  0.1896  0.5012 -0.0637
  441TMC3    C5 6625   0.241   3.456  15.519 -0.3227  0.4967 -0.1395
  441TMC3    C6 6626   0.315   3.537  15.602  0.0053  0.0132 -0.4117
  441TMC3     C 6627   0.052   3.705  15.403  0.8341 -0.4752 -0.1853
  441TMC3     O 6628   0.049   3.824  15.424 -0.4733 -0.0550  0.0459
  441TMC3     H 6629   0.277   3.819  15.442  1.4875 -1.3297 -0.7948
  441TMC3    H1 6630   0.129   3.438  15.339  0.3690  1.2557 -0.8746
  441TMC3    H2 6631   0.366   3.502  15.691  0.8292 -0.4412 -1.0618
  441TMC3    C7 6632   0.155   3.371  15.603 -0.0811 -0.1786 -0.8310
  441TMC3    C8 6633   0.360   3.751  15.692  0.5723  0.4206  0.2988
  441TMC3    O1 6634   0.143   3.402  15.724  0.0264  0.1514  0.0857
  441TMC3    O2 6635   0.415   3.703  15.790  0.3852  0.3073  0.2595
  442MPD2     C 6636   2.809   4.698  17.008  0.4170 -0.2948  0.0404
  442MPD2    C1 6637   2.678   4.639  17.015  0.3838 -0.3024  0.3750
  442MPD2    C2 6638   2.649   4.534  16.937  0.1343 -0.3718  0.5453
  442MPD2    C3 6639   2.731   4.507  16.827  0.8617  0.4879  0.3823
  442MPD2    C4 6640   2.847   4.576  16.807 -0.3050 -0.2532  0.3819
  442MPD2    C5 6641   2.886   4.667  16.902 -0.2210 -0.4953 -0.8162
  442MPD2     H 6642   2.548   4.497  16.950 -0.8756  1.7480 -1.2410
  442MPD2    H1 6643   2.923   4.539  16.740 -0.9207  1.0059 -1.0085
  442MPD2    H2 6644   2.856   0.026  17.082  1.0966  1.3309 -1.7964
  442MPD2    H3 6645   2.986   4.705  16.889  0.0030 -1.0845 -0.8005
  442MPD2     N 6646   2.694   4.408  16.736 -0.4656 -0.9873 -0.0848
  442MPD2    H5 6647   2.756   4.400  16.657 -2.0177  0.0518 -1.3988
  442MPD2    N1 6648   2.586   4.667  17.118  0.3898 -0.7420  0.2978
  442MPD2    H7 6649   2.499   4.615  17.119 -0.1225  0.1519  2.4576
  443TMC3    C1 6650   2.502   0.028  17.313  0.1099 -0.3826  0.1579
  443TMC3    C2 6651   2.414   0.124  17.274  0.4260 -0.1100  0.3080
  443TMC3    C3 6652   2.285   0.090  17.247 -0.1273 -1.0866 -0.2787
  443TMC3    C4 6653   2.460   4.645  17.361 -0.8837 -0.6697 -0.1658
  443TMC3    C5 6654   2.329   4.619  17.344 -0.0513  0.2661 -0.3596
  443TMC3    C6 6655   2.242   4.698  17.272  0.2874  1.4138  0.2622
  443TMC3     C 6656   2.611   0.026  17.217 -0.1110  0.2408  0.3087
  443TMC3     O 6657   2.707   0.097  17.234 -0.1220 -0.0722  0.1724
  443TMC3     H 6658   2.459   0.215  17.234 -0.9602  0.2676 -0.3916
  443TMC3    H1 6659   2.532   4.568  17.388 -0.5569 -0.8051 -1.4321
  443TMC3    H2 6660   2.139   4.666  17.261  0.7027  0.7622 -1.7090
  443TMC3    C7 6661   2.287   4.485  17.365 -1.0266 -0.0379 -0.2281
  443TMC3    C8 6662   2.253   0.141  17.118 -0.4951  0.7649 -0.1587
  443TMC3    O1 6663   2.236   4.422  17.273 -0.0177  0.0140 -0.0969
  443TMC3    O2 6664   2.243   0.262  17.106 -0.6608  0.2777  0.4680
  444MPD2     C 6665   3.072   4.068  17.176  0.6708 -0.2352  0.4018
  444MPD2    C1 6666   2.978   3.972  17.142 -0.2423  0.2443  0.4371
  444MPD2    C2 6667   3.004   3.877  17.045 -0.4451  0.0584  0.6302
  444MPD2    C3 6668   3.132   3.865  16.988 -0.0520  0.1426  0.1492
  444MPD2    C4 6669   3.226   3.958  17.032 -0.1771  0.8665 -0.2067
  444MPD2    C5 6670   3.197   4.050  17.126  0.0349  0.7382 -0.0092
  444MPD2     H 6671   2.936   3.796  17.025  1.1131 -0.3389 -3.0037
  444MPD2    H1 6672   3.329   3.952  16.996 -0.7136 -2.4477 -1.2576
  444MPD2    H2 6673   3.073   4.150  17.247  0.7306  0.8988 -0.9189
  444MPD2    H3 6674   3.266   4.131  17.145  0.4121  0.3343  0.3294
  444MPD2     N 6675   3.159   3.752  16.918 -0.6977 -0.0202 -0.0527
  444MPD2    H5 6676   3.083   3.685  16.909 -2.0191  1.3863  0.5239
  444MPD2    N1 6677   2.845   3.967  17.206  0.0153  0.4649 -0.3538
  444MPD2    H7 6678   2.782   3.892  17.178 -1.1653  0.6972  1.6230
  445TMC3    C1 6679   3.293   3.593  16.803  1.0300  0.1424 -0.6575
  445TMC3    C2 6680   3.179   3.559  16.732  0.3431 -0.1516 -0.0473
  445TMC3    C3 6681   3.174   3.430  16.685  0.4965 -0.2020  0.5984
  445TMC3    C4 6682   3.397   3.501  16.822  0.5009  0.9108 -0.1467
  445TMC3    C5 6683   3.385   3.374  16.775  0.6757 -0.3481 -0.0178
  445TMC3    C6 6684   3.273   3.336  16.706 -0.4745  1.2421 -0.9217
  445TMC3     C 6685   3.285   3.712  16.889  0.2947  0.5634  0.4688
  445TMC3     O 6686   3.393   3.762  16.918  0.3333 -0.2230 -0.2286
  445TMC3     H 6687   3.107   3.638  16.710  0.6419 -0.3817 -1.8585
  445TMC3    H1 6688   3.479   3.533  16.884  0.6417 -0.5035  0.3829
  445TMC3    H2 6689   3.268   3.236  16.664 -1.1965  0.5470  0.8139
  445TMC3    C7 6690   3.509   3.302  16.753 -0.6822 -0.4413 -0.1460
  445TMC3    C8 6691   3.082   3.393  16.582 -0.5644  0.1043 -0.1231
  445TMC3    O1 6692   3.523   3.230  16.655 -0.1744  0.0798  0.2116
  445TMC3    O2 6693   3.073   3.275  16.556  0.0645 -0.0522 -0.4866
  446MPD2     C 6694   2.819   0.502  11.415  0.9875 -0.5295  0.4368
  446MPD2    C1 6695   2.745   0.611  11.370 -0.2373 -0.4949 -1.2868
  446MPD2    C2 6696   2.806   0.736  11.346  0.2979 -0.0929  0.6524
  446MPD2    C3 6697   2.934   0.754  11.392 -0.1821  0.5026  0.6740
  446MPD2    C4 6698   3.001   0.649  11.449  0.8191 -0.3758 -0.1111
  446MPD2    C5 6699   2.950   0.525  11.462  0.2943 -0.5874 -0.2182
  446MPD2     H 6700   2.748   0.814  11.299  0.9158  0.3196  0.5859
  446MPD2    H1 6701   3.107   0.665  11.466  1.0415 -0.1531 -1.7886
  446MPD2    H2 6702   2.782   0.403  11.435 -2.3946  1.0316  1.9166
  446MPD2    H3 6703   3.012   0.440  11.487  0.1779 -1.0471 -1.5311
  446MPD2     N 6704   2.994   0.878  11.384  0.4693  0.4697 -1.0746
  446MPD2    H5 6705   3.091   0.880  11.415  0.6531 -3.1418 -1.4493
  446MPD2    N1 6706   2.603   0.594  11.337  0.4520  0.2936 -0.4058
  446MPD2    H7 6707   2.549   0.673  11.301  1.6391  0.9337 -0.7564
  447TMC3    C1 6708   3.041   1.111  11.354 -1.0533  0.6410 -0.0413
  447TMC3    C2 6709   3.001   1.227  11.301  0.0927 -0.3195  0.2303
  447TMC3    C3 6710   3.096   1.313  11.256 -0.0453 -0.9397 -0.0061
  447TMC3    C4 6711   3.175   1.084  11.381 -0.1780  0.3171  0.0088
  447TMC3    C5 6712   3.266   1.179  11.346 -0.5462 -0.5121  0.3967
  447TMC3    C6 6713   3.229   1.293  11.285 -0.2866  0.2132  0.0645
  447TMC3     C 6714   2.943   1.004  11.348  0.4263  0.4921  0.1742
  447TMC3     O 6715   2.830   1.048  11.359  0.3287 -0.2394 -0.6346
  447TMC3     H 6716   2.898   1.251  11.278 -0.4904 -1.5026  1.6155
  447TMC3    H1 6717   3.209   0.990  11.422  2.5237  0.1783 -2.5242
  447TMC3    H2 6718   3.299   1.355  11.231  0.3345  0.9721  1.7276
  447TMC3    C7 6719   3.409   1.147  11.368 -0.2625  0.4488  0.6184
  447TMC3    C8 6720   3.076   1.369  11.119  0.2661 -0.2939 -0.5186
  447TMC3    O1 6721   3.433   1.028  11.379  1.0635 -0.1435 -0.6144
  447TMC3    O2 6722   2.983   1.325  11.055  0.3814 -0.1140  0.1145
  448TMC3    C1 6723   0.615   0.326  17.048 -0.2133 -0.0964 -0.0017
  448TMC3    C2 6724   0.653   0.201  17.017 -0.3794 -0.5232  0.5098
  448TMC3    C3 6725   0.756   0.143  17.076  0.2983  0.1098  0.4398
  448TMC3    C4 6726   0.680   0.398  17.147 -0.5397  0.0529 -0.0915
  448TMC3    C5 6727   0.780   0.327  17.206 -0.2628 -0.3719 -0.8915
  448TMC3    C6 6728   0.832   0.211  17.164 -0.1546  0.0991 -0.1380
  448TMC3     C 6729   0.509   0.395  16.982  0.4240  0.0864  0.4000
  448TMC3     O 6730   0.447   0.324  16.902  0.0536 -0.1934 -0.1590
  448TMC3     H 6731   0.606   0.167  16.925 -0.1451  0.8441 -0.1223
  448TMC3    H1 6732   0.663   0.498  17.183  1.5499  0.5147 -0.3783
  448TMC3    H2 6733   0.924   0.169  17.203 -0.7019 -1.8006 -0.8583
  448TMC3    C7 6734   0.858   0.407  17.306 -0.1130 -0.1184 -0.2334
  448TMC3    C8 6735   0.828   0.037  17.011 -0.4163  0.7092  0.5017
  448TMC3    O1 6736   0.869   0.526  17.279  0.4224  0.5204  0.0669
  448TMC3    O2 6737   0.948   0.016  17.030 -0.1984 -0.2203  0.0741
  449MPD2     C 6738   2.444   3.472  13.931 -0.3745 -0.8422  0.4714
  449MPD2    C1 6739   2.333   3.486  13.851 -0.6736  0.1930 -0.0179
  449MPD2    C2 6740   2.209   3.481  13.911 -0.1666  0.2832  0.6528
  449MPD2    C3 6741   2.189   3.468  14.055 -0.6271 -0.0559 -0.1180
  449MPD2    C4 6742   2.305   3.450  14.131  0.2183  0.0658 -0.5646
  449MPD2    C5 6743   2.419   3.452  14.061 -0.1284  0.7388  0.0342
  449MPD2     H 6744   2.118   3.497  13.854  0.0324 -0.3742  0.1461
  449MPD2    H1 6745   2.297   3.437  14.238  0.0230 -0.6970 -0.6649
  449MPD2    H2 6746   2.545   3.479  13.891 -0.8577  1.1931 -0.4250
  449MPD2    H3 6747   2.512   3.455  14.118 -0.8983 -2.3735  1.4286
  449MPD2     N 6748   2.055   3.474  14.102 -0.7954 -0.0870 -0.5220
  449MPD2    H5 6749   1.982   3.489  14.033 -1.1752 -0.7235 -0.2541
  449MPD2    N1 6750   2.336   3.509  13.712 -0.5351  0.3486 -0.1955
  449MPD2    H7 6751   2.247   3.507  13.663  0.1321 -0.0560 -1.3636
  450TMC3    C1 6752   2.425   3.600  13.511  0.1720 -0.1519  0.3018
  450TMC3    C2 6753   2.480   3.721  13.490 -0.3428  0.3783  0.0760
  450TMC3    C3 6754   2.393   3.820  13.441  0.1438 -0.5112 -0.6679
  450TMC3    C4 6755   2.296   3.576  13.484 -0.0604  0.2530  0.0396
  450TMC3    C5 6756   2.212   3.673  13.451  0.3274  0.5558 -0.3102
  450TMC3    C6 6757   2.255   3.803  13.437  0.0952  0.2441 -0.3570
  450TMC3     C 6758   2.450   3.552  13.645  0.9322  0.0075  0.4012
  450TMC3     O 6759   2.555   3.571  13.697  0.0212  0.6736  0.0635
  450TMC3     H 6760   2.566   3.765  13.540 -0.0221  1.6619 -1.5875
  450TMC3    H1 6761   2.268   3.471  13.482 -1.9477  0.7939 -1.0854
  450TMC3    H2 6762   2.186   3.882  13.409 -0.6786 -0.0130  0.8018
  450TMC3    C7 6763   2.089   3.652  13.526  0.5061  0.1076  0.6357
  450TMC3    C8 6764   2.440   3.956  13.416 -0.0873  0.5465 -0.9135
  450TMC3    O1 6765   2.092   3.551  13.602  0.5221  0.5839  0.0030
  450TMC3    O2 6766   2.361   4.048  13.408  0.5748  0.3228  0.3607
  451MPD2     C 6767   4.391   3.373   1.517 -0.0248  0.0066 -0.0969
  451MPD2    C1 6768   4.326   3.259   1.523  0.8969 -0.4303 -0.1319
  451MPD2    C2 6769   4.392   3.137   1.547 -0.5036  0.3567  0.1025
  451MPD2    C3 6770   4.526   3.136   1.577  0.5712 -0.0692  0.5458
  451MPD2    C4 6771   4.586   3.259   1.596  0.3122  0.4692 -0.4699
  451MPD2    C5 6772   4.517   3.370   1.560 -0.0532 -0.6245  0.5536
  451MPD2     H 6773   4.334   3.046   1.562  0.1780 -0.2232 -0.7693
  451MPD2    H1 6774   4.690   3.275   1.622  0.5887 -0.0577 -1.2296
  451MPD2    H2 6775   4.347   3.467   1.487  1.9881  0.8251 -0.5227
  451MPD2    H3 6776   4.566   3.467   1.557 -0.1814 -0.6663 -2.5046
  451MPD2     N 6777   4.592   3.013   1.608 -0.3900 -0.1009  0.0833
  451MPD2    H5 6778   4.526   2.936   1.603 -0.9548  0.3838 -0.0138
  451MPD2    N1 6779   4.187   3.264   1.481 -0.9253 -0.6870 -0.1225
  451MPD2    H7 6780   4.151   3.343   1.428 -0.4272 -0.3163  0.0941
  452TMC3    C1 6781   0.031   2.855   1.635  0.2142 -0.6688 -0.3494
  452TMC3    C2 6782   0.168   2.852   1.625  0.1241  0.0803 -0.0903
  452TMC3    C3 6783   0.228   2.737   1.581 -0.9531  0.6606 -0.3589
  452TMC3    C4 6784   4.690   2.761   1.569  0.4541 -0.7471 -0.8294
  452TMC3    C5 6785   0.021   2.660   1.505  0.2812 -0.2257 -0.1959
  452TMC3    C6 6786   0.154   2.636   1.520 -0.3886 -0.4543  0.2815
  452TMC3     C 6787   4.725   2.999   1.631  0.7535  0.2495 -0.2260
  452TMC3     O 6788   0.075   3.083   1.637  0.1374  0.0461 -0.3595
  452TMC3     H 6789   0.216   2.927   1.686  1.0914 -0.6411  0.0354
  452TMC3    H1 6790   4.582   2.763   1.580  0.3900  1.5197 -1.7989
  452TMC3    H2 6791   0.207   2.554   1.472  0.4741  0.2256  0.0704
  452TMC3    C7 6792   4.694   2.623   1.378  0.6259 -1.0506  0.5415
  452TMC3    C8 6793   0.369   2.749   1.554 -0.5578  0.1571  0.3643
  452TMC3    O1 6794   4.596   2.685   1.347  0.0304 -0.7052 -0.0975
  452TMC3    O2 6795   0.426   2.641   1.559  0.2615  0.2171  0.2417
  453TMC3    C1 6796   4.704   4.704  12.169 -0.3906 -0.2828  0.1575
  453TMC3    C2 6797   4.616   4.602  12.136 -0.0366  0.4096 -0.1360
  453TMC3    C3 6798   4.533   4.626  12.035  0.0437  0.0958  0.1836
  453TMC3    C4 6799   4.717   0.087  12.096 -0.1742 -0.1926  0.1879
  453TMC3    C5 6800   4.629   0.101  11.991 -0.3775 -0.2818  0.1225
  453TMC3    C6 6801   4.536   0.006  11.964  0.3095  0.3052 -0.5239
  453TMC3     C 6802   0.059   4.690  12.284 -0.1686 -0.2225 -0.5376
  453TMC3     O 6803   0.114   0.061  12.313 -0.1913 -0.3785  0.6208
  453TMC3     H 6804   4.596   4.518  12.201  0.0849  2.0533  2.0295
  453TMC3    H1 6805   0.070   0.149  12.106 -0.0752 -0.7936  3.0318
  453TMC3    H2 6806   4.482   0.022  11.871  1.0140  0.7954 -0.8477
  453TMC3    C7 6807   4.702   0.129  11.875 -0.4924  0.4232 -1.0760
  453TMC3    C8 6808   4.444   4.524  11.989 -0.2780 -0.4993 -0.0658
  453TMC3    O1 6809   4.727   0.032  11.806  0.2529 -0.4625 -0.1242
  453TMC3    O2 6810   4.342   4.559  11.932  0.0561 -0.5684 -0.1940
  454MPD2     C 6811   3.838   3.634  16.449 -0.2333  0.2439 -0.3554
  454MPD2    C1 6812   3.790   3.757  16.418 -0.1408  0.1621 -0.0509
  454MPD2    C2 6813   3.765   3.852  16.515 -0.5017  0.5393 -0.4070
  454MPD2    C3 6814   3.775   3.815  16.643  0.4085  0.4344 -0.0131
  454MPD2    C4 6815   3.828   3.691  16.682  0.0432 -0.4907 -0.4481
  454MPD2    C5 6816   3.859   3.605  16.582  0.3091 -0.1262  0.1898
  454MPD2     H 6817   3.721   3.947  16.488  0.4192  0.1655 -3.2200
  454MPD2    H1 6818   3.834   3.660  16.786 -1.3209  0.8470  0.0369
  454MPD2    H2 6819   3.866   3.559  16.376 -0.2800 -0.4945  0.3836
  454MPD2    H3 6820   3.898   3.506  16.602  1.6330  0.4306  0.3814
  454MPD2     N 6821   3.725   3.886  16.754 -0.2157 -0.1553  0.0204
  454MPD2    H5 6822   3.782   3.854  16.832 -1.2901 -1.6178  0.2012
  454MPD2    N1 6823   3.734   3.796  16.290  0.0222  0.0517 -0.3535
  454MPD2    H7 6824   3.689   3.887  16.291  2.0089  1.0619 -1.8421
  455TMC3    C1 6825   3.521   3.990  16.683 -0.1863  0.1752 -0.3646
  455TMC3    C2 6826   3.450   4.107  16.679  0.0325  0.2592 -0.2365
  455TMC3    C3 6827   3.316   4.094  16.640 -0.0374  0.4142 -1.4610
  455TMC3    C4 6828   3.478   3.869  16.628 -0.1717 -0.1710 -0.0043
  455TMC3    C5 6829   3.347   3.866  16.589 -1.0601  0.0311  0.5530
  455TMC3    C6 6830   3.265   3.974  16.590  0.2393  0.0729  0.0975
  455TMC3     C 6831   3.653   4.001  16.750 -0.3286  0.2052 -0.1702
  455TMC3     O 6832   3.663   4.101  16.824  0.1750  0.2307 -0.3147
  455TMC3     H 6833   3.484   4.198  16.727  0.7175 -0.4535  0.6470
  455TMC3    H1 6834   3.538   3.780  16.639 -0.2210  0.1173  2.5202
  455TMC3    H2 6835   3.163   3.962  16.555  0.2391  1.0894 -0.2670
  455TMC3    C7 6836   3.304   3.768  16.494  0.1416 -0.1992 -0.2206
  455TMC3    C8 6837   3.226   4.202  16.660 -0.6285  0.6691  0.2303
  455TMC3    O1 6838   3.186   3.756  16.474 -0.0419  0.0967  0.1983
  455TMC3    O2 6839   3.287   4.310  16.647 -0.0974 -0.1628  0.2489
  456MPD2     C 6840   1.688   3.992  16.194  0.3392 -0.3945 -0.2038
  456MPD2    C1 6841   1.676   3.882  16.276 -0.1229  0.2607  0.2514
  456MPD2    C2 6842   1.614   3.903  16.403  0.9091  0.4182 -0.0839
  456MPD2    C3 6843   1.582   4.025  16.444 -0.6509  0.5341  0.0624
  456MPD2    C4 6844   1.592   4.136  16.354  0.3241 -0.0439  0.5451
  456MPD2    C5 6845   1.642   4.118  16.227 -0.1398 -0.4764 -1.0359
  456MPD2     H 6846   1.599   3.821  16.472 -0.0989  0.4221 -0.2987
  456MPD2    H1 6847   1.550   4.233  16.380  0.8600 -0.0946  1.6080
  456MPD2    H2 6848   1.734   3.973  16.098  0.4503  1.2681 -0.4804
  456MPD2    H3 6849   1.644   4.200  16.157 -1.2018  0.5794  0.1724
  456MPD2     N 6850   1.513   4.036  16.562 -0.2891 -0.3267 -0.0243
  456MPD2    H5 6851   1.532   3.968  16.635 -0.1021 -1.1562 -0.8446
  456MPD2    N1 6852   1.714   3.752  16.235 -0.2031  0.1933 -0.5073
  456MPD2    H7 6853   1.732   3.747  16.135  0.9184 -1.3587 -0.2165
  457TMC3    C1 6854   1.365   4.129  16.724  0.0401 -1.2585 -0.3266
  457TMC3    C2 6855   1.252   4.210  16.743 -0.4819  1.2033  0.0318
  457TMC3    C3 6856   1.230   4.248  16.875  0.0900  0.1142 -0.5414
  457TMC3    C4 6857   1.443   4.085  16.829  0.4106  0.0557  0.1244
  457TMC3    C5 6858   1.392   4.109  16.960  0.2091  0.0991 -0.2019
  457TMC3    C6 6859   1.297   4.193  16.980  0.2016 -0.3447 -0.4811
  457TMC3     C 6860   1.421   4.135  16.592  0.0419 -0.2406 -0.7090
  457TMC3     O 6861   1.364   4.214  16.515  0.2982  0.5537  0.2187
  457TMC3     H 6862   1.201   4.259  16.661  1.9991 -0.3109 -2.4223
  457TMC3    H1 6863   1.532   4.025  16.815 -0.9536 -1.9875  0.0694
  457TMC3    H2 6864   1.255   4.205  17.079  1.2676 -0.9185  0.0430
  457TMC3    C7 6865   1.474   4.073  17.076 -0.2091 -0.3082 -0.7084
  457TMC3    C8 6866   1.116   4.330  16.905 -0.0400  0.5155  0.3119
  457TMC3    O1 6867   1.559   3.990  17.066 -0.0943 -0.1047  0.2985
  457TMC3    O2 6868   1.102   4.371  17.021 -0.1906 -0.3870 -0.1143
  458MPD2     C 6869   3.025   4.020  13.035 -0.7692 -0.1587 -0.2327
  458MPD2    C1 6870   3.071   3.912  13.110  0.3625 -0.0545  0.9658
  458MPD2    C2 6871   2.969   3.828  13.167  0.0943  0.3297 -0.3394
  458MPD2    C3 6872   2.835   3.856  13.155  0.1080 -0.3785 -0.0381
  458MPD2    C4 6873   2.796   3.969  13.094 -0.6487 -0.2116 -0.8271
  458MPD2    C5 6874   2.897   4.049  13.042  0.2111 -0.5164 -0.7760
  458MPD2     H 6875   2.993   3.728  13.202  1.8810  1.0337  0.4713
  458MPD2    H1 6876   2.694   4.004  13.078 -0.4491  0.8570  0.1833
  458MPD2    H2 6877   3.093   4.078  12.973  1.7053 -1.2205  1.4710
  458MPD2    H3 6878   2.866   4.143  12.998 -0.5676  0.1946  1.2869
  458MPD2     N 6879   2.737   3.757  13.186 -0.1943 -0.7787 -0.2927
  458MPD2    H5 6880   2.764   3.665  13.218 -1.5818 -1.5707 -1.3621
  458MPD2    N1 6881   3.213   3.883  13.114  0.3304  0.0446  0.0502
  458MPD2    H7 6882   3.272   3.929  13.046 -1.8078 -1.2460 -2.6875
  459TMC3    C1 6883   3.416   3.757  13.177  0.4273  0.1710  0.7310
  459TMC3    C2 6884   3.490   3.856  13.130 -0.1797  0.4822  0.5658
  459TMC3    C3 6885   3.624   3.846  13.144 -0.9022  0.1168  0.2713
  459TMC3    C4 6886   3.460   3.643  13.233 -0.4559 -0.8447  0.5901
  459TMC3    C5 6887   3.600   3.642  13.254  0.0187  0.2118  0.4505
  459TMC3    C6 6888   3.681   3.742  13.209  0.5298  0.4970  0.0565
  459TMC3     C 6889   3.272   3.783  13.196  0.3312  0.1069  0.8401
  459TMC3     O 6890   3.222   3.722  13.286 -0.9350 -0.1700 -0.4791
  459TMC3     H 6891   3.451   3.956  13.119  1.1074  0.9013 -0.1641
  459TMC3    H1 6892   3.394   3.559  13.254  0.8198 -1.5690  1.6625
  459TMC3    H2 6893   3.789   3.731  13.208  0.6063  1.3388 -0.4524
  459TMC3    C7 6894   3.659   3.541  13.331 -0.3950  0.3061 -0.4564
  459TMC3    C8 6895   3.715   3.906  13.051  1.0372 -0.2232  0.7429
  459TMC3    O1 6896   3.607   3.432  13.348  0.3033 -0.7836  0.8808
  459TMC3    O2 6897   3.827   3.925  13.099 -0.0163 -0.3825  0.6102
  460MPD2     C 6898   3.142   1.714  11.038  0.5364  0.1486  0.2882
  460MPD2    C1 6899   3.120   1.584  11.009  0.3313 -0.1807  0.8562
  460MPD2    C2 6900   3.097   1.544  10.882 -0.0053 -0.7434 -1.1358
  460MPD2    C3 6901   3.100   1.638  10.780 -0.3275 -0.0435  0.2358
  460MPD2    C4 6902   3.105   1.768  10.813  0.3369 -0.2874  0.1208
  460MPD2    C5 6903   3.137   1.811  10.940 -0.7497 -0.0513  0.8618
  460MPD2     H 6904   3.073   1.439  10.871 -0.8578 -0.7200  0.4576
  460MPD2    H1 6905   3.087   1.846  10.740 -0.1395 -2.3332 -1.9812
  460MPD2    H2 6906   3.179   1.738  11.137  1.2118 -1.0924  0.3408
  460MPD2    H3 6907   3.146   1.914  10.971 -0.6305  0.1419  0.1909
  460MPD2     N 6908   3.089   1.611  10.641 -0.0881 -0.2105 -0.0783
  460MPD2    H5 6909   3.082   1.685  10.573 -1.1488 -0.6698 -0.4716
  460MPD2    N1 6910   3.132   1.497  11.116 -0.4850 -0.5954 -0.7564
  460MPD2    H7 6911   3.161   1.533  11.206 -1.0972  1.5080 -1.4239
  461TMC3    C1 6912   3.047   1.488  10.445 -0.7116 -0.3079  0.5994
  461TMC3    C2 6913   3.040   1.360  10.390 -0.6887  0.0436  0.0756
  461TMC3    C3 6914   2.972   1.351  10.271 -0.2030 -0.0228  0.4306
  461TMC3    C4 6915   2.980   1.596  10.399  0.3754  0.4574 -0.3334
  461TMC3    C5 6916   2.918   1.579  10.274 -0.4006  0.3087 -0.3770
  461TMC3    C6 6917   2.926   1.459  10.207 -0.3877  0.1405  0.2537
  461TMC3     C 6918   3.099   1.486  10.584 -0.1522  0.1838 -0.7008
  461TMC3     O 6919   3.134   1.382  10.632 -0.0738 -0.0492  0.1209
  461TMC3     H 6920   3.087   1.270  10.427  0.2638  0.6226  0.2798
  461TMC3    H1 6921   2.952   1.684  10.455 -1.3193 -0.2964  0.0094
  461TMC3    H2 6922   2.887   1.451  10.106 -0.2414 -1.2005  0.3056
  461TMC3    C7 6923   2.853   1.700  10.207  0.4082  0.3728  0.2331
  461TMC3    C8 6924   2.985   1.221  10.194 -0.2088 -0.3845  0.2658
  461TMC3    O1 6925   2.802   1.678  10.098  0.0063 -0.1354  0.0092
  461TMC3    O2 6926   3.050   1.135  10.247  0.2304  0.2951  0.0075
  462TMC3    C1 6927   3.013   1.581  17.584  0.0071 -0.0816 -0.0574
  462TMC3    C2 6928   2.980   1.506  17.472 -0.6867  0.9882  0.0451
  462TMC3    C3 6929   3.008   1.367  17.482 -0.1813  1.0813  0.0157
  462TMC3    C4 6930   3.073   1.532  17.696 -0.0611  0.2691 -0.0529
  462TMC3    C5 6931   3.095   1.394  17.701  0.2930 -0.4462 -0.0110
  462TMC3    C6 6932   3.072   1.317  17.593  0.2939 -0.8115 -0.2555
  462TMC3     C 6933   2.991   1.723  17.583  0.3241  1.2677 -0.6165
  462TMC3     O 6934   3.070   1.807  17.629 -0.7477  0.2913  0.1055
  462TMC3     H 6935   2.941   1.540  17.377 -0.9069  0.6959  0.0313
  462TMC3    H1 6936   3.081   1.609   0.031 -0.6344  0.9849 -0.7188
  462TMC3    H2 6937   3.060   1.210  17.608  1.3594 -0.7063  1.3407
  462TMC3    C7 6938   3.081   1.326   0.089 -0.3766  0.2273  0.4944
  462TMC3    C8 6939   2.923   1.280  17.399 -0.2591 -0.4379  0.3161
  462TMC3    O1 6940   3.020   1.220   0.099  0.4566 -0.2147  0.6620
  462TMC3    O2 6941   2.812   1.320  17.365  0.0477 -0.3785 -0.1674
  463MPD2     C 6942   4.718   0.458   1.547 -0.3005 -0.4232  0.0243
  463MPD2    C1 6943   4.644   0.573   1.544 -0.0160 -0.8209  0.0410
  463MPD2    C2 6944   4.711   0.689   1.528 -1.1302 -0.2276  0.1632
  463MPD2    C3 6945   0.115   0.699   1.516  0.3816  0.3743 -0.5873
  463MPD2    C4 6946   0.188   0.578   1.499 -0.0295 -0.2920  0.8506
  463MPD2    C5 6947   0.118   0.460   1.518  0.5443 -0.1953 -0.6297
  463MPD2     H 6948   4.646   0.773   1.508  0.1340  0.7696  0.2330
  463MPD2    H1 6949   0.293   0.575   1.475  0.2296  2.4030  1.6354
  463MPD2    H2 6950   4.678   0.360   1.574 -2.6239 -0.3241 -3.0912
  463MPD2    H3 6951   0.166   0.365   1.500  0.2548 -0.1235 -1.7570
  463MPD2     N 6952   0.180   0.826   1.497  0.2998 -0.8019 -0.5431
  463MPD2    H5 6953   0.278   0.823   1.471  0.3668 -1.9585 -0.1620
  463MPD2    N1 6954   4.509   0.575   1.529 -0.4758 -0.2557  0.5672
  463MPD2    H7 6955   4.461   0.664   1.524  1.4982  0.7070 -1.2579
  464TMC3    C1 6956   4.286   0.500   1.505  0.7285  0.1537  0.5118
  464TMC3    C2 6957   4.242   0.617   1.454 -0.0515  0.1159  0.4828
  464TMC3    C3 6958   4.115   0.631   1.451 -0.1868 -0.1359  0.2660
  464TMC3    C4 6959   4.201   0.408   1.564  0.0949 -0.3454 -0.0976
  464TMC3    C5 6960   4.069   0.420   1.544 -0.3908 -0.4813  0.0052
  464TMC3    C6 6961   4.020   0.541   1.497 -0.0067 -0.5681  0.3007
  464TMC3     C 6962   4.425   0.467   1.508  0.0521  0.1389 -0.6464
  464TMC3     O 6963   4.445   0.345   1.498 -0.1902 -0.1272 -0.2986
  464TMC3     H 6964   4.303   0.695   1.410  1.4004 -1.0059  0.5431
  464TMC3    H1 6965   4.242   0.316   1.603  0.9355  0.0041 -0.1501
  464TMC3    H2 6966   3.916   0.571   1.504  0.5075  1.5634 -1.1826
  464TMC3    C7 6967   3.984   0.319   1.609  0.1900 -0.5124  0.4681
  464TMC3    C8 6968   4.054   0.761   1.431  0.7703  0.4861  0.0822
  464TMC3    O1 6969   4.043   0.242   1.684 -0.0791  0.0702  0.1344
  464TMC3    O2 6970   3.934   0.772   1.403 -0.4652  0.2012  0.2684
  465MPD2     C 6971   0.559   4.091  16.713 -0.1288  0.2033  0.0212
  465MPD2    C1 6972   0.451   4.079  16.801 -0.0667 -0.4817  0.8081
  465MPD2    C2 6973   0.332   4.130  16.755 -0.3292  0.2127 -0.2906
  465MPD2    C3 6974   0.328   4.205  16.640  0.4158 -0.1377  0.3546
  465MPD2    C4 6975   0.435   4.224  16.560 -0.1262  0.1729  0.3933
  465MPD2    C5 6976   0.547   4.170  16.597  0.1746 -0.2048 -0.1603
  465MPD2     H 6977   0.242   4.110  16.813  0.1353  1.0517  0.7246
  465MPD2    H1 6978   0.437   4.288  16.473  2.6520  0.6285  0.7756
  465MPD2    H2 6979   0.660   4.055  16.728  0.2877  1.8923  1.3143
  465MPD2    H3 6980   0.632   4.188  16.533 -1.6995  0.9828 -2.3040
  465MPD2     N 6981   0.195   4.249  16.613  0.2446 -0.4487  0.4000
  465MPD2    H5 6982   0.125   4.228  16.684 -2.4680  0.4929 -2.0066
  465MPD2    N1 6983   0.458   4.019  16.928  0.1840  0.0750 -0.2923
  465MPD2    H7 6984   0.373   4.027  16.984 -0.0323 -0.8268 -0.4967
  466TMC3    C1 6985   4.537   4.275  16.539  0.5649 -0.7122  0.8444
  466TMC3    C2 6986   4.488   4.405  16.530  0.2852  0.4294  0.1082
  466TMC3    C3 6987   4.567   4.514  16.499 -0.2801 -0.5226  0.0623
  466TMC3    C4 6988   4.676   4.252  16.543 -0.2276 -0.3176 -0.1209
  466TMC3    C5 6989   0.014   4.364  16.522  0.0920 -0.8975  0.1457
  466TMC3    C6 6990   4.704   4.491  16.490  0.5614 -0.1926  0.1138
  466TMC3     C 6991   4.463   4.181  16.602  0.5817 -0.5354  0.5628
  466TMC3     O 6992   4.521   4.108  16.684 -0.3332  0.1377  0.7491
  466TMC3     H 6993   4.380   4.422  16.534  0.2421  0.1050  0.3089
  466TMC3    H1 6994   4.715   4.151  16.536  0.1137 -0.2017  0.1723
  466TMC3    H2 6995   0.035   4.575  16.481  0.6097 -0.2825 -0.3494
  466TMC3    C7 6996   0.158   4.343  16.524  0.0320 -0.0853  0.1614
  466TMC3    C8 6997   4.521   4.641  16.535 -0.1565 -0.5351  0.0268
  466TMC3    O1 6998   0.224   4.414  16.444  0.6406  0.2377 -0.0996
  466TMC3    O2 6999   4.423   4.649  16.609 -0.1267  0.0485 -0.0603
  467TMC3    C1 7000   1.029   2.909  13.910 -0.1913  0.3903  0.3455
  467TMC3    C2 7001   0.959   3.008  13.849  0.6404  0.0841  0.4427
  467TMC3    C3 7002   0.827   2.978  13.815 -0.6829  0.3465 -0.1162
  467TMC3    C4 7003   0.988   2.781  13.934  0.1284  0.6622  1.7464
  467TMC3    C5 7004   0.854   2.757  13.907 -0.1995  0.7364  0.4436
  467TMC3    C6 7005   0.777   2.854  13.845  1.2059  0.7426 -0.1390
  467TMC3     C 7006   1.172   2.925  13.894 -0.8199 -1.0325  0.0690
  467TMC3     O 7007   1.221   3.035  13.921 -0.0107 -0.5285  0.6413
  467TMC3     H 7008   1.016   3.097  13.825  1.3812 -0.6874 -0.6566
  467TMC3    H1 7009   1.050   2.698  13.968  0.2066 -0.5070 -1.2575
  467TMC3    H2 7010   0.675   2.835  13.812  1.1235 -3.5978  2.6548
  467TMC3    C7 7011   0.817   2.619  13.877 -0.1631 -0.2013  0.0129
  467TMC3    C8 7012   0.812   3.014  13.677  0.6556 -0.4131 -0.2837
  467TMC3    O1 7013   0.910   2.541  13.855 -0.0846  0.0411 -0.3900
  467TMC3    O2 7014   0.820   3.134  13.650  0.5343 -0.0505  0.1565
  468MPD2     C 7015   4.710   1.015  10.947 -0.3443  0.0269  0.7824
  468MPD2    C1 7016   0.097   1.024  11.010 -0.8649  0.4171 -0.1982
  468MPD2    C2 7017   0.149   0.914  11.058  0.5506 -0.2691 -1.3328
  468MPD2    C3 7018   0.083   0.790  11.055  0.7701  0.3211 -0.2172
  468MPD2    C4 7019   4.705   0.780  10.984 -0.6633 -0.6047 -0.3962
  468MPD2    C5 7020   4.648   0.894  10.935 -0.5356 -0.3566  0.4020
  468MPD2     H 7021   0.240   0.925  11.117 -1.9279  0.5967  2.2953
  468MPD2    H1 7022   4.658   0.684  10.965 -3.5474  0.4986  1.1500
  468MPD2    H2 7023   4.660   1.099  10.900 -0.1951 -1.0579 -1.3207
  468MPD2    H3 7024   4.547   0.882  10.898 -0.8639 -0.5739  1.3560
  468MPD2     N 7025   0.124   0.673  11.124 -0.6072  0.1090 -0.0143
  468MPD2    H5 7026   0.067   0.589  11.116 -2.8761  1.4539  1.9067
  468MPD2    N1 7027   0.165   1.146  11.034  0.5687  0.0145 -0.1980
  468MPD2    H7 7028   0.243   1.135  11.098  0.7268  1.2526 -0.1836
  469TMC3    C1 7029   0.233   1.372  11.018 -0.4875  1.0136 -0.6975
  469TMC3    C2 7030   0.342   1.314  11.074  1.0076  0.6371  0.1666
  469TMC3    C3 7031   0.397   1.363  11.193 -0.3731  0.2736 -0.1498
  469TMC3    C4 7032   0.184   1.478  11.089  0.0477  0.0243 -0.6547
  469TMC3    C5 7033   0.236   1.523  11.207 -0.0129 -0.2909  0.9816
  469TMC3    C6 7034   0.345   1.467  11.260  0.2582 -0.0680 -0.4836
  469TMC3     C 7035   0.136   1.270  10.972 -0.2334  0.0461  0.3005
  469TMC3     O 7036   0.064   1.296  10.874  0.6274 -0.0035  0.2512
  469TMC3     H 7037   0.389   1.230  11.023 -0.9471 -1.1451  1.3384
  469TMC3    H1 7038   0.093   1.529  11.058 -3.1510 -2.7142  4.2457
  469TMC3    H2 7039   0.382   1.506  11.354 -0.0691  0.7879 -0.7078
  469TMC3    C7 7040   0.169   1.644  11.256  0.0580 -0.6223 -0.0148
  469TMC3    C8 7041   0.482   1.263  11.259 -0.3556 -0.1890 -0.4604
  469TMC3    O1 7042   0.147   1.731  11.170 -0.5363 -0.0933  0.0285
  469TMC3    O2 7043   0.481   1.146  11.211  0.4021 -0.5433  0.8678
  470TMC3    C1 7044   3.156   1.797   1.103 -0.1558  0.4117  0.1537
  470TMC3    C2 7045   3.185   1.894   1.012 -1.0876  0.0796  0.4517
  470TMC3    C3 7046   3.094   1.936   0.918 -0.7927  0.2830 -0.2749
  470TMC3    C4 7047   3.028   1.747   1.116  0.1627 -0.0293  0.0118
  470TMC3    C5 7048   2.938   1.803   1.024  0.6601  0.4695 -0.1701
  470TMC3    C6 7049   2.970   1.889   0.920 -0.5779  0.0672  0.0116
  470TMC3     C 7050   3.253   1.691   1.111 -0.7567  0.1910  0.5575
  470TMC3     O 7051   3.370   1.734   1.093  0.0624  0.0143 -0.2574
  470TMC3     H 7052   3.286   1.933   1.007 -1.0139 -0.2477 -0.7988
  470TMC3    H1 7053   2.997   1.674   1.190  0.7706 -0.0414  0.2531
  470TMC3    H2 7054   2.894   1.928   0.854 -0.7472 -1.3285 -0.6134
  470TMC3    C7 7055   2.794   1.773   1.044 -0.6729 -0.8497 -0.3489
  470TMC3    C8 7056   3.086   2.084   0.909 -0.4047 -0.4696 -0.3259
  470TMC3    O1 7057   2.735   1.749   0.940 -0.1556 -0.5813 -0.2779
  470TMC3    O2 7058   2.972   2.126   0.938 -0.3321 -0.4468 -0.0353
  471MPD2     C 7059   3.103   3.160  17.134  0.2788 -0.1744  0.5711
  471MPD2    C1 7060   3.095   3.031  17.085 -0.2850  0.9024  0.4648
  471MPD2    C2 7061   3.138   2.924  17.157 -0.6376  0.1052 -0.1575
  471MPD2    C3 7062   3.184   2.939  17.285  0.2998  0.0229  0.0004
  471MPD2    C4 7063   3.184   3.064  17.340 -0.0068 -0.0120 -0.0222
  471MPD2    C5 7064   3.135   3.169  17.268  0.6029 -0.0678 -0.7107
  471MPD2     H 7065   3.136   2.832  17.101  1.1060  0.8318 -1.4010
  471MPD2    H1 7066   3.211   3.080  17.444  2.5696 -1.3302 -0.4698
  471MPD2    H2 7067   3.065   3.248  17.085  1.0448  0.0599  0.3927
  471MPD2    H3 7068   3.114   3.266  17.311 -0.1777 -0.2138 -0.7565
  471MPD2     N 7069   3.221   2.835  17.371  0.1470  0.3146  0.4334
  471MPD2    H5 7070   3.258   2.863  17.461 -1.0382 -1.2348  1.4078
  471MPD2    N1 7071   3.052   2.992  16.957 -0.2004 -0.2746  0.2623
  471MPD2    H7 7072   3.051   2.894  16.931 -2.0016 -1.0581  3.3094
  472TMC3    C1 7073   2.977   3.004  16.733  0.0222 -0.6536 -0.1139
  472TMC3    C2 7074   2.865   3.042  16.663 -0.5237 -0.6718 -0.3985
  472TMC3    C3 7075   2.807   2.950  16.576 -0.5422 -0.2969 -0.2323
  472TMC3    C4 7076   3.027   2.877  16.719 -0.1238 -0.5560 -0.1880
  472TMC3    C5 7077   2.967   2.791  16.637  0.2269  0.6830  0.0722
  472TMC3    C6 7078   2.851   2.818  16.572  0.4205 -0.2881  0.3977
  472TMC3     C 7079   3.008   3.078  16.858 -0.1113 -0.0346 -0.3125
  472TMC3     O 7080   2.968   3.192  16.868 -0.6281 -0.0610 -0.1750
  472TMC3     H 7081   2.828   3.142  16.680 -1.3036 -1.2211  1.0879
  472TMC3    H1 7082   3.115   2.853  16.778 -1.5119 -3.1033  0.8162
  472TMC3    H2 7083   2.819   2.751  16.493  1.7174  0.6874 -0.9507
  472TMC3    C7 7084   2.981   2.653  16.657  0.0405  0.5553 -0.3522
  472TMC3    C8 7085   2.718   2.997  16.467 -0.0125 -0.4824  0.6823
  472TMC3    O1 7086   3.021   2.610  16.765  0.4116 -0.4591  0.0081
  472TMC3    O2 7087   2.749   3.092  16.401  0.2834  0.3613  0.4032
  473MPD2     C 7088   2.707   0.049  14.215 -0.3597  0.1426 -0.1001
  473MPD2    C1 7089   2.714   0.179  14.183 -0.2537 -0.8018 -0.3282
  473MPD2    C2 7090   2.775   0.270  14.264  0.1754  0.1645 -0.0709
  473MPD2    C3 7091   2.805   0.231  14.391 -0.1087  0.4863 -0.4395
  473MPD2    C4 7092   2.799   0.095  14.425 -0.6825  0.2245  0.3292
  473MPD2    C5 7093   2.755   0.007  14.331  0.4182  0.0308  0.5091
  473MPD2     H 7094   2.793   0.370  14.229  0.3066  0.3092  0.4122
  473MPD2    H1 7095   2.822   0.055  14.523 -0.0181 -2.9096 -1.1365
  473MPD2    H2 7096   2.669   4.709  14.147  0.7155 -0.3548 -0.1510
  473MPD2    H3 7097   2.759   4.636  14.349  0.5642  0.0873  0.8169
  473MPD2     N 7098   2.866   0.319  14.486  0.1382  0.3029 -0.3002
  473MPD2    H5 7099   2.910   0.280  14.569 -0.2137 -1.0339 -0.7338
  473MPD2    N1 7100   2.673   0.224  14.058 -0.1952 -0.2257  0.5800
  473MPD2    H7 7101   2.692   0.321  14.036  0.4252 -0.7636 -1.2119
  474TMC3    C1 7102   2.845   0.522  14.606  0.4060  0.9349  0.2639
  474TMC3    C2 7103   2.737   0.598  14.622  0.2578 -0.3576 -0.1612
  474TMC3    C3 7104   2.744   0.703  14.705 -0.3693 -1.0986  0.0719
  474TMC3    C4 7105   2.957   0.543  14.672  0.1835 -0.0759  0.2457
  474TMC3    C5 7106   2.955   0.630  14.773  0.2127 -0.2253 -0.6883
  474TMC3    C6 7107   2.852   0.714  14.787  0.0617  0.3418 -0.0574
  474TMC3     C 7108   2.849   0.453  14.478  0.0874  0.4456  0.3366
  474TMC3     O 7109   2.811   0.527  14.384 -0.0039  0.3368  0.1989
  474TMC3     H 7110   2.657   0.584  14.551  0.2052  0.0771 -0.1866
  474TMC3    H1 7111   3.040   0.474  14.664 -0.1019 -0.4109  0.1222
  474TMC3    H2 7112   2.860   0.790  14.864 -2.5778 -1.3191  1.8556
  474TMC3    C7 7113   3.084   0.658  14.828 -0.3898  0.5535 -0.1937
  474TMC3    C8 7114   2.687   0.822  14.654 -0.2793 -0.8787  0.0534
  474TMC3    O1 7115   3.182   0.637  14.758  0.1808  0.0705 -0.4227
  474TMC3    O2 7116   2.575   0.799  14.619  0.4268  0.3470 -0.5703
  475MPD2     C 7117   0.776   3.507  11.311  0.2098  0.3007 -0.3433
  475MPD2    C1 7118   0.767   3.645  11.327  0.2098 -0.5298 -0.7052
  475MPD2    C2 7119   0.732   3.695  11.455 -0.2634 -0.5410 -0.3161
  475MPD2    C3 7120   0.691   3.614  11.559 -0.1713  0.3203 -0.2565
  475MPD2    C4 7121   0.701   3.478  11.538  0.5318 -0.2016 -0.0324
  475MPD2    C5 7122   0.735   3.430  11.415  0.4778  0.3875 -0.3098
  475MPD2     H 7123   0.721   3.803  11.463 -1.1564 -0.9676  4.2473
  475MPD2    H1 7124   0.665   3.410  11.614 -1.6467  0.5293 -0.4195
  475MPD2    H2 7125   0.821   3.464  11.221 -0.3076  3.4593 -2.0931
  475MPD2    H3 7126   0.735   3.325  11.390  3.8775 -0.1479  1.9637
  475MPD2     N 7127   0.627   3.664  11.668  0.5853  0.1727  0.3970
  475MPD2    H5 7128   0.641   3.764  11.680 -1.4571  0.4864  0.0534
  475MPD2    N1 7129   0.796   3.732  11.219  0.4427 -0.1734 -0.6255
  475MPD2    H7 7130   0.812   3.827  11.249 -2.7720  0.2059 -0.1796
  476TMC3    C1 7131   0.859   3.806  11.006  0.4540  0.6687  0.5698
  476TMC3    C2 7132   0.835   3.819  10.871  0.0511  0.9365  1.1557
  476TMC3    C3 7133   0.903   3.913  10.799  0.2036  0.8079  0.0591
  476TMC3    C4 7134   0.953   3.890  11.070  0.2970  0.8775 -0.2664
  476TMC3    C5 7135   1.020   3.980  10.995 -0.4004  0.6364  0.2751
  476TMC3    C6 7136   0.988   4.000  10.858 -0.0808  0.2619 -0.2792
  476TMC3     C 7137   0.799   3.700  11.081  0.5667  0.2174 -0.2902
  476TMC3     O 7138   0.737   3.616  11.019 -0.4697 -0.1269 -0.5259
  476TMC3     H 7139   0.762   3.751  10.829  2.7952 -0.5687 -1.1739
  476TMC3    H1 7140   0.986   3.868  11.171 -1.0771 -0.7444 -0.1787
  476TMC3    H2 7141   1.030   4.086  10.806  0.3413 -1.1014 -2.1664
  476TMC3    C7 7142   1.106   4.062  11.076  0.7145  0.0092 -0.6923
  476TMC3    C8 7143   0.875   3.930  10.656 -0.2430 -0.4252  0.9150
  476TMC3    O1 7144   1.098   4.051  11.198  0.1774 -0.6889 -0.7564
  476TMC3    O2 7145   0.889   4.043  10.607  0.0800 -0.0250 -0.5607
  477MPD2     C 7146   3.939   0.744  12.229  0.2742 -0.7094 -0.3187
  477MPD2    C1 7147   3.827   0.695  12.161 -0.7201 -0.3730  0.1276
  477MPD2    C2 7148   3.760   0.591  12.228 -0.0820  0.0979 -0.8216
  477MPD2    C3 7149   3.807   0.531  12.345  0.5638  0.9686 -0.3773
  477MPD2    C4 7150   3.911   0.585  12.412  0.2672  0.1139  0.5282
  477MPD2    C5 7151   3.975   0.692  12.355 -0.6066  0.3071 -0.2181
  477MPD2     H 7152   3.673   0.542  12.185  0.0698  0.6971 -1.8116
  477MPD2    H1 7153   3.954   0.543  12.502 -1.5087  1.4055  1.9683
  477MPD2    H2 7154   3.985   0.834  12.189 -0.4556 -0.5373 -0.7691
  477MPD2    H3 7155   4.046   0.741  12.421 -0.1892 -0.4189 -0.1274
  477MPD2     N 7156   3.745   0.415  12.396  0.8479  0.3265  0.2401
  477MPD2    H5 7157   3.665   0.385  12.340 -1.1969  1.5252  2.5216
  477MPD2    N1 7158   3.778   0.751  12.044  0.5691 -0.5347 -0.5677
  477MPD2    H7 7159   3.826   0.832  12.005 -1.1783 -0.4059 -2.4883
  478TMC3    C1 7160   3.655   0.764  11.840 -0.3770 -0.3012  0.0194
  478TMC3    C2 7161   3.610   0.891  11.867  0.1581 -0.3201  0.3763
  478TMC3    C3 7162   3.533   0.957  11.778  0.4062 -0.3886  0.8661
  478TMC3    C4 7163   3.615   0.700  11.721 -0.4391  0.5083 -0.5409
  478TMC3    C5 7164   3.539   0.776  11.630 -1.4596  0.3172 -0.0963
  478TMC3    C6 7165   3.496   0.900  11.657  0.0555 -0.0292 -0.7720
  478TMC3     C 7166   3.700   0.681  11.953 -0.4780  0.7957 -0.2506
  478TMC3     O 7167   3.664   0.564  11.944 -0.0425 -0.2769  0.8517
  478TMC3     H 7168   3.635   0.937  11.962 -0.3153  0.9281 -0.1044
  478TMC3    H1 7169   3.637   0.596  11.702  1.7175  0.9537 -0.5030
  478TMC3    H2 7170   3.433   0.942  11.580 -1.3666 -0.4822  0.1501
  478TMC3    C7 7171   3.468   0.698  11.531 -0.5155 -0.3216  0.4923
  478TMC3    C8 7172   3.480   1.080  11.814  0.2342  0.3320  0.4191
  478TMC3    O1 7173   3.436   0.583  11.569  0.1065 -0.1194  0.1582
  478TMC3    O2 7174   3.531   1.151  11.895  0.4509 -0.1175 -0.2411
  479MPD2     C 7175   2.519   2.202  14.876  0.3589  0.0711  0.1704
  479MPD2    C1 7176   2.428   2.163  14.977  0.8468  0.8788 -0.0321
  479MPD2    C2 7177   2.413   2.245  15.084  0.1805  0.0485 -0.3595
  479MPD2    C3 7178   2.491   2.353  15.103 -0.9995  0.3547 -0.5331
  479MPD2    C4 7179   2.582   2.394  15.008  0.3191 -0.0326 -0.1888
  479MPD2    C5 7180   2.591   2.319  14.893 -0.2190 -0.5334 -0.0815
  479MPD2     H 7181   2.325   2.231  15.146  1.5344 -1.4001  1.2288
  479MPD2    H1 7182   2.652   2.476  15.021 -0.3031  0.8651 -2.4526
  479MPD2    H2 7183   2.554   2.138  14.797  0.7161 -0.0012  0.3846
  479MPD2    H3 7184   2.662   2.346  14.816  0.2952 -0.4929  0.3984
  479MPD2     N 7185   2.472   2.416  15.221 -0.6855 -0.0043 -0.5444
  479MPD2    H5 7186   2.406   2.364  15.279  0.6789 -1.3011 -0.1703
  479MPD2    N1 7187   2.366   2.030  14.971  0.4422  0.6782  0.8186
  479MPD2    H7 7188   2.357   1.974  14.886 -1.6563 -1.4180  2.4149
  480TMC3    C1 7189   2.365   2.485  15.570 -0.4171 -0.3286 -0.1790
  480TMC3    C2 7190   2.239   2.506  15.533  0.0146  1.0478 -0.1070
  480TMC3    C3 7191   2.213   2.567  15.413  0.3867 -0.5383  0.0489
  480TMC3    C4 7192   2.471   2.514  15.489 -0.3288 -0.6010  0.3248
  480TMC3    C5 7193   2.440   2.577  15.370  0.0740  0.2237 -0.4290
  480TMC3    C6 7194   2.312   2.597  15.329 -0.0146 -0.0616 -0.1740
  480TMC3     C 7195   2.369   2.394  15.683 -0.5914 -0.7753  0.0391
  480TMC3     O 7196   2.280   2.311  15.689  0.1750 -0.2183 -0.0170
  480TMC3     H 7197   2.163   2.477  15.604  0.0370  1.1824 -0.0279
  480TMC3    H1 7198   2.575   2.504  15.517 -0.9676 -0.6706  2.6959
  480TMC3    H2 7199   2.290   2.638  15.232 -0.4996 -1.3923 -0.6285
  480TMC3    C7 7200   2.523   2.532  15.262  0.2702  0.7328  0.5987
  480TMC3    C8 7201   2.085   2.522  15.362 -0.0326 -0.3200 -0.4048
  480TMC3    O1 7202   2.596   2.610  15.204  0.2810  0.2175  0.1015
  480TMC3    O2 7203   1.995   2.509  15.444 -0.1303 -0.2339 -0.3548
  481MPD2     C 7204   4.061   1.807  14.494 -0.4791  0.2304  0.4615
  481MPD2    C1 7205   3.948   1.750  14.540  0.1235 -1.0947 -0.3717
  481MPD2    C2 7206   3.936   1.679  14.656  0.5239  0.2141  0.1471
  481MPD2    C3 7207   4.053   1.665  14.729  0.5400 -1.0029 -0.4199
  481MPD2    C4 7208   4.176   1.712  14.673 -0.2906  0.3717  0.1795
  481MPD2    C5 7209   4.180   1.786  14.557 -0.0710  0.0696 -0.3926
  481MPD2     H 7210   3.847   1.625  14.688  0.0164 -0.7441 -2.9013
  481MPD2    H1 7211   4.267   1.686  14.725 -0.2607 -2.9149 -1.4974
  481MPD2    H2 7212   4.061   1.856  14.397 -2.5638 -0.1996  0.2313
  481MPD2    H3 7213   4.271   1.825  14.514  0.1956 -2.1474 -1.8196
  481MPD2     N 7214   4.060   1.599  14.856 -1.2625  0.5371 -0.2364
  481MPD2    H5 7215   4.149   1.606  14.905 -1.9754  1.0264  1.0021
  481MPD2    N1 7216   3.842   1.764  14.446  0.4310 -0.0882 -0.6532
  481MPD2    H7 7217   3.863   1.835  14.377 -0.0597  0.0158 -0.7001
  482TMC3    C1 7218   3.637   1.718  14.335  0.6148  0.6258  0.3440
  482TMC3    C2 7219   3.583   1.605  14.272 -1.1032  0.1860  0.6848
  482TMC3    C3 7220   3.504   1.631  14.164  0.5522  0.3377  0.0340
  482TMC3    C4 7221   3.629   1.839  14.279  0.0115  0.0127 -0.1480
  482TMC3    C5 7222   3.543   1.859  14.176  0.8291  0.8470  0.2413
  482TMC3    C6 7223   3.473   1.756  14.116 -0.7296 -0.0269  0.0791
  482TMC3     C 7224   3.726   1.692  14.443 -0.1734  0.1822  0.0947
  482TMC3     O 7225   3.710   1.585  14.501  0.1326 -0.3770  0.1651
  482TMC3     H 7226   3.610   1.504  14.300  0.5857  0.1988 -0.8691
  482TMC3    H1 7227   3.680   1.924  14.325  1.2063 -1.8460  1.9779
  482TMC3    H2 7228   3.414   1.783  14.029  0.8068 -3.5594 -2.0242
  482TMC3    C7 7229   3.540   2.000  14.117  0.3522 -0.0087  0.2048
  482TMC3    C8 7230   3.473   1.513  14.074 -0.2302 -0.0449  0.1443
  482TMC3    O1 7231   3.605   2.078  14.182  0.2429 -0.0693  0.1573
  482TMC3    O2 7232   3.517   1.406  14.115  0.1897 -0.4825 -0.1248
  483TMC3    C1 7233   2.130   0.466   0.078  0.4438  0.8177 -0.0114
  483TMC3    C2 7234   2.195   0.585   0.106  1.0341 -0.7118  0.1569
  483TMC3    C3 7235   2.334   0.584   0.139 -0.3421 -0.9320 -0.0611
  483TMC3    C4 7236   2.202   0.346   0.087 -0.9568 -0.1783  0.1804
  483TMC3    C5 7237   2.327   0.352   0.133  0.7261  0.2148  0.1696
  483TMC3    C6 7238   2.400   0.470   0.155  0.2330 -0.1176 -0.2188
  483TMC3     C 7239   1.988   0.455   0.119 -0.7306  0.0621 -0.1757
  483TMC3     O 7240   1.920   0.561   0.123 -0.0263  0.1993  0.2525
  483TMC3     H 7241   2.132   0.671   0.125  0.3584 -1.0557 -0.5055
  483TMC3    H1 7242   2.156   0.251   0.061 -1.1812 -0.5337  1.8403
  483TMC3    H2 7243   2.503   0.471   0.188 -0.2473 -0.1950  1.2455
  483TMC3    C7 7244   2.361   0.248   0.221  0.4973  0.4849  0.0370
  483TMC3    C8 7245   2.398   0.698   0.195  0.5624 -0.1451 -0.4569
  483TMC3    O1 7246   2.420   0.285   0.324  0.3475  1.1042  0.5763
  483TMC3    O2 7247   2.492   0.685   0.271  0.0753 -0.2510  0.2838
  484MPD2     C 7248   3.671   4.018  12.690 -0.9685  0.7551 -0.4431
  484MPD2    C1 7249   3.731   3.971  12.808 -0.9578  0.0888  0.4990
  484MPD2    C2 7250   3.868   3.942  12.796 -0.4551  0.9341 -0.3885
  484MPD2    C3 7251   3.939   3.972  12.680 -0.0942 -1.1001 -0.1601
  484MPD2    C4 7252   3.878   4.041  12.576  0.2425  0.6301  1.0090
  484MPD2    C5 7253   3.743   4.061  12.583 -0.4405 -0.1668 -0.3295
  484MPD2     H 7254   3.913   3.892  12.881  0.6432 -0.0466 -1.5566
  484MPD2    H1 7255   3.936   4.074  12.491  0.1486 -0.4144  0.5353
  484MPD2    H2 7256   3.566   4.046  12.693 -0.9950  0.4921  1.2378
  484MPD2    H3 7257   3.699   4.092  12.489 -0.7122  1.5344  0.3395
  484MPD2     N 7258   4.079   3.944  12.667 -0.7876 -0.0382  0.4695
  484MPD2    H5 7259   4.114   3.966  12.575  0.3920  0.5019  1.0445
  484MPD2    N1 7260   3.655   3.943  12.927 -0.3680  0.1026  0.1261
  484MPD2    H7 7261   3.554   3.942  12.917 -0.2290  0.6524 -1.2680
  485TMC3    C1 7262   4.296   3.844  12.696  0.2876  0.1210  0.3513
  485TMC3    C2 7263   4.365   3.733  12.759 -0.8550 -0.4067  0.1971
  485TMC3    C3 7264   4.426   3.639  12.679  0.4131  0.2150 -0.1293
  485TMC3    C4 7265   4.312   3.871  12.561  0.0118  0.7248  0.3630
  485TMC3    C5 7266   4.396   3.784  12.487  0.1581  0.1792  0.1289
  485TMC3    C6 7267   4.433   3.665  12.547  0.5721  0.0727 -0.2418
  485TMC3     C 7268   4.163   3.876  12.756  0.3637  0.4327 -0.1543
  485TMC3     O 7269   4.147   3.854  12.876 -0.3606  0.3611  0.7726
  485TMC3     H 7270   4.347   3.712  12.864  0.5928 -1.7523  0.1771
  485TMC3    H1 7271   4.284   3.966  12.517 -1.2360 -0.7879 -2.1071
  485TMC3    H2 7272   4.476   3.590  12.482  4.5826  1.9900  0.2293
  485TMC3    C7 7273   4.509   3.859  12.436  0.8974 -0.9696 -0.2326
  485TMC3    C8 7274   4.550   3.588  12.732 -0.2126  0.0640  0.0786
  485TMC3    O1 7275   4.493   3.967  12.388  0.1281  0.3438 -0.1538
  485TMC3    O2 7276   4.642   3.574  12.653  0.3242  0.0526  0.4188
  486MPD2     C 7277   1.570   2.285  12.785 -0.6325 -0.4685 -0.2623
  486MPD2    C1 7278   1.488   2.275  12.674 -0.1398  0.5870 -0.6703
  486MPD2    C2 7279   1.457   2.388  12.607  0.0569  0.0711  0.0146
  486MPD2    C3 7280   1.503   2.514  12.646 -0.6240 -0.2736 -0.5612
  486MPD2    C4 7281   1.589   2.521  12.758 -0.4139 -0.1067 -0.8419
  486MPD2    C5 7282   1.614   2.404  12.827 -0.0468  0.7592 -0.7171
  486MPD2     H 7283   1.399   2.386  12.516 -1.2850 -2.1236  0.9284
  486MPD2    H1 7284   1.624   2.613  12.805 -3.3833  1.1417 -1.1061
  486MPD2    H2 7285   1.582   2.190  12.836 -0.9269 -0.9342 -1.0518
  486MPD2    H3 7286   1.671   2.415  12.919 -2.7421 -1.2625  1.1706
  486MPD2     N 7287   1.463   2.620  12.564  0.3243  0.4303  0.0528
  486MPD2    H5 7288   1.395   2.594  12.494  0.4744 -1.5062  0.6483
  486MPD2    N1 7289   1.454   2.147  12.625  0.1580 -0.5156 -0.0663
  486MPD2    H7 7290   1.496   2.063  12.664  2.3884  1.8441  2.5808
  487TMC3    C1 7291   1.324   1.985  12.499  0.1972  0.6043 -0.6543
  487TMC3    C2 7292   1.197   1.938  12.517  0.3842  0.3815 -0.4379
  487TMC3    C3 7293   1.178   1.815  12.574 -0.2003  0.4484  0.1087
  487TMC3    C4 7294   1.429   1.900  12.509  0.3278  0.0619 -0.6341
  487TMC3    C5 7295   1.407   1.769  12.548  0.2608 -0.2199  0.0184
  487TMC3    C6 7296   1.282   1.729  12.591 -0.2343 -0.1771  0.3460
  487TMC3     C 7297   1.347   2.126  12.540 -0.0849  0.2682 -0.5339
  487TMC3     O 7298   1.257   2.209  12.516 -0.8947 -0.4226 -0.4875
  487TMC3     H 7299   1.120   2.013  12.528  0.5592  0.7583 -1.8474
  487TMC3    H1 7300   1.532   1.927  12.487 -0.0835  0.8386 -1.6007
  487TMC3    H2 7301   1.265   1.623  12.608  3.6499 -0.9663 -0.7927
  487TMC3    C7 7302   1.515   1.697  12.594  0.3879 -0.6650  0.1900
  487TMC3    C8 7303   1.107   1.825  12.703  0.1570 -0.3640 -0.9349
  487TMC3    O1 7304   1.627   1.749  12.592  0.4808  0.2745  0.2546
  487TMC3    O2 7305   1.114   1.936  12.763  0.1567 -0.0055 -0.3071
  488MPD2     C 7306   2.024   3.825  16.526  0.1953  0.4145 -0.3596
  488MPD2    C1 7307   2.097   3.914  16.613 -0.1231  0.5948 -0.2569
  488MPD2    C2 7308   2.103   3.886  16.748 -0.2759 -0.4318 -0.2047
  488MPD2    C3 7309   2.047   3.771  16.796  0.0484  0.6854 -0.5118
  488MPD2    C4 7310   1.995   3.681  16.716  0.2356  0.1692  0.0042
  488MPD2    C5 7311   1.978   3.707  16.587  0.2794  0.4281 -0.4736
  488MPD2     H 7312   2.148   3.964  16.808  1.7022 -1.1096 -0.8113
  488MPD2    H1 7313   1.956   3.582  16.735  1.4011 -0.4607 -0.9251
  488MPD2    H2 7314   1.999   3.830  16.421  1.8385 -2.1639 -0.8615
  488MPD2    H3 7315   1.963   3.623  16.521  0.2616  0.2434 -0.2356
  488MPD2     N 7316   2.062   3.748  16.938  0.7153 -0.0011  0.4809
  488MPD2    H5 7317   2.125   3.805  16.994  0.4633 -1.2495  2.0210
  488MPD2    N1 7318   2.166   4.027  16.565 -0.0776 -0.6005 -0.1840
  488MPD2    H7 7319   2.201   4.091  16.637 -0.9485 -1.6538  1.1850
  489TMC3    C1 7320   2.042   3.666  17.151 -0.5835 -0.8356  0.3597
  489TMC3    C2 7321   2.062   3.794  17.190 -0.2844  0.2622 -0.5479
  489TMC3    C3 7322   2.072   3.816  17.326 -0.5708  0.0230  0.9324
  489TMC3    C4 7323   2.047   3.559  17.239  0.1253  0.2281  0.5541
  489TMC3    C5 7324   2.055   3.584  17.371  0.1581 -0.2466  0.5464
  489TMC3    C6 7325   2.061   3.716  17.417  0.5789  0.1073  1.1742
  489TMC3     C 7326   2.014   3.645  17.008  0.6124  0.5560 -0.0798
  489TMC3     O 7327   1.959   3.543  16.973  0.4085  0.1448 -0.1082
  489TMC3     H 7328   2.052   3.878  17.123 -2.4029  0.8441  0.4741
  489TMC3    H1 7329   2.033   3.459  17.200 -0.7596  0.0856  1.2287
  489TMC3    H2 7330   2.069   3.737  17.523 -0.3238 -1.1792  1.4925
  489TMC3    C7 7331   2.063   3.482  17.471  0.1247 -0.3319  0.3673
  489TMC3    C8 7332   2.114   3.949  17.366  0.4302 -0.2644  0.0755
  489TMC3    O1 7333   2.098   3.507  17.584 -0.0576  0.1934  0.4062
  489TMC3    O2 7334   2.117   4.030  17.273 -0.0466  0.3590 -0.1969
  490MPD2     C 7335   3.062   3.708  17.335 -0.2415 -0.1275  0.2313
  490MPD2    C1 7336   3.016   3.615  17.428 -0.9875  0.2322 -0.2857
  490MPD2    C2 7337   3.098   3.578  17.528 -0.2278 -0.6911  0.2624
  490MPD2    C3 7338   3.225   3.628  17.534 -0.6190  0.9318  1.2334
  490MPD2    C4 7339   3.262   3.734  17.453 -0.3470  0.6763 -0.7515
  490MPD2    C5 7340   3.179   3.769  17.354  0.4085 -0.4613 -0.7842
  490MPD2     H 7341   3.061   3.507  17.601  0.9313 -2.0137 -0.4441
  490MPD2    H1 7342   3.362   3.776  17.458 -0.7391  1.6705 -1.4349
  490MPD2    H2 7343   3.012   3.723  17.240 -0.2241  0.1933  0.2730
  490MPD2    H3 7344   3.212   3.829  17.270  2.9068 -0.1329  0.4200
  490MPD2     N 7345   3.318   3.588  17.626 -0.0572 -0.4563  0.0662
  490MPD2    H5 7346   3.286   3.531  17.704  1.0296 -2.9766 -1.3657
  490MPD2    N1 7347   2.897   3.535  17.407 -0.5230 -0.6842 -0.4092
  490MPD2    H7 7348   2.888   3.471  17.486 -2.2323  0.7103  0.5156
  491TMC3    C1 7349   2.729   3.413  17.291 -0.2723 -0.5204 -0.0259
  491TMC3    C2 7350   2.747   3.320  17.385  0.1255  0.3568 -0.0799
  491TMC3    C3 7351   2.726   3.188  17.353 -0.4957  0.4824  0.0809
  491TMC3    C4 7352   2.679   3.378  17.169  0.4734  0.0443 -0.6707
  491TMC3    C5 7353   2.654   3.246  17.142  0.2553  0.0562 -0.7451
  491TMC3    C6 7354   2.681   3.144  17.229 -0.2195 -0.5479 -0.4263
  491TMC3     C 7355   2.819   3.529  17.293 -0.1629  0.7582  0.0886
  491TMC3     O 7356   2.829   3.593  17.195  0.2309 -0.0589 -0.1237
  491TMC3     H 7357   2.788   3.338  17.484 -1.4138  0.3309  0.5568
  491TMC3    H1 7358   2.660   3.458  17.097  1.2801  0.0895 -0.8300
  491TMC3    H2 7359   2.663   3.043  17.193 -0.9972  0.6213 -3.2802
  491TMC3    C7 7360   2.578   3.208  17.022 -0.4320  0.2223  0.3558
  491TMC3    C8 7361   2.751   3.079  17.448  0.2168  0.7375  0.0113
  491TMC3    O1 7362   2.514   3.107  17.026 -0.3975 -0.1650 -0.4322
  491TMC3    O2 7363   2.721   3.113  17.566 -0.0132 -0.1332 -0.3391
  492MPD2     C 7364   3.115   3.610  11.701  0.5860  0.3591 -0.1547
  492MPD2    C1 7365   3.017   3.583  11.607  0.4530 -0.2769  0.5350
  492MPD2    C2 7366   2.924   3.486  11.623  0.4346 -0.0427 -0.0436
  492MPD2    C3 7367   2.931   3.406  11.734  0.3526 -0.2853  0.4121
  492MPD2    C4 7368   3.034   3.435  11.828  0.5740 -0.0998  0.5142
  492MPD2    C5 7369   3.120   3.541  11.819 -0.4607  0.2005 -0.3585
  492MPD2     H 7370   2.851   3.468  11.545 -0.0341 -0.8334  0.5861
  492MPD2    H1 7371   3.044   3.375  11.919  1.4029  1.4916  1.4801
  492MPD2    H2 7372   3.185   3.689  11.676  0.8683  0.5354  1.2117
  492MPD2    H3 7373   3.182   3.562  11.905 -0.0474  1.2245 -0.9073
  492MPD2     N 7374   2.843   3.296  11.762 -0.3011 -0.2602  0.3193
  492MPD2    H5 7375   2.857   3.248  11.850  0.6305  1.1449  0.9475
  492MPD2    N1 7376   3.025   3.673  11.500 -0.5017 -0.3090 -0.4528
  492MPD2    H7 7377   3.100   3.742  11.495  1.5482 -2.6713 -2.3782
  493TMC3    C1 7378   2.969   3.784  11.297 -0.4186  0.3904  0.3691
  493TMC3    C2 7379   3.038   3.891  11.336 -0.1626  0.3414 -0.0507
  493TMC3    C3 7380   3.038   4.002  11.254  0.2666  0.2065  0.1881
  493TMC3    C4 7381   2.918   3.776  11.172 -0.9197 -0.2171  0.8847
  493TMC3    C5 7382   2.946   3.877  11.079 -0.6986 -0.0602 -0.1439
  493TMC3    C6 7383   2.996   3.997  11.125 -0.5487  0.0101  0.2295
  493TMC3     C 7384   2.944   3.670  11.390 -0.1802 -0.2991  0.1841
  493TMC3     O 7385   2.868   3.583  11.351 -0.2868  0.3883 -0.0651
  493TMC3     H 7386   3.071   3.898  11.439 -1.2229 -0.9922  0.3812
  493TMC3    H1 7387   2.881   3.681  11.134  3.4724 -2.2116  1.5731
  493TMC3    H2 7388   2.991   4.087  11.065  1.2972 -1.2802 -1.8302
  493TMC3    C7 7389   2.875   3.862  10.944 -0.5602  0.4852  0.1731
  493TMC3    C8 7390   3.098   4.116  11.312  0.3985  0.2051 -0.0185
  493TMC3    O1 7391   2.810   3.765  10.917 -0.0865  0.2611  0.1856
  493TMC3    O2 7392   3.108   4.130  11.433 -0.7703  0.4288  0.1668
  494TMC3    C1 7393   3.460   0.682   0.789 -0.0149  0.5450  0.0751
  494TMC3    C2 7394   3.444   0.540   0.776  0.5787 -0.2017 -0.0593
  494TMC3    C3 7395   3.464   0.483   0.652  0.1721  0.1047  0.2489
  494TMC3    C4 7396   3.491   0.755   0.681 -0.5073 -0.5018  0.3492
  494TMC3    C5 7397   3.507   0.694   0.555 -0.4953 -0.1389 -0.0898
  494TMC3    C6 7398   3.491   0.558   0.538  0.1627  0.0020 -0.3162
  494TMC3     C 7399   3.428   0.750   0.912  0.2290 -0.4631  0.0214
  494TMC3     O 7400   3.454   0.869   0.917  0.5004 -0.4749  0.4815
  494TMC3     H 7401   3.416   0.480   0.861  1.4038 -0.3335  0.1188
  494TMC3    H1 7402   3.494   0.863   0.696 -0.9724 -0.3206 -0.8465
  494TMC3    H2 7403   3.492   0.523   0.435  0.5827 -2.0073  0.3690
  494TMC3    C7 7404   3.555   0.772   0.443 -0.1389  0.3190 -0.1694
  494TMC3    C8 7405   3.490   0.346   0.646  0.9350  0.1087  0.4395
  494TMC3    O1 7406   3.594   0.709   0.348  0.4367  0.2041  0.3126
  494TMC3    O2 7407   3.515   0.297   0.754  0.2267  0.0054 -0.2268
  495TMC3    C1 7408   2.227   2.128  14.468  0.1321  0.2394 -0.4505
  495TMC3    C2 7409   2.127   2.052  14.409  0.0564 -0.0678  0.4312
  495TMC3    C3 7410   2.000   2.067  14.463 -0.5342  0.2864 -0.3411
  495TMC3    C4 7411   2.206   2.214  14.577  0.0331  0.3318 -0.4380
  495TMC3    C5 7412   2.080   2.216  14.626 -0.1799 -0.2353 -0.1444
  495TMC3    C6 7413   1.978   2.144  14.569  0.2392  0.3688 -0.3617
  495TMC3     C 7414   2.358   2.120  14.400 -0.0149  0.0149 -0.2060
  495TMC3     O 7415   2.373   2.029  14.320 -0.0173 -0.4208  0.2807
  495TMC3     H 7416   2.141   1.994  14.319  1.6969  1.9756 -0.6326
  495TMC3    H1 7417   2.289   2.247  14.639  1.6304 -1.1884 -1.7344
  495TMC3    H2 7418   1.875   2.152  14.603 -0.1591 -1.3298 -1.1794
  495TMC3    C7 7419   2.058   2.295  14.746  0.1417 -0.2153  0.2564
  495TMC3    C8 7420   1.894   2.076  14.376  0.4223 -0.3113 -0.0647
  495TMC3    O1 7421   2.131   2.396  14.762 -0.1183  0.8643  0.1300
  495TMC3    O2 7422   1.848   2.190  14.362 -0.2525 -0.1896 -0.1150
  496MPD2     C 7423   4.095   2.123  15.270  0.2537 -0.0180 -0.7589
  496MPD2    C1 7424   4.185   2.127  15.375 -0.3257 -0.4877 -0.1191
  496MPD2    C2 7425   4.129   2.160  15.497 -0.2222 -0.0927 -0.1734
  496MPD2    C3 7426   3.994   2.195  15.513 -0.2452  0.0947 -0.3268
  496MPD2    C4 7427   3.919   2.203  15.408 -0.7092  0.0670 -0.4729
  496MPD2    C5 7428   3.965   2.166  15.288 -0.0091  0.0786  0.1225
  496MPD2     H 7429   4.190   2.169  15.586 -0.7941  1.2711  0.0915
  496MPD2    H1 7430   3.818   2.239  15.425 -0.0958  0.3654  2.5232
  496MPD2    H2 7431   4.128   2.105  15.168 -0.0357 -2.2018 -0.4659
  496MPD2    H3 7432   3.900   2.174  15.201  0.7698  0.2540 -0.4433
  496MPD2     N 7433   3.958   2.245  15.639  0.1120  0.0344 -0.6063
  496MPD2    H5 7434   3.873   2.301  15.639  0.9241  1.2735 -1.3170
  496MPD2    N1 7435   4.320   2.097  15.339  0.4619  0.2933  0.0042
  496MPD2    H7 7436   4.342   2.079  15.242 -2.9493  0.9224 -0.8703
  497TMC3    C1 7437   3.950   2.304  15.871  0.0536 -0.4057  0.2791
  497TMC3    C2 7438   3.827   2.354  15.854  0.3853  0.0408 -0.1550
  497TMC3    C3 7439   3.766   2.413  15.962  0.0506 -0.3020  0.0043
  497TMC3    C4 7440   4.026   2.327  15.983 -0.6286 -0.6310  0.2006
  497TMC3    C5 7441   3.964   2.400  16.084  0.6910 -0.4826  0.4131
  497TMC3    C6 7442   3.827   2.426  16.082 -0.2798 -0.3856  0.0886
  497TMC3     C 7443   4.015   2.228  15.762  0.3513  0.3951 -0.1811
  497TMC3     O 7444   4.107   2.151  15.789  0.6939 -0.0861  0.9243
  497TMC3     H 7445   3.769   2.344  15.763 -0.9903 -1.2892  0.8642
  497TMC3    H1 7446   4.131   2.303  15.994 -0.1236  1.5222  0.1674
  497TMC3    H2 7447   3.775   2.468  16.168 -1.5648 -2.5563  0.3684
  497TMC3    C7 7448   4.012   2.377  16.222  0.1799  0.6737  0.2600
  497TMC3    C8 7449   3.635   2.472  15.925 -0.3217  0.9495 -0.2229
  497TMC3    O1 7450   3.931   2.358  16.311 -0.7337 -0.7217 -0.1910
  497TMC3    O2 7451   3.608   2.478  15.807 -0.4016  0.8658 -0.6632
  498MPD2     C 7452   0.214   3.822   9.753  0.1041  0.0096  0.3170
  498MPD2    C1 7453   0.289   3.755   9.840  0.5120  0.5446  0.1227
  498MPD2    C2 7454   0.239   3.634   9.898 -0.1026  0.2492 -0.0177
  498MPD2    C3 7455   0.110   3.599   9.873  0.1642  0.3192 -1.0228
  498MPD2    C4 7456   0.031   3.672   9.787  0.0385  0.1598 -0.0328
  498MPD2    C5 7457   0.082   3.786   9.725  0.4745  0.5825  0.6978
  498MPD2     H 7458   0.299   3.573   9.964 -0.4680 -2.2658 -2.0016
  498MPD2    H1 7459   4.664   3.647   9.764  0.2068  0.8099 -1.5628
  498MPD2    H2 7460   0.255   3.899   9.687 -0.4378  0.4103  0.4465
  498MPD2    H3 7461   0.027   3.844   9.653  2.0859 -3.0226 -3.4743
  498MPD2     N 7462   0.066   3.491   9.947 -0.1723  0.7456 -0.5369
  498MPD2    H5 7463   0.126   3.469  10.027 -2.5854 -2.0115  0.5302
  498MPD2    N1 7464   0.428   3.790   9.862 -0.3204 -0.2568 -0.1669
  498MPD2    H7 7465   0.479   3.725   9.921  0.2598 -1.0481 -1.5389
  499TMC3    C1 7466   0.635   3.888   9.830  0.0959 -0.2400  0.2762
  499TMC3    C2 7467   0.699   3.767   9.818  0.3241  0.0064 -0.6550
  499TMC3    C3 7468   0.829   3.754   9.862 -0.4843  0.7881  0.2375
  499TMC3    C4 7469   0.703   3.997   9.872 -0.1738 -0.2039 -0.5086
  499TMC3    C5 7470   0.830   3.981   9.915  0.1689 -0.1916 -0.7261
  499TMC3    C6 7471   0.894   3.867   9.904 -0.0356  0.0904 -0.0723
  499TMC3     C 7472   0.495   3.898   9.807  0.1005  0.1139 -0.3228
  499TMC3     O 7473   0.448   3.998   9.758  0.0406 -0.2468 -0.1528
  499TMC3     H 7474   0.653   3.679   9.775  0.4264 -0.4575  0.1685
  499TMC3    H1 7475   0.654   4.094   9.875 -0.1849 -0.3115  2.1095
  499TMC3    H2 7476   0.993   3.856   9.946 -0.9580 -0.2833  2.0190
  499TMC3    C7 7477   0.903   4.101   9.928  0.6963 -0.1668 -0.0816
  499TMC3    C8 7478   0.894   3.628   9.902 -0.1636  0.2534 -0.2961
  499TMC3    O1 7479   0.869   4.197   9.855 -0.2693  0.6931 -0.4503
  499TMC3    O2 7480   0.993   3.624   9.969 -0.1200  0.4935 -0.4442
  500MPD2     C 7481   2.135   4.727  11.086 -0.2035  0.0978 -0.0598
  500MPD2    C1 7482   2.199   0.095  11.022  0.4623 -0.0692  0.1440
  500MPD2    C2 7483   2.139   0.171  10.929  0.3276 -0.5122  0.2261
  500MPD2    C3 7484   2.005   0.147  10.909  0.1356  0.6628  0.1962
  500MPD2    C4 7485   1.935   0.056  10.980  0.1984 -0.2376  0.4646
  500MPD2    C5 7486   1.999   4.711  11.071 -0.3158  0.4954  0.9762
  500MPD2     H 7487   2.195   0.246  10.874 -0.6284  0.2812  0.3410
  500MPD2    H1 7488   1.827   0.056  10.975  0.1005  0.9107  2.4934
  500MPD2    H2 7489   2.186   4.665  11.159 -2.1048 -1.8869 -0.4423
  500MPD2    H3 7490   1.944   4.630  11.118 -0.4118 -0.2376 -0.3918
  500MPD2     N 7491   1.931   0.214  10.820  0.4481 -0.2907  0.5212
  500MPD2    H5 7492   1.829   0.213  10.822  0.3811 -0.9208 -2.9421
  500MPD2    N1 7493   2.341   0.124  11.034 -1.1433 -0.0598 -0.3296
  500MPD2    H7 7494   2.389   0.195  10.979 -0.9962 -0.7146 -1.0432
  501TMC3    C1 7495   2.538   0.166  11.150 -0.2785 -0.0089  0.6772
  501TMC3    C2 7496   2.593   0.212  11.032  0.2695 -0.4450 -0.4797
  501TMC3    C3 7497   2.724   0.246  11.027 -0.4934  0.1175  0.6771
  501TMC3    C4 7498   2.613   0.145  11.261  0.7053 -0.3714 -0.3449
  501TMC3    C5 7499   2.743   0.184  11.252 -0.1535  0.4183 -0.4607
  501TMC3    C6 7500   2.802   0.232  11.137  0.0402 -0.1908 -0.1378
  501TMC3     C 7501   2.423   0.080  11.134 -0.7808 -0.0300 -0.5646
  501TMC3     O 7502   2.397   4.727  11.216 -0.3786  0.3644 -0.1242
  501TMC3     H 7503   2.536   0.236  10.943 -1.2565 -1.8167  0.1322
  501TMC3    H1 7504   2.573   0.110  11.355 -0.9226 -2.0831 -1.6887
  501TMC3    H2 7505   2.906   0.262  11.130  0.7906 -2.7569 -0.2353
  501TMC3    C7 7506   2.824   0.132  11.360 -0.1432 -0.8700  0.2579
  501TMC3    C8 7507   2.778   0.328  10.920  0.1296 -0.7195 -0.4128
  501TMC3    O1 7508   2.763   0.095  11.460  0.0253 -0.5913  0.4702
  501TMC3    O2 7509   2.839   0.424  10.960  0.5181 -0.3785  1.0762
  502TMC3    C1 7510   1.354   3.235  14.537 -0.1229 -0.9395 -0.7415
  502TMC3    C2 7511   1.438   3.310  14.460  0.7871  0.5147  0.7687
  502TMC3    C3 7512   1.446   3.445  14.487  0.5857 -0.4494  0.1407
  502TMC3    C4 7513   1.274   3.289  14.637 -0.2334  0.3007 -0.1109
  502TMC3    C5 7514   1.295   3.421  14.669  0.1826 -0.2693 -0.5652
  502TMC3    C6 7515   1.375   3.492  14.593  0.1552  0.0267 -0.0157
  502TMC3     C 7516   1.431   3.127  14.593  0.9504 -1.1073  0.6763
  502TMC3     O 7517   1.487   3.046  14.515  0.9324 -0.6831  0.0083
  502TMC3     H 7518   1.495   3.264  14.380  0.2602 -1.0745  1.3239
  502TMC3    H1 7519   1.225   3.228  14.712  0.1972  0.5058  0.3411
  502TMC3    H2 7520   1.397   3.585  14.644  2.3104 -0.6369  0.2354
  502TMC3    C7 7521   1.309   3.453  14.806  0.0494 -0.1745 -0.6660
  502TMC3    C8 7522   1.585   3.482  14.492  0.2121  0.1026 -0.2205
  502TMC3    O1 7523   1.420   3.485  14.842  0.1571 -0.1103 -0.3204
  502TMC3    O2 7524   1.601   3.602  14.502 -0.1935  0.5386 -0.3529
  503MPD2     C 7525   3.827   4.247  17.201  0.4581 -0.3877  0.4021
  503MPD2    C1 7526   3.879   4.313  17.314  0.7474 -0.1168 -0.0145
  503MPD2    C2 7527   3.964   4.239  17.394 -0.4304 -0.8075  0.4101
  503MPD2    C3 7528   4.011   4.109  17.357 -1.1691  0.0535  0.1492
  503MPD2    C4 7529   3.967   4.058  17.241  0.9708 -0.3058 -0.0749
  503MPD2    C5 7530   3.881   4.125  17.162  0.3981  0.1324 -0.0350
  503MPD2     H 7531   3.994   4.283  17.489  0.4905 -2.0202  0.6768
  503MPD2    H1 7532   4.012   3.967  17.201  0.0129 -0.3373 -1.0671
  503MPD2    H2 7533   3.755   4.284  17.129 -1.6060 -2.2468  1.5299
  503MPD2    H3 7534   3.839   4.083  17.071 -1.5273 -2.5073  2.0460
  503MPD2     N 7535   4.118   4.053  17.430 -0.2514  0.9052  0.7121
  503MPD2    H5 7536   4.139   4.083  17.525  0.9604  1.1006  0.3817
  503MPD2    N1 7537   3.839   4.439  17.361 -0.1856 -0.3234 -0.1140
  503MPD2    H7 7538   3.857   4.458  17.460 -0.1459 -1.1477  0.0352
  504TMC3    C1 7539   4.325   3.944  17.469  0.3406  0.6249  0.0870
  504TMC3    C2 7540   4.300   3.890  17.590 -0.3009  0.1082 -0.7393
  504TMC3    C3 7541   4.404   3.828  17.652 -0.8017 -0.9384  0.8928
  504TMC3    C4 7542   4.451   3.944  17.421  0.8328 -0.0236 -0.4401
  504TMC3    C5 7543   4.550   3.866  17.469 -0.5919  0.0033  0.3496
  504TMC3    C6 7544   4.527   3.803  17.588  0.3660 -0.4698 -0.3540
  504TMC3     C 7545   4.217   3.977  17.374 -0.6512  0.1057  0.0655
  504TMC3     O 7546   4.230   3.941  17.257 -0.2374 -0.0298  0.1992
  504TMC3     H 7547   4.203   3.875  17.637 -0.3291  0.8513 -0.5552
  504TMC3    H1 7548   4.471   4.002  17.332  0.3946  1.1985  0.2594
  504TMC3    H2 7549   4.601   3.743  17.641 -0.1114 -0.0641  0.7552
  504TMC3    C7 7550   4.655   3.826  17.382 -0.5828 -0.1880  0.8544
  504TMC3    C8 7551   4.366   3.721   0.003 -0.3410  0.4843 -0.0860
  504TMC3    O1 7552   4.664   3.896  17.281 -0.0948 -0.2955  0.1597
  504TMC3    O2 7553   4.253   3.682  17.732 -0.0917  0.2369 -0.3869
  505MPD2     C 7554   4.370   3.283  11.271  0.4315  0.6703 -0.2479
  505MPD2    C1 7555   4.385   3.162  11.205  0.0553 -0.6861 -0.4646
  505MPD2    C2 7556   4.514   3.115  11.178  0.5237 -0.4284 -0.3065
  505MPD2    C3 7557   4.631   3.177  11.210 -0.1087  0.0351  0.7741
  505MPD2    C4 7558   4.620   3.304  11.272 -0.1505  0.4391  0.2472
  505MPD2    C5 7559   4.488   3.345  11.309 -0.5302 -0.4234  0.4154
  505MPD2     H 7560   4.534   3.017  11.134 -0.4173  0.1363 -1.9891
  505MPD2    H1 7561   4.702   3.359  11.315 -1.2747  1.9157  0.5190
  505MPD2    H2 7562   4.275   3.323  11.305  0.7887  3.0659 -2.0262
  505MPD2    H3 7563   4.488   3.439  11.364 -0.1694 -0.3679  0.3257
  505MPD2     N 7564   0.018   3.105  11.190  0.1867 -0.5279  0.3078
  505MPD2    H5 7565   0.008   3.005  11.170 -1.9421 -0.0397 -1.1377
  505MPD2    N1 7566   4.268   3.090  11.153  0.7646  0.0315 -0.5507
  505MPD2    H7 7567   4.184   3.146  11.159  0.7537 -0.0583  0.1195
  506TMC3    C1 7568   4.130   2.912  11.083  0.3845  0.2763 -0.7392
  506TMC3    C2 7569   4.066   2.979  10.975  1.1419  0.2512 -0.2248
  506TMC3    C3 7570   3.995   2.897  10.888 -0.4271  0.4963  0.0303
  506TMC3    C4 7571   4.123   2.777  11.101 -0.9577 -0.2776 -1.3158
  506TMC3    C5 7572   4.078   2.704  10.995  0.3577 -0.5918  0.0678
  506TMC3    C6 7573   4.009   2.762  10.889  1.0417 -0.3494 -0.0045
  506TMC3     C 7574   4.258   2.962  11.118  0.1135 -0.2264  0.2176
  506TMC3     O 7575   4.347   2.881  11.121  0.1847 -1.0605 -0.1583
  506TMC3     H 7576   4.063   3.086  10.960 -2.6590  0.3059  0.9404
  506TMC3    H1 7577   4.175   2.728  11.183 -4.9547  0.6677  1.7662
  506TMC3    H2 7578   3.971   2.716  10.798  1.1375 -0.4576  0.0095
  506TMC3    C7 7579   4.170   2.608  10.944  0.1367  0.1426  0.1516
  506TMC3    C8 7580   3.962   2.943  10.754  0.4130  0.1355 -0.1624
  506TMC3    O1 7581   4.132   2.508  10.882  0.0536  0.6830 -0.1931
  506TMC3    O2 7582   3.869   2.892  10.690 -0.2973 -0.7398 -0.1138
  507TMC3    C1 7583   0.231   3.281  14.987 -0.1580  0.0724  0.0284
  507TMC3    C2 7584   0.225   3.242  14.859 -0.5646 -0.6110 -0.5746
  507TMC3    C3 7585   0.326   3.270  14.775  0.1326  0.1799  0.2028
  507TMC3    C4 7586   0.337   3.348  15.040  0.0972  0.0915  0.3202
  507TMC3    C5 7587   0.446   3.372  14.958 -0.4179  0.3156  1.1736
  507TMC3    C6 7588   0.436   3.336  14.825 -0.3473 -0.5403  0.0118
  507TMC3     C 7589   0.113   3.272  15.068  0.0378  0.0511 -0.3982
  507TMC3     O 7590   0.127   3.241  15.184 -0.2991  0.3359 -0.7329
  507TMC3     H 7591   0.139   3.184  14.830  0.0218 -0.9185 -1.7117
  507TMC3    H1 7592   0.328   3.375  15.145 -0.6119  2.0901 -0.2678
  507TMC3    H2 7593   0.524   3.352  14.764 -0.0725  0.1808  0.5902
  507TMC3    C7 7594   0.477   3.513  14.950 -0.4570 -1.0074 -0.2628
  507TMC3    C8 7595   0.282   3.314  14.643 -0.0143  0.4193  0.1212
  507TMC3    O1 7596   0.472   3.564  14.839 -0.0159  0.1203 -0.0735
  507TMC3    O2 7597   0.191   3.258  14.586 -0.0684 -0.8038  0.3647
  508MPD2     C 7598   1.696   1.055  15.900  0.3489 -0.3440  0.1434
  508MPD2    C1 7599   1.681   1.137  16.017  0.0142  0.1445  0.5204
  508MPD2    C2 7600   1.651   1.272  15.991  0.1432  0.1320 -0.2888
  508MPD2    C3 7601   1.647   1.322  15.860  0.8038  0.5165 -0.5243
  508MPD2    C4 7602   1.647   1.243  15.756  0.8517 -0.4425  0.5915
  508MPD2    C5 7603   1.677   1.115  15.783 -0.1077  0.1266  0.1046
  508MPD2     H 7604   1.646   1.345  16.071  1.4869  0.9286 -0.9121
  508MPD2    H1 7605   1.636   1.284  15.656  1.8150  0.5712  0.8959
  508MPD2    H2 7606   1.713   0.948  15.903 -1.0007 -0.5055  2.5443
  508MPD2    H3 7607   1.681   1.054  15.694  1.2617  0.5991 -0.1614
  508MPD2     N 7608   1.614   1.458  15.855 -0.3067 -0.4982  0.2138
  508MPD2    H5 7609   1.622   1.502  15.946 -0.8422 -0.2231  0.1246
  508MPD2    N1 7610   1.693   1.085  16.143  0.3261  0.8204 -0.5174
  508MPD2    H7 7611   1.726   0.989  16.144  1.2041  1.1186 -2.4436
  509TMC3    C1 7612   1.381   1.835  15.835  0.2117  0.1777 -0.0735
  509TMC3    C2 7613   1.469   1.893  15.927 -0.1384 -0.0618  0.2152
  509TMC3    C3 7614   1.591   1.832  15.932  0.7141 -0.2678  1.1802
  509TMC3    C4 7615   1.413   1.720  15.764  0.4206 -0.0948  0.1687
  509TMC3    C5 7616   1.537   1.666  15.790 -0.3025 -0.1791 -0.9469
  509TMC3    C6 7617   1.622   1.712  15.882  0.2115  0.1515  0.9330
  509TMC3     C 7618   1.254   1.911  15.819  0.4834  0.5161  0.9697
  509TMC3     O 7619   1.224   1.981  15.916 -0.2090 -0.4130  0.1808
  509TMC3     H 7620   1.453   1.983  15.985 -0.3549 -1.1174  1.8123
  509TMC3    H1 7621   1.338   1.671  15.704  1.8861 -2.0001 -0.0783
  509TMC3    H2 7622   1.724   1.677  15.893  0.1673  1.0065  3.9543
  509TMC3    C7 7623   1.555   1.527  15.753  0.7200 -0.3177  0.1538
  509TMC3    C8 7624   1.705   1.896  15.995  0.4018  0.2390  0.3859
  509TMC3    O1 7625   1.523   1.493  15.639 -0.2349 -0.5102 -0.5370
  509TMC3    O2 7626   1.778   1.823  16.062 -0.3073 -0.5575  0.0042
  510MPD2     C 7627   3.673   2.874  14.782  0.1231 -0.5486 -0.0757
  510MPD2    C1 7628   3.755   2.777  14.849  0.8556  0.2551  0.1282
  510MPD2    C2 7629   3.887   2.766  14.808  0.3592  0.7058 -0.3239
  510MPD2    C3 7630   3.931   2.844  14.700  0.7574  0.3025 -0.6096
  510MPD2    C4 7631   3.850   2.926  14.635  0.4530  0.5738 -0.2509
  510MPD2    C5 7632   3.722   2.945  14.677 -0.0134  0.5752 -0.5291
  510MPD2     H 7633   3.954   2.695  14.856 -2.5876 -2.2865 -0.5443
  510MPD2    H1 7634   3.880   2.978  14.545 -0.3882 -1.6604 -1.8273
  510MPD2    H2 7635   3.566   2.872  14.795  0.2556 -3.8767  0.5411
  510MPD2    H3 7636   3.653   2.999  14.614 -1.2012  0.4125  0.6254
  510MPD2     N 7637   4.068   2.829  14.673 -0.0905 -0.0837  0.0747
  510MPD2    H5 7638   4.115   2.754  14.723  1.8295  0.7224 -0.5075
  510MPD2    N1 7639   3.690   2.697  14.953  1.0785 -0.4408 -0.5480
  510MPD2    H7 7640   3.590   2.706  14.965  1.1529 -0.1021 -0.1521
  511TMC3    C1 7641   3.651   2.543  15.115  0.2156  0.3845  0.0210
  511TMC3    C2 7642   3.534   2.604  15.149  0.1670 -0.0001  0.0605
  511TMC3    C3 7643   3.438   2.550  15.234 -0.0474  0.0359  0.2044
  511TMC3    C4 7644   3.672   2.424  15.170  0.4818  0.2402  0.4737
  511TMC3    C5 7645   3.585   2.363  15.256 -0.5163  0.0176 -0.8817
  511TMC3    C6 7646   3.469   2.428  15.284  0.1285 -1.0726 -0.0885
  511TMC3     C 7647   3.751   2.603  15.027 -0.9588  0.1486 -0.1283
  511TMC3     O 7648   3.867   2.564  15.025 -0.1221 -0.0791 -0.0867
  511TMC3     H 7649   3.515   2.709  15.129 -0.7968 -0.5240 -1.8063
  511TMC3    H1 7650   3.753   2.368  15.124 -1.4274 -1.9776 -0.1795
  511TMC3    H2 7651   3.396   2.383  15.351 -0.3046 -1.1763 -0.6308
  511TMC3    C7 7652   3.567   2.219  15.240  0.9231  0.0343  0.1223
  511TMC3    C8 7653   3.326   2.630  15.269 -0.0215 -0.1756  0.6542
  511TMC3    O1 7654   3.614   2.161  15.145  0.1758  0.0423  0.2982
  511TMC3    O2 7655   3.346   2.751  15.260  0.4294  0.0161 -0.1534
  512TMC3    C1 7656   2.412   2.407  13.173 -0.6930  0.4193  0.7873
  512TMC3    C2 7657   2.535   2.388  13.224 -0.1292 -0.2799 -0.4680
  512TMC3    C3 7658   2.620   2.300  13.175 -0.3170 -0.0583 -0.3646
  512TMC3    C4 7659   2.372   2.337  13.063  0.0259  0.3786  0.0375
  512TMC3    C5 7660   2.459   2.243  13.014 -0.8508  0.2618  0.1747
  512TMC3    C6 7661   2.591   2.225  13.062  0.4882 -0.2001 -0.3262
  512TMC3     C 7662   2.322   2.479  13.262 -0.2693 -0.5755 -0.0684
  512TMC3     O 7663   2.376   2.550  13.343  0.1443  0.1591 -0.5108
  512TMC3     H 7664   2.567   2.445  13.310  1.4057 -0.4013 -0.9595
  512TMC3    H1 7665   2.275   2.358  13.020  0.3985 -0.8864 -1.4385
  512TMC3    H2 7666   2.648   2.144  13.019  2.0277 -0.3957  2.0792
  512TMC3    C7 7667   2.403   2.156  12.905 -0.0960  0.1812 -0.0087
  512TMC3    C8 7668   2.751   2.295  13.245  0.2000 -0.1118 -0.1584
  512TMC3    O1 7669   2.305   2.209  12.850 -0.2107  0.2338  0.9352
  512TMC3    O2 7670   2.800   2.184  13.242 -0.1582  0.9102  0.1472
  513MPD2     C 7671   4.140   2.343  13.690  0.2793 -0.2857  0.2659
  513MPD2    C1 7672   4.185   2.405  13.576 -0.2698 -0.3212 -1.0691
  513MPD2    C2 7673   4.304   2.489  13.592 -1.1347 -0.1726  0.2962
  513MPD2    C3 7674   4.370   2.489  13.711 -0.2984  0.2306  0.2323
  513MPD2    C4 7675   4.320   2.429  13.823  0.1595 -0.1267  0.0897
  513MPD2    C5 7676   4.209   2.355  13.812  0.1785 -0.4602 -0.0508
  513MPD2     H 7677   4.335   2.553  13.511  1.2355 -1.9265 -0.1650
  513MPD2    H1 7678   4.362   2.447  13.922  2.3733  3.5593 -1.5493
  513MPD2    H2 7679   4.056   2.274  13.687  0.3849 -0.3331 -2.4318
  513MPD2    H3 7680   4.166   2.312  13.902 -0.0701 -1.2125 -0.5279
  513MPD2     N 7681   4.492   2.551  13.713 -0.2691 -0.2242 -0.2113
  513MPD2    H5 7682   4.511   2.619  13.640 -0.7192  0.9094  0.7280
  513MPD2    N1 7683   4.135   2.395  13.445 -0.1016  0.3553  0.2342
  513MPD2    H7 7684   4.191   2.448  13.379 -0.2112  0.1418 -0.0325
  514TMC3    C1 7685   4.010   2.325  13.263  0.4279 -0.0107  0.5823
  514TMC3    C2 7686   4.008   2.197  13.209 -1.2563 -0.1438 -0.2075
  514TMC3    C3 7687   4.097   2.168  13.110  0.4265 -0.5079 -0.0027
  514TMC3    C4 7688   4.095   2.423  13.216  0.1689  0.6482 -0.1782
  514TMC3    C5 7689   4.184   2.393  13.123  0.5334  0.6987 -0.3009
  514TMC3    C6 7690   4.193   2.261  13.075 -0.4151  0.2079  0.5514
  514TMC3     C 7691   4.022   2.324  13.408  0.8007 -0.0990  0.1555
  514TMC3     O 7692   3.939   2.268  13.477  0.1807 -0.2121 -0.5978
  514TMC3     H 7693   3.932   2.128  13.244 -1.3841  0.2667  0.3324
  514TMC3    H1 7694   4.085   2.523  13.256 -0.5496  0.4452  0.1597
  514TMC3    H2 7695   4.275   2.231  13.010 -0.8519 -0.7011  0.4133
  514TMC3    C7 7696   4.309   2.454  13.152  0.3365  0.1939 -0.3987
  514TMC3    C8 7697   4.033   2.100  12.999  0.6605  0.3694  0.4945
  514TMC3    O1 7698   4.305   2.532  13.242  0.5755 -0.0993  0.2321
  514TMC3    O2 7699   3.928   2.037  13.029  0.0971  0.1191  0.1020
  515MPD2     C 7700   2.235   4.190  14.927  0.0895 -0.2521  0.2300
  515MPD2    C1 7701   2.338   4.104  14.898  0.0169 -0.0707 -0.1959
  515MPD2    C2 7702   2.457   4.115  14.963  0.8082  0.2953 -0.0679
  515MPD2    C3 7703   2.494   4.223  15.046  0.3595 -0.6876 -0.9026
  515MPD2    C4 7704   2.391   4.309  15.080  0.2228 -0.1625 -0.4836
  515MPD2    C5 7705   2.265   4.288  15.018 -0.0671  0.2315 -0.2872
  515MPD2     H 7706   2.540   4.054  14.932 -0.1404 -0.3461 -1.3708
  515MPD2    H1 7707   2.405   4.390  15.151 -1.4542 -3.0273  3.1365
  515MPD2    H2 7708   2.132   4.184  14.893  0.2107 -1.8712  0.1411
  515MPD2    H3 7709   2.177   4.344  15.047 -0.7229 -2.0181  2.0865
  515MPD2     N 7710   2.626   4.243  15.094  0.1443 -0.3689  0.0909
  515MPD2    H5 7711   2.648   4.330  15.142 -0.4761 -0.5195  0.6539
  515MPD2    N1 7712   2.335   4.007  14.797  0.3902 -0.7791 -0.3198
  515MPD2    H7 7713   2.409   3.941  14.774  0.4699 -0.0489 -2.1939
  516TMC3    C1 7714   2.218   3.876  14.625  0.4432 -0.0107 -0.3242
  516TMC3    C2 7715   2.162   3.904  14.503  0.2574 -0.7258  0.1235
  516TMC3    C3 7716   2.187   3.803  14.411  0.2878 -0.3755  0.1418
  516TMC3    C4 7717   2.313   3.775  14.651 -0.3037 -0.5156  0.6089
  516TMC3    C5 7718   2.318   3.678  14.558 -0.3487  0.1477  0.7359
  516TMC3    C6 7719   2.268   3.696  14.433  0.0577 -0.2399  0.6205
  516TMC3     C 7720   2.216   3.984  14.722 -0.1435  0.6792  0.0900
  516TMC3     O 7721   2.105   4.033  14.734  0.4017 -0.1126 -0.1241
  516TMC3     H 7722   2.103   3.992  14.478  0.4900 -0.0990  1.8268
  516TMC3    H1 7723   2.355   3.750  14.748  1.3757  1.0877  0.2904
  516TMC3    H2 7724   2.293   3.637  14.346  1.3477  3.0226 -1.2189
  516TMC3    C7 7725   2.394   3.556  14.575 -0.0212  0.1660 -0.1236
  516TMC3    C8 7726   2.139   3.830  14.278  0.9722  0.5497 -0.1379
  516TMC3    O1 7727   2.471   3.561  14.669  0.1933  0.1242 -0.5960
  516TMC3    O2 7728   2.019   3.850  14.278  0.6123  0.2073  0.3929
  517MPD2     C 7729   2.793   0.328   0.848 -0.2473  0.5821 -0.2592
  517MPD2    C1 7730   2.756   0.391   0.732  0.7424  0.2494 -0.3416
  517MPD2    C2 7731   2.738   0.526   0.731  0.0223  1.0208  0.1924
  517MPD2    C3 7732   2.787   0.602   0.842 -0.3828 -0.8692 -0.1019
  517MPD2    C4 7733   2.851   0.536   0.949  0.4341 -0.8076 -0.3529
  517MPD2    C5 7734   2.843   0.403   0.954  0.1008 -0.6411 -0.7250
  517MPD2     H 7735   2.686   0.561   0.642  1.1912  0.6019 -0.6592
  517MPD2    H1 7736   2.904   0.585   1.030 -0.5208  0.4053 -0.4627
  517MPD2    H2 7737   2.811   0.221   0.856  0.9533  1.0144  2.8536
  517MPD2    H3 7738   2.879   0.356   1.044  1.1036 -0.2475 -0.9180
  517MPD2     N 7739   2.764   0.734   0.859 -0.3525 -0.2004  0.2211
  517MPD2    H5 7740   2.803   0.785   0.937  0.1223 -0.1828 -0.0318
  517MPD2    N1 7741   2.721   0.324   0.609 -0.1548  0.2837 -0.3349
  517MPD2    H7 7742   2.685   0.378   0.531  0.7152 -0.7134 -1.4283
  518TMC3    C1 7743   2.730   0.164   0.439 -0.5679  0.1946  0.1523
  518TMC3    C2 7744   2.695   0.038   0.399 -0.5862  0.3310  0.3312
  518TMC3    C3 7745   2.697   0.007   0.263 -0.5868  0.0978 -0.1466
  518TMC3    C4 7746   2.756   0.260   0.352 -0.6421  1.2227  0.2122
  518TMC3    C5 7747   2.768   0.227   0.221 -0.4927  0.2901 -0.1315
  518TMC3    C6 7748   2.730   0.105   0.175 -0.5376 -0.4288  0.3910
  518TMC3     C 7749   2.748   0.190   0.581  0.2275  0.6903  0.5477
  518TMC3     O 7750   2.789   0.101   0.653  0.3071  0.6134 -0.1301
  518TMC3     H 7751   2.672   4.699   0.474  0.9049 -1.7630 -1.3072
  518TMC3    H1 7752   2.778   0.359   0.391 -2.8029  1.6720  0.2784
  518TMC3    H2 7753   2.730   0.087   0.068  0.3478  1.8446  0.0029
  518TMC3    C7 7754   2.852   0.313   0.138  0.7712 -0.4617  1.4499
  518TMC3    C8 7755   2.668   4.612   0.208 -0.1133  0.5425  0.4655
  518TMC3    O1 7756   2.862   0.430   0.173  0.5651 -0.3311 -0.4510
  518TMC3    O2 7757   2.642   4.612   0.088  0.2302 -0.1277 -0.3385
  519MPD2     C 7758   4.086   4.111  14.633  0.0713 -0.4530  0.0922
  519MPD2    C1 7759   3.983   4.039  14.571 -0.0836 -0.1264  0.2030
  519MPD2    C2 7760   4.003   3.905  14.533 -0.1065  0.2146 -0.0176
  519MPD2    C3 7761   4.131   3.839  14.540 -0.6474 -0.2031 -0.4007
  519MPD2    C4 7762   4.228   3.924  14.592  0.4255  0.1306  0.9774
  519MPD2    C5 7763   4.204   4.048  14.650 -0.4596  0.2518 -0.0165
  519MPD2     H 7764   3.920   3.848  14.493  0.1447  1.2330 -1.9992
  519MPD2    H1 7765   4.329   3.884  14.594 -0.4341 -1.9885  2.2566
  519MPD2    H2 7766   4.067   4.215  14.658 -0.9327 -0.4197 -0.7994
  519MPD2    H3 7767   4.285   4.107  14.690 -0.7878 -0.6424  1.9888
  519MPD2     N 7768   4.163   3.706  14.490 -0.1917 -0.1705  0.2006
  519MPD2    H5 7769   4.263   3.694  14.487 -0.5076 -2.7543  0.3204
  519MPD2    N1 7770   3.860   4.107  14.540  0.2157 -0.1040  0.4657
  519MPD2    H7 7771   3.865   4.206  14.563 -4.4904  1.0185 -3.2975
  520TMC3    C1 7772   4.137   3.531  14.326  0.8882  0.0038  0.1408
  520TMC3    C2 7773   4.077   3.534  14.202  0.6404  0.2099 -0.1059
  520TMC3    C3 7774   4.162   3.546  14.088  0.5685  0.4960  0.4126
  520TMC3    C4 7775   4.271   3.518  14.332  0.1420 -0.0208  0.0241
  520TMC3    C5 7776   4.350   3.509  14.219 -0.1433 -0.2130 -0.2989
  520TMC3    C6 7777   4.298   3.533  14.094 -0.0782 -0.5710 -0.5410
  520TMC3     C 7778   4.071   3.620  14.423 -0.6338  0.1066  0.7112
  520TMC3     O 7779   3.949   3.623  14.428  0.6745  0.2553  0.8761
  520TMC3     H 7780   3.972   3.557  14.197  0.5224 -0.1852  0.5227
  520TMC3    H1 7781   4.306   3.476  14.426  0.1805  2.7696  1.2629
  520TMC3    H2 7782   4.348   3.547  13.999 -0.5351  1.7844 -0.4390
  520TMC3    C7 7783   4.491   3.465  14.231 -0.5259  0.3424 -0.1579
  520TMC3    C8 7784   4.126   3.663  14.014 -0.1740 -0.1006  0.3286
  520TMC3    O1 7785   4.530   3.434  14.342 -0.5608  0.2501  0.4540
  520TMC3    O2 7786   4.212   3.738  13.974 -0.3411  0.3918  0.0507
  521MPD2     C 7787   0.305   1.170  17.733 -0.1660 -1.0042 -0.4579
  521MPD2    C1 7788   0.295   1.280  17.651 -0.3963  0.0722 -0.0591
  521MPD2    C2 7789   0.400   1.301  17.561  0.3496 -0.7173 -0.8749
  521MPD2    C3 7790   0.516   1.222  17.564  0.9399 -0.5105 -0.0916
  521MPD2    C4 7791   0.522   1.122  17.659 -0.7359 -0.2792  0.2724
  521MPD2    C5 7792   0.418   1.098   0.001 -0.8454  0.5829  0.0711
  521MPD2     H 7793   0.393   1.385  17.493 -3.3531 -1.2706 -1.2158
  521MPD2    H1 7794   0.603   1.052  17.676 -0.7108 -0.4922 -0.7591
  521MPD2    H2 7795   0.222   1.145   0.058  0.5523  1.1412  1.2387
  521MPD2    H3 7796   0.437   1.021   0.075 -2.0836 -2.0690 -2.3453
  521MPD2     N 7797   0.618   1.243  17.470  0.6895 -0.4052 -0.0795
  521MPD2    H5 7798   0.588   1.299  17.391 -1.0661 -1.1588  0.0465
  521MPD2    N1 7799   0.184   1.375  17.666  0.0090  0.3389  0.1004
  521MPD2    H7 7800   0.106   1.348  17.725  0.1133 -0.9161 -0.3283
  522TMC3    C1 7801   0.822   1.207  17.359 -0.9921  0.1064 -0.0869
  522TMC3    C2 7802   0.955   1.162  17.368 -0.0094  0.7499 -0.4215
  522TMC3    C3 7803   1.021   1.138  17.253  0.6474  0.1227  0.5677
  522TMC3    C4 7804   0.761   1.230  17.242  0.0883 -0.5313 -0.2270
  522TMC3    C5 7805   0.829   1.208  17.124  0.3540 -0.6762 -0.4692
  522TMC3    C6 7806   0.953   1.148  17.130 -0.4476 -0.5071  0.1595
  522TMC3     C 7807   0.737   1.176  17.474 -0.0569 -0.1751 -0.3274
  522TMC3     O 7808   0.789   1.104  17.558 -0.4264  0.1721  0.3564
  522TMC3     H 7809   1.005   1.151  17.464  0.0919  0.4799 -0.5045
  522TMC3    H1 7810   0.659   1.267  17.234 -0.6763 -2.9086 -1.4064
  522TMC3    H2 7811   0.990   1.123  17.031 -1.7993 -0.5915 -0.3200
  522TMC3    C7 7812   0.749   1.195  17.002 -0.6672 -0.0519  0.4164
  522TMC3    C8 7813   1.143   1.069  17.269  0.3362  0.3102 -0.3868
  522TMC3    O1 7814   0.742   1.090  16.939  0.1556  0.1363  0.2249
  522TMC3    O2 7815   1.169   1.010  17.371  0.3611  0.3103  0.5090
  523MPD2     C 7816   2.829   2.047  10.314  0.0467  0.4176 -0.5943
  523MPD2    C1 7817   2.800   1.943  10.234 -0.6910  0.3920 -0.0649
  523MPD2    C2 7818   2.702   1.959  10.142 -0.1852  0.2748  0.0974
  523MPD2    C3 7819   2.648   2.084  10.112  0.0237  0.0481 -0.1342
  523MPD2    C4 7820   2.697   2.191  10.186 -0.4261  0.3760 -0.1833
  523MPD2    C5 7821   2.780   2.168  10.292  0.0118 -0.3738  0.2491
  523MPD2     H 7822   2.668   1.869  10.093 -2.0031  0.1249  1.6781
  523MPD2    H1 7823   2.664   2.293  10.175 -0.1040  0.4386 -0.5842
  523MPD2    H2 7824   2.891   2.023  10.399 -0.3668 -0.4563 -0.5304
  523MPD2    H3 7825   2.798   2.251  10.360 -1.9835  1.4737 -1.4874
  523MPD2     N 7826   2.535   2.113  10.022 -0.1233 -0.0689 -0.4788
  523MPD2    H5 7827   2.506   2.211  10.017  0.6856  0.1546 -0.7081
  523MPD2    N1 7828   2.851   1.817  10.274  0.3192  0.0274  0.4257
  523MPD2    H7 7829   2.896   1.818  10.365  2.8934 -1.7211 -0.8258
  524TMC3    C1 7830   2.339   2.090   9.901 -1.1258 -0.6020  0.1772
  524TMC3    C2 7831   2.289   2.035   9.787  0.1709  0.0751  0.1129
  524TMC3    C3 7832   2.181   2.103   9.724 -0.1873  0.5876  0.8943
  524TMC3    C4 7833   2.278   2.186   9.965 -0.2019 -0.4770 -0.8092
  524TMC3    C5 7834   2.161   2.240   9.912 -0.1803 -0.5204 -0.7190
  524TMC3    C6 7835   2.116   2.205   9.790 -0.0903  0.5075 -0.1213
  524TMC3     C 7836   2.455   2.022   9.960 -0.5558 -0.0834  0.1459
  524TMC3     O 7837   2.454   1.902   9.947  0.0027  0.1838 -0.0482
  524TMC3     H 7838   2.339   1.956   9.732  0.0398 -0.6009  0.9738
  524TMC3    H1 7839   2.300   2.208  10.069  0.2306  2.5366 -1.5381
  524TMC3    H2 7840   2.027   2.246   9.744 -0.4033  0.0501  0.0802
  524TMC3    C7 7841   2.111   2.359   9.971 -0.2987  0.3075 -1.0818
  524TMC3    C8 7842   2.129   2.058   9.596 -0.0973 -0.4025  0.4067
  524TMC3    O1 7843   2.183   2.414  10.050  0.7269 -0.4187  0.7804
  524TMC3    O2 7844   2.215   2.009   9.525 -0.4496  0.2893 -0.0607
  525MPD2     C 7845   0.593   3.063  14.557 -0.0281 -0.6744 -0.8499
  525MPD2    C1 7846   0.706   3.080  14.636  0.1360  0.2989  0.7969
  525MPD2    C2 7847   0.776   3.197  14.644 -0.1605 -0.3229 -0.3718
  525MPD2    C3 7848   0.725   3.310  14.583  0.4239 -0.1375 -0.7244
  525MPD2    C4 7849   0.604   3.296  14.514 -0.8817 -1.1746  0.5327
  525MPD2    C5 7850   0.550   3.175  14.491 -0.4858 -0.1497  0.4444
  525MPD2     H 7851   0.861   3.208  14.710 -0.2097 -1.0028 -0.1973
  525MPD2    H1 7852   0.554   3.374  14.459  0.6812 -0.5727 -0.0373
  525MPD2    H2 7853   0.548   2.966  14.540 -1.1540 -0.0749 -1.2598
  525MPD2    H3 7854   0.461   3.173  14.429 -1.3599  0.6332  1.6863
  525MPD2     N 7855   0.776   3.440  14.602  0.1486 -0.3439 -0.1830
  525MPD2    H5 7856   0.734   3.517  14.551 -0.2095  0.5607  1.4862
  525MPD2    N1 7857   0.761   2.969  14.717  0.7110 -0.8301 -0.0364
  525MPD2    H7 7858   0.855   2.981  14.751  0.5673  2.2240 -0.7058
  526TMC3    C1 7859   0.770   2.772  14.838  0.2070  0.2288  0.3803
  526TMC3    C2 7860   0.710   2.724  14.954 -0.1646  0.8554 -0.6177
  526TMC3    C3 7861   0.795   2.650  15.043  0.4298 -0.2906 -0.3536
  526TMC3    C4 7862   0.904   2.752  14.805 -0.3721 -0.1492 -0.6624
  526TMC3    C5 7863   0.980   2.671  14.893 -0.2646 -1.0210 -0.6185
  526TMC3    C6 7864   0.929   2.625  15.011 -0.4158 -0.4748 -0.0489
  526TMC3     C 7865   0.691   2.865  14.766 -0.4177  0.2374 -0.7861
  526TMC3     O 7866   0.573   2.847  14.754 -0.4631 -0.7144  0.1593
  526TMC3     H 7867   0.607   2.754  14.971 -0.2016 -0.0952  0.8306
  526TMC3    H1 7868   0.942   2.801  14.716 -3.5022  3.3039 -0.0814
  526TMC3    H2 7869   0.989   2.559  15.074  1.1512  1.7665  0.8291
  526TMC3    C7 7870   1.098   2.606  14.850 -0.1980 -0.0915  0.1941
  526TMC3    C8 7871   0.774   2.656  15.186 -0.6154 -0.0507 -0.3002
  526TMC3    O1 7872   1.164   2.550  14.939  0.2193  0.2922 -0.2503
  526TMC3    O2 7873   0.873   2.648  15.258 -0.4364  0.2187  0.3749
  527MPD2     C 7874   4.581   1.878   1.496  0.3966 -0.7051  0.4954
  527MPD2    C1 7875   4.652   1.773   1.444  0.0378  0.1856  0.4946
  527MPD2    C2 7876   4.582   1.668   1.388  0.6167  0.2855  0.4764
  527MPD2    C3 7877   4.444   1.663   1.382  0.2267 -0.4599  0.7911
  527MPD2    C4 7878   4.374   1.774   1.431  0.2398  0.2085 -0.0984
  527MPD2    C5 7879   4.447   1.870   1.496 -0.2069 -0.2346  0.9063
  527MPD2     H 7880   4.632   1.586   1.338  0.3512  0.7747 -0.5901
  527MPD2    H1 7881   4.267   1.771   1.447  0.4552  0.9821  1.4790
  527MPD2    H2 7882   4.617   1.965   1.550 -1.3365 -0.2352  0.9193
  527MPD2    H3 7883   4.403   1.955   1.548 -1.4680 -1.2222  1.4563
  527MPD2     N 7884   4.381   1.548   1.336  0.0072 -0.0263  0.4278
  527MPD2    H5 7885   4.440   1.471   1.305 -0.6232 -0.4963  0.3885
  527MPD2    N1 7886   0.059   1.755   1.455 -0.5223 -0.5260  0.0995
  527MPD2    H7 7887   0.097   1.667   1.421  0.9480  0.4544 -0.8240
  528TMC3    C1 7888   0.277   1.793   1.533 -0.6819  0.5834 -0.3923
  528TMC3    C2 7889   0.397   1.866   1.533  0.4205  0.3848  0.5520
  528TMC3    C3 7890   0.509   1.798   1.566 -0.3867 -0.4135 -0.9513
  528TMC3    C4 7891   0.277   1.660   1.573 -0.1047  0.1547 -0.0034
  528TMC3    C5 7892   0.393   1.606   1.617 -0.5520 -0.0710  0.5636
  528TMC3    C6 7893   0.510   1.674   1.611  0.2315  0.8412  0.3435
  528TMC3     C 7894   0.146   1.855   1.488  0.5277 -0.3100  0.8772
  528TMC3     O 7895   0.126   1.975   1.489  0.7139 -0.1372 -0.0962
  528TMC3     H 7896   0.402   1.964   1.485  5.1381  0.3291  0.9627
  528TMC3    H1 7897   0.186   1.603   1.589 -0.7068  0.6261 -1.7780
  528TMC3    H2 7898   0.602   1.622   1.636 -0.0406 -0.6207 -1.7076
  528TMC3    C7 7899   0.383   1.465   1.652  0.2668 -0.4491 -0.2620
  528TMC3    C8 7900   0.639   1.866   1.549 -0.2391 -0.1138  0.2400
  528TMC3    O1 7901   0.277   1.417   1.685 -0.7752  0.3417  0.3219
  528TMC3    O2 7902   0.632   1.971   1.486  0.3007 -0.1536 -0.6812
  529MPD2     C 7903   1.578   4.214   0.319  0.4183 -0.4731 -0.5188
  529MPD2    C1 7904   1.489   4.243   0.426 -0.4438 -0.3519 -0.3554
  529MPD2    C2 7905   1.417   4.363   0.427  0.2764  0.0261  0.3286
  529MPD2    C3 7906   1.424   4.453   0.323 -0.7215 -0.7306 -0.1189
  529MPD2    C4 7907   1.504   4.416   0.214 -0.2051  0.5589 -0.6198
  529MPD2    C5 7908   1.576   4.297   0.210 -0.0508 -0.0834 -0.0623
  529MPD2     H 7909   1.351   4.378   0.511  0.1394  0.9994  0.0449
  529MPD2    H1 7910   1.521   4.483   0.131 -1.0635 -0.3487 -1.5211
  529MPD2    H2 7911   1.627   4.117   0.316 -1.2320 -1.2902 -0.9169
  529MPD2    H3 7912   1.640   4.274   0.126  1.0866  2.8564 -0.0164
  529MPD2     N 7913   1.341   4.565   0.305 -0.0781 -0.4125  0.1967
  529MPD2    H5 7914   1.348   4.613   0.216 -1.4984 -0.1000  0.2453
  529MPD2    N1 7915   1.490   4.151   0.529 -0.0363  0.3080 -0.2938
  529MPD2    H7 7916   1.552   4.072   0.517  1.2896  1.2790  0.1627
  530TMC3    C1 7917   1.489   4.055   0.741 -0.4293  0.5167 -0.6136
  530TMC3    C2 7918   1.523   4.085   0.865 -0.0818  0.1651 -0.0530
  530TMC3    C3 7919   1.597   3.991   0.938 -0.5305  0.2576 -0.2951
  530TMC3    C4 7920   1.497   3.931   0.690  0.5797  0.3689 -0.5761
  530TMC3    C5 7921   1.548   3.832   0.772 -0.0675  0.4924  0.2838
  530TMC3    C6 7922   1.605   3.859   0.898  0.0913 -0.3448 -0.7664
  530TMC3     C 7923   1.448   4.168   0.655 -0.3125  0.8488  0.0728
  530TMC3     O 7924   1.415   4.273   0.713  0.1106  0.2528 -0.7270
  530TMC3     H 7925   1.527   4.187   0.902  0.2030  0.5157 -1.0455
  530TMC3    H1 7926   1.444   3.905   0.599 -1.2267  1.0779  0.2598
  530TMC3    H2 7927   1.628   3.774   0.960 -1.5566 -0.1547  0.1130
  530TMC3    C7 7928   1.487   3.696   0.755 -0.1112 -0.7496  0.0749
  530TMC3    C8 7929   1.645   4.021   1.069  0.1315  0.2341 -0.0264
  530TMC3    O1 7930   1.491   3.650   0.637  0.2983  0.1734 -0.3146
  530TMC3    O2 7931   1.589   4.108   1.136 -0.5889 -0.0180 -0.1019
  531MPD2     C 7932   0.031   2.668  13.083 -0.0315  0.4847 -0.2529
  531MPD2    C1 7933   4.693   2.638  13.198  0.1353 -0.0922  0.5687
  531MPD2    C2 7934   4.577   2.565  13.189 -0.2515 -0.6124 -0.0247
  531MPD2    C3 7935   4.532   2.520  13.066  0.5372 -0.0273  0.5850
  531MPD2    C4 7936   4.600   2.558  12.956 -0.5392  0.0234 -0.3703
  531MPD2    C5 7937   4.721   2.629  12.963  0.0515 -0.5540  0.1681
  531MPD2     H 7938   4.522   2.538  13.278 -1.4036  0.6703 -0.3352
  531MPD2    H1 7939   4.564   2.528  12.859  0.5403 -1.0785 -0.4249
  531MPD2    H2 7940   0.125   2.721  13.077  1.5572 -2.0867  2.6576
  531MPD2    H3 7941   0.042   2.655  12.875 -0.8656 -1.1968 -0.6047
  531MPD2     N 7942   4.409   2.453  13.055  0.1433  0.0561  0.2088
  531MPD2    H5 7943   4.391   2.408  12.965  1.2263 -3.2971  1.6440
  531MPD2    N1 7944   0.007   2.694  13.318 -0.2935 -0.3757  0.0044
  531MPD2    H7 7945   0.091   2.751  13.328  0.7371 -1.6400 -1.5906
  532TMC3    C1 7946   0.018   2.732  13.551  0.2925  0.3536 -0.5887
  532TMC3    C2 7947   4.671   2.719  13.658  0.9213 -0.0209 -0.1651
  532TMC3    C3 7948   4.697   2.627  13.759  0.6257 -0.1574 -1.1184
  532TMC3    C4 7949   0.142   2.670  13.559  0.3578  0.1735  0.5642
  532TMC3    C5 7950   0.176   2.601  13.666 -0.3786  0.1432 -0.3346
  532TMC3    C6 7951   0.088   2.576  13.770 -0.2185  0.6804 -0.2915
  532TMC3     C 7952   4.675   2.694  13.435  0.1082 -0.4822  0.7346
  532TMC3     O 7953   4.559   2.671  13.459  0.2506 -0.3016  0.1753
  532TMC3     H 7954   4.572   2.763  13.648  1.4965  1.1092 -0.7902
  532TMC3    H1 7955   0.213   2.660  13.478 -1.2277 -0.0752 -0.8044
  532TMC3    H2 7956   0.106   2.511  13.854 -0.8911 -0.0488 -0.7164
  532TMC3    C7 7957   0.287   2.518  13.647  0.0902  1.0511 -0.4726
  532TMC3    C8 7958   4.591   2.547  13.810 -0.9483  1.0106  0.2838
  532TMC3    O1 7959   0.391   2.579  13.615 -0.1749 -0.3907  0.2558
  532TMC3    O2 7960   4.606   2.469  13.902 -0.2669 -0.0023 -0.3452
  533TMC3    C1 7961   0.905   3.596  14.729 -0.8677 -0.5673 -0.4044
  533TMC3    C2 7962   1.031   3.641  14.733  0.3587  0.8501  0.4884
  533TMC3    C3 7963   1.056   3.745  14.813 -0.5327  0.1056 -1.1203
  533TMC3    C4 7964   0.801   3.649  14.799 -0.2675  0.2199  0.3404
  533TMC3    C5 7965   0.833   3.749  14.890  0.9038 -0.6188  0.5384
  533TMC3    C6 7966   0.962   3.793  14.898 -0.1590  1.1149  0.2208
  533TMC3     C 7967   0.884   3.459  14.682  0.1923  0.0033  0.1570
  533TMC3     O 7968   0.971   3.384  14.717 -0.3004 -0.1230  0.2727
  533TMC3     H 7969   1.107   3.600  14.668  0.3607 -1.4323  1.9515
  533TMC3    H1 7970   0.701   3.610  14.785 -0.2566 -0.0150  0.9559
  533TMC3    H2 7971   1.002   3.857  14.976 -0.1266  0.6889  0.5530
  533TMC3    C7 7972   0.780   3.722  15.018  0.4141 -0.1167  0.1211
  533TMC3    C8 7973   1.187   3.809  14.807 -0.2023 -0.6377 -0.7104
  533TMC3    O1 7974   0.755   3.600  15.028  0.0437 -0.4613  0.2542
  533TMC3    O2 7975   1.283   3.753  14.753  0.0617  0.0130 -0.3139
  534MPD2     C 7976   3.770   0.128   1.702  0.4734  0.0850 -0.0701
  534MPD2    C1 7977   3.772   0.195   1.580 -0.4672  0.1257 -0.5929
  534MPD2    C2 7978   3.675   0.171   1.491  0.0550  0.5002  1.4723
  534MPD2    C3 7979   3.569   0.085   1.514  0.7169  0.5286 -0.5726
  534MPD2    C4 7980   3.560   0.036   1.641 -0.0205 -0.3863 -0.1664
  534MPD2    C5 7981   3.659   0.058   1.730  0.1415  0.4396  0.1617
  534MPD2     H 7982   3.692   0.207   1.390 -0.1943 -0.7605  0.9779
  534MPD2    H1 7983   3.483   4.699   1.660  0.4727 -0.9801 -0.4336
  534MPD2    H2 7984   3.840   0.156   1.780 -0.3333  1.5908  0.1097
  534MPD2    H3 7985   3.637   0.028   1.832 -1.6278  2.2547  0.3066
  534MPD2     N 7986   3.476   0.034   1.416 -0.0032  0.1614  0.2599
  534MPD2    H5 7987   3.400   4.710   1.446  0.5860 -0.5457  0.3327
  534MPD2    N1 7988   3.866   0.297   1.541 -0.5989 -0.0723 -0.6210
  534MPD2    H7 7989   3.848   0.344   1.453 -2.2902 -0.2250 -0.3550
  535TMC3    C1 7990   3.389   0.003   1.195  0.1970  0.0052  0.4638
  535TMC3    C2 7991   3.263   4.734   1.251  0.8125  0.4333 -0.1100
  535TMC3    C3 7992   3.158   4.700   1.172 -0.2488  0.7810  0.1932
  535TMC3    C4 7993   3.421   4.694   1.071 -0.0308  0.0375  1.1492
  535TMC3    C5 7994   3.312   4.659   1.001 -0.4408  0.0672  0.2389
  535TMC3    C6 7995   3.180   4.659   1.044  0.3709  0.0208  0.1942
  535TMC3     C 7996   3.494   0.053   1.280 -0.2344 -0.8444 -0.0175
  535TMC3     O 7997   3.586   0.102   1.215  0.4144  0.3376  0.0672
  535TMC3     H 7998   3.251   0.038   1.351 -0.8383 -0.0619 -0.1188
  535TMC3    H1 7999   3.522   4.693   1.031 -0.7425  0.5150 -0.6652
  535TMC3    H2 8000   3.094   4.634   0.984  0.8168  0.7777 -0.7652
  535TMC3    C7 8001   3.341   4.619   0.862 -0.1717  0.3376 -0.1553
  535TMC3    C8 8002   3.042   4.647   1.236 -0.4032  0.7834  0.2124
  535TMC3    O1 8003   3.454   4.591   0.839 -0.7706 -0.2607  0.8926
  535TMC3    O2 8004   2.970   4.574   1.173  0.4033 -0.2265 -0.4905
  536MPD2     C 8005   2.345   3.150  15.960 -0.0935  0.0945 -0.1189
  536MPD2    C1 8006   2.225   3.093  15.998 -0.6212 -0.3549  0.0314
  536MPD2    C2 8007   2.118   3.103  15.908 -0.1199  0.2153  0.7891
  536MPD2    C3 8008   2.140   3.150  15.782  0.0953  0.6151  0.1426
  536MPD2    C4 8009   2.265   3.202  15.746 -0.7586 -0.6124  0.5892
  536MPD2    C5 8010   2.362   3.211  15.840  0.5689  0.5061  0.2766
  536MPD2     H 8011   2.023   3.061  15.939 -0.5067  1.6408  1.5127
  536MPD2    H1 8012   2.277   3.231  15.643 -0.3146 -0.3437  0.7178
  536MPD2    H2 8013   2.425   3.155  16.033 -0.7348 -2.3496  0.7562
  536MPD2    H3 8014   2.456   3.254  15.810  1.0975 -0.4252  0.5791
  536MPD2     N 8015   2.038   3.154  15.684 -0.4778  0.5661  0.5030
  536MPD2    H5 8016   2.067   3.150  15.587  1.6905  1.2018  1.1244
  536MPD2    N1 8017   2.217   3.033  16.122 -0.0764 -0.4925  0.7100
  536MPD2    H7 8018   2.294   3.035  16.189  1.2866  1.2557 -0.9264
  537TMC3    C1 8019   2.131   2.908  16.290  0.2628  0.6049  0.6158
  537TMC3    C2 8020   2.173   2.988  16.385 -0.1990 -0.9545  0.3383
  537TMC3    C3 8021   2.182   2.938  16.514  0.2083  0.1253  1.3230
  537TMC3    C4 8022   2.098   2.780  16.306 -0.2489 -0.1661  0.0212
  537TMC3    C5 8023   2.109   2.726  16.433  0.3150 -0.0774  0.0041
  537TMC3    C6 8024   2.135   2.809  16.544  0.7626 -0.8271  0.1659
  537TMC3     C 8025   2.109   2.958  16.156  1.1835 -0.1680 -0.3841
  537TMC3     O 8026   2.033   2.893  16.082  0.6731  0.0794 -0.0295
  537TMC3     H 8027   2.187   3.094  16.367 -2.2184 -1.2775 -3.1602
  537TMC3    H1 8028   2.067   2.717  16.223  0.1858 -0.5139  0.1233
  537TMC3    H2 8029   2.141   2.780  16.648 -1.9687 -0.5792  0.3879
  537TMC3    C7 8030   2.024   2.610  16.452  1.0394 -0.2107  0.5769
  537TMC3    C8 8031   2.262   3.009  16.619 -0.2484  0.2983  0.3837
  537TMC3    O1 8032   1.966   2.560  16.353 -0.3433 -0.1600  0.0863
  537TMC3    O2 8033   2.248   2.985  16.739  0.4579  0.1606 -0.2422
  538TMC3    C1 8034   3.260   1.929  11.718 -0.1410 -0.3528  1.0652
  538TMC3    C2 8035   3.373   1.852  11.695  0.1115  0.2613  0.2649
  538TMC3    C3 8036   3.427   1.866  11.572 -0.3379  0.0480 -0.1813
  538TMC3    C4 8037   3.215   2.017  11.622 -0.4292 -0.0175 -0.4902
  538TMC3    C5 8038   3.263   2.017  11.495  0.0023 -0.9147  0.3362
  538TMC3    C6 8039   3.372   1.942  11.472 -0.0142 -0.0297  0.2631
  538TMC3     C 8040   3.158   1.882  11.812 -1.0902  0.1762  0.4655
  538TMC3     O 8041   3.040   1.906  11.788 -0.4878  0.4043 -0.2382
  538TMC3     H 8042   3.392   1.773  11.767  0.1543  0.2986  0.2947
  538TMC3    H1 8043   3.116   2.058  11.638 -0.1695 -0.3706  2.0117
  538TMC3    H2 8044   3.415   1.928  11.374 -1.9817  1.1574 -0.7619
  538TMC3    C7 8045   3.156   1.999  11.396  0.3374 -0.3047  0.7287
  538TMC3    C8 8046   3.549   1.786  11.554  0.5836  1.3811  0.5897
  538TMC3    O1 8047   3.088   1.899  11.417 -0.1165  0.6658 -0.7190
  538TMC3    O2 8048   3.564   1.696  11.638  0.5768  0.1462 -0.1495
  539MPD2     C 8049   3.344   1.336  11.772  0.9079  0.4438 -0.9478
  539MPD2    C1 8050   3.290   1.214  11.742  0.6054  1.1233  0.4840
  539MPD2    C2 8051   3.160   1.212  11.704  0.0210  0.3955 -0.4357
  539MPD2    C3 8052   3.088   1.330  11.699  0.1670  0.1949 -0.4731
  539MPD2    C4 8053   3.142   1.447  11.730 -0.2772 -0.1151 -1.1087
  539MPD2    C5 8054   3.275   1.448  11.770 -0.1531 -0.5097  0.5523
  539MPD2     H 8055   3.107   1.120  11.680  1.8279 -0.7172 -0.1064
  539MPD2    H1 8056   3.084   1.538  11.735 -2.0163 -1.2292 -0.9620
  539MPD2    H2 8057   3.451   1.338  11.787  0.7440  0.2365  0.2616
  539MPD2    H3 8058   3.320   1.543  11.794  1.2417 -0.2723 -3.1016
  539MPD2     N 8059   2.950   1.329  11.663 -0.3398  0.5206  0.6765
  539MPD2    H5 8060   2.911   1.423  11.654  0.5545  0.7906 -0.3772
  539MPD2    N1 8061   3.366   1.095  11.749  0.1108 -0.1702 -0.7035
  539MPD2    H7 8062   3.327   1.008  11.712 -1.7590  0.0499  0.7399
  540TMC3    C1 8063   2.710   1.274  11.623  0.2823 -0.7647 -0.2127
  540TMC3    C2 8064   2.666   1.273  11.493 -0.4947  0.0990  0.4294
  540TMC3    C3 8065   2.534   1.251  11.471  0.9526 -0.5982  0.1999
  540TMC3    C4 8066   2.629   1.245  11.726 -0.4856  0.2114  0.6962
  540TMC3    C5 8067   2.509   1.202  11.695  0.1134 -0.9987 -0.0303
  540TMC3    C6 8068   2.451   1.208  11.567  0.8659  0.2392  0.0351
  540TMC3     C 8069   2.853   1.228  11.644  0.5553  0.4750 -0.0849
  540TMC3     O 8070   2.873   1.106  11.646  0.5118 -0.0554  0.1035
  540TMC3     H 8071   2.730   1.307  11.413  0.7392 -0.6440  1.0970
  540TMC3    H1 8072   2.666   1.244  11.828 -0.1457 -1.0351  0.5601
  540TMC3    H2 8073   2.356   1.162  11.545  0.2479  0.5515  2.0361
  540TMC3    C7 8074   2.425   1.144  11.804  0.2937 -0.1430  0.1574
  540TMC3    C8 8075   2.485   1.248  11.339  0.6961  0.2703 -0.8113
  540TMC3    O1 8076   2.313   1.110  11.773 -0.7635 -0.2120 -0.2026
  540TMC3    O2 8077   2.365   1.266  11.317 -0.3574  0.2346  0.0714
  541MPD2     C 8078   1.406   2.479  13.311  0.1851 -0.4302  0.2951
  541MPD2    C1 8079   1.368   2.366  13.237 -0.0927 -0.0686  0.0784
  541MPD2    C2 8080   1.319   2.380  13.113 -0.0102 -0.4269 -0.4895
  541MPD2    C3 8081   1.314   2.503  13.051  0.0421  0.5738  0.3576
  541MPD2    C4 8082   1.354   2.616  13.129 -0.4366 -0.8979 -0.6749
  541MPD2    C5 8083   1.404   2.604  13.257  0.0366  0.2571 -0.2632
  541MPD2     H 8084   1.278   2.293  13.064 -1.1853 -0.7775  1.1326
  541MPD2    H1 8085   1.368   2.713  13.083  0.4252 -0.6997 -0.0034
  541MPD2    H2 8086   1.440   2.467  13.414  1.4421  1.1817  0.0757
  541MPD2    H3 8087   1.440   2.690  13.312  0.2942  0.7025 -1.1390
  541MPD2     N 8088   1.269   2.525  12.917 -0.4537  0.6599 -0.1904
  541MPD2    H5 8089   1.262   2.623  12.893 -0.0351  1.0745  1.3856
  541MPD2    N1 8090   1.356   2.237  13.294  0.3071  0.2819  1.1441
  541MPD2    H7 8091   1.313   2.164  13.239 -1.4864  2.3501 -0.2431
  542TMC3    C1 8092   1.127   2.490  12.724 -1.1646 -0.4499  0.5820
  542TMC3    C2 8093   1.051   2.406  12.643  0.1320  0.2070 -0.3693
  542TMC3    C3 8094   0.961   2.473  12.564  0.0369 -0.6594 -0.9390
  542TMC3    C4 8095   1.122   2.625  12.711  0.2563  0.2463 -0.4001
  542TMC3    C5 8096   1.025   2.690  12.638  0.1982 -0.0207 -0.8770
  542TMC3    C6 8097   0.941   2.610  12.559 -0.3660 -0.3453  0.2784
  542TMC3     C 8098   1.202   2.439  12.837  0.3160  0.4057  0.1831
  542TMC3     O 8099   1.180   2.319  12.852  0.6479 -0.0065 -0.1811
  542TMC3     H 8100   1.057   2.301  12.669 -0.9825 -0.0731 -1.2341
  542TMC3    H1 8101   1.187   2.685  12.775  1.0296 -2.1154  1.0502
  542TMC3    H2 8102   0.870   2.655  12.489  0.5068  0.1565 -0.2853
  542TMC3    C7 8103   1.021   2.836  12.640  0.3052 -0.4783  0.6403
  542TMC3    C8 8104   0.894   2.397  12.461 -0.3095  0.4563  0.2065
  542TMC3    O1 8105   1.073   2.898  12.733 -0.2693  0.0004  0.0644
  542TMC3    O2 8106   0.789   2.438  12.422 -0.2416 -0.9760 -0.0621
  543TMC3    C1 8107   1.037   3.748  17.186 -0.0775  0.6688  0.0367
  543TMC3    C2 8108   1.047   3.620  17.236 -0.2250 -0.7054 -0.1724
  543TMC3    C3 8109   0.999   3.595  17.358 -0.7280 -0.1127 -0.1731
  543TMC3    C4 8110   0.987   3.851  17.266 -0.2877 -0.1625  0.4243
  543TMC3    C5 8111   0.940   3.820  17.390 -0.5740  0.5753 -0.3759
  543TMC3    C6 8112   0.939   3.690  17.434 -0.2174  0.1335 -0.4294
  543TMC3     C 8113   1.093   3.770  17.055  0.0856 -0.9895 -0.3440
  543TMC3     O 8114   1.163   3.678  17.009 -0.3782  0.1969 -0.0545
  543TMC3     H 8115   1.105   3.541  17.191  3.0226  1.3963  0.3126
  543TMC3    H1 8116   0.979   3.953  17.229 -0.2941  0.0734  1.0747
  543TMC3    H2 8117   0.875   3.668  17.519 -0.2980  2.1287  0.0371
  543TMC3    C7 8118   0.847   3.901  17.465  0.0428 -0.8933 -0.2424
  543TMC3    C8 8119   0.978   3.456  17.401 -0.4812 -0.5111 -0.0170
  543TMC3    O1 8120   0.828   3.871  17.582 -0.3084 -0.0356  0.5301
  543TMC3    O2 8121   1.002   3.369  17.317 -0.1857 -0.6181 -0.3173
  544MPD2     C 8122   0.854   3.105   0.006  0.0648  0.3053  0.4920
  544MPD2    C1 8123   0.867   3.094  17.613 -0.2262  0.2856 -0.2522
  544MPD2    C2 8124   0.908   3.200  17.539 -0.0055  0.5545  0.4797
  544MPD2    C3 8125   0.941   3.322  17.607 -0.3518 -0.5564 -0.4066
  544MPD2    C4 8126   0.928   3.335   0.003  0.2068  0.9032  0.5277
  544MPD2    C5 8127   0.890   3.221   0.071  0.1184 -0.2983 -0.2722
  544MPD2     H 8128   0.921   3.202  17.432 -0.7725  0.7125  0.3908
  544MPD2    H1 8129   0.941   3.424   0.064 -1.5939  1.1093  0.6101
  544MPD2    H2 8130   0.809   3.032   0.072  2.2679  0.0370  1.6836
  544MPD2    H3 8131   0.878   3.224   0.179  1.1862  2.0122 -0.2180
  544MPD2     N 8132   0.970   3.444  17.537 -0.0662  0.8856  0.6111
  544MPD2    H5 8133   0.964   3.531  17.589  0.3109  0.3376  1.5642
  544MPD2    N1 8134   0.835   2.965  17.562  0.3396  0.1145  0.0241
  544MPD2    H7 8135   0.793   2.894  17.621 -2.6982  1.3526 -0.6231
  545TMC3    C1 8136   0.856   2.794  17.407 -0.8230  0.5085 -0.0649
  545TMC3    C2 8137   0.898   2.753  17.283 -0.1772  0.1024 -0.0304
  545TMC3    C3 8138   0.887   2.619  17.251 -0.6618 -0.0077 -0.2336
  545TMC3    C4 8139   0.823   2.703  17.505  0.2591 -0.0960  0.0407
  545TMC3    C5 8140   0.817   2.569  17.468 -0.1976  0.2411  0.2058
  545TMC3    C6 8141   0.853   2.526  17.346 -0.1639  0.4910  0.1357
  545TMC3     C 8142   0.856   2.933  17.428  0.1668  0.1500  1.3813
  545TMC3     O 8143   0.879   3.007  17.333 -0.6203 -0.6549 -0.7212
  545TMC3     H 8144   0.934   2.818  17.203  3.8483 -0.9484  0.9294
  545TMC3    H1 8145   0.785   2.735  17.601 -1.4803  2.1428 -1.3878
  545TMC3    H2 8146   0.822   2.430  17.306 -2.2152  1.2790 -0.1447
  545TMC3    C7 8147   0.741   2.477  17.547 -0.5322 -0.2564  0.5407
  545TMC3    C8 8148   0.888   2.583  17.113  0.3853  0.0310 -0.6388
  545TMC3    O1 8149   0.647   2.527  17.610  0.0474  0.0543 -0.3573
  545TMC3    O2 8150   0.869   2.670  17.028  0.2078  0.0608 -0.2555
  546MPD2     C 8151   2.386   3.241  17.477  0.0033 -0.8899  0.5832
  546MPD2    C1 8152   2.361   3.307  17.354  0.4653  0.2993 -0.3564
  546MPD2    C2 8153   2.391   3.441  17.343  0.3394 -0.5314 -0.2697
  546MPD2    C3 8154   2.456   3.508  17.446 -0.3395 -0.5225  0.1908
  546MPD2    C4 8155   2.492   3.434  17.559  0.0279 -0.4546  0.6000
  546MPD2    C5 8156   2.463   3.302  17.574  0.2366  0.2320 -0.2111
  546MPD2     H 8157   2.352   3.490  17.254 -0.6459  1.1044  1.0459
  546MPD2    H1 8158   2.530   3.477  17.650 -1.2710 -0.8937  1.3497
  546MPD2    H2 8159   2.354   3.139  17.491 -0.9824 -0.2396  2.9923
  546MPD2    H3 8160   2.483   3.255  17.670 -1.0589 -0.5581 -0.3390
  546MPD2     N 8161   2.498   3.645  17.449 -0.2889 -0.4171  0.4607
  546MPD2    H5 8162   2.549   3.683  17.528  0.6999 -0.7220 -0.0380
  546MPD2    N1 8163   2.298   3.232  17.251 -0.3514 -0.1446  0.2828
  546MPD2    H7 8164   2.282   3.133  17.267  0.4492 -0.4452 -0.7900
  547TMC3    C1 8165   2.192   3.186  17.035  0.4840  0.2481  0.1070
  547TMC3    C2 8166   2.105   3.241  16.946  0.2550 -0.5025 -0.8089
  547TMC3    C3 8167   2.007   3.154  16.905  0.5277 -0.4358 -1.0481
  547TMC3    C4 8168   2.190   3.058  17.081 -0.2065  0.7659 -0.3421
  547TMC3    C5 8169   2.090   2.979  17.033  0.4054  0.6886 -0.3472
  547TMC3    C6 8170   1.995   3.027  16.947 -0.0855 -0.1145 -0.1809
  547TMC3     C 8171   2.257   3.282  17.131 -0.2247 -0.1227  0.2818
  547TMC3     O 8172   2.290   3.387  17.074 -0.0295  0.7928  0.7375
  547TMC3     H 8173   2.113   3.344  16.911  1.8439  0.1956  1.6047
  547TMC3    H1 8174   2.277   3.020  17.133 -1.2865  1.6070  2.0589
  547TMC3    H2 8175   1.917   2.961  16.912  1.2353 -1.5686 -0.3600
  547TMC3    C7 8176   2.065   2.868  17.123  0.7745  0.2564 -0.6183
  547TMC3    C8 8177   1.926   3.191  16.794 -0.5389  0.5060 -0.2818
  547TMC3    O1 8178   2.130   2.869  17.227  0.8285 -0.1614  0.0573
  547TMC3    O2 8179   1.905   3.309  16.781 -0.6229  0.2461 -0.8239
  548MPD2     C 8180   1.894   4.128  12.779 -0.4533  0.2982  0.0000
  548MPD2    C1 8181   1.825   4.022  12.717 -0.0184 -0.2231  0.1872
  548MPD2    C2 8182   1.900   3.920  12.661 -0.3652 -0.4924  0.2859
  548MPD2    C3 8183   2.032   3.896  12.692  0.5158  0.2253 -0.2540
  548MPD2    C4 8184   2.097   3.998  12.759 -0.1084 -0.2049  0.5703
  548MPD2    C5 8185   2.029   4.110  12.790 -0.4884  0.1023  0.5571
  548MPD2     H 8186   1.852   3.859  12.586 -3.5454 -1.1460  2.8263
  548MPD2    H1 8187   2.203   3.990  12.780  0.0377  1.3883  0.4691
  548MPD2    H2 8188   1.847   4.222  12.804 -1.5019 -0.4876  0.9817
  548MPD2    H3 8189   2.085   4.186  12.843 -1.2777 -0.8294  2.7379
  548MPD2     N 8190   2.104   3.792  12.631  0.2156 -0.4286 -0.0980
  548MPD2    H5 8191   2.054   3.735  12.563 -1.1119 -0.7331  1.1422
  548MPD2    N1 8192   1.680   4.028  12.715  0.1048  0.3314 -0.4897
  548MPD2    H7 8193   1.643   4.108  12.765 -3.5248 -1.2225 -0.6617
  549TMC3    C1 8194   1.472   3.933  12.730 -0.0822  0.2146 -0.1279
  549TMC3    C2 8195   1.430   4.063  12.746  0.9733  0.2175 -0.6585
  549TMC3    C3 8196   1.293   4.074  12.784  0.1888  0.1357  0.1904
  549TMC3    C4 8197   1.400   3.827  12.775 -0.1945 -0.1011 -0.1165
  549TMC3    C5 8198   1.271   3.849  12.825  0.1122  0.0617  0.8084
  549TMC3    C6 8199   1.218   3.972  12.831  0.3591  0.3569  0.2142
  549TMC3     C 8200   1.602   3.913  12.685  0.6660  0.0772 -0.1211
  549TMC3     O 8201   1.634   3.809  12.640  0.5203 -0.0148 -0.4464
  549TMC3     H 8202   1.475   4.142  12.688  0.8488  1.3154  0.7292
  549TMC3    H1 8203   1.454   3.734  12.787  1.0641  0.9969  2.6496
  549TMC3    H2 8204   1.124   3.990  12.883 -0.6475  1.6670 -2.0540
  549TMC3    C7 8205   1.177   3.738  12.851  0.0302  0.1209  0.0320
  549TMC3    C8 8206   1.235   4.207  12.780 -0.6856  0.6597 -0.0468
  549TMC3    O1 8207   1.073   3.771  12.905  0.2764 -0.2556 -0.1801
  549TMC3    O2 8208   1.114   4.216  12.762 -0.5963  0.1551  0.2520
  550TMC3    C1 8209   0.647   1.975  12.563 -0.1027 -0.1597  0.0185
  550TMC3    C2 8210   0.678   2.064  12.667 -0.5022  0.1235  0.6987
  550TMC3    C3 8211   0.572   2.113  12.739  0.7593 -0.1867  0.1618
  550TMC3    C4 8212   0.525   1.936  12.528  0.4349  0.3660  0.2697
  550TMC3    C5 8213   0.417   1.983  12.607  0.0877 -0.6606  0.1379
  550TMC3    C6 8214   0.448   2.067  12.713 -0.2291 -0.7740 -0.3275
  550TMC3     C 8215   0.753   1.944  12.473 -0.3970  0.6384  0.0489
  550TMC3     O 8216   0.867   1.971  12.501  0.0156 -0.0301 -0.1028
  550TMC3     H 8217   0.781   2.097  12.677 -1.2984  2.2327  1.8990
  550TMC3    H1 8218   0.504   1.845  12.472 -1.1698 -0.1670  1.7631
  550TMC3    H2 8219   0.369   2.095  12.782  0.3458 -0.0195  0.0230
  550TMC3    C7 8220   0.317   2.038  12.527 -0.3797 -0.3050  0.2964
  550TMC3    C8 8221   0.570   2.247  12.781 -0.7518  0.1606 -0.2757
  550TMC3    O1 8222   0.210   2.076  12.575  0.0410 -0.3563  0.0908
  550TMC3    O2 8223   0.456   2.291  12.789  0.8168  0.5477  0.2285
  551TMC3    C1 8224   2.934   4.597  13.891  0.2403 -1.0062  0.1351
  551TMC3    C2 8225   2.998   4.475  13.876  0.5019  0.0534  0.4391
  551TMC3    C3 8226   3.111   4.440  13.947 -0.6097 -0.1924 -0.0857
  551TMC3    C4 8227   2.974   4.680  13.993 -0.4499 -0.5726  0.3253
  551TMC3    C5 8228   3.077   4.631  14.073  0.2546 -0.2807 -0.4246
  551TMC3    C6 8229   3.149   4.519  14.052  0.6965 -0.5789  0.1325
  551TMC3     C 8230   2.874   4.656  13.780  0.5516  0.1323  0.9316
  551TMC3     O 8231   2.825   4.573  13.700  0.1678  0.0618  0.2395
  551TMC3     H 8232   2.968   4.421  13.787 -0.3455  1.2989 -0.0200
  551TMC3    H1 8233   2.924   0.037  14.016  0.3858 -0.4061  1.5091
  551TMC3    H2 8234   3.235   4.492  14.111  1.2761  1.7899  0.3488
  551TMC3    C7 8235   3.121   4.704  14.186 -0.3928  0.4558 -0.6746
  551TMC3    C8 8236   3.215   4.417  13.850  0.5396  0.1019  0.3482
  551TMC3    O1 8237   3.141   4.637  14.291  0.2427 -0.6356 -0.4539
  551TMC3    O2 8238   3.177   4.351  13.755  0.0182  0.1422 -0.8905
  552MPD2     C 8239   4.572   2.006  14.331  0.9538 -0.1280  0.7186
  552MPD2    C1 8240   4.588   1.877  14.287 -0.0903  0.2848  0.6481
  552MPD2    C2 8241   4.713   1.821  14.279 -0.6447  0.1114  0.4842
  552MPD2    C3 8242   0.085   1.893  14.328  0.5626 -0.3279 -0.0557
  552MPD2    C4 8243   0.067   2.014  14.377 -0.3122  0.6064 -0.0728
  552MPD2    C5 8244   4.681   2.077  14.374 -0.3166  0.0922  0.4182
  552MPD2     H 8245   4.730   1.728  14.225  0.8297  0.7659 -0.1669
  552MPD2    H1 8246   0.151   2.079  14.399  0.2540 -0.2257  0.1950
  552MPD2    H2 8247   4.479   2.058  14.312  1.0456  0.4022  1.7066
  552MPD2    H3 8248   4.665   2.177  14.413 -1.0735 -0.3116  1.1523
  552MPD2     N 8249   0.219   1.849  14.326  0.1293  0.3065  0.0901
  552MPD2    H5 8250   0.281   1.927  14.348 -1.3064  0.8084  2.3078
  552MPD2    N1 8251   4.480   1.799  14.239  0.1413  0.1163  1.0005
  552MPD2    H7 8252   4.486   1.697  14.234  3.5738  0.3443  0.5517
  553TMC3    C1 8253   4.262   1.751  14.146 -0.3605  0.3246  0.8760
  553TMC3    C2 8254   4.169   1.807  14.068 -1.3833  0.3785 -1.0469
  553TMC3    C3 8255   4.157   1.772  13.934 -0.5006  0.4901 -0.6133
  553TMC3    C4 8256   4.330   1.639  14.108 -0.1988 -0.1330  0.2104
  553TMC3    C5 8257   4.304   1.592  13.985  0.3914  0.3160 -0.5657
  553TMC3    C6 8258   4.214   1.656  13.900 -0.1603  0.2414  0.8309
  553TMC3     C 8259   4.353   1.852  14.202 -0.1561 -0.6539  0.4745
  553TMC3     O 8260   4.313   1.969  14.196  0.1325  0.0222  0.4688
  553TMC3     H 8261   4.115   1.894  14.106  0.4253  1.4707 -0.9802
  553TMC3    H1 8262   4.380   1.575  14.179  0.7066  1.2171  0.7830
  553TMC3    H2 8263   4.194   1.599  13.810  0.7340 -1.5460  1.7666
  553TMC3    C7 8264   4.428   1.554  13.920  0.0434  0.2339  0.7766
  553TMC3    C8 8265   4.186   1.879  13.844 -0.9214 -0.6575 -0.2435
  553TMC3    O1 8266   4.491   1.474  13.987  0.3737 -0.1753  0.3464
  553TMC3    O2 8267   4.179   1.991  13.889 -0.1653 -0.5566 -0.3379
  554TMC3    C1 8268   1.896   1.056  11.795  0.1673 -0.4840 -0.1997
  554TMC3    C2 8269   1.773   1.058  11.729  0.8504 -0.7083  0.2896
  554TMC3    C3 8270   1.737   1.170  11.658  0.2310  0.8600 -0.1770
  554TMC3    C4 8271   1.976   1.161  11.786 -0.4916 -0.0164 -0.4820
  554TMC3    C5 8272   1.935   1.273  11.716 -0.1752 -0.0061 -0.1955
  554TMC3    C6 8273   1.819   1.277  11.644 -0.0542  0.6934 -0.9695
  554TMC3     C 8274   1.943   0.940  11.875  0.4776 -1.0079  0.2277
  554TMC3     O 8275   1.854   0.864  11.909 -0.3105 -0.2804  0.5031
  554TMC3     H 8276   1.711   0.969  11.727  2.1003 -1.4957 -3.0608
  554TMC3    H1 8277   2.065   1.167  11.847  0.1964 -1.1292 -1.3593
  554TMC3    H2 8278   1.795   1.361  11.579 -0.5491  1.1663 -0.1883
  554TMC3    C7 8279   2.027   1.372  11.673  0.1287  0.6873  1.2830
  554TMC3    C8 8280   1.676   1.143  11.529  0.4569 -0.4096 -0.5064
  554TMC3    O1 8281   1.998   1.436  11.570 -0.3056 -0.0389 -0.6740
  554TMC3    O2 8282   1.748   1.183  11.437  0.9188  0.2534 -0.7174
  555TMC3    C1 8283   1.404   0.141  15.467 -0.1992 -0.5318 -0.2356
  555TMC3    C2 8284   1.403   0.264  15.512 -0.4485 -0.3948  0.1237
  555TMC3    C3 8285   1.408   0.296  15.641 -0.6771  0.5880 -1.2452
  555TMC3    C4 8286   1.437   0.047  15.563 -0.1743 -0.4773  0.5461
  555TMC3    C5 8287   1.444   0.074  15.694 -0.1691 -0.4896  0.2238
  555TMC3    C6 8288   1.412   0.201  15.735  0.1653 -0.2580 -0.7557
  555TMC3     C 8289   1.405   0.118  15.326 -0.9133  0.0319 -0.1585
  555TMC3     O 8290   1.498   0.054  15.278  0.2975  0.3713  0.4150
  555TMC3     H 8291   1.413   0.348  15.444 -0.0194 -1.3760 -1.0187
  555TMC3    H1 8292   1.464   4.687  15.519 -1.1168 -0.8136  0.7098
  555TMC3    H2 8293   1.395   0.218  15.841  1.7518 -2.5036 -0.1415
  555TMC3    C7 8294   1.407   4.691  15.772 -0.5118 -0.4173 -0.0476
  555TMC3    C8 8295   1.390   0.433  15.678  0.2294  0.5346  0.6342
  555TMC3    O1 8296   1.346   4.604  15.712 -0.3151  0.2718  0.5695
  555TMC3    O2 8297   1.330   0.502  15.596  0.4591 -0.1573 -0.1670
  556MPD2     C 8298   3.752   2.577  10.832 -0.5945 -0.0138  0.4245
  556MPD2    C1 8299   3.767   2.504  10.949 -0.5610  0.1312  0.3024
  556MPD2    C2 8300   3.794   2.369  10.939  0.0703  0.5140 -0.1005
  556MPD2    C3 8301   3.817   2.313  10.816  0.4774 -0.3489 -0.6345
  556MPD2    C4 8302   3.800   2.386  10.705 -0.3597 -0.6590  0.2469
  556MPD2    C5 8303   3.774   2.521  10.716 -0.1875  0.1426  0.8664
  556MPD2     H 8304   3.813   2.316  11.032  1.4523  1.2881  0.0692
  556MPD2    H1 8305   3.817   2.345  10.606  0.1334  0.0045  0.0554
  556MPD2    H2 8306   3.724   2.682  10.824 -0.1879  0.0209 -0.5385
  556MPD2    H3 8307   3.774   2.581  10.625 -2.7780 -1.6050 -0.2901
  556MPD2     N 8308   3.848   2.173  10.811 -0.2202 -0.3757  0.0161
  556MPD2    H5 8309   3.879   2.129  10.897  2.5286  1.7028  0.1037
  556MPD2    N1 8310   3.719   2.546  11.070  0.0183 -0.4327 -0.7063
  556MPD2    H7 8311   3.726   2.475  11.143  0.4821  0.5641  0.2106
  557TMC3    C1 8312   3.932   1.962  10.718 -0.5654 -0.7547  0.4091
  557TMC3    C2 8313   3.953   1.883  10.608  0.6362 -0.4441 -0.4860
  557TMC3    C3 8314   4.008   1.759  10.629  0.0930 -0.2963 -0.2209
  557TMC3    C4 8315   3.957   1.928  10.840 -0.1674  0.4279 -0.4379
  557TMC3    C5 8316   4.013   1.801  10.857  0.6471  0.7787  0.0216
  557TMC3    C6 8317   4.043   1.711  10.754 -0.3943  0.4171 -0.4040
  557TMC3     C 8318   3.875   2.099  10.697 -0.2471  0.4301 -0.3417
  557TMC3     O 8319   3.840   2.130  10.582  0.1932  0.1749 -0.2720
  557TMC3     H 8320   3.934   1.927  10.511  0.1311 -0.8280 -0.5573
  557TMC3    H1 8321   3.960   1.998  10.923  2.0044  0.4330 -0.5138
  557TMC3    H2 8322   4.087   1.614  10.774 -0.7802  0.7821  2.2097
  557TMC3    C7 8323   4.021   1.747  10.984 -0.2701 -0.4062  0.0892
  557TMC3    C8 8324   3.995   1.664  10.514  0.0287 -0.1929 -0.2128
  557TMC3    O1 8325   4.100   1.656  10.999  0.5836  0.3039 -0.3842
  557TMC3    O2 8326   3.963   1.716  10.412 -0.1478  0.4862 -0.1498
  558TMC3    C1 8327   1.868   0.355  10.647  0.3459 -0.4011  0.2653
  558TMC3    C2 8328   1.754   0.394  10.716  0.7755 -0.5210 -0.4780
  558TMC3    C3 8329   1.644   0.437  10.643 -0.2944 -0.4474 -0.6336
  558TMC3    C4 8330   1.884   0.389  10.517 -0.2568 -0.4120 -0.0078
  558TMC3    C5 8331   1.776   0.423  10.452  0.1530  0.5625  0.0444
  558TMC3    C6 8332   1.647   0.440  10.504  0.1873  0.1562  0.1039
  558TMC3     C 8333   1.982   0.298  10.718  0.7437 -0.1654 -0.3315
  558TMC3     O 8334   2.095   0.334  10.682  0.2655 -0.4935 -0.4088
  558TMC3     H 8335   1.765   0.400  10.823 -0.3237  0.9378 -0.4367
  558TMC3    H1 8336   1.974   0.355  10.467 -1.3977 -3.7882  0.1812
  558TMC3    H2 8337   1.567   0.468  10.437 -1.5487  0.9094  2.4745
  558TMC3    C7 8338   1.803   0.445  10.309 -0.5316  0.3319 -0.0992
  558TMC3    C8 8339   1.511   0.439  10.704 -0.3269 -0.7721 -0.4640
  558TMC3    O1 8340   1.916   0.481  10.277 -0.0219  0.2913 -0.0868
  558TMC3    O2 8341   1.421   0.462  10.625 -0.3653  0.0720  0.9468
  559MPD2     C 8342   1.852   0.762  10.694  0.2139 -0.2380 -0.2486
  559MPD2    C1 8343   1.782   0.742  10.816 -1.0516 -0.0385 -0.2789
  559MPD2    C2 8344   1.861   0.696  10.923 -0.5263  0.5197  0.6087
  559MPD2    C3 8345   2.000   0.680  10.918  0.5153  0.1631 -0.5331
  559MPD2    C4 8346   2.059   0.697  10.797 -0.8186 -0.1972  0.5102
  559MPD2    C5 8347   1.983   0.731  10.686 -0.2533 -0.0372  0.8613
  559MPD2     H 8348   1.817   0.678  11.021 -0.0281  0.4301  0.8171
  559MPD2    H1 8349   2.166   0.681  10.790 -0.7660  0.8719 -1.2614
  559MPD2    H2 8350   1.794   0.795  10.609  2.1764  0.1060 -1.4702
  559MPD2    H3 8351   2.031   0.744  10.590  0.3459 -0.6774  1.0761
  559MPD2     N 8352   2.067   0.630  11.033 -0.3940  0.1476 -0.8799
  559MPD2    H5 8353   2.007   0.620  11.115 -1.9155  1.1009 -1.8647
  559MPD2    N1 8354   1.639   0.753  10.810 -0.4588  0.6278  0.2839
  559MPD2    H7 8355   1.606   0.782  10.719 -0.4955 -2.0979 -0.5701
  560TMC3    C1 8356   2.232   0.526  11.164  0.0539  0.5667 -0.2825
  560TMC3    C2 8357   2.151   0.440  11.231  0.7169 -0.4550  0.8423
  560TMC3    C3 8358   2.185   0.389  11.346  0.3814  0.1557 -0.6753
  560TMC3    C4 8359   2.361   0.550  11.196 -0.0778 -0.1321  0.0588
  560TMC3    C5 8360   2.392   0.501  11.323 -0.4229  0.0072 -0.1459
  560TMC3    C6 8361   2.302   0.423  11.396 -0.3194 -0.1625  0.7104
  560TMC3     C 8362   2.194   0.586  11.040 -0.2464  0.6081  0.0700
  560TMC3     O 8363   2.289   0.606  10.966 -0.0047  0.6342  0.7763
  560TMC3     H 8364   2.049   0.430  11.195  0.5596 -0.5827  1.3294
  560TMC3    H1 8365   2.430   0.614  11.142 -0.0142 -0.6762 -0.4930
  560TMC3    H2 8366   2.328   0.405  11.500  2.0192  1.6974  0.4530
  560TMC3    C7 8367   2.528   0.483  11.364  0.5684 -0.1054  0.1230
  560TMC3    C8 8368   2.078   0.310  11.401  0.1313  0.1279  0.6361
  560TMC3    O1 8369   2.552   0.397  11.446 -0.8373  0.4266  0.2775
  560TMC3    O2 8370   1.975   0.283  11.337  0.3383  0.1976  0.3264
  561TMC3    C1 8371   4.154   4.498  11.489 -0.1502  0.4073  0.1830
  561TMC3    C2 8372   4.064   4.438  11.572 -0.1476  0.2385 -0.3279
  561TMC3    C3 8373   4.039   4.495  11.699  0.2706  0.0982 -0.1099
  561TMC3    C4 8374   4.228   4.602  11.539 -0.4721  0.1799 -0.6157
  561TMC3    C5 8375   4.219   4.640  11.671 -0.4322 -0.0350  0.6112
  561TMC3    C6 8376   4.116   4.597  11.749  0.8872 -0.3702  0.1493
  561TMC3     C 8377   4.146   4.477  11.345 -0.4549  0.3144  0.1550
  561TMC3     O 8378   4.035   4.495  11.295  0.3403  0.3433  0.3753
  561TMC3     H 8379   3.991   4.365  11.539  1.9653 -1.0852 -2.0048
  561TMC3    H1 8380   4.305   4.647  11.477 -1.5363  0.9205 -1.3911
  561TMC3    H2 8381   4.101   4.635  11.849 -1.7784 -1.2137  0.0775
  561TMC3    C7 8382   4.257   0.039  11.698 -0.9282 -0.6968  0.0620
  561TMC3    C8 8383   3.950   4.421  11.791  0.5188 -0.8888 -0.0817
  561TMC3    O1 8384   4.176   0.096  11.766  0.3577 -0.2737  0.0013
  561TMC3    O2 8385   3.915   4.304  11.760  0.7047  0.3890  0.2350
  562TMC3    C1 8386   1.040   0.725  16.174  0.0816 -0.2063  0.1401
  562TMC3    C2 8387   0.994   0.780  16.057 -0.6580 -0.7013  0.4981
  562TMC3    C3 8388   1.019   0.711  15.945  0.2865 -0.3254  0.3383
  562TMC3    C4 8389   1.095   0.598  16.175 -0.2342  0.5250  0.0328
  562TMC3    C5 8390   1.101   0.529  16.056  0.1584 -0.1065 -0.1537
  562TMC3    C6 8391   1.079   0.587  15.936 -0.4807  0.3194 -0.3917
  562TMC3     C 8392   1.015   0.791  16.304 -0.2255  0.3584 -1.2043
  562TMC3     O 8393   1.009   0.719  16.400  0.1425 -0.2770  0.5281
  562TMC3     H 8394   0.929   0.866  16.053  1.3245  0.8016  0.3780
  562TMC3    H1 8395   1.114   0.559  16.275  0.3691  1.6025  0.3390
  562TMC3    H2 8396   1.097   0.543  15.839  1.8298  0.8574 -0.2042
  562TMC3    C7 8397   1.133   0.390  16.052  0.2592 -0.1876  0.2470
  562TMC3    C8 8398   1.012   0.792  15.819 -0.1295  0.5962  0.7844
  562TMC3    O1 8399   1.172   0.342  15.943  0.3498 -0.3478 -0.2395
  562TMC3    O2 8400   0.953   0.900  15.830 -0.4895 -0.1380  0.1057
  563MPD2     C 8401   3.445   2.092  15.835  0.1268 -0.3475 -0.3912
  563MPD2    C1 8402   3.413   2.145  15.963 -0.4122 -0.0384  0.0269
  563MPD2    C2 8403   3.517   2.161  16.053  0.7001 -0.3646 -0.1630
  563MPD2    C3 8404   3.642   2.108  16.022 -0.5807 -0.4002 -0.4135
  563MPD2    C4 8405   3.674   2.054  15.896 -0.1685 -0.0703  0.8716
  563MPD2    C5 8406   3.579   2.061  15.797  0.7154  0.2510  0.6820
  563MPD2     H 8407   3.499   2.202  16.151 -0.7348  0.5223 -0.7886
  563MPD2    H1 8408   3.777   2.024  15.880 -0.7744 -1.9083  0.4164
  563MPD2    H2 8409   3.360   2.090  15.768 -0.4688  1.0484  0.3121
  563MPD2    H3 8410   3.611   2.024  15.700 -1.8244  0.8686 -0.3919
  563MPD2     N 8411   3.731   2.106  16.134  0.3606  0.7022 -0.6802
  563MPD2    H5 8412   3.694   2.149  16.218  0.2785 -2.6764  1.0060
  563MPD2    N1 8413   3.283   2.171  16.015  0.4452 -0.1086 -0.0032
  563MPD2    H7 8414   3.274   2.216  16.106 -2.3375  1.3470 -0.9882
  564TMC3    C1 8415   3.070   2.082  16.072  0.4637  0.7633  0.2494
  564TMC3    C2 8416   2.947   2.023  16.035  0.1330 -0.1015 -0.0186
  564TMC3    C3 8417   2.887   1.940  16.125 -0.4426  0.1229 -0.0528
  564TMC3    C4 8418   3.121   2.068  16.200  0.1627  0.0956 -0.8483
  564TMC3    C5 8419   3.053   1.994  16.292 -0.2799 -0.5155 -0.0859
  564TMC3    C6 8420   2.931   1.939  16.256 -0.3658  1.0602  0.2663
  564TMC3     C 8421   3.172   2.107  15.968 -0.3154  0.1636 -0.4737
  564TMC3     O 8422   3.149   2.054  15.863  0.1550  0.0519  0.2770
  564TMC3     H 8423   2.913   2.009  15.933  0.0050  0.8818 -0.1024
  564TMC3    H1 8424   3.221   2.090  16.236  0.2169 -0.9658 -0.3737
  564TMC3    H2 8425   2.891   1.875  16.333  0.2188 -1.3652 -1.4211
  564TMC3    C7 8426   3.136   1.904  16.370  0.0359  0.0850 -0.3050
  564TMC3    C8 8427   2.841   1.808  16.085 -0.4636  0.5852 -0.0890
  564TMC3    O1 8428   3.223   1.951  16.439  0.3385  0.1271  0.3036
  564TMC3    O2 8429   2.860   1.723  16.170  0.4396  0.0286 -0.0771
  565TMC3    C1 8430   3.720   4.126  10.147 -0.3332  1.0265 -0.1157
  565TMC3    C2 8431   3.675   4.044  10.257  0.2282  0.0591  0.3093
  565TMC3    C3 8432   3.572   3.959  10.229 -0.0536  0.2395  0.2605
  565TMC3    C4 8433   3.675   4.108  10.022  0.0744  0.7620  0.0602
  565TMC3    C5 8434   3.584   4.010  10.000  0.7578  0.0967  0.4427
  565TMC3    C6 8435   3.542   3.929  10.098  0.3876  0.3351 -0.0868
  565TMC3     C 8436   3.814   4.237  10.162  0.3873  0.9977 -0.4626
  565TMC3     O 8437   3.823   4.318  10.069  0.2007  0.4773  0.2302
  565TMC3     H 8438   3.707   4.057  10.360 -3.1208  1.6326  1.1422
  565TMC3    H1 8439   3.722   4.171   9.947  0.0140  0.7261 -0.0083
  565TMC3    H2 8440   3.457   3.865  10.077 -0.3311 -0.0005  3.8714
  565TMC3    C7 8441   3.505   4.010   9.878 -0.6937 -0.2080 -0.5156
  565TMC3    C8 8442   3.523   3.883  10.341  0.4701  0.3508  0.1706
  565TMC3    O1 8443   3.444   3.907   9.841 -0.7858  0.2591 -0.3272
  565TMC3    O2 8444   3.549   3.932  10.450  0.2885  0.1368 -0.5897
  566MPD2     C 8445   0.591   0.106  14.784 -0.2333 -0.2071  0.7751
  566MPD2    C1 8446   0.690   0.071  14.690  0.5874  0.4970 -0.9208
  566MPD2    C2 8447   0.668   0.130  14.565 -0.7877 -0.5792 -0.5423
  566MPD2    C3 8448   0.560   0.212  14.536 -0.1435 -0.1906  0.1725
  566MPD2    C4 8449   0.460   0.230  14.630  0.2712  0.4411  1.4014
  566MPD2    C5 8450   0.471   0.170  14.755  0.0003  0.1446  0.1977
  566MPD2     H 8451   0.735   0.119  14.481  0.0361  2.5409 -0.3181
  566MPD2    H1 8452   0.378   0.301  14.625 -0.7853 -0.9066 -0.6030
  566MPD2    H2 8453   0.603   0.067  14.884  0.5142 -0.1168  0.7237
  566MPD2    H3 8454   0.395   0.182  14.831  1.8570  1.6319  1.8052
  566MPD2     N 8455   0.557   0.258  14.402 -0.4125 -0.2011 -0.4057
  566MPD2    H5 8456   0.633   0.220  14.346  2.3536 -0.1171  3.2738
  566MPD2    N1 8457   0.813   0.004  14.723 -0.3162 -0.1731 -0.3975
  566MPD2    H7 8458   0.844   4.725  14.818 -0.1162 -2.6678 -0.8549
  567TMC3    C1 8459   1.036   4.675  14.671  0.5369  0.0868  0.3299
  567TMC3    C2 8460   1.126   4.676  14.569 -0.4962 -0.2986  0.1429
  567TMC3    C3 8461   1.253   4.641  14.602  0.0307  0.5126  0.5886
  567TMC3    C4 8462   1.060   4.629  14.795  0.1167  0.1477  0.8280
  567TMC3    C5 8463   1.198   4.603  14.824 -0.2559  0.5372 -0.5179
  567TMC3    C6 8464   1.295   4.613  14.730  0.3649  0.1370  0.7995
  567TMC3     C 8465   0.903   4.711  14.623 -0.3982 -0.7481  0.0396
  567TMC3     O 8466   0.886   4.689  14.505  0.1769 -0.6703 -0.0134
  567TMC3     H 8467   1.102   4.707  14.468  0.1154 -3.7266 -1.0588
  567TMC3    H1 8468   0.975   4.601  14.857 -0.7448  1.7378  0.3830
  567TMC3    H2 8469   1.400   4.613  14.754  0.2557  1.4262  1.2901
  567TMC3    C7 8470   1.239   4.595  14.960 -0.3255  0.0091 -0.3685
  567TMC3    C8 8471   1.341   4.710  14.519 -0.0965 -1.3646 -0.5303
  567TMC3    O1 8472   1.356   4.558  14.976  0.0166 -0.5897 -0.9196
  567TMC3    O2 8473   1.302   0.089  14.496 -0.5656  0.2978 -0.8446
  568MPD2     C 8474   2.503   0.338  16.445  0.1018 -0.3438 -0.2362
  568MPD2    C1 8475   2.517   0.435  16.544 -0.5147 -0.4492  0.0730
  568MPD2    C2 8476   2.485   0.571  16.524 -0.5992  0.5936  0.8206
  568MPD2    C3 8477   2.472   0.611  16.395 -0.3612  0.3927 -0.3064
  568MPD2    C4 8478   2.468   0.514  16.292  0.0044  0.6528  0.0263
  568MPD2    C5 8479   2.473   0.385  16.325 -0.2297 -0.3622  0.0003
  568MPD2     H 8480   2.495   0.648  16.600  1.0966  0.8296  0.3718
  568MPD2    H1 8481   2.457   0.540  16.187  0.3154  2.4699  0.4402
  568MPD2    H2 8482   2.528   0.233  16.457 -1.2752 -0.5135  1.0675
  568MPD2    H3 8483   2.464   0.317  16.240 -2.0720  2.0303 -1.6992
  568MPD2     N 8484   2.480   0.746  16.362 -0.3686 -0.0674  0.0269
  568MPD2    H5 8485   2.492   0.817  16.434  0.1420  0.4134 -0.5333
  568MPD2    N1 8486   2.571   0.396  16.665 -0.6735  0.2195  0.3773
  568MPD2    H7 8487   2.610   0.303  16.675  1.9304  1.2029 -0.7071
  569TMC3    C1 8488   2.498   0.946  16.239 -0.2432 -0.0183 -0.0200
  569TMC3    C2 8489   2.521   1.005  16.366 -0.6871  0.0331  0.4571
  569TMC3    C3 8490   2.569   1.130  16.366 -0.5461  0.3712 -0.4861
  569TMC3    C4 8491   2.515   1.021  16.122 -0.1224  0.0724  0.0079
  569TMC3    C5 8492   2.561   1.149  16.122 -0.7857  0.4892 -0.9403
  569TMC3    C6 8493   2.588   1.201  16.246  0.4308  0.5997 -0.2594
  569TMC3     C 8494   2.475   0.807  16.238 -0.2959  0.4218  0.3425
  569TMC3     O 8495   2.479   0.757  16.128 -0.5971  0.2999  0.4269
  569TMC3     H 8496   2.521   0.945  16.456  1.7186  0.6204  0.8735
  569TMC3    H1 8497   2.489   0.979  16.026 -0.5921  5.3381 -2.1737
  569TMC3    H2 8498   2.635   1.299  16.252  1.7080  0.0417 -1.2860
  569TMC3    C7 8499   2.577   1.226  15.996 -0.6809  0.3696  0.4677
  569TMC3    C8 8500   2.582   1.190  16.494 -0.3485 -0.4602 -0.1108
  569TMC3    O1 8501   2.516   1.178  15.899  0.1604 -0.0841  0.0966
  569TMC3    O2 8502   2.510   1.157  16.586 -0.1679 -0.2378 -0.0842
  570TMC3    C1 8503   2.247   4.181  16.405 -0.7308 -0.2617 -0.3262
  570TMC3    C2 8504   2.352   4.188  16.317  0.1853 -0.1639 -0.3902
  570TMC3    C3 8505   2.423   4.306  16.318  0.3492  0.5686  0.0377
  570TMC3    C4 8506   2.219   4.279  16.488  0.3781 -0.4126 -0.1523
  570TMC3    C5 8507   2.297   4.390  16.490  0.2161  0.0114 -0.3984
  570TMC3    C6 8508   2.396   4.410  16.394 -0.1524  0.1525  0.6863
  570TMC3     C 8509   2.191   4.051  16.427  0.0404 -0.1541 -0.4284
  570TMC3     O 8510   2.168   3.987  16.323 -0.2394  0.1779  0.0605
  570TMC3     H 8511   2.373   4.099  16.260  2.3078 -0.2882  0.6052
  570TMC3    H1 8512   2.138   4.273  16.561  1.9703  0.6520  1.6883
  570TMC3    H2 8513   2.470   4.490  16.396  2.3831 -2.1714 -0.9049
  570TMC3    C7 8514   2.281   4.479  16.604  0.1592 -0.5243 -0.9315
  570TMC3    C8 8515   2.518   4.333  16.211  0.1033 -0.3170 -0.4123
  570TMC3    O1 8516   2.213   4.441  16.700 -0.0322 -0.1947 -0.3333
  570TMC3    O2 8517   2.588   4.432  16.219  0.1730 -1.1445 -0.2941
  571MPD2     C 8518   4.317   1.337   0.250 -0.0271  0.4763  0.1116
  571MPD2    C1 8519   4.440   1.324   0.190  0.2864 -0.1425 -0.1115
  571MPD2    C2 8520   4.532   1.428   0.215 -0.2682 -0.1727 -0.5270
  571MPD2    C3 8521   4.489   1.547   0.278 -0.4355 -0.0620 -0.1388
  571MPD2    C4 8522   4.365   1.554   0.333 -0.2245 -0.2861  0.3571
  571MPD2    C5 8523   4.279   1.450   0.317  0.1517 -0.0509  0.4270
  571MPD2     H 8524   4.627   1.433   0.163  0.6738  0.6361  1.2407
  571MPD2    H1 8525   4.338   1.641   0.390  0.1955 -0.0085  0.1386
  571MPD2    H2 8526   4.240   1.261   0.238  0.5022  0.3854 -2.8602
  571MPD2    H3 8527   4.182   1.450   0.365 -0.8991  4.4713 -1.7783
  571MPD2     N 8528   4.579   1.657   0.309 -0.8065 -0.2894  0.1109
  571MPD2    H5 8529   4.537   1.735   0.358 -0.0280 -0.2753  0.7521
  571MPD2    N1 8530   4.471   1.208   0.119 -0.1246  0.0140 -0.6493
  571MPD2    H7 8531   4.401   1.136   0.135 -0.7438  0.6368 -0.6041
  572TMC3    C1 8532   0.036   1.790   0.307  0.4374 -0.1756  0.1883
  572TMC3    C2 8533   0.182   1.786   0.326 -0.2057 -0.2295  0.0405
  572TMC3    C3 8534   0.245   1.900   0.367 -0.1506  0.1366  0.7633
  572TMC3    C4 8535   4.702   1.900   0.341  0.4023  0.9906  0.2087
  572TMC3    C5 8536   0.032   1.995   0.409  0.2416  0.1677 -0.6599
  572TMC3    C6 8537   0.169   2.002   0.418 -0.2026 -0.0593  0.3679
  572TMC3     C 8538   4.713   1.661   0.272 -0.5092 -0.8690 -0.4851
  572TMC3     O 8539   0.056   1.572   0.242  0.0650  0.0061  0.1390
  572TMC3     H 8540   0.239   1.707   0.278  1.1566  1.6925 -1.4895
  572TMC3    H1 8541   4.595   1.908   0.327  0.1951  0.0773  1.2053
  572TMC3    H2 8542   0.219   2.098   0.428  0.3651 -0.2619 -0.4942
  572TMC3    C7 8543   4.706   2.125   0.390 -0.1081 -0.1133 -0.4117
  572TMC3    C8 8544   0.385   1.921   0.338  0.3216  0.2531 -0.1571
  572TMC3    O1 8545   4.630   2.137   0.296 -0.1606 -0.0474  0.1450
  572TMC3    O2 8546   0.418   2.035   0.360  0.0442 -0.4621  0.6469
  573MPD2     C 8547   1.525   1.982  17.617  0.6755  0.7236  0.4386
  573MPD2    C1 8548   1.397   2.033  17.632 -0.5381 -0.9036 -0.6504
  573MPD2    C2 8549   1.289   1.955  17.583 -1.0858  0.2297 -0.5940
  573MPD2    C3 8550   1.306   1.827  17.537 -0.4125 -0.2496  0.3206
  573MPD2    C4 8551   1.432   1.783  17.514  0.1349  0.7394  0.5424
  573MPD2    C5 8552   1.533   1.856  17.560  0.3218  0.2332  0.4328
  573MPD2     H 8553   1.194   2.001  17.606 -0.8500 -0.8497  2.4707
  573MPD2    H1 8554   1.455   1.683  17.480 -0.3997  1.6646 -2.5664
  573MPD2    H2 8555   1.621   2.022  17.648  0.1307 -0.0984  3.1480
  573MPD2    H3 8556   1.631   1.813  17.548 -0.1520 -0.8253  0.2994
  573MPD2     N 8557   1.195   1.740  17.523  0.1608 -0.4058  0.3058
  573MPD2    H5 8558   1.209   1.643  17.496 -0.9299 -0.8926  1.4861
  573MPD2    N1 8559   1.367   2.151  17.702 -0.9270 -0.3714  0.1881
  573MPD2    H7 8560   1.272   2.164  17.736 -0.3801  3.0149  0.4172
  574TMC3    C1 8561   0.982   1.659  17.552 -0.5300  0.3935  0.1476
  574TMC3    C2 8562   0.861   1.690  17.504 -0.5771 -0.6900  0.3199
  574TMC3    C3 8563   0.756   1.658  17.589  0.0003  0.5253 -1.1037
  574TMC3    C4 8564   1.007   1.588  17.660 -0.4278  0.0091  0.1435
  574TMC3    C5 8565   0.906   1.541  17.729 -0.7196 -0.7980 -0.1354
  574TMC3    C6 8566   0.782   1.578  17.700 -0.1378 -0.6332 -0.4378
  574TMC3     C 8567   1.064   1.778  17.549  0.4043  0.2204 -0.5856
  574TMC3     O 8568   1.013   1.888  17.568  0.1930 -0.3719  0.1653
  574TMC3     H 8569   0.845   1.737  17.408 -1.2673 -0.1255  0.7092
  574TMC3    H1 8570   1.109   1.562  17.688 -0.6864 -0.7106  0.4094
  574TMC3    H2 8571   0.691   1.556   0.013 -0.2490 -0.4127 -0.5338
  574TMC3    C7 8572   0.926   1.425   0.076 -0.4036 -0.2225 -0.5787
  574TMC3    C8 8573   0.658   1.760  17.601  0.1888  0.7259 -0.2655
  574TMC3    O1 8574   1.040   1.391   0.090 -0.4499  0.7824 -0.1906
  574TMC3    O2 8575   0.556   1.735  17.663 -0.5594 -0.0349 -0.0313
  575TMC3    C1 8576   3.674   3.655  11.159 -0.0118 -0.6559 -0.0420
  575TMC3    C2 8577   3.627   3.545  11.222  0.1857  0.3819 -0.4606
  575TMC3    C3 8578   3.573   3.443  11.140 -0.1682  0.2933 -0.2783
  575TMC3    C4 8579   3.639   3.676  11.029  0.8319  0.3836  0.5064
  575TMC3    C5 8580   3.565   3.589  10.953  0.4239 -0.3632 -0.5529
  575TMC3    C6 8581   3.547   3.467  11.009  0.1516  0.2989  0.2183
  575TMC3     C 8582   3.746   3.753  11.240  0.4172 -0.1917 -0.3894
  575TMC3     O 8583   3.724   3.762  11.363  0.4149 -0.6354 -0.5256
  575TMC3     H 8584   3.645   3.536  11.329 -0.2007 -2.3961 -0.6065
  575TMC3    H1 8585   3.652   3.778  10.994 -0.2070  0.5467  0.6042
  575TMC3    H2 8586   3.504   3.392  10.945 -1.8024  1.1721  0.5103
  575TMC3    C7 8587   3.529   3.628  10.815  0.5009  0.1167 -0.3929
  575TMC3    C8 8588   3.530   3.325  11.209  0.2041 -0.4439 -0.1528
  575TMC3    O1 8589   3.567   3.744  10.781 -0.4896 -0.4235  0.4496
  575TMC3    O2 8590   3.602   3.294  11.304  0.3579  0.3097 -0.8048
  576MPD2     C 8591   3.219   4.626  12.900 -0.2217 -0.1405  0.4360
  576MPD2    C1 8592   3.306   4.734  12.902  0.6305  0.5477 -0.0787
  576MPD2    C2 8593   3.324   0.071  13.022 -0.0422  0.5281  0.2196
  576MPD2    C3 8594   3.264   0.031  13.140  0.0733 -0.1362  0.5214
  576MPD2    C4 8595   3.188   4.648  13.132 -0.4371 -0.7715 -0.0496
  576MPD2    C5 8596   3.166   4.583  13.017  0.2478  0.5025  0.3208
  576MPD2     H 8597   3.399   0.149  13.023 -0.0427  0.5247  0.5337
  576MPD2    H1 8598   3.136   4.610  13.220 -0.0489 -1.7436 -0.2522
  576MPD2    H2 8599   3.193   4.577  12.807 -0.0083 -1.2586  0.9511
  576MPD2    H3 8600   3.098   4.499  13.025  1.3014 -0.4429 -0.6225
  576MPD2     N 8601   3.280   0.097  13.266  0.0519  0.3500  0.4219
  576MPD2    H5 8602   3.352   0.169  13.273  1.2287 -0.6469 -1.4297
  576MPD2    N1 8603   3.361   0.039  12.778  0.3464 -0.0387  0.1975
  576MPD2    H7 8604   3.352   4.719  12.693  1.3772 -1.8610  1.2864
  577TMC3    C1 8605   3.529   0.131  12.657 -0.0260 -1.0301  0.1527
  577TMC3    C2 8606   3.565   0.003  12.602 -0.6016 -0.6134  0.0374
  577TMC3    C3 8607   3.659   4.728  12.506 -0.5881  0.2514 -0.2950
  577TMC3    C4 8608   3.585   0.242  12.606  0.2607 -0.0995  0.3117
  577TMC3    C5 8609   3.687   0.228  12.519 -0.3049 -0.5957 -0.1274
  577TMC3    C6 8610   3.726   0.105  12.471  0.2767  0.4080  0.5091
  577TMC3     C 8611   3.439   0.147  12.767 -0.2987  0.3257  0.4228
  577TMC3     O 8612   3.446   0.250  12.834 -0.3450 -0.4750  0.0283
  577TMC3     H 8613   3.525   4.645  12.639  0.2368 -0.6084  0.9497
  577TMC3    H1 8614   3.557   0.346  12.619  2.7141  0.5894 -0.0430
  577TMC3    H2 8615   3.806   0.109  12.398 -1.0041  1.2798 -0.8462
  577TMC3    C7 8616   3.784   0.337  12.502  0.6915  0.7341  0.3257
  577TMC3    C8 8617   3.682   4.599  12.450 -0.6155 -0.4867  0.9030
  577TMC3    O1 8618   3.877   0.351  12.577 -0.2939  0.3776 -0.5126
  577TMC3    O2 8619   3.618   4.505  12.493 -0.3239 -0.2195  0.3087
  578MPD2     C 8620   1.700   4.603   1.195 -0.0126  0.0981 -0.3458
  578MPD2    C1 8621   1.764   4.514   1.111 -0.5010 -0.3206 -0.1891
  578MPD2    C2 8622   1.867   4.435   1.165  0.4086 -0.4177  0.5644
  578MPD2    C3 8623   1.921   4.461   1.287  0.3662 -0.0183  0.9205
  578MPD2    C4 8624   1.852   4.540   1.373 -0.5351 -0.0915 -0.4378
  578MPD2    C5 8625   1.744   4.614   1.326  0.3340 -0.0562 -0.8963
  578MPD2     H 8626   1.933   4.366   1.113  0.0526  0.3526 -0.9025
  578MPD2    H1 8627   1.880   4.556   1.476  1.2329  0.0388 -0.9397
  578MPD2    H2 8628   1.620   4.667   1.161  0.3845  0.2421 -1.0086
  578MPD2    H3 8629   1.691   4.688   1.386  0.4358 -0.6713 -0.0479
  578MPD2     N 8630   2.036   4.385   1.335 -0.4367  0.0985 -0.7165
  578MPD2    H5 8631   2.076   4.315   1.274 -2.0242 -1.3329 -0.1417
  578MPD2    N1 8632   1.715   4.505   0.976 -1.0516  0.6630 -0.0785
  578MPD2    H7 8633   1.634   4.564   0.959 -1.1816  0.0293 -1.6522
  579TMC3    C1 8634   2.198   4.294   1.489 -0.0863  0.0059 -0.1255
  579TMC3    C2 8635   2.292   4.351   1.566  0.4615  0.0319  0.0420
  579TMC3    C3 8636   2.427   4.317   1.549  0.4516 -0.1770  0.0629
  579TMC3    C4 8637   2.224   4.188   1.406  0.8913  0.2278 -0.1393
  579TMC3    C5 8638   2.361   4.152   1.392  0.1737  0.4514 -0.0751
  579TMC3    C6 8639   2.457   4.223   1.457  0.3639 -0.4060  0.2849
  579TMC3     C 8640   2.075   4.367   1.468  0.0200  1.1166 -0.4878
  579TMC3     O 8641   2.052   4.433   1.568  0.4068 -0.5633 -0.2364
  579TMC3     H 8642   2.272   4.437   1.629  1.7406 -0.5025  1.1851
  579TMC3    H1 8643   2.150   4.132   1.351  0.3183 -0.1490  1.0231
  579TMC3    H2 8644   2.556   4.179   1.460 -0.1472 -1.6362 -0.8565
  579TMC3    C7 8645   2.405   4.044   1.309  0.8420 -0.5881  0.6610
  579TMC3    C8 8646   2.523   4.411   1.600 -0.3166  0.4329 -1.1935
  579TMC3    O1 8647   2.509   3.986   1.340 -0.0426 -0.3027  0.2539
  579TMC3    O2 8648   2.491   4.475   1.702 -0.0895 -0.0454  0.6229
  580TMC3    C1 8649   1.414   3.747  11.816  0.5948 -0.1963  0.2474
  580TMC3    C2 8650   1.528   3.793  11.747 -0.4332  1.0760  0.4702
  580TMC3    C3 8651   1.577   3.721  11.644  0.8126  0.1193 -0.0712
  580TMC3    C4 8652   1.360   3.627  11.778  0.2646 -0.5362 -0.1413
  580TMC3    C5 8653   1.420   3.551  11.680  0.2263  0.1118  0.4496
  580TMC3    C6 8654   1.525   3.600  11.608 -0.7283  0.4702 -0.0527
  580TMC3     C 8655   1.350   3.821  11.925 -0.6306 -0.2032  0.6356
  580TMC3     O 8656   1.246   3.771  11.970  0.2597 -0.7059 -0.0316
  580TMC3     H 8657   1.582   3.881  11.779  0.3668  1.0343 -0.7598
  580TMC3    H1 8658   1.270   3.594  11.828 -1.5999  1.6906 -2.0112
  580TMC3    H2 8659   1.570   3.545  11.526  1.1809  0.2008  1.1547
  580TMC3    C7 8660   1.378   3.418  11.650 -0.1830 -0.0724  0.6771
  580TMC3    C8 8661   1.690   3.778  11.565  0.9800  0.1530 -0.1640
  580TMC3    O1 8662   1.387   3.370  11.538 -0.3235  0.6764 -0.0554
  580TMC3    O2 8663   1.706   3.729  11.453 -0.0794 -0.0940  0.1548
  581MPD2     C 8664   4.464   2.926  15.024  0.8942  0.0421 -0.1378
  581MPD2    C1 8665   4.331   2.927  15.059  0.0263  0.2243 -0.9269
  581MPD2    C2 8666   4.237   3.004  14.992 -0.4333  0.4473  0.4907
  581MPD2    C3 8667   4.282   3.091  14.901 -0.1313 -0.0804  0.2231
  581MPD2    C4 8668   4.416   3.089  14.859 -0.0391 -0.0110  0.1744
  581MPD2    C5 8669   4.501   3.012  14.922  0.0343  0.1366 -0.1874
  581MPD2     H 8670   4.133   3.007  15.025 -0.5288  0.8514  0.1493
  581MPD2    H1 8671   4.451   3.150  14.777 -1.4051 -0.9520 -1.1138
  581MPD2    H2 8672   4.537   2.856  15.062  1.6135  1.4995  1.1474
  581MPD2    H3 8673   4.604   3.028  14.892 -0.1906  0.2840 -0.8580
  581MPD2     N 8674   4.194   3.178  14.841 -0.7354  0.6354  0.0735
  581MPD2    H5 8675   4.100   3.182  14.881 -0.7797  4.0016 -0.3453
  581MPD2    N1 8676   4.288   2.845  15.167  0.4145  0.8762  0.2180
  581MPD2    H7 8677   4.362   2.795  15.214 -0.6775  1.1637  2.2301
  582TMC3    C1 8678   4.156   2.738  15.329 -0.2158  0.2193 -0.6226
  582TMC3    C2 8679   4.235   2.766  15.437 -0.7118  0.0619  0.7002
  582TMC3    C3 8680   4.206   2.705  15.555 -0.3613 -0.0448 -0.4637
  582TMC3    C4 8681   4.046   2.654  15.332 -0.7076 -0.1529 -0.3109
  582TMC3    C5 8682   4.022   2.601  15.456  0.0552 -0.2145  0.3882
  582TMC3    C6 8683   4.101   2.617  15.563 -0.1976 -0.0722  0.1447
  582TMC3     C 8684   4.161   2.822  15.210  0.2497 -0.1344  0.0400
  582TMC3     O 8685   4.047   2.849  15.169  0.2723 -0.7287 -0.4356
  582TMC3     H 8686   4.308   2.845  15.425 -0.8483  0.2723  1.2614
  582TMC3    H1 8687   3.978   2.634  15.251 -0.1590 -2.3231 -0.2511
  582TMC3    H2 8688   4.070   2.584  15.661  1.3188 -0.6445  0.4330
  582TMC3    C7 8689   3.880   2.594  15.492  0.1669 -0.3064  0.6244
  582TMC3    C8 8690   4.249   2.755  15.679  0.5211 -0.2901 -0.2463
  582TMC3    O1 8691   3.839   2.500  15.562 -0.4671 -0.4906  0.1141
  582TMC3    O2 8692   4.192   2.732  15.783  0.1947 -0.0027  0.1956
  583MPD2     C 8693   3.811   0.487  16.825 -0.2491 -0.0059  0.4251
  583MPD2    C1 8694   3.870   0.610  16.802 -0.3090  0.3440 -0.2222
  583MPD2    C2 8695   3.852   0.707  16.902 -0.1094 -0.0377  0.2746
  583MPD2    C3 8696   3.801   0.673  17.025  0.0794 -0.3546  0.0730
  583MPD2    C4 8697   3.747   0.542  17.045  0.4337 -0.0775 -0.0116
  583MPD2    C5 8698   3.739   0.455  16.938  0.2117 -0.6069 -0.7083
  583MPD2     H 8699   3.883   0.810  16.888 -0.0187 -0.3944 -2.0957
  583MPD2    H1 8700   3.726   0.507  17.146  0.7559 -1.2315 -0.3376
  583MPD2    H2 8701   3.825   0.404  16.756  1.3455 -1.1276  2.1090
  583MPD2    H3 8702   3.705   0.353  16.951  2.9494 -1.1668  2.0855
  583MPD2     N 8703   3.785   0.772  17.124  0.1515  0.3183 -0.7114
  583MPD2    H5 8704   3.792   0.871  17.101  0.9808  0.3061 -0.5221
  583MPD2    N1 8705   3.943   0.638  16.684  0.0194  0.0319  0.3040
  583MPD2    H7 8706   3.970   0.734  16.667 -0.5950  0.0442 -0.5560
  584TMC3    C1 8707   3.775   0.875  17.344  0.1686 -0.1202  0.0565
  584TMC3    C2 8708   3.838   0.987  17.306 -0.3996  0.2056 -0.0664
  584TMC3    C3 8709   3.864   1.081  17.398  0.5034 -0.7621  0.3126
  584TMC3    C4 8710   3.745   0.851  17.476 -0.9823 -0.4116  0.4125
  584TMC3    C5 8711   3.763   0.951  17.565 -0.7273 -0.2738  0.2982
  584TMC3    C6 8712   3.821   1.069  17.525 -0.0451  0.1371 -0.1920
  584TMC3     C 8713   3.758   0.753  17.262  0.3345  0.6894 -0.6178
  584TMC3     O 8714   3.725   0.653  17.318 -0.4835  0.2870  0.3179
  584TMC3     H 8715   3.861   1.005  17.202  1.0777 -0.7485  0.0894
  584TMC3    H1 8716   3.711   0.756  17.514 -1.3029  0.6005  2.6652
  584TMC3    H2 8717   3.863   1.132  17.603 -1.6590  1.7954 -0.6543
  584TMC3    C7 8718   3.715   0.939  17.702 -0.3474  0.1381  0.5216
  584TMC3    C8 8719   3.896   1.214  17.357 -0.4012 -0.2661  0.0752
  584TMC3    O1 8720   3.712   0.824  17.740  0.1875  0.1925 -0.1174
  584TMC3    O2 8721   3.861   1.240  17.242 -0.0427 -0.1466 -0.0010
  585MPD2     C 8722   3.556   3.737   0.704 -1.1192 -0.9804  0.4815
  585MPD2    C1 8723   3.613   3.778   0.585  0.6426  0.3283  0.0224
  585MPD2    C2 8724   3.594   3.711   0.467  0.4963  1.1220 -0.0742
  585MPD2    C3 8725   3.526   3.590   0.463 -0.0859  0.3315 -0.0021
  585MPD2    C4 8726   3.481   3.536   0.584  0.2775 -0.2067  0.3385
  585MPD2    C5 8727   3.493   3.616   0.696  0.2626 -1.0728 -0.3268
  585MPD2     H 8728   3.623   3.759   0.374  0.5738  0.4181 -0.4200
  585MPD2    H1 8729   3.434   3.438   0.592  0.6979 -0.6040 -2.2315
  585MPD2    H2 8730   3.566   3.797   0.794  0.7091 -0.1278 -0.3069
  585MPD2    H3 8731   3.457   3.573   0.789  1.0456  0.2629  0.5933
  585MPD2     N 8732   3.513   3.535   0.334  0.3549 -0.3134  0.2851
  585MPD2    H5 8733   3.544   3.591   0.255  0.5032 -1.0074 -0.1431
  585MPD2    N1 8734   3.689   3.900   0.573  0.0605 -0.0901  0.2868
  585MPD2    H7 8735   3.668   3.974   0.640  3.3585  1.5365 -0.4839
  586TMC3    C1 8736   3.446   3.400   0.164 -0.4045  0.5697  1.4559
  586TMC3    C2 8737   3.504   3.284   0.117  0.1671  0.3080  0.3691
  586TMC3    C3 8738   3.576   3.295  17.741  1.0480  0.4847  0.6881
  586TMC3    C4 8739   3.441   3.512   0.094  0.5609  0.1261 -0.6185
  586TMC3    C5 8740   3.515   3.523  17.720  0.4578  0.6977 -0.0312
  586TMC3    C6 8741   3.583   3.417  17.677 -0.4935 -0.7035 -0.4099
  586TMC3     C 8742   3.463   3.416   0.301  0.7990  0.0888  0.1296
  586TMC3     O 8743   3.453   3.322   0.375 -0.0942 -0.0706  1.0953
  586TMC3     H 8744   3.522   3.200   0.183 -0.1562 -0.6678 -0.8042
  586TMC3    H1 8745   3.376   3.590   0.132  1.2986  1.3812 -1.9232
  586TMC3    H2 8746   3.650   3.432  17.594 -0.3066 -0.7230 -0.2640
  586TMC3    C7 8747   3.454   3.604  17.619 -0.2736  0.0794  0.3408
  586TMC3    C8 8748   3.606   3.187  17.661  0.4892  0.0985 -1.0167
  586TMC3    O1 8749   3.520   3.636  17.524  0.3939  0.8536  0.0302
  586TMC3    O2 8750   3.647   3.206  17.547 -0.3742 -0.0156  0.3367
  587TMC3    C1 8751   0.921   2.978  16.254  0.3202  0.1963 -0.6174
  587TMC3    C2 8752   0.939   3.115  16.257  0.1739 -0.0729  0.4099
  587TMC3    C3 8753   1.061   3.175  16.222 -0.1198 -0.2511  0.3731
  587TMC3    C4 8754   1.015   2.893  16.201 -0.0967 -0.0421  0.1047
  587TMC3    C5 8755   1.134   2.955  16.156 -0.5102  1.2657 -0.2051
  587TMC3    C6 8756   1.157   3.094  16.164  0.0254 -0.0967 -0.7433
  587TMC3     C 8757   0.842   2.929  16.362 -0.2549 -0.4836 -0.1793
  587TMC3     O 8758   0.833   3.010  16.454 -0.0318 -0.3022 -0.0873
  587TMC3     H 8759   0.867   3.178  16.310  0.9891  1.6347 -0.5123
  587TMC3    H1 8760   1.009   2.787  16.221 -0.3613 -0.3004 -1.3291
  587TMC3    H2 8761   1.250   3.143  16.139  0.8244 -0.7528  0.9567
  587TMC3    C7 8762   1.242   2.862  16.141  0.1707 -0.5805 -0.1476
  587TMC3    C8 8763   1.112   3.256  16.331  0.3110 -0.6549  0.2038
  587TMC3    O1 8764   1.230   2.746  16.184  0.6056 -0.2895 -0.3224
  587TMC3    O2 8765   1.219   3.226  16.382 -0.4559  0.0879 -0.0178
  588TMC3    C1 8766   3.504   0.948  10.109 -0.4195 -0.5521  0.0527
  588TMC3    C2 8767   3.446   0.825  10.101 -0.5611 -0.4488 -0.3337
  588TMC3    C3 8768   3.478   0.723  10.196 -0.5445 -0.6687 -0.6796
  588TMC3    C4 8769   3.605   0.968  10.201  0.3760 -0.8651  0.1673
  588TMC3    C5 8770   3.643   0.864  10.280 -0.8106  0.4594  0.0612
  588TMC3    C6 8771   3.576   0.744  10.286 -0.8560 -0.1076 -0.4901
  588TMC3     C 8772   3.414   1.063  10.092 -0.2881  0.2466  0.0423
  588TMC3     O 8773   3.362   1.074   9.982 -0.3383  0.5188  0.0889
  588TMC3     H 8774   3.368   0.806  10.029  0.2817 -1.6193 -0.9355
  588TMC3    H1 8775   3.655   1.063  10.201 -0.9837 -0.1475  0.9494
  588TMC3    H2 8776   3.615   0.665  10.349 -0.8590  0.3023  0.0246
  588TMC3    C7 8777   3.722   0.892  10.402 -0.3759  0.5713 -0.5615
  588TMC3    C8 8778   3.407   0.596  10.188 -0.7895 -0.1824 -0.6780
  588TMC3    O1 8779   3.746   0.803  10.479 -0.3620 -0.1468 -0.5227
  588TMC3    O2 8780   3.297   0.587  10.126 -0.3200 -0.6285 -0.4391
  589TMC3    C1 8781   2.701   2.764   1.155  0.8773 -0.8604  0.1103
  589TMC3    C2 8782   2.766   2.814   1.262  0.0367 -0.1474  0.3140
  589TMC3    C3 8783   2.903   2.785   1.277  0.2565 -0.7092  0.4739
  589TMC3    C4 8784   2.766   2.691   1.059  0.1515 -0.2609 -0.5396
  589TMC3    C5 8785   2.898   2.675   1.075 -0.1701  0.1416  0.1625
  589TMC3    C6 8786   2.972   2.715   1.186  0.3253  0.0525  0.1841
  589TMC3     C 8787   2.558   2.788   1.128  0.6445  0.4129  0.1165
  589TMC3     O 8788   2.501   2.725   1.038  0.0507  0.1681 -0.2127
  589TMC3     H 8789   2.715   2.873   1.338  2.2623  1.4962  0.5393
  589TMC3    H1 8790   2.710   2.642   0.980 -1.3688 -1.1054  1.0578
  589TMC3    H2 8791   3.075   2.682   1.198  1.0099  2.0502 -0.3514
  589TMC3    C7 8792   2.951   2.589   0.984 -0.3005 -0.8754 -0.5172
  589TMC3    C8 8793   2.964   2.864   1.375 -0.0051 -0.1558 -0.6254
  589TMC3    O1 8794   2.876   2.516   0.921 -0.7387 -0.0653 -0.4421
  589TMC3    O2 8795   2.904   2.902   1.473 -1.0413 -0.2455 -0.3476
  590MPD2     C 8796   2.149   1.251  16.774  0.7538  0.1008 -0.2427
  590MPD2    C1 8797   2.106   1.212  16.648  0.1550 -0.3043 -0.2035
  590MPD2    C2 8798   2.153   1.286  16.540  0.0194 -0.2123 -0.3787
  590MPD2    C3 8799   2.240   1.394  16.544  0.4933  0.3426 -0.2293
  590MPD2    C4 8800   2.280   1.427  16.674 -0.1545 -0.0346 -0.0846
  590MPD2    C5 8801   2.241   1.347  16.788 -0.0728 -0.4222 -0.7752
  590MPD2     H 8802   2.121   1.266  16.438 -0.6603 -3.6220  0.5165
  590MPD2    H1 8803   2.344   1.511  16.695  0.0899 -0.1368 -0.4139
  590MPD2    H2 8804   2.116   1.197  16.862  0.6812  0.0949 -0.2730
  590MPD2    H3 8805   2.276   1.367  16.888 -0.3193  0.6032 -0.8891
  590MPD2     N 8806   2.271   1.471  16.430  0.6240  0.6368 -0.2000
  590MPD2    H5 8807   2.227   1.447  16.342 -1.0007 -0.3396  0.8635
  590MPD2    N1 8808   2.007   1.105  16.634 -0.0087 -0.0209  0.2356
  590MPD2    H7 8809   1.961   1.086  16.722  0.6934 -0.8700  0.4216
  591TMC3    C1 8810   2.378   1.636  16.293  0.5188 -0.2050 -0.0648
  591TMC3    C2 8811   2.355   1.559  16.186 -0.6007 -0.4051 -0.4549
  591TMC3    C3 8812   2.358   1.620  16.060 -0.8304 -0.3428 -0.0004
  591TMC3    C4 8813   2.413   1.762  16.284 -0.6553 -0.7101  0.2011
  591TMC3    C5 8814   2.418   1.822  16.159  0.3871 -0.2541 -0.1902
  591TMC3    C6 8815   2.400   1.747  16.050 -0.1733  0.2947  0.4082
  591TMC3     C 8816   2.350   1.583  16.427  0.2197 -0.0783 -0.3792
  591TMC3     O 8817   2.388   1.652  16.517 -0.4394  0.2408  0.2557
  591TMC3     H 8818   2.339   1.452  16.193 -1.0960 -0.1967  1.6457
  591TMC3    H1 8819   2.428   1.817  16.376  0.1896 -0.4798 -0.0789
  591TMC3    H2 8820   2.424   1.793  15.954 -0.8611 -0.6944 -0.2341
  591TMC3    C7 8821   2.502   1.936  16.151  0.0162  0.3790  0.5166
  591TMC3    C8 8822   2.311   1.540  15.944  0.6481  0.3038 -0.1097
  591TMC3    O1 8823   2.579   1.956  16.246 -0.0311 -0.1407  0.2815
  591TMC3    O2 8824   2.273   1.425  15.954 -0.0482 -0.1955 -0.7369
  592MPD2     C 8825   2.241   3.129  11.558 -0.3418  0.0725 -0.2437
  592MPD2    C1 8826   2.189   3.182  11.679  0.3572 -0.1128 -0.2696
  592MPD2    C2 8827   2.105   3.103  11.754  0.0703 -0.4112 -0.4220
  592MPD2    C3 8828   2.052   2.979  11.704  0.2463 -0.1278  0.6837
  592MPD2    C4 8829   2.112   2.928  11.591  0.0202  0.3851  0.6304
  592MPD2    C5 8830   2.201   3.008  11.524  0.2270  0.4888 -0.7117
  592MPD2     H 8831   2.060   3.138  11.846 -0.0611 -1.9685  0.1148
  592MPD2    H1 8832   2.098   2.827  11.554  1.1025 -0.1988  1.8384
  592MPD2    H2 8833   2.311   3.186  11.499 -0.7834  2.1420  1.2120
  592MPD2    H3 8834   2.225   2.964  11.428 -1.3922 -1.8301 -0.0647
  592MPD2     N 8835   1.964   2.907  11.783  0.1779  0.6220 -0.0446
  592MPD2    H5 8836   1.932   2.955  11.866  0.5275 -1.5379  1.3399
  592MPD2    N1 8837   2.241   3.309  11.715 -0.3956  0.5203 -0.3121
  592MPD2    H7 8838   2.297   3.362  11.649  0.0296 -1.6894 -1.7171
  593TMC3    C1 8839   2.301   3.483  11.866 -0.4470  0.0531 -0.1868
  593TMC3    C2 8840   2.275   3.536  11.992  0.0528  0.5634  0.1382
  593TMC3    C3 8841   2.372   3.617  12.046 -0.5016 -0.4169 -0.1767
  593TMC3    C4 8842   2.429   3.482  11.814  0.5218 -0.5778 -0.1121
  593TMC3    C5 8843   2.518   3.568  11.871  0.1443  0.1064 -0.9257
  593TMC3    C6 8844   2.480   3.647  11.979 -0.4064 -0.2971  1.3560
  593TMC3     C 8845   2.216   3.364  11.837  0.2960  0.4045  0.7236
  593TMC3     O 8846   2.143   3.326  11.929 -0.2490 -0.2025 -0.5305
  593TMC3     H 8847   2.180   3.525  12.042  0.1128 -0.4249  0.0388
  593TMC3    H1 8848   2.462   3.422  11.730 -0.9348 -1.0509 -0.3327
  593TMC3    H2 8849   2.551   3.714  12.027  0.3897  0.5250 -0.9656
  593TMC3    C7 8850   2.622   3.621  11.790  0.4398  0.3634  0.1561
  593TMC3    C8 8851   2.326   3.701  12.153 -0.4215  0.1240  0.2249
  593TMC3    O1 8852   2.719   3.662  11.856 -0.5428  0.3658  0.1031
  593TMC3    O2 8853   2.218   3.674  12.206 -0.2744  0.2319  0.0996
  594MPD2     C 8854   0.719   1.919  13.870  0.3080 -0.1329  0.6440
  594MPD2    C1 8855   0.765   1.939  14.001  0.2995  0.3503 -0.1511
  594MPD2    C2 8856   0.872   2.022  14.020 -0.5227  0.7666 -0.2511
  594MPD2    C3 8857   0.945   2.076  13.918 -0.6115 -0.5494 -0.3165
  594MPD2    C4 8858   0.911   2.047  13.787  0.8171 -0.3049  0.5628
  594MPD2    C5 8859   0.797   1.977  13.765  0.1533 -0.1433 -0.0203
  594MPD2     H 8860   0.904   2.043  14.121 -0.8907  0.5700 -0.0959
  594MPD2    H1 8861   0.964   2.082  13.699  1.1827 -1.1185  0.4624
  594MPD2    H2 8862   0.629   1.868  13.837  0.3085 -0.3233  0.9370
  594MPD2    H3 8863   0.756   1.972  13.665 -0.1934 -0.6934  0.1494
  594MPD2     N 8864   1.054   2.167  13.945 -0.2399 -0.4997 -0.4401
  594MPD2    H5 8865   1.088   2.169  14.040  1.5196 -1.7555 -1.0372
  594MPD2    N1 8866   0.690   1.879  14.104 -0.0615 -0.2422 -0.0433
  594MPD2    H7 8867   0.605   1.829  14.082  1.5187 -2.3657 -1.3974
  595TMC3    C1 8868   1.458   2.367  13.959  0.5131  0.0551  0.3094
  595TMC3    C2 8869   1.359   2.306  13.886  0.7430  0.2126  0.6432
  595TMC3    C3 8870   1.226   2.320  13.910 -0.2709 -0.1174 -0.5129
  595TMC3    C4 8871   1.417   2.461  14.050 -1.1490 -0.3466 -0.8598
  595TMC3    C5 8872   1.283   2.473  14.080 -0.4885 -0.4974 -0.2928
  595TMC3    C6 8873   1.190   2.397  14.018  0.0865 -0.7536 -0.1564
  595TMC3     C 8874   1.568   2.281  14.003 -0.2454  0.2819  0.4525
  595TMC3     O 8875   1.652   2.336  14.070 -0.2517 -0.3741 -0.1714
  595TMC3     H 8876   1.388   2.234  13.810 -0.1309  2.1769 -1.5689
  595TMC3    H1 8877   1.494   2.508  14.110 -2.0447 -0.2396  0.1953
  595TMC3    H2 8878   1.088   2.417  14.047  0.3131 -1.6698  1.3146
  595TMC3    C7 8879   1.252   2.509  14.220  0.0697 -0.3040  0.0400
  595TMC3    C8 8880   1.119   2.245  13.846 -0.1396 -0.6858  0.1790
  595TMC3    O1 8881   1.164   2.590  14.237  0.1255  0.1686  0.3187
  595TMC3    O2 8882   1.121   2.246  13.724 -0.1994 -0.1711  0.2577
  596MPD2     C 8883   0.086   0.116  16.844  0.2729 -0.1218  0.6715
  596MPD2    C1 8884   0.116   0.252  16.819  0.2268 -0.4009 -0.3317
  596MPD2    C2 8885   0.167   0.279  16.695 -0.3433  0.2334  0.3903
  596MPD2    C3 8886   0.180   0.180  16.600  0.5540  0.7579  0.1344
  596MPD2    C4 8887   0.150   0.051  16.625  0.5140  0.2967 -0.1889
  596MPD2    C5 8888   0.098   0.013  16.750 -0.0124 -0.1470  0.2767
  596MPD2     H 8889   0.190   0.380  16.662 -1.3843  0.2096 -0.4166
  596MPD2    H1 8890   0.164   4.710  16.550 -1.3405  0.1214 -0.3610
  596MPD2    H2 8891   0.036   0.085  16.935 -0.5684  1.6590  0.8186
  596MPD2    H3 8892   0.074   4.647  16.778  0.7618 -0.5236 -0.4226
  596MPD2     N 8893   0.233   0.200  16.469  0.3431 -0.6176  0.0716
  596MPD2    H5 8894   0.233   0.118  16.409  0.1788 -0.4369 -0.1746
  596MPD2    N1 8895   0.102   0.357  16.915  0.6036 -0.9379 -1.1917
  596MPD2    H7 8896   0.141   0.448  16.894  0.5965 -0.8251 -0.7204
  597TMC3    C1 8897   0.062   0.458  17.115  0.1675 -0.0747  0.2937
  597TMC3    C2 8898   0.174   0.431  17.182 -0.2186  0.7889  0.7015
  597TMC3    C3 8899   0.187   0.449  17.318 -0.0153 -0.0441 -0.0044
  597TMC3    C4 8900   4.690   0.502  17.179  0.4190  0.7234 -0.5769
  597TMC3    C5 8901   4.695   0.514  17.314  0.2000 -0.3959 -0.6123
  597TMC3    C6 8902   0.074   0.492  17.385  0.9365 -0.6185  0.3404
  597TMC3     C 8903   0.030   0.347  17.031  0.3186 -0.2263 -0.1617
  597TMC3     O 8904   4.684   0.267  17.076  0.2002  0.0378 -0.3091
  597TMC3     H 8905   0.254   0.372  17.139 -0.9453  1.2478 -1.2658
  597TMC3    H1 8906   4.596   0.509  17.125  0.5402 -3.0861 -1.2705
  597TMC3    H2 8907   0.061   0.494  17.493 -1.5474 -2.7961  0.0875
  597TMC3    C7 8908   4.594   0.590  17.380  0.1847 -0.8983  0.4276
  597TMC3    C8 8909   0.305   0.407  17.391  0.5948  0.1546 -0.1768
  597TMC3    O1 8910   4.582   0.573  17.499 -0.1589  0.1317 -0.3629
  597TMC3    O2 8911   0.392   0.336  17.334  0.0929 -0.1711 -0.1682
  598TMC3    C1 8912   3.207   1.701  15.991 -0.0625 -0.4262 -0.6049
  598TMC3    C2 8913   3.142   1.581  16.005 -0.4123  0.9104  0.1262
  598TMC3    C3 8914   3.082   1.522  15.895 -0.0640 -0.5653  0.1406
  598TMC3    C4 8915   3.227   1.754  15.865  0.2222  0.1650 -0.2136
  598TMC3    C5 8916   3.158   1.699  15.759  0.1910  0.2873  0.3975
  598TMC3    C6 8917   3.092   1.579  15.770  0.1312  0.3007  0.1079
  598TMC3     C 8918   3.313   1.717  16.083  0.0518 -0.3921  0.3056
  598TMC3     O 8919   3.346   1.825  16.127  0.6044  0.3014  0.4938
  598TMC3     H 8920   3.157   1.529  16.099 -0.1384 -0.1838 -0.5221
  598TMC3    H1 8921   3.290   1.843  15.861  0.6299 -0.0695  0.9164
  598TMC3    H2 8922   3.037   1.537  15.687  1.7999  2.7525 -2.2506
  598TMC3    C7 8923   3.218   1.711  15.627  1.2637  0.6732 -0.1262
  598TMC3    C8 8924   3.018   1.392  15.919  0.1619 -0.5707 -0.1505
  598TMC3    O1 8925   3.240   1.604  15.574 -0.0845  0.7348  0.6200
  598TMC3    O2 8926   3.013   1.351  16.035 -0.4195 -0.4849  0.2869
  599MPD2     C 8927   3.292   4.245  16.231  0.6247 -0.2876 -0.6286
  599MPD2    C1 8928   3.237   4.119  16.224  0.5875 -0.2124  0.9145
  599MPD2    C2 8929   3.113   4.093  16.283  0.5734  0.3498 -0.1681
  599MPD2    C3 8930   3.038   4.202  16.324  0.0529 -0.7974  0.2865
  599MPD2    C4 8931   3.090   4.333  16.314  0.1899 -0.1518  0.3427
  599MPD2    C5 8932   3.223   4.351  16.274  0.2323  0.2283  0.0242
  599MPD2     H 8933   3.068   3.995  16.284  1.0788  0.1396  1.3093
  599MPD2    H1 8934   3.033   4.422  16.339 -0.7019 -0.2027 -1.4695
  599MPD2    H2 8935   3.387   4.272  16.187  0.5429  0.3863 -0.3915
  599MPD2    H3 8936   3.273   4.446  16.260 -0.0660  0.4985  0.7636
  599MPD2     N 8937   2.914   4.192  16.390 -0.2599  0.1391 -0.1800
  599MPD2    H5 8938   2.884   4.285  16.420 -0.2779  0.5737 -1.5623
  599MPD2    N1 8939   3.322   4.011  16.175  0.1856  0.6039  0.4412
  599MPD2    H7 8940   3.409   4.033  16.128 -1.2666  0.4396 -2.3749
  600TMC3    C1 8941   2.718   4.100  16.482 -0.1405 -0.1723 -0.1185
  600TMC3    C2 8942   2.651   3.985  16.507  0.0633  0.2755 -0.1290
  600TMC3    C3 8943   2.549   3.981  16.599 -0.8566  0.3594 -0.6160
  600TMC3    C4 8944   2.691   4.218  16.548 -0.3661  0.2856 -0.4392
  600TMC3    C5 8945   2.603   4.204  16.651 -0.2507  0.2265 -0.0700
  600TMC3    C6 8946   2.524   4.095  16.676  0.0723 -0.2059 -0.6480
  600TMC3     C 8947   2.843   4.077  16.418  0.3728 -0.6931  0.4132
  600TMC3     O 8948   2.879   3.961  16.403  0.4528 -0.0597  0.0292
  600TMC3     H 8949   2.663   3.895  16.448 -1.1525 -0.9378  1.4730
  600TMC3    H1 8950   2.743   4.310  16.524 -2.2606  0.9569 -1.9183
  600TMC3    H2 8951   2.451   4.100  16.756  2.1389  1.3157  1.1361
  600TMC3    C7 8952   2.606   4.306  16.755  0.1143 -0.0070 -0.0643
  600TMC3    C8 8953   2.477   3.866  16.642 -0.1404  0.1025  0.2033
  600TMC3    O1 8954   2.532   4.282  16.850  0.0826 -0.1277 -1.1336
  600TMC3    O2 8955   2.461   3.865  16.766 -0.3018 -0.1723 -0.0195
  601MPD2     C 8956   0.004   2.624   0.507  0.0333  0.6598  0.0822
  601MPD2    C1 8957   4.697   2.560   0.393  0.2702 -0.5369 -0.3672
  601MPD2    C2 8958   4.682   2.419   0.391 -1.2554 -0.2528  1.0374
  601MPD2    C3 8959   4.716   2.348   0.502 -0.5141  0.0134 -0.8290
  601MPD2    C4 8960   0.028   2.413   0.614  0.5851 -0.0976 -0.5165
  601MPD2    C5 8961   0.028   2.545   0.614  0.0853  0.5257  0.2071
  601MPD2     H 8962   4.665   2.367   0.298  1.2427 -1.2121  1.1118
  601MPD2    H1 8963   0.061   2.362   0.704  1.4799 -0.9229 -1.3149
  601MPD2    H2 8964   0.022   2.729   0.527 -1.3597  0.9116  0.0218
  601MPD2    H3 8965   0.057   2.583   0.712  0.8453 -0.6874  0.4454
  601MPD2     N 8966   4.730   2.206   0.498  0.2157  0.3925 -0.3659
  601MPD2    H5 8967   0.050   2.171   0.575 -1.3739 -0.7359  0.2833
  601MPD2    N1 8968   4.672   2.629   0.272  0.3423  0.5355  0.0242
  601MPD2    H7 8969   4.635   2.573   0.195 -0.8262 -0.4216  1.2780
  602TMC3    C1 8970   4.670   2.810   0.117 -0.2442  0.0134  0.0272
  602TMC3    C2 8971   0.015   2.905   0.052 -0.0474  0.1277 -0.7091
  602TMC3    C3 8972   4.726   2.940  17.662 -0.6710  0.5317 -0.3410
  602TMC3    C4 8973   4.559   2.759   0.041  0.3063 -0.0248 -0.2388
  602TMC3    C5 8974   4.538   2.817  17.664 -0.2208 -0.3900  0.9408
  602TMC3    C6 8975   4.629   2.887  17.593 -0.5446 -0.0670  0.0678
  602TMC3     C 8976   4.711   2.765   0.250 -0.0963  0.0117  0.5808
  602TMC3     O 8977   0.047   2.849   0.308  0.1559 -0.3314  0.1759
  602TMC3     H 8978   0.101   2.947   0.103 -1.9948  0.5849  2.1587
  602TMC3    H1 8979   4.492   2.685   0.083  1.6083 -1.0251  0.1132
  602TMC3    H2 8980   4.615   2.938  17.499 -1.2967  0.5948  0.5412
  602TMC3    C7 8981   4.438   2.751  17.582  1.4002  0.3459  0.4791
  602TMC3    C8 8982   0.102   2.986  17.583 -0.0971 -0.0530  0.2866
  602TMC3    O1 8983   4.320   2.747  17.608 -0.0264  0.0219 -0.1536
  602TMC3    O2 8984   0.181   3.065  17.636  0.0391  0.1102 -0.0090
  603TMC3    C1 8985   2.992   3.089  11.496 -0.4542 -0.1560 -0.4614
  603TMC3    C2 8986   3.043   3.045  11.622  0.0169  0.2626  0.1343
  603TMC3    C3 8987   3.144   3.116  11.676 -0.0422 -0.3709  0.2034
  603TMC3    C4 8988   3.045   3.195  11.434 -0.1035 -0.5198  0.1138
  603TMC3    C5 8989   3.143   3.263  11.494 -0.4436 -0.4953 -0.9019
  603TMC3    C6 8990   3.193   3.231  11.623 -0.7201  0.0292 -0.0589
  603TMC3     C 8991   2.866   3.026  11.461  0.2406 -0.4036 -0.1895
  603TMC3     O 8992   2.835   2.935  11.541  0.3307  0.1336 -0.3767
  603TMC3     H 8993   2.990   2.976  11.686  0.2419  0.3033  0.3642
  603TMC3    H1 8994   2.993   3.221  11.342  0.1360  0.4306  0.2488
  603TMC3    H2 8995   3.283   3.272  11.667 -1.1146  0.7228  0.0975
  603TMC3    C7 8996   3.207   3.378  11.434 -0.8080  0.5691  0.4377
  603TMC3    C8 8997   3.208   3.054  11.784 -0.5802  0.1361  0.0885
  603TMC3    O1 8998   3.282   3.451  11.505  0.0323  0.0358  0.4584
  603TMC3    O2 8999   3.188   2.936  11.791 -0.5873  0.8897  0.1009
  604MPD2     C 9000   4.215   1.578  16.458 -0.1094  0.3789  0.5131
  604MPD2    C1 9001   4.120   1.478  16.442 -0.1808 -0.3661 -0.3462
  604MPD2    C2 9002   4.114   1.407  16.320 -0.2179  0.4269  0.1522
  604MPD2    C3 9003   4.184   1.449  16.206 -0.1956  0.1110 -0.1409
  604MPD2    C4 9004   4.274   1.561  16.223 -0.4381  0.7749 -0.1120
  604MPD2    C5 9005   4.298   1.604  16.350 -0.5100  0.0490 -0.5954
  604MPD2     H 9006   4.046   1.324  16.307  1.5420 -1.2101  1.4539
  604MPD2    H1 9007   4.325   1.606  16.139 -0.7706  0.6770 -0.3624
  604MPD2    H2 9008   4.219   1.627  16.554 -2.7686 -0.8238  1.2525
  604MPD2    H3 9009   4.375   1.679  16.366 -1.0208  0.4550  0.0144
  604MPD2     N 9010   4.165   1.393  16.079 -0.2151  0.4326  0.0390
  604MPD2    H5 9011   4.102   1.313  16.076 -0.9484  0.9447  1.7341
  604MPD2    N1 9012   4.037   1.448  16.551 -0.0779  0.4976 -0.3221
  604MPD2    H7 9013   4.049   1.507  16.633 -1.3431 -2.2700  1.8837
  605TMC3    C1 9014   3.849   1.390  16.656  0.4885  0.2582  0.4954
  605TMC3    C2 9015   3.907   1.444  16.766 -0.5632  0.1388 -0.3054
  605TMC3    C3 9016   3.862   1.567  16.814  0.3075 -0.1411 -0.4908
  605TMC3    C4 9017   3.737   1.446  16.596 -0.2152  0.2508  0.1757
  605TMC3    C5 9018   3.689   1.565  16.651 -0.0183  0.2117 -0.3322
  605TMC3    C6 9019   3.753   1.635  16.757  0.0289  0.1823  0.3120
  605TMC3     C 9020   3.938   1.355  16.549  0.5077 -0.2924 -0.1449
  605TMC3     O 9021   3.889   1.303  16.453  0.0422  0.5837  0.0741
  605TMC3     H 9022   4.000   1.398  16.796  0.2866  2.4155  0.5450
  605TMC3    H1 9023   3.708   1.407  16.499  1.3111 -0.7159  0.1104
  605TMC3    H2 9024   3.721   1.734  16.786  1.5371  0.7687 -0.0557
  605TMC3    C7 9025   3.567   1.623  16.598  0.2802 -0.4190 -0.4675
  605TMC3    C8 9026   3.964   1.641  16.873  0.3406  0.0473 -0.0879
  605TMC3    O1 9027   3.542   1.738  16.638 -0.0759 -0.3514  0.1440
  605TMC3    O2 9028   4.072   1.580  16.887  0.9012  0.1506  0.3834
  606TMC3    C1 9029   0.143   0.489   0.400  0.1106  0.8529  0.8935
  606TMC3    C2 9030   0.238   0.411   0.456  0.3863 -0.3090 -0.0783
  606TMC3    C3 9031   0.248   0.282   0.416  0.4119 -0.5120  0.0109
  606TMC3    C4 9032   0.067   0.434   0.300 -0.4751 -0.4469 -0.2885
  606TMC3    C5 9033   0.084   0.304   0.255 -0.0974  0.3299 -0.0460
  606TMC3    C6 9034   0.184   0.227   0.306  0.2988 -0.0538 -0.1038
  606TMC3     C 9035   0.121   0.622   0.461 -0.2001 -0.1838  0.1751
  606TMC3     O 9036   0.208   0.659   0.539  0.1198  0.2718  0.1204
  606TMC3     H 9037   0.301   0.445   0.538  1.0076  0.7397 -1.0070
  606TMC3    H1 9038   0.004   0.503   0.244 -0.4884  0.7228  1.1808
  606TMC3    H2 9039   0.209   0.131   0.262 -1.8206 -0.5115 -0.3356
  606TMC3    C7 9040   0.065   0.282   0.107  0.1967 -0.4921  0.4543
  606TMC3    C8 9041   0.373   0.214   0.457 -0.1541 -0.0461 -0.9383
  606TMC3    O1 9042   0.069   0.383   0.036  0.4234  0.0567 -0.1767
  606TMC3    O2 9043   0.432   0.150   0.375  0.1731  0.0863  0.1286
  607MPD2     C 9044   2.248   2.647  11.787  0.7280  0.1998 -0.3110
  607MPD2    C1 9045   2.268   2.735  11.892  0.4634 -0.4317  0.5557
  607MPD2    C2 9046   2.196   2.726  12.008  0.0900 -0.3115  0.3221
  607MPD2    C3 9047   2.133   2.609  12.045 -0.1328 -0.2985 -0.1789
  607MPD2    C4 9048   2.118   2.507  11.948  0.1020  0.7473  0.3884
  607MPD2    C5 9049   2.177   2.533  11.821  0.7870 -0.0328  0.3506
  607MPD2     H 9050   2.202   2.806  12.081 -0.6370  2.3407 -2.4604
  607MPD2    H1 9051   2.080   2.410  11.977  0.9360  0.5226  0.7277
  607MPD2    H2 9052   2.301   2.662  11.694 -0.4746  2.8560 -0.5821
  607MPD2    H3 9053   2.164   2.459  11.743  0.0050 -0.8643  1.2835
  607MPD2     N 9054   2.086   2.607  12.180  0.1525  0.0061 -0.3657
  607MPD2    H5 9055   2.105   2.690  12.236  1.4692 -2.2109  2.4979
  607MPD2    N1 9056   2.355   2.851  11.891  0.2778  0.0918  0.1480
  607MPD2    H7 9057   2.337   2.899  11.979  2.0323  1.3628 -0.1948
  608TMC3    C1 9058   2.520   2.997  11.839  0.3881 -0.4145  1.5529
  608TMC3    C2 9059   2.523   3.030  11.970 -0.1903  0.0692 -0.2077
  608TMC3    C3 9060   2.590   3.140  12.008 -0.6738 -0.0722 -0.2768
  608TMC3    C4 9061   2.584   3.070  11.742 -0.3729  0.2366  1.3180
  608TMC3    C5 9062   2.646   3.183  11.786 -0.5175 -0.4194 -0.1963
  608TMC3    C6 9063   2.644   3.227  11.922 -0.1590  0.1820  0.1116
  608TMC3     C 9064   2.451   2.878  11.799  0.8566  0.3644  0.2946
  608TMC3     O 9065   2.481   2.812  11.702 -0.2309  0.4559 -0.4591
  608TMC3     H 9066   2.496   2.955  12.043 -0.2958 -0.5257 -0.8581
  608TMC3    H1 9067   2.583   3.045  11.637  0.7454 -0.9747  1.5888
  608TMC3    H2 9068   2.700   3.314  11.954 -0.4231  0.3802  0.0346
  608TMC3    C7 9069   2.732   3.257  11.691  0.4052  0.2707  0.0752
  608TMC3    C8 9070   2.602   3.153  12.152 -0.5700 -0.2354  0.0310
  608TMC3    O1 9071   2.684   3.301  11.587 -0.2687 -0.0546  0.6611
  608TMC3    O2 9072   2.708   3.201  12.192  0.9114 -0.1626 -0.9328
  609TMC3    C1 9073   1.467   1.575   9.254 -0.0857 -0.2197  0.4378
  609TMC3    C2 9074   1.471   1.439   9.223  0.1637  0.5762 -0.2750
  609TMC3    C3 9075   1.592   1.374   9.239 -0.0888 -0.4733 -0.0830
  609TMC3    C4 9076   1.581   1.636   9.297  0.3634  0.3373 -0.5307
  609TMC3    C5 9077   1.703   1.568   9.300 -0.3300 -0.0973 -0.2973
  609TMC3    C6 9078   1.712   1.436   9.263 -0.4000 -0.4472  0.3338
  609TMC3     C 9079   1.338   1.646   9.275  0.5450  0.4355 -0.1208
  609TMC3     O 9080   1.337   1.749   9.339 -0.2175  0.3570 -0.1989
  609TMC3     H 9081   1.382   1.381   9.201  0.6989 -0.1605 -0.5263
  609TMC3    H1 9082   1.557   1.732   9.341  1.3483  0.0133  0.7409
  609TMC3    H2 9083   1.805   1.381   9.273 -1.6415 -2.8328 -1.3090
  609TMC3    C7 9084   1.808   1.615   9.394  0.3486  0.0323  0.1072
  609TMC3    C8 9085   1.580   1.232   9.208  0.1806 -0.1549 -0.3251
  609TMC3    O1 9086   1.766   1.680   9.490 -0.4370  0.2386  0.6862
  609TMC3    O2 9087   1.492   1.200   9.130 -0.2303  0.1458 -0.5680
  610TMC3    C1 9088   2.587   2.878  12.850  0.3217 -0.8576  0.9435
  610TMC3    C2 9089   2.606   2.850  12.715 -0.2749 -0.6208  0.1687
  610TMC3    C3 9090   2.735   2.858  12.666 -0.2806 -0.4194  0.6036
  610TMC3    C4 9091   2.696   2.895  12.936 -0.2995  0.4888 -0.1597
  610TMC3    C5 9092   2.824   2.894  12.884 -0.5024  0.2032 -0.3967
  610TMC3    C6 9093   2.846   2.875  12.751  0.3425  0.1434  0.1445
  610TMC3     C 9094   2.449   2.875  12.901 -0.7308 -0.1956 -0.2225
  610TMC3     O 9095   2.359   2.864  12.819  0.2058 -0.2186  0.1364
  610TMC3     H 9096   2.520   2.865  12.650  0.7577 -1.8236 -1.4476
  610TMC3    H1 9097   2.684   2.900  13.043 -0.7392 -0.4029 -0.1675
  610TMC3    H2 9098   2.947   2.865  12.711 -0.0457 -2.4569 -0.1686
  610TMC3    C7 9099   2.939   2.879  12.972  0.6848 -0.5093 -0.0624
  610TMC3    C8 9100   2.770   2.847  12.524 -0.7051  0.4477 -0.1159
  610TMC3    O1 9101   3.040   2.834  12.921  0.5327 -0.0942  0.2314
  610TMC3    O2 9102   2.875   2.895  12.487 -0.2368 -0.0812 -0.6299
  611MPD2     C 9103   2.282   3.546  10.911 -0.8213  0.1356 -0.1155
  611MPD2    C1 9104   2.302   3.500  10.782  0.4700 -0.2007  0.8165
  611MPD2    C2 9105   2.416   3.536  10.718  0.0203  0.0603  0.5132
  611MPD2    C3 9106   2.519   3.607  10.778 -0.0072  0.3364  0.2678
  611MPD2    C4 9107   2.499   3.642  10.909  1.0950  1.0804 -1.3510
  611MPD2    C5 9108   2.381   3.617  10.975  0.6481  0.2566 -0.2170
  611MPD2     H 9109   2.427   3.502  10.616  0.0204  2.1947 -0.1974
  611MPD2    H1 9110   2.574   3.688  10.973 -0.1888 -1.3190  1.9339
  611MPD2    H2 9111   2.184   3.533  10.956 -0.5859 -0.8807  0.0856
  611MPD2    H3 9112   2.371   3.649  11.078  2.1992 -0.1069  0.0483
  611MPD2     N 9113   2.649   3.621  10.729 -0.7095 -0.3665  1.0904
  611MPD2    H5 9114   2.709   3.673  10.792 -0.7047  3.2336 -1.9206
  611MPD2    N1 9115   2.190   3.459  10.710 -0.3373 -0.4337 -0.2831
  611MPD2    H7 9116   2.106   3.440  10.764  0.8116 -0.3327  1.5423
  612TMC3    C1 9117   2.837   3.621  10.575  0.6237 -0.2236 -0.2267
  612TMC3    C2 9118   2.926   3.588  10.673  0.0109 -0.2069 -0.0524
  612TMC3    C3 9119   3.056   3.615  10.647  0.3923 -0.5694 -1.2032
  612TMC3    C4 9120   2.869   3.671  10.456 -0.5120  0.4657  0.0738
  612TMC3    C5 9121   3.001   3.698  10.434 -0.5111  0.6484 -0.0343
  612TMC3    C6 9122   3.101   3.668  10.526  0.2011  0.5293  0.1132
  612TMC3     C 9123   2.689   3.610  10.599 -0.1388  0.3749  0.1022
  612TMC3     O 9124   2.614   3.598  10.504 -0.3150 -0.9446 -0.1841
  612TMC3     H 9125   2.885   3.533  10.758  0.1497  0.8016  0.6760
  612TMC3    H1 9126   2.793   3.695  10.382 -0.2862  2.3333  0.4389
  612TMC3    H2 9127   3.205   3.691  10.507  0.3556  1.2846  1.8498
  612TMC3    C7 9128   3.030   3.757  10.303  0.5814  0.0312  0.6793
  612TMC3    C8 9129   3.128   3.657  10.764 -0.5208 -0.1481 -0.8070
  612TMC3    O1 9130   2.958   3.717  10.209  0.0954 -0.5516  0.7842
  612TMC3    O2 9131   3.207   3.755  10.753 -0.1190 -0.0051  0.7169
  613MPD2     C 9132   1.104   0.632  16.899  0.1149  0.3452 -0.4037
  613MPD2    C1 9133   1.224   0.573  16.865 -0.1032  0.5854 -0.1269
  613MPD2    C2 9134   1.236   0.436  16.881 -0.1875 -0.0997  0.2964
  613MPD2    C3 9135   1.135   0.348  16.924 -0.8956 -0.5239 -0.0719
  613MPD2    C4 9136   1.018   0.415  16.955  0.3436 -0.3658  0.4506
  613MPD2    C5 9137   1.010   0.554  16.952  0.1948  0.8212  0.0365
  613MPD2     H 9138   1.336   0.412  16.845 -0.0442  0.0858  0.5733
  613MPD2    H1 9139   0.934   0.361  16.996 -0.4790  1.1301  0.7184
  613MPD2    H2 9140   1.088   0.739  16.887  1.3269  0.6599  0.7150
  613MPD2    H3 9141   0.923   0.602  16.996  0.4210 -0.7873  2.2564
  613MPD2     N 9142   1.145   0.210  16.914 -0.2311  0.7036 -0.6587
  613MPD2    H5 9143   1.063   0.153  16.932 -0.5838  0.6655 -2.3741
  613MPD2    N1 9144   1.334   0.637  16.802  0.7084 -0.0029 -0.6692
  613MPD2    H7 9145   1.413   0.576  16.785 -0.2656 -1.0113 -1.6052
  614TMC3    C1 9146   1.453   0.800  16.677  0.4963  0.0746  0.3893
  614TMC3    C2 9147   1.550   0.709  16.695 -0.2602 -0.6656  0.4566
  614TMC3    C3 9148   1.617   0.645  16.592 -0.4358  0.2375  0.5326
  614TMC3    C4 9149   1.412   0.831  16.549  0.6474 -0.2906 -0.0266
  614TMC3    C5 9150   1.472   0.768  16.443 -0.6346 -0.2224 -0.6197
  614TMC3    C6 9151   1.576   0.685  16.462  1.0877  0.5491 -0.3193
  614TMC3     C 9152   1.335   0.767  16.760 -0.5799  0.4726  0.1966
  614TMC3     O 9153   1.239   0.842  16.749 -0.1625 -0.3613  0.0729
  614TMC3     H 9154   1.582   0.678  16.794 -1.0237  0.1610  0.9510
  614TMC3    H1 9155   1.328   0.899  16.541 -0.1029 -1.1934  0.1654
  614TMC3    H2 9156   1.620   0.632  16.379  1.3386 -0.4185  0.4255
  614TMC3    C7 9157   1.435   0.809  16.308  0.0205  0.6154 -0.3575
  614TMC3    C8 9158   1.620   0.507  16.617 -0.1068  0.1154  0.2886
  614TMC3    O1 9159   1.398   0.923  16.296 -0.1727  0.2825  0.0612
  614TMC3    O2 9160   1.566   0.477  16.725  0.4706  0.2401  0.6605
  615MPD2     C 9161   1.287   1.344  16.016 -0.1262 -0.4577 -0.1428
  615MPD2    C1 9162   1.188   1.438  15.998  0.2803 -0.5895  0.2808
  615MPD2    C2 9163   1.096   1.424  15.899 -0.5177  0.2522  0.3063
  615MPD2    C3 9164   1.105   1.317  15.805  0.7836 -0.9218 -0.1025
  615MPD2    C4 9165   1.214   1.230  15.815  0.6380  1.1104  0.2847
  615MPD2    C5 9166   1.303   1.242  15.921 -0.3701 -0.3263  0.5497
  615MPD2     H 9167   1.023   1.502  15.881 -0.1661 -0.1879 -2.9752
  615MPD2    H1 9168   1.242   1.162  15.735  2.9163  0.1068  1.9343
  615MPD2    H2 9169   1.351   1.343  16.104 -2.2872 -0.3205  1.4318
  615MPD2    H3 9170   1.394   1.183  15.922 -0.6823 -0.8225 -0.4332
  615MPD2     N 9171   1.020   1.309  15.692  0.0240  0.1273 -0.3679
  615MPD2    H5 9172   1.050   1.264  15.606  1.7697  0.3866  0.0959
  615MPD2    N1 9173   1.181   1.557  16.080 -0.1916 -0.0476 -0.5695
  615MPD2    H7 9174   1.102   1.618  16.062  1.7499  2.8030  0.5886
  616TMC3    C1 9175   1.237   1.708  16.252 -0.1085  0.1778 -0.5042
  616TMC3    C2 9176   1.338   1.793  16.293 -0.8315  0.4841  0.6920
  616TMC3    C3 9177   1.299   1.903  16.361  0.5131 -0.6729 -0.0807
  616TMC3    C4 9178   1.106   1.723  16.286  0.2488 -0.2370 -0.1108
  616TMC3    C5 9179   1.075   1.838  16.355  0.0081  0.1171 -0.2044
  616TMC3    C6 9180   1.172   1.924  16.394 -0.1691 -0.8650 -0.6999
  616TMC3     C 9181   1.273   1.601  16.168 -0.1284 -0.2632  0.0004
  616TMC3     O 9182   1.386   1.562  16.186 -0.5232  0.1099 -0.5172
  616TMC3     H 9183   1.433   1.785  16.241  0.0757  0.9028  2.2879
  616TMC3    H1 9184   1.034   1.649  16.253  2.0484 -1.3698 -1.5020
  616TMC3    H2 9185   1.148   2.012  16.453 -0.3978  0.7895 -3.2851
  616TMC3    C7 9186   0.933   1.859  16.366  0.1036 -0.3288  0.0946
  616TMC3    C8 9187   1.374   2.025  16.331  0.5107 -0.0315  0.8665
  616TMC3    O1 9188   0.875   1.753  16.357 -0.8027 -0.4131 -0.3432
  616TMC3    O2 9189   1.310   2.129  16.344 -0.2013  0.1053  0.1031
  617MPD2     C 9190   3.847   0.017  14.414  0.0766  0.7893  0.0877
  617MPD2    C1 9191   3.888   4.656  14.505 -0.2378  0.5531 -0.7192
  617MPD2    C2 9192   3.787   4.582  14.555 -0.6457  0.2727 -0.6772
  617MPD2    C3 9193   3.649   4.591  14.514  0.1392  0.2658  0.1046
  617MPD2    C4 9194   3.618   4.677  14.408 -0.1533  0.2386  0.0016
  617MPD2    C5 9195   3.721   0.026  14.361 -0.6422  0.9515  0.4240
  617MPD2     H 9196   3.821   4.506  14.625  1.5178  1.5401 -0.3434
  617MPD2    H1 9197   3.515   4.698  14.384  0.2268  2.8568  0.6948
  617MPD2    H2 9198   3.917   0.082  14.362 -1.1203  3.1053  1.4036
  617MPD2    H3 9199   3.693   0.099  14.286 -0.4779 -1.4592 -1.9966
  617MPD2     N 9200   3.555   4.506  14.573 -0.0048 -0.5764 -0.2742
  617MPD2    H5 9201   3.462   4.539  14.550  0.4945 -0.9318 -2.7331
  617MPD2    N1 9202   4.026   4.639  14.537  0.4136 -0.1326  0.2011
  617MPD2    H7 9203   4.090   4.708  14.498 -0.9348  0.1192 -1.6056
  618TMC3    C1 9204   4.226   4.552  14.626  0.1249 -0.3157 -0.3410
  618TMC3    C2 9205   4.306   4.447  14.595  0.0062  0.4818 -0.0992
  618TMC3    C3 9206   4.440   4.474  14.566 -0.1055  0.2772  0.4630
  618TMC3    C4 9207   4.276   4.675  14.640  0.4996 -0.6300 -0.4028
  618TMC3    C5 9208   4.411   4.697  14.616  0.2052 -0.2304 -0.3286
  618TMC3    C6 9209   4.497   4.598  14.582  0.5256  0.5474 -0.9118
  618TMC3     C 9210   4.086   4.536  14.611  0.7735 -0.2375 -0.7099
  618TMC3     O 9211   4.040   4.431  14.647  0.1101  0.1179 -0.0986
  618TMC3     H 9212   4.261   4.348  14.601  1.8509 -0.2888  1.0966
  618TMC3    H1 9213   4.221   0.010  14.700  0.8638 -2.3465  1.9447
  618TMC3    H2 9214   4.600   4.620  14.554  0.3430  1.6466 -0.7401
  618TMC3    C7 9215   4.461   0.072  14.696 -0.8233 -0.1813 -0.3858
  618TMC3    C8 9216   4.505   4.365  14.487  0.2807  0.2216 -0.3049
  618TMC3    O1 9217   4.394   0.097  14.795  0.2236 -0.0377  0.6290
  618TMC3    O2 9218   4.468   4.249  14.503 -0.6226 -0.0247 -0.3073
  619MPD2     C 9219   0.172   1.311  13.733 -0.8225 -0.1729 -0.2148
  619MPD2    C1 9220   0.061   1.370  13.679  0.1138 -0.9262  0.0161
  619MPD2    C2 9221   4.678   1.315  13.706 -0.3520 -0.8075 -0.7070
  619MPD2    C3 9222   4.661   1.205  13.785 -0.1753 -0.1494  0.5238
  619MPD2    C4 9223   0.037   1.157  13.840 -0.0902  0.1310  0.4422
  619MPD2    C5 9224   0.161   1.204  13.811 -0.2250 -0.4361 -0.2683
  619MPD2     H 9225   4.590   1.366  13.668  0.3440 -0.5498 -1.9642
  619MPD2    H1 9226   0.036   1.084  13.920  0.3706  0.2932  0.5904
  619MPD2    H2 9227   0.273   1.334  13.702 -1.2742 -0.2688 -1.7549
  619MPD2    H3 9228   0.256   1.167  13.850 -1.6384 -0.6444  2.9456
  619MPD2     N 9229   4.534   1.148  13.818  0.5212  0.7921  0.0316
  619MPD2    H5 9230   4.536   1.085  13.897 -1.0994  0.0456 -0.5168
  619MPD2    N1 9231   0.062   1.468  13.573  0.5322 -0.0220  0.0733
  619MPD2    H7 9232   4.713   1.506  13.530  2.4393  2.4611 -1.4918
  620TMC3    C1 9233   0.146   1.586  13.398 -0.0928  0.4248 -0.1400
  620TMC3    C2 9234   0.018   1.569  13.337 -0.3777  0.0376 -0.4003
  620TMC3    C3 9235   4.684   1.678  13.281 -0.6245 -0.7537  0.1349
  620TMC3    C4 9236   0.218   1.701  13.378  0.3187  0.0960 -0.2523
  620TMC3    C5 9237   0.156   1.796  13.301 -0.0046  0.8629  0.5252
  620TMC3    C6 9238   0.034   1.784  13.244  0.0976 -0.1680  1.5279
  620TMC3     C 9239   0.179   1.510  13.517 -0.0147  0.4404 -0.2901
  620TMC3     O 9240   0.290   1.516  13.567  0.1490  0.2931  0.1169
  620TMC3     H 9241   4.697   1.480  13.360 -0.0110 -0.4090 -1.2166
  620TMC3    H1 9242   0.312   1.710  13.432 -0.5964 -1.9215  1.6914
  620TMC3    H2 9243   4.726   1.863  13.183  1.2969 -0.6471  0.0643
  620TMC3    C7 9244   0.171   1.938  13.351  0.3055  0.6885  0.1331
  620TMC3    C8 9245   4.590   1.713  13.382 -0.3496 -0.1422 -0.4383
  620TMC3    O1 9246   0.068   2.004  13.365 -0.3302 -0.0307  0.1372
  620TMC3    O2 9247   4.535   1.625  13.445 -0.2165 -0.4329  0.4921
  621MPD2     C 9248   1.297   1.439  10.731 -0.4483  0.0880 -0.0622
  621MPD2    C1 9249   1.220   1.490  10.630 -0.3215  0.1342 -0.0458
  621MPD2    C2 9250   1.259   1.610  10.572 -0.0050  0.4351  0.1044
  621MPD2    C3 9251   1.376   1.671  10.612 -0.0790 -0.1881 -0.4008
  621MPD2    C4 9252   1.449   1.629  10.717  0.4691 -0.2678 -0.0017
  621MPD2    C5 9253   1.412   1.507  10.775 -0.1525 -0.0413  0.8817
  621MPD2     H 9254   1.196   1.649  10.493 -2.2549 -1.5260  0.9585
  621MPD2    H1 9255   1.531   1.684  10.761 -0.1659 -1.5680  2.8082
  621MPD2    H2 9256   1.266   1.349  10.782  2.2128 -1.1909 -0.7004
  621MPD2    H3 9257   1.475   1.465  10.852  3.9471  0.7017 -2.0546
  621MPD2     N 9258   1.410   1.789  10.548  0.4149  0.0288 -0.0443
  621MPD2    H5 9259   1.361   1.812  10.463 -0.2605 -2.2788 -0.2939
  621MPD2    N1 9260   1.106   1.427  10.579  0.2962 -0.0711  0.3596
  621MPD2    H7 9261   1.052   1.477  10.510  1.1070 -0.2074 -0.3710
  622TMC3    C1 9262   0.910   1.286  10.579 -0.4130 -0.0352 -0.2871
  622TMC3    C2 9263   0.819   1.386  10.555  0.4518  0.5041  0.3698
  622TMC3    C3 9264   0.687   1.345  10.538  0.5278  0.6324 -0.4537
  622TMC3    C4 9265   0.866   1.155  10.577  0.2409  0.5829  0.4812
  622TMC3    C5 9266   0.741   1.119  10.533 -0.2233 -0.1450  0.2082
  622TMC3    C6 9267   0.642   1.214  10.531 -0.3555  0.1981  0.1567
  622TMC3     C 9268   1.055   1.302  10.613 -0.8341 -0.4398  0.2134
  622TMC3     O 9269   1.101   1.218  10.689  0.3659  0.0929 -0.4119
  622TMC3     H 9270   0.844   1.486  10.588  2.0649  1.0864 -2.5441
  622TMC3    H1 9271   0.936   1.074  10.593  0.8885  1.0848  0.1496
  622TMC3    H2 9272   0.539   1.183  10.525 -0.0300 -0.3572 -2.6536
  622TMC3    C7 9273   0.707   0.975  10.537  0.9404 -0.4736 -0.0471
  622TMC3    C8 9274   0.588   1.448  10.545 -0.1930  0.4443  0.0338
  622TMC3    O1 9275   0.782   0.905  10.601  0.4304 -0.4318 -1.1800
  622TMC3    O2 9276   0.635   1.560  10.520  0.5634  0.3064 -0.1051
  623MPD2     C 9277   4.497   1.927  16.253  0.2630  0.4778 -0.1838
  623MPD2    C1 9278   4.416   1.907  16.362 -0.1545  0.3654 -0.6211
  623MPD2    C2 9279   4.483   1.901  16.484  0.7365  0.1249  0.5576
  623MPD2    C3 9280   4.617   1.906  16.494 -0.5815  1.2426 -0.2766
  623MPD2    C4 9281   4.698   1.921  16.382  0.0892 -0.1269 -0.0201
  623MPD2    C5 9282   4.638   1.935  16.257 -0.4292  0.3281 -0.6406
  623MPD2     H 9283   4.431   1.890  16.578  0.5801 -1.8419  0.2379
  623MPD2    H1 9284   0.070   1.918  16.387  0.0590 -0.4044  0.4482
  623MPD2    H2 9285   4.457   1.918  16.153 -0.1431 -0.7174  0.0913
  623MPD2    H3 9286   4.702   1.928  16.170  1.8844 -2.9894  1.3500
  623MPD2     N 9287   4.675   1.912  16.620  0.0867  0.1438  0.1461
  623MPD2    H5 9288   4.607   1.897  16.694  0.0029  0.5624  0.1551
  623MPD2    N1 9289   4.274   1.914  16.352 -0.3449  0.8765  0.0650
  623MPD2    H7 9290   4.247   1.929  16.256  0.4707 -2.2972 -0.6595
  624TMC3    C1 9291   0.119   1.726  16.923 -0.4421  0.4931  0.2851
  624TMC3    C2 9292   4.722   1.727  16.954 -0.9035  0.1184  0.5158
  624TMC3    C3 9293   4.636   1.829  16.926  0.2547 -0.4340  0.4301
  624TMC3    C4 9294   0.172   1.824  16.842 -0.6873 -0.4687 -0.1372
  624TMC3    C5 9295   0.077   1.921  16.805  0.1376  0.3298 -0.1507
  624TMC3    C6 9296   4.686   1.936  16.860  0.8520  0.2916 -0.6982
  624TMC3     C 9297   0.174   1.594  16.903  0.1985  0.4394 -0.2836
  624TMC3     O 9298   0.096   1.503  16.906 -0.3701 -0.1157 -0.2672
  624TMC3     H 9299   4.683   1.651  17.021 -0.6857 -0.3564  0.0937
  624TMC3    H1 9300   0.268   1.807  16.795  0.1238  0.7610  1.0828
  624TMC3    H2 9301   4.618   2.014  16.828  1.8150  0.5109 -2.2213
  624TMC3    C7 9302   0.069   1.935  16.662  1.0611  0.5204 -0.3260
  624TMC3    C8 9303   4.494   1.814  16.956  0.1128  0.3323 -0.4884
  624TMC3    O1 9304   0.175   1.936  16.598 -0.0292 -0.0510  0.2006
  624TMC3    O2 9305   4.452   1.702  16.979  0.6581 -0.0311  0.3487
  625MPD2     C 9306   0.336   3.119   1.013  0.2152 -0.5122 -0.5277
  625MPD2    C1 9307   0.360   3.252   0.969 -0.2751 -0.2500 -0.0121
  625MPD2    C2 9308   0.487   3.312   0.968  0.5116  0.2979 -0.3773
  625MPD2    C3 9309   0.595   3.234   0.992 -0.1777  0.1671  0.1375
  625MPD2    C4 9310   0.583   3.101   1.029 -0.7372  0.5415 -0.2714
  625MPD2    C5 9311   0.455   3.048   1.041 -0.1628  0.2928  0.5048
  625MPD2     H 9312   0.500   3.414   0.936  0.9112 -0.2100 -1.8266
  625MPD2    H1 9313   0.665   3.033   1.048 -2.6143 -0.8856  2.7107
  625MPD2    H2 9314   0.241   3.067   1.009  1.2176 -2.2876 -1.2531
  625MPD2    H3 9315   0.446   2.943   1.063 -2.0060  0.3840  0.1545
  625MPD2     N 9316   0.724   3.296   0.972 -0.1577 -0.1649 -0.6449
  625MPD2    H5 9317   0.720   3.397   0.965  0.4345 -0.1260 -0.4149
  625MPD2    N1 9318   0.249   3.334   0.931 -0.5646  0.0644  0.6953
  625MPD2    H7 9319   0.271   3.432   0.926  1.1054 -0.1624  3.4490
  626TMC3    C1 9320   0.056   3.425   0.862 -0.3137  0.5249 -0.9600
  626TMC3    C2 9321   4.715   3.429   0.754 -0.1512 -0.2036  0.2615
  626TMC3    C3 9322   4.660   3.552   0.729 -0.5152 -0.0204 -0.2423
  626TMC3    C4 9323   0.085   3.523   0.950 -0.1890 -1.0103 -0.2131
  626TMC3    C5 9324   0.013   3.640   0.935  0.7549  1.5321 -0.2287
  626TMC3    C6 9325   4.681   3.660   0.814  0.4051 -0.0677 -0.7432
  626TMC3     C 9326   0.124   3.301   0.882 -0.0296  0.0839 -0.1299
  626TMC3     O 9327   0.067   3.195   0.871  0.2392 -0.5770 -0.2523
  626TMC3     H 9328   4.723   3.348   0.683 -0.1435  1.6981 -1.9305
  626TMC3    H1 9329   0.145   3.511   1.039 -0.4354  1.6965  0.3185
  626TMC3    H2 9330   4.651   3.761   0.788  2.4288  0.5451 -0.6760
  626TMC3    C7 9331   0.031   3.738   1.035 -0.6112  0.7026  0.0714
  626TMC3    C8 9332   4.612   3.578   0.594  0.6192  0.5240  0.5048
  626TMC3    O1 9333   0.127   3.747   1.111 -0.0796  0.2803 -0.1476
  626TMC3    O2 9334   4.655   3.684   0.550 -0.2030  0.0816  0.6632
  627MPD2     C 9335   3.688   3.189  14.185  0.0570  0.5564 -0.5835
  627MPD2    C1 9336   3.642   3.191  14.319  0.6549 -0.1967 -0.2292
  627MPD2    C2 9337   3.522   3.133  14.346  0.2288 -0.5534 -0.4127
  627MPD2    C3 9338   3.460   3.055  14.250 -0.5618  0.2757  0.2947
  627MPD2    C4 9339   3.503   3.056  14.124  0.4551 -0.2506 -0.5456
  627MPD2    C5 9340   3.618   3.119  14.089 -0.8246  0.4589 -0.1654
  627MPD2     H 9341   3.480   3.139  14.446  2.1015  0.4323  0.3200
  627MPD2    H1 9342   3.457   3.000  14.044  2.1272 -1.0786 -0.9177
  627MPD2    H2 9343   3.781   3.238  14.158  0.6313 -0.1160  0.1558
  627MPD2    H3 9344   3.657   3.117  13.988  0.3024  0.2427  0.2728
  627MPD2     N 9345   3.358   2.970  14.304  0.0066 -0.2581  0.3535
  627MPD2    H5 9346   3.335   2.972  14.403 -0.7435 -1.8363  0.2105
  627MPD2    N1 9347   3.718   3.248  14.427  0.2181  0.4414 -0.0406
  627MPD2    H7 9348   3.678   3.261  14.519  0.6402 -0.1886  0.2282
  628TMC3    C1 9349   3.899   3.309  14.550  0.2567 -0.1267 -0.0406
  628TMC3    C2 9350   4.033   3.280  14.575 -0.3330  0.4608 -0.3236
  628TMC3    C3 9351   4.086   3.318  14.695  0.3360  0.5875  0.2660
  628TMC3    C4 9352   3.822   3.381  14.641 -0.1328 -0.2956  0.8648
  628TMC3    C5 9353   3.891   3.427  14.753  1.0634  0.0714  0.7146
  628TMC3    C6 9354   4.024   3.396  14.782 -0.3801  0.2429  0.3558
  628TMC3     C 9355   3.850   3.276  14.419 -0.1055  0.1836  0.0685
  628TMC3     O 9356   3.932   3.261  14.330 -0.4882  0.6139  0.2862
  628TMC3     H 9357   4.093   3.212  14.515 -0.5203  0.5529 -0.6155
  628TMC3    H1 9358   3.719   3.410  14.619  0.1159  1.1487  1.6192
  628TMC3    H2 9359   4.061   3.421  14.880 -1.9057 -0.5395  1.1415
  628TMC3    C7 9360   3.813   3.466  14.870  0.0487 -0.1360  0.0938
  628TMC3    C8 9361   4.217   3.268  14.732  0.0293  0.4851 -0.5298
  628TMC3    O1 9362   3.849   3.422  14.976 -0.1033  0.0345 -0.0025
  628TMC3    O2 9363   4.300   3.271  14.647 -0.0259 -0.9764  0.6491
  629MPD2     C 9364   1.720   2.380  16.214  0.1903 -0.2873 -0.1391
  629MPD2    C1 9365   1.786   2.266  16.262  0.3190  0.1875 -0.0420
  629MPD2    C2 9366   1.711   2.147  16.288  0.4872  0.4817  0.0578
  629MPD2    C3 9367   1.578   2.141  16.258 -0.1624  0.5702 -0.2622
  629MPD2    C4 9368   1.517   2.251  16.195 -0.1775 -0.5142  0.2613
  629MPD2    C5 9369   1.587   2.369  16.172 -0.6142 -0.1607 -0.1716
  629MPD2     H 9370   1.762   2.058  16.324  0.7363  0.5583 -0.1111
  629MPD2    H1 9371   1.413   2.250  16.165  0.4807  0.5551 -2.0886
  629MPD2    H2 9372   1.770   2.475  16.197 -2.4684  0.6576 -2.7546
  629MPD2    H3 9373   1.527   2.445  16.124 -0.2465  0.0384 -0.3130
  629MPD2     N 9374   1.507   2.021  16.301 -0.1738 -0.3134 -0.3742
  629MPD2    H5 9375   1.565   1.941  16.324 -0.6176 -0.7419 -0.7769
  629MPD2    N1 9376   1.923   2.283  16.294  0.5270  0.4286  0.1554
  629MPD2    H7 9377   1.960   2.377  16.293 -1.4111  1.1648 -3.4680
  630TMC3    C1 9378   2.144   2.232  16.337  0.2065  0.5902  0.5155
  630TMC3    C2 9379   2.193   2.325  16.252  0.3457 -0.5230 -0.3038
  630TMC3    C3 9380   2.326   2.342  16.256  0.6271 -0.0185 -0.5693
  630TMC3    C4 9381   2.216   2.149  16.410 -0.2642  0.8507  0.2904
  630TMC3    C5 9382   2.355   2.159  16.399  0.6286  0.0613 -0.0688
  630TMC3    C6 9383   2.407   2.257  16.327 -0.0467 -0.1924  0.4972
  630TMC3     C 9384   2.006   2.191  16.341  0.0766  0.6440  0.1283
  630TMC3     O 9385   1.980   2.076  16.387 -0.3947 -0.0182 -0.0030
  630TMC3     H 9386   2.135   2.391  16.188 -0.9079  2.1443  3.4964
  630TMC3    H1 9387   2.178   2.099  16.498  0.1901 -0.9278 -0.5138
  630TMC3    H2 9388   2.514   2.269  16.318 -0.7009  4.4963 -0.8541
  630TMC3    C7 9389   2.426   2.132  16.522  0.2932  0.4033 -0.3532
  630TMC3    C8 9390   2.355   2.474  16.307  0.4585 -0.4508  0.6115
  630TMC3    O1 9391   2.393   2.028  16.578 -0.0732  0.3885 -0.5672
  630TMC3    O2 9392   2.412   2.464  16.415  0.3377  0.6297 -0.4161
  631MPD2     C 9393   0.020   1.537  15.716 -0.1206  0.0735  0.1044
  631MPD2    C1 9394   0.087   1.605  15.610  0.8657 -0.5179 -0.2171
  631MPD2    C2 9395   0.212   1.563  15.566  0.1756  0.2955  0.2799
  631MPD2    C3 9396   0.268   1.458  15.635 -0.1270  0.5046  0.1698
  631MPD2    C4 9397   0.212   1.403  15.753 -0.5466 -0.0072 -0.3067
  631MPD2    C5 9398   0.091   1.448  15.791 -0.0371 -0.0529  0.2247
  631MPD2     H 9399   0.263   1.612  15.484 -1.5352  1.3922 -0.1342
  631MPD2    H1 9400   0.247   1.326  15.820 -2.3511 -1.0050 -0.5014
  631MPD2    H2 9401   4.663   1.569  15.762  0.7181 -0.1256  1.9399
  631MPD2    H3 9402   0.037   1.405  15.875  2.1312 -0.3097  1.4899
  631MPD2     N 9403   0.398   1.415  15.601  0.2180 -0.5892  0.0524
  631MPD2    H5 9404   0.434   1.341  15.660  1.6978 -0.6690 -0.9369
  631MPD2    N1 9405   0.015   1.704  15.539  0.0366  0.1929 -0.4120
  631MPD2    H7 9406   4.650   1.703  15.552  0.1854  0.5373  0.8202
  632TMC3    C1 9407   4.701   1.861  15.371 -0.3697  0.6071 -0.5757
  632TMC3    C2 9408   4.600   1.925  15.437  0.0304 -0.0843 -0.4239
  632TMC3    C3 9409   4.536   2.029  15.373 -0.4171 -0.0158 -0.0482
  632TMC3    C4 9410   0.008   1.899  15.250 -0.3958  0.1437  0.9071
  632TMC3    C5 9411   4.684   2.008  15.191  0.4053  0.4387 -0.4636
  632TMC3    C6 9412   4.575   2.077  15.249  0.4243  0.8827  0.1731
  632TMC3     C 9413   0.064   1.782  15.441 -0.2021  0.1434  1.1123
  632TMC3     O 9414   0.183   1.805  15.418 -0.4587 -0.4377 -0.5741
  632TMC3     H 9415   4.577   1.900  15.540 -0.4966 -0.6463 -0.6816
  632TMC3    H1 9416   0.092   1.847  15.204 -0.0882  0.9939  0.4930
  632TMC3    H2 9417   4.534   2.167  15.203  1.1734  1.1209 -0.0263
  632TMC3    C7 9418   0.015   2.080  15.082  0.3629 -0.2902  0.4195
  632TMC3    C8 9419   4.414   2.074  15.433 -0.2137 -0.6849 -0.5696
  632TMC3    O1 9420   4.688   2.174  15.033  0.3973  0.0999  0.1332
  632TMC3    O2 9421   4.408   2.069  15.554  0.3389 -0.1646  0.4766
  633MPD2     C 9422   4.036   0.177  17.442  0.1944 -0.2381 -0.5602
  633MPD2    C1 9423   4.067   0.135  17.319  0.0836 -0.2223  0.0685
  633MPD2    C2 9424   4.099   4.734  17.313  0.2683  0.4312 -0.3522
  633MPD2    C3 9425   4.112   4.654  17.423 -0.3261 -0.6238 -0.1728
  633MPD2    C4 9426   4.073   4.705  17.542  0.8918 -0.9534 -0.1800
  633MPD2    C5 9427   4.039   0.096  17.548 -0.3621 -0.4035  0.9027
  633MPD2     H 9428   4.117   4.690  17.215 -0.0321 -1.0705  0.2750
  633MPD2    H1 9429   4.082   4.650  17.635 -1.9291 -0.9838  0.0464
  633MPD2    H2 9430   4.018   0.282  17.462  1.1696 -0.0198 -0.8667
  633MPD2    H3 9431   4.022   0.141  17.645  3.5446  1.5538  0.6884
  633MPD2     N 9432   4.181   4.531  17.403  0.3120  0.0714  0.5657
  633MPD2    H5 9433   4.217   4.515  17.309 -3.4851 -0.1716 -0.8340
  633MPD2    N1 9434   4.076   0.208  17.201 -0.0231 -0.1573 -0.1644
  633MPD2    H7 9435   4.106   0.165  17.114  0.9587  0.7932 -0.2971
  634TMC3    C1 9436   4.166   0.401  17.100  0.3706 -0.2626 -0.3117
  634TMC3    C2 9437   4.285   0.337  17.068  0.2500 -0.1441 -1.0502
  634TMC3    C3 9438   4.373   0.399  16.990 -0.2098 -0.0915 -0.6948
  634TMC3    C4 9439   4.144   0.533  17.065  0.2850  0.1838 -0.5561
  634TMC3    C5 9440   4.237   0.588  16.988  0.3714 -0.5051  0.4003
  634TMC3    C6 9441   4.356   0.522  16.943 -0.1690 -1.0659  0.2794
  634TMC3     C 9442   4.074   0.344  17.200  0.5324 -0.0150 -0.4142
  634TMC3     O 9443   4.025   0.414  17.278 -0.2799 -0.0983  0.6970
  634TMC3     H 9444   4.318   0.247  17.118  0.4137 -0.0339 -0.9601
  634TMC3    H1 9445   4.060   0.593  17.097  1.4303  1.3804  0.1982
  634TMC3    H2 9446   4.427   0.580  16.885  2.4602 -1.7262  2.8040
  634TMC3    C7 9447   4.215   0.715  16.918 -0.4355  0.2317  0.1207
  634TMC3    C8 9448   4.436   0.307  16.896 -0.3693 -0.1803  0.2339
  634TMC3    O1 9449   4.266   0.731  16.808  0.4266  0.1685  0.7052
  634TMC3    O2 9450   4.409   0.187  16.908 -0.2638 -0.1998 -0.3548
  635TMC3    C1 9451   4.595   1.034   0.030  0.0397  0.4770  0.4702
  635TMC3    C2 9452   4.707   1.008  17.699 -0.5150 -0.5725  0.2234
  635TMC3    C3 9453   4.734   0.871  17.672  0.0945  0.1280  0.4072
  635TMC3    C4 9454   4.508   0.937   0.084  0.2057 -0.2926  0.1736
  635TMC3    C5 9455   4.552   0.806   0.072  0.6556  0.1815 -0.2037
  635TMC3    C6 9456   4.664   0.777  17.733  0.4026  0.5242 -0.1373
  635TMC3     C 9457   4.589   1.171   0.073  0.4035  0.5278 -0.1430
  635TMC3     O 9458   4.684   1.244   0.048 -0.4503 -0.0823  0.5230
  635TMC3     H 9459   0.019   1.084  17.639  0.1064  0.2720  1.8042
  635TMC3    H1 9460   4.426   0.966   0.149 -0.5218  0.1695 -0.9362
  635TMC3    H2 9461   4.692   0.675  17.711  2.6147  1.2935 -0.8137
  635TMC3    C7 9462   4.446   0.707   0.092  0.2730 -0.5287  0.4635
  635TMC3    C8 9463   0.107   0.829  17.587  0.1029 -0.2030  0.3625
  635TMC3    O1 9464   4.341   0.753   0.126 -0.0813  0.5682  0.1898
  635TMC3    O2 9465   0.154   0.718  17.616  0.6440  0.0106  0.3965
  636MPD2     C 9466   1.106   0.108  16.113 -0.6062  0.3721  0.4186
  636MPD2    C1 9467   1.141   0.197  16.207 -0.1881 -0.5321 -0.6498
  636MPD2    C2 9468   1.150   0.162  16.340  0.6223 -0.4906  0.1651
  636MPD2    C3 9469   1.144   0.030  16.369 -0.2362 -0.4375 -0.2722
  636MPD2    C4 9470   1.113   4.673  16.274 -0.1580  0.3633  0.2365
  636MPD2    C5 9471   1.089   4.714  16.147  0.3978 -0.6857  0.2386
  636MPD2     H 9472   1.160   0.241  16.413 -2.2136 -0.6207  0.6735
  636MPD2    H1 9473   1.093   4.567  16.284 -2.2335  0.6815 -0.5178
  636MPD2    H2 9474   1.074   0.132  16.012 -0.2536 -1.8841 -0.2365
  636MPD2    H3 9475   1.060   4.646  16.068  1.6122 -2.3211  1.2016
  636MPD2     N 9476   1.148   4.734  16.503  0.0994  0.2438  0.4054
  636MPD2    H5 9477   1.150   0.068  16.576 -1.2364  0.4876  0.2040
  636MPD2    N1 9478   1.139   0.337  16.179 -0.5242  0.2467  0.5082
  636MPD2    H7 9479   1.134   0.395  16.263 -0.8821 -0.2920  0.8637
  637TMC3    C1 9480   1.194   4.602  16.689 -0.5389 -0.3550  0.5070
  637TMC3    C2 9481   1.164   4.711  16.764  0.0789 -0.1341  0.5181
  637TMC3    C3 9482   1.247   0.003  16.865  0.5385 -0.9520  0.1504
  637TMC3    C4 9483   1.312   4.525  16.702  0.7288 -0.0749  0.3732
  637TMC3    C5 9484   1.398   4.566  16.794 -0.4475 -0.0911 -0.3785
  637TMC3    C6 9485   1.359   4.662  16.881  0.0098  0.1396 -0.3906
  637TMC3     C 9486   1.151   4.601  16.552 -0.3003 -0.4689  0.3564
  637TMC3     O 9487   1.158   4.496  16.490  0.2878 -0.6603  0.0455
  637TMC3     H 9488   1.064   0.015  16.750  0.1110 -0.4908 -0.7290
  637TMC3    H1 9489   1.335   4.452  16.626 -0.0573  0.8757 -0.7886
  637TMC3    H2 9490   1.429   4.674  16.963  0.2819  0.8580 -0.7380
  637TMC3    C7 9491   1.507   4.607  16.707  0.7043  0.0861 -0.1215
  637TMC3    C8 9492   1.264   0.142  16.896 -1.3917  0.4779  0.6308
  637TMC3    O1 9493   1.554   4.517  16.636 -0.7017  0.2133 -0.2297
  637TMC3    O2 9494   1.379   0.176  16.884 -0.1506  0.1746  0.4206
  638MPD2     C 9495   0.799   3.899  15.349 -0.0766  0.8518  0.0066
  638MPD2    C1 9496   0.780   3.796  15.255  0.6377  0.4518 -0.9845
  638MPD2    C2 9497   0.719   3.674  15.305  0.7770  0.0943 -0.3029
  638MPD2    C3 9498   0.693   3.658  15.440  0.2696 -0.5794  0.2064
  638MPD2    C4 9499   0.728   3.760  15.531 -0.0041  0.1981 -0.1602
  638MPD2    C5 9500   0.768   3.880  15.480  0.0055  0.5072  0.1123
  638MPD2     H 9501   0.685   3.596  15.238  0.6971  0.6328 -0.8980
  638MPD2    H1 9502   0.710   3.755  15.638 -1.6492 -0.3479 -0.4671
  638MPD2    H2 9503   0.828   3.999  15.317 -1.0597  0.9065 -0.7157
  638MPD2    H3 9504   0.773   3.961  15.552  1.0377  1.3100 -0.8633
  638MPD2     N 9505   0.651   3.534  15.494  0.1118  0.2420  0.1145
  638MPD2    H5 9506   0.668   3.529  15.594 -2.9713 -0.5285  0.6055
  638MPD2    N1 9507   0.809   3.810  15.116 -0.8572 -0.3587 -0.0539
  638MPD2    H7 9508   0.857   3.896  15.089 -1.0151  0.4695  2.2892
  639TMC3    C1 9509   0.632   3.299  15.458  0.1265 -0.0308 -0.2764
  639TMC3    C2 9510   0.564   3.210  15.381  0.1764  0.5059  0.1140
  639TMC3    C3 9511   0.617   3.100  15.327 -0.3254 -0.0316  0.3589
  639TMC3    C4 9512   0.761   3.273  15.482 -0.3014 -0.6177  0.3101
  639TMC3    C5 9513   0.826   3.169  15.414  0.7910  0.1143 -0.7632
  639TMC3    C6 9514   0.755   3.089  15.330 -0.2966  0.1459 -0.3853
  639TMC3     C 9515   0.599   3.433  15.417  0.0329  0.5483  0.4767
  639TMC3     O 9516   0.542   3.433  15.307 -0.3647  0.0019  0.2408
  639TMC3     H 9517   0.457   3.224  15.367 -0.3006 -2.1374  1.1700
  639TMC3    H1 9518   0.821   3.353  15.526 -0.5790  0.8386 -1.9834
  639TMC3    H2 9519   0.806   3.005  15.284  1.4897  1.8773 -1.5807
  639TMC3    C7 9520   0.960   3.198  15.382 -0.5666  0.4648  0.2711
  639TMC3    C8 9521   0.548   3.032  15.219  0.0367  0.1531 -1.2181
  639TMC3    O1 9522   1.032   3.208  15.478  0.2687 -0.0914 -0.2876
  639TMC3    O2 9523   0.619   3.004  15.123  0.2068  0.0645  0.1948
  640MPD2     C 9524   1.244   2.915  10.277 -0.0679  0.1222 -0.4992
  640MPD2    C1 9525   1.160   2.852  10.195  0.7409  0.3591  0.8112
  640MPD2    C2 9526   1.032   2.908  10.172 -0.2807  0.0407  0.0590
  640MPD2    C3 9527   0.987   3.023  10.239  0.7266  1.2534 -0.5898
  640MPD2    C4 9528   1.078   3.084  10.323 -0.2290 -0.1700 -0.0032
  640MPD2    C5 9529   1.201   3.028  10.341 -0.0308  0.4158 -0.6217
  640MPD2     H 9530   0.965   2.869  10.096  2.2692 -1.9904 -1.1374
  640MPD2    H1 9531   1.055   3.171  10.383 -2.3759 -1.2742  0.7783
  640MPD2    H2 9532   1.347   2.888  10.294 -0.6987 -2.2210 -0.4447
  640MPD2    H3 9533   1.274   3.081  10.399 -0.8135 -1.1089  1.7540
  640MPD2     N 9534   0.863   3.093  10.207 -0.2563  0.0876  0.3237
  640MPD2    H5 9535   0.842   3.181  10.253  1.3061 -0.3154  1.7974
  640MPD2    N1 9536   1.195   2.732  10.138  0.6681  0.1380  0.4525
  640MPD2    H7 9537   1.294   2.709  10.144  0.4431 -1.0056 -0.2573
  641TMC3    C1 9538   1.195   2.528  10.015  0.7592 -0.1248  0.4468
  641TMC3    C2 9539   1.315   2.493  10.066 -0.0350  0.2384 -0.3020
  641TMC3    C3 9540   1.395   2.422   9.980 -0.1849 -0.0821  0.0360
  641TMC3    C4 9541   1.145   2.481   9.896  0.3799  0.6363 -0.3895
  641TMC3    C5 9542   1.229   2.410   9.815  0.1578 -0.4082 -0.7054
  641TMC3    C6 9543   1.355   2.385   9.854  1.0494 -0.0653 -0.3872
  641TMC3     C 9544   1.116   2.637  10.077 -0.2691  0.1598 -0.0306
  641TMC3     O 9545   0.996   2.629  10.063  0.4853  0.0412  0.0776
  641TMC3     H 9546   1.347   2.527  10.164  1.7708 -1.7966 -0.1703
  641TMC3    H1 9547   1.047   2.518   9.871  0.0769  0.8047  1.0649
  641TMC3    H2 9548   1.412   2.318   9.790  0.0583 -1.7965  0.5255
  641TMC3    C7 9549   1.210   2.387   9.667 -0.1758  0.0742 -0.3780
  641TMC3    C8 9550   1.520   2.362  10.012  0.7752  0.2701 -0.3331
  641TMC3    O1 9551   1.305   2.348   9.597  0.0444 -0.2942 -0.1251
  641TMC3    O2 9552   1.581   2.290   9.935  0.6224  0.3433 -0.5225
  642TMC3    C1 9553   2.269   3.635  12.574  0.1207 -0.1046  0.7481
  642TMC3    C2 9554   2.400   3.637  12.537  0.4520  1.1074 -0.0437
  642TMC3    C3 9555   2.451   3.540  12.453  0.1189 -0.0682 -0.7633
  642TMC3    C4 9556   2.181   3.534  12.536 -0.6657  0.3191 -0.3427
  642TMC3    C5 9557   2.232   3.443  12.447  0.1537  0.2369 -0.3397
  642TMC3    C6 9558   2.359   3.451  12.406 -0.3305  0.2831 -0.2770
  642TMC3     C 9559   2.226   3.746  12.663 -0.0551 -0.1017 -0.1237
  642TMC3     O 9560   2.307   3.778  12.748  0.1767  0.4186  0.6233
  642TMC3     H 9561   2.444   3.732  12.565  0.8440  1.4381 -1.7941
  642TMC3    H1 9562   2.075   3.526  12.559 -0.4376 -1.8180 -0.0111
  642TMC3    H2 9563   2.389   3.382  12.328 -2.3952  0.9524 -1.6716
  642TMC3    C7 9564   2.159   3.322  12.406 -0.2937  0.7827 -1.0453
  642TMC3    C8 9565   2.570   3.570  12.367  0.0669  0.1636  0.4398
  642TMC3    O1 9566   2.173   3.270  12.296 -0.5938 -0.0265 -0.5527
  642TMC3    O2 9567   2.587   3.508  12.267 -0.6618 -0.7041  0.5023
  643TMC3    C1 9568   1.832   2.694   0.141 -0.8175 -0.3969  0.1050
  643TMC3    C2 9569   1.704   2.710   0.104  0.5591  0.3103 -0.5064
  643TMC3    C3 9570   1.650   2.651  17.741 -0.6071 -0.0599 -0.0567
  643TMC3    C4 9571   1.920   2.620   0.065 -0.3034  0.5286 -0.3274
  643TMC3    C5 9572   1.867   2.551  17.700 -0.0306  0.6879  0.0867
  643TMC3    C6 9573   1.731   2.561  17.674  0.3069 -0.0442 -0.1135
  643TMC3     C 9574   1.883   2.805   0.219  0.1259 -0.0301 -0.2685
  643TMC3     O 9575   1.828   2.910   0.194 -0.4285  1.1621  0.0579
  643TMC3     H 9576   1.641   2.771   0.168  0.3363 -0.2984 -0.1371
  643TMC3    H1 9577   2.027   2.638   0.077 -0.0696 -0.2563 -1.2881
  643TMC3    H2 9578   1.682   2.514  17.589  1.0432  0.9165 -1.0846
  643TMC3    C7 9579   1.941   2.566  17.579  0.6091 -0.0200  0.2381
  643TMC3    C8 9580   1.578   2.739  17.652  0.1693 -0.1882 -0.2803
  643TMC3    O1 9581   2.030   2.648  17.576  0.4348  0.4576 -0.5204
  643TMC3    O2 9582   1.512   2.696  17.560  0.2051  0.3312 -0.4434
  644MPD2     C 9583   0.762   2.962   9.543  0.5959  0.4452 -0.0707
  644MPD2    C1 9584   0.825   2.869   9.629  0.8085 -0.3506  0.1705
  644MPD2    C2 9585   0.747   2.806   9.722 -0.1907 -0.2531  0.7835
  644MPD2    C3 9586   0.616   2.844   9.733  0.1592  1.2880 -0.0154
  644MPD2    C4 9587   0.557   2.941   9.660  0.0465  0.2204 -0.2628
  644MPD2    C5 9588   0.632   3.002   9.567  0.3220  0.3132 -0.0638
  644MPD2     H 9589   0.793   2.732   9.787 -0.7992 -0.6258  0.7883
  644MPD2    H1 9590   0.452   2.969   9.661  0.5062  1.7314  3.1338
  644MPD2    H2 9591   0.809   3.027   9.470  0.5547  1.2469  0.6239
  644MPD2    H3 9592   0.597   3.083   9.504  0.7126 -0.0172 -0.7136
  644MPD2     N 9593   0.545   2.788   9.841  0.4699  0.1372 -0.4839
  644MPD2    H5 9594   0.606   2.733   9.900 -1.1134  0.2772  1.2957
  644MPD2    N1 9595   0.959   2.845   9.609 -0.2243 -0.5481 -0.2064
  644MPD2    H7 9596   1.008   2.903   9.541  1.5528 -0.4949  1.0939
  645TMC3    C1 9597   0.378   2.734   9.994  0.5590  0.4897  0.0900
  645TMC3    C2 9598   0.473   2.691  10.083 -0.4496  1.0109  0.6280
  645TMC3    C3 9599   0.432   2.609  10.189  0.2199  0.6787  0.4111
  645TMC3    C4 9600   0.246   2.692  10.004 -0.3054 -0.6694  0.4478
  645TMC3    C5 9601   0.211   2.620  10.111  0.6893 -1.2616  0.1605
  645TMC3    C6 9602   0.302   2.568  10.194  0.2736  0.2673  0.2492
  645TMC3     C 9603   0.411   2.797   9.867 -0.1061 -0.0894  0.2462
  645TMC3     O 9604   0.324   2.843   9.797 -0.0905 -0.6371 -0.7158
  645TMC3     H 9605   0.573   2.731  10.089 -0.1938  0.4290  0.1991
  645TMC3    H1 9606   0.168   2.720   9.933  1.2349 -0.5892 -1.2101
  645TMC3    H2 9607   0.277   2.492  10.266 -2.2711 -0.9786 -1.9464
  645TMC3    C7 9608   0.079   2.550  10.097  0.0787  0.6080  0.1518
  645TMC3    C8 9609   0.523   2.563  10.298  0.3931 -0.2855  0.0311
  645TMC3    O1 9610   0.032   2.534   9.985  0.1558 -0.1442  0.0605
  645TMC3    O2 9611   0.468   2.475  10.365  0.4634  0.9770  0.6453
  646MPD2     C 9612   0.920   2.384  14.438 -0.1034 -0.1459 -0.2648
  646MPD2    C1 9613   0.851   2.392  14.557  0.0214 -0.6189 -0.4596
  646MPD2    C2 9614   0.731   2.466  14.567  0.4047  0.8591  0.2927
  646MPD2    C3 9615   0.687   2.529  14.455  0.5383 -0.2142  0.2953
  646MPD2    C4 9616   0.751   2.516  14.329 -0.2905  0.7335  0.5089
  646MPD2    C5 9617   0.869   2.450  14.329 -0.1897 -0.0173 -0.3060
  646MPD2     H 9618   0.670   2.467  14.656 -1.1181 -1.6880 -0.7285
  646MPD2    H1 9619   0.716   2.559  14.236 -2.4455 -0.2474  0.8648
  646MPD2    H2 9620   1.020   2.344  14.429  0.5361  1.4078  0.0086
  646MPD2    H3 9621   0.932   2.437  14.241 -1.7140  0.4699 -1.4715
  646MPD2     N 9622   0.563   2.602  14.471 -0.0031 -0.0292 -0.2500
  646MPD2    H5 9623   0.516   2.607  14.561 -1.1870 -1.6513 -0.7696
  646MPD2    N1 9624   0.909   2.335  14.672 -0.0650 -0.0650 -0.1244
  646MPD2    H7 9625   1.003   2.302  14.654 -0.6073 -1.7344  0.0781
  647TMC3    C1 9626   0.947   2.286  14.896  1.3348 -0.4367  0.6371
  647TMC3    C2 9627   0.896   2.263  15.022  1.2126  0.5022  0.5525
  647TMC3    C3 9628   0.975   2.201  15.112  0.1633 -0.0519 -0.4221
  647TMC3    C4 9629   1.078   2.246  14.858  0.3786 -0.0269  0.7394
  647TMC3    C5 9630   1.156   2.185  14.953  0.1619 -0.1880 -0.2945
  647TMC3    C6 9631   1.106   2.168  15.080 -0.2282 -0.1637  0.0225
  647TMC3     C 9632   0.849   2.331  14.792  0.4251  0.4880 -0.0899
  647TMC3     O 9633   0.731   2.344  14.816  0.2252  0.2373  0.4317
  647TMC3     H 9634   0.792   2.285  15.047  0.9485 -0.5255  0.3677
  647TMC3    H1 9635   1.126   2.265  14.763  0.2711  0.8102  0.8501
  647TMC3    H2 9636   1.166   2.129  15.162  0.7402  1.4649  0.0887
  647TMC3    C7 9637   1.292   2.142  14.928  0.2502  0.2419  0.0698
  647TMC3    C8 9638   0.927   2.198  15.255  0.2478  0.2312  0.6815
  647TMC3    O1 9639   1.357   2.133  15.033  0.5545  0.0222  0.1628
  647TMC3    O2 9640   0.844   2.282  15.289  0.2134 -1.0724  0.5144
  648TMC3    C1 9641   0.261   0.328  16.270  0.4223 -0.3517  0.4862
  648TMC3    C2 9642   0.298   0.216  16.196 -0.1575 -0.3234 -0.5809
  648TMC3    C3 9643   0.298   0.234  16.063 -0.3193  0.1710 -0.3131
  648TMC3    C4 9644   0.207   0.446  16.208  0.8797 -0.2146  0.4057
  648TMC3    C5 9645   0.212   0.455  16.073  0.3060  0.5447 -0.3727
  648TMC3    C6 9646   0.260   0.348  16.003 -0.8021  0.6183  0.7969
  648TMC3     C 9647   0.262   0.321  16.415  0.6300 -0.9013  0.0563
  648TMC3     O 9648   0.260   0.434  16.464 -0.0245  0.6365  0.0614
  648TMC3     H 9649   0.313   0.122  16.247  0.8216 -0.0095 -0.2879
  648TMC3    H1 9650   0.185   0.539  16.259  0.7356  0.0912 -0.2123
  648TMC3    H2 9651   0.245   0.353  15.896 -0.7225  0.1309  0.7633
  648TMC3    C7 9652   0.124   0.542  15.996 -0.8112  0.0528  1.2235
  648TMC3    C8 9653   0.288   0.123  15.975  0.4011  0.2648 -0.4455
  648TMC3    O1 9654   0.088   0.497  15.887 -0.3054  0.5677  0.1366
  648TMC3    O2 9655   0.210   0.141  15.876  1.0171  0.2709  0.0085
  649TMC3    C1 9656   3.875   1.617  12.964  0.1120 -0.2900  0.2311
  649TMC3    C2 9657   3.999   1.687  12.965 -0.4247 -0.1876  0.0374
  649TMC3    C3 9658   4.081   1.650  13.060 -0.3056  0.0303  0.5428
  649TMC3    C4 9659   3.851   1.515  13.054 -0.1010 -0.3503 -0.0032
  649TMC3    C5 9660   3.949   1.471  13.136  0.6404  0.4727 -0.2599
  649TMC3    C6 9661   4.064   1.543  13.142  0.0637  0.6348 -1.4420
  649TMC3     C 9662   3.782   1.636  12.856 -0.0196  0.2176  0.3134
  649TMC3     O 9663   3.663   1.611  12.874 -0.3597  0.1598  0.1303
  649TMC3     H 9664   4.013   1.772  12.900  0.2986 -0.0220  0.4154
  649TMC3    H1 9665   3.753   1.471  13.064 -0.8649  1.4744  0.4095
  649TMC3    H2 9666   4.142   1.523  13.214 -1.7210 -1.1329 -0.0079
  649TMC3    C7 9667   3.924   1.359  13.226  0.3810 -0.9638 -0.5711
  649TMC3    C8 9668   4.200   1.735  13.095 -0.6525  0.9312  0.3189
  649TMC3    O1 9669   3.815   1.310  13.211 -0.0494  0.2503 -0.6652
  649TMC3    O2 9670   4.256   1.710  13.196  0.0891 -0.6769  0.2512
  650TMC3    C1 9671   1.397   2.837  12.541 -0.1289  1.0164 -1.1112
  650TMC3    C2 9672   1.375   2.954  12.602  0.1288 -0.5631  0.4934
  650TMC3    C3 9673   1.323   3.055  12.526 -0.2727  0.7694 -0.4009
  650TMC3    C4 9674   1.381   2.836  12.406 -0.0881 -0.0532 -0.2541
  650TMC3    C5 9675   1.345   2.942  12.328  0.5107  0.1064  0.1646
  650TMC3    C6 9676   1.307   3.054  12.389  0.0802 -0.5377  0.3925
  650TMC3     C 9677   1.489   2.748  12.598  0.3876  0.5074 -0.0108
  650TMC3     O 9678   1.563   2.794  12.688 -0.2481  0.0966  0.3730
  650TMC3     H 9679   1.406   2.974  12.704 -1.0063  0.5535  0.6186
  650TMC3    H1 9680   1.422   2.752  12.351 -0.6529  0.7380 -1.8730
  650TMC3    H2 9681   1.271   3.139  12.332 -2.9696 -1.5124  0.8636
  650TMC3    C7 9682   1.339   2.931  12.185  0.2787 -0.0095  0.6793
  650TMC3    C8 9683   1.284   3.171  12.588 -0.0612  0.3584  0.0808
  650TMC3    O1 9684   1.348   2.818  12.144 -0.1083  0.1054 -0.5304
  650TMC3    O2 9685   1.301   3.273  12.525  0.0459 -0.4567  0.2845
  651MPD2     C 9686   0.855   0.375  11.460 -0.0736  0.2330  0.2814
  651MPD2    C1 9687   0.788   0.443  11.363  0.4577 -0.3983  0.6418
  651MPD2    C2 9688   0.861   0.510  11.270 -0.2679  0.6672  0.4096
  651MPD2    C3 9689   0.995   0.529  11.278  0.3752 -1.0702 -0.6764
  651MPD2    C4 9690   1.063   0.486  11.391  0.3104  0.3542 -0.1506
  651MPD2    C5 9691   0.990   0.406  11.478 -0.0474 -0.7868 -0.0132
  651MPD2     H 9692   0.809   0.552  11.185 -0.2532  1.4008  0.7625
  651MPD2    H1 9693   1.168   0.503  11.412  0.5886 -2.0696  0.4785
  651MPD2    H2 9694   0.804   0.302  11.522 -1.5202  0.2716 -0.8760
  651MPD2    H3 9695   1.048   0.360  11.557 -1.7048  0.6728  2.0654
  651MPD2     N 9696   1.060   0.598  11.174  0.2807  0.0527 -0.6277
  651MPD2    H5 9697   0.999   0.641  11.105  2.7892  2.6467 -1.2005
  651MPD2    N1 9698   0.647   0.447  11.347 -0.0501  0.2645  0.2993
  651MPD2    H7 9699   0.602   0.505  11.277 -0.1184 -0.0249  0.1073
  652TMC3    C1 9700   1.419   0.751  10.921  0.4047  0.7794  0.5802
  652TMC3    C2 9701   1.365   0.734  11.045 -0.6136  0.4683  0.1386
  652TMC3    C3 9702   1.234   0.693  11.049  0.0904  0.1950 -0.0672
  652TMC3    C4 9703   1.349   0.732  10.804 -0.1751  0.5903  0.4684
  652TMC3    C5 9704   1.219   0.710  10.821  0.0263 -0.6026 -0.1897
  652TMC3    C6 9705   1.157   0.690  10.938  0.4185 -0.1952 -1.1184
  652TMC3     C 9706   1.565   0.766  10.927 -0.0179  0.6164 -0.1229
  652TMC3     O 9707   1.613   0.780  11.039  0.5105  0.6120  0.2869
  652TMC3     H 9708   1.422   0.731  11.137  1.6956 -0.4686 -1.3279
  652TMC3    H1 9709   1.397   0.730  10.707 -2.1165  0.2316 -0.4952
  652TMC3    H2 9710   1.050   0.675  10.947  0.6132 -0.8916 -0.0047
  652TMC3    C7 9711   1.130   0.709  10.704  0.1302 -0.0562 -0.1659
  652TMC3    C8 9712   1.198   0.626  11.165  0.0871  0.0863  0.6281
  652TMC3    O1 9713   1.040   0.624  10.709  0.1353 -0.1582 -0.1648
  652TMC3    O2 9714   1.284   0.613  11.253  0.0054 -0.9826  0.2775
  653MPD2     C 9715   3.846   0.417   0.293 -0.1371  0.0300  0.6328
  653MPD2    C1 9716   3.859   0.485   0.174  0.5396 -0.0096 -0.3907
  653MPD2    C2 9717   3.825   0.421   0.058 -0.0141 -0.1065 -0.2245
  653MPD2    C3 9718   3.778   0.294   0.054  0.0643  0.2891 -0.2491
  653MPD2    C4 9719   3.764   0.235   0.179 -0.1645  0.6824 -0.3528
  653MPD2    C5 9720   3.791   0.298   0.296 -0.1129  0.3155  0.1110
  653MPD2     H 9721   3.811   0.471  17.704 -0.4524 -0.6775 -0.4652
  653MPD2    H1 9722   3.726   0.135   0.192 -0.2550  0.6414 -0.9392
  653MPD2    H2 9723   3.859   0.471   0.386  0.4850 -1.0425  1.1748
  653MPD2    H3 9724   3.772   0.251   0.392 -0.6964 -0.7843 -0.5466
  653MPD2     N 9725   3.742   0.231  17.678  0.0615  0.6088  0.5650
  653MPD2    H5 9726   3.761   0.285  17.594  2.0270 -2.1135 -0.7262
  653MPD2    N1 9727   3.913   0.613   0.156  0.2220  0.7102 -0.3141
  653MPD2    H7 9728   3.910   0.663   0.068 -2.0398  1.7069  0.3292
  654TMC3    C1 9729   3.694   0.064  17.528  0.4834 -0.4260  0.0776
  654TMC3    C2 9730   3.659   0.165  17.446 -0.3015 -0.3639  0.3744
  654TMC3    C3 9731   3.673   0.153  17.313  0.4962  0.5993  0.6755
  654TMC3    C4 9732   3.733   4.680  17.487  0.4563  0.0660  0.4723
  654TMC3    C5 9733   3.753   4.665  17.348  0.5645  0.5033 -0.3314
  654TMC3    C6 9734   3.725   0.038  17.267  0.0582  0.0907  0.7159
  654TMC3     C 9735   3.707   0.097  17.665 -0.2805 -0.1571  0.2621
  654TMC3     O 9736   3.723   0.005   0.003  0.1362 -0.3546  0.2739
  654TMC3     H 9737   3.611   0.257  17.478 -1.0834 -1.3041  1.9140
  654TMC3    H1 9738   3.753   4.603  17.561  0.9838 -1.9527 -1.7618
  654TMC3    H2 9739   3.739   0.027  17.160 -1.5808  0.5154  0.4497
  654TMC3    C7 9740   3.797   4.541  17.282  0.5703 -0.0903 -0.1361
  654TMC3    C8 9741   3.556   0.185  17.235 -0.2310  0.1807 -0.2949
  654TMC3    O1 9742   3.808   4.547  17.161 -0.3380 -0.4541 -0.3615
  654TMC3    O2 9743   3.452   0.193  17.294  0.0924  0.5144 -0.4807
  655MPD2     C 9744   0.738   0.446  16.155  0.0126 -0.7192  1.0712
  655MPD2    C1 9745   0.637   0.474  16.065  0.2920  0.0767 -0.2017
  655MPD2    C2 9746   0.607   0.390  15.962 -0.0856 -0.1104  0.0671
  655MPD2    C3 9747   0.677   0.278  15.933  0.4348 -0.0086  0.4507
  655MPD2    C4 9748   0.784   0.259  16.019  0.4292 -0.8942  0.0324
  655MPD2    C5 9749   0.806   0.329  16.135  0.4515  0.8985  0.2179
  655MPD2     H 9750   0.514   0.411  15.910 -0.5206 -0.1794  0.8169
  655MPD2    H1 9751   0.841   0.170  15.993  2.3233  0.0442  0.9474
  655MPD2    H2 9752   0.748   0.498  16.250 -2.5211  1.4256  0.1658
  655MPD2    H3 9753   0.884   0.291  16.200 -0.8273  0.1437  1.3179
  655MPD2     N 9754   0.663   0.193  15.818  0.3034  0.1511  0.0610
  655MPD2    H5 9755   0.719   0.108  15.822 -0.4993 -0.4594 -1.5703
  655MPD2    N1 9756   0.553   0.586  16.079  0.2461  0.1640 -0.3097
  655MPD2    H7 9757   0.493   0.609  16.000 -1.9474  0.3409  1.4065
  656TMC3    C1 9758   0.456   0.779  16.180 -0.3266  0.5742 -0.1046
  656TMC3    C2 9759   0.373   0.796  16.287  1.3932 -0.2488 -0.0022
  656TMC3    C3 9760   0.278   0.891  16.278  0.2995 -0.6126  0.0124
  656TMC3    C4 9761   0.427   0.841  16.063 -0.1051 -0.4017 -0.0766
  656TMC3    C5 9762   0.330   0.931  16.052 -0.1430  0.1245  0.0700
  656TMC3    C6 9763   0.252   0.961  16.159 -0.7184  0.6391  0.2240
  656TMC3     C 9764   0.544   0.667  16.197  0.3169  0.1109 -0.7035
  656TMC3     O 9765   0.585   0.640  16.311 -0.3731 -0.4603  0.3574
  656TMC3     H 9766   0.390   0.735  16.375  0.0671 -0.3612  0.1781
  656TMC3    H1 9767   0.487   0.817  15.975 -2.0299  0.0073 -1.5104
  656TMC3    H2 9768   0.165   1.024  16.170 -0.5648  1.4711 -3.2584
  656TMC3    C7 9769   0.280   0.957  15.914  0.0080  0.0487  0.1151
  656TMC3    C8 9770   0.154   0.860  16.339 -0.0015  0.0226  0.0453
  656TMC3    O1 9771   0.350   0.913  15.822 -0.5007  0.0960  0.4747
  656TMC3    O2 9772   0.118   0.746  16.356  0.1156  0.2077 -0.0749
  657TMC3    C1 9773   4.173   4.102  15.492  0.3106 -0.3835 -0.2478
  657TMC3    C2 9774   4.212   4.153  15.612 -0.3249  0.7715 -0.0863
  657TMC3    C3 9775   4.197   4.286  15.636  0.7329  0.0079 -0.1871
  657TMC3    C4 9776   4.112   4.182  15.395 -0.5296  0.4484  0.1552
  657TMC3    C5 9777   4.119   4.317  15.410  0.6668  0.6350  0.6566
  657TMC3    C6 9778   4.150   4.372  15.535 -0.5354  1.5458 -0.8473
  657TMC3     C 9779   4.182   3.963  15.459  0.1853 -0.2691  0.1287
  657TMC3     O 9780   4.082   3.906  15.413 -0.4200 -0.5993 -0.2167
  657TMC3     H 9781   4.272   4.085  15.672 -1.5291  0.1066  0.3698
  657TMC3    H1 9782   4.085   4.132  15.302 -0.5189 -0.7093  0.7659
  657TMC3    H2 9783   4.153   4.479  15.553  0.0695  1.5416 -0.9313
  657TMC3    C7 9784   4.080   4.401  15.293 -0.3885 -0.6673 -0.1018
  657TMC3    C8 9785   4.265   4.346  15.756  0.4005  0.4570  0.9245
  657TMC3    O1 9786   4.057   4.343  15.191 -0.2973 -0.5424 -0.2891
  657TMC3    O2 9787   4.291   4.466  15.752  0.4949 -0.2010 -0.3084
  658MPD2     C 9788   1.110   4.563  15.456  0.1968  0.2284  1.2452
  658MPD2    C1 9789   0.998   4.584  15.383  0.2626 -0.3861 -0.0912
  658MPD2    C2 9790   1.003   4.585  15.245  0.8015 -0.6938 -0.1776
  658MPD2    C3 9791   1.128   4.575  15.186  0.4318 -0.7370  0.8073
  658MPD2    C4 9792   1.241   4.545  15.260 -0.0604 -0.4306  0.2343
  658MPD2    C5 9793   1.231   4.539  15.397  0.8661  0.3088  0.0369
  658MPD2     H 9794   0.911   4.590  15.188 -0.3854 -0.5368  1.7783
  658MPD2    H1 9795   1.338   4.535  15.211 -0.3467 -1.5433 -0.1143
  658MPD2    H2 9796   1.096   4.553  15.563 -0.8285  0.2639  1.1136
  658MPD2    H3 9797   1.317   4.547  15.462  1.4602 -0.5992 -0.6408
  658MPD2     N 9798   1.129   4.594  15.049  0.0097  0.2546 -0.0537
  658MPD2    H5 9799   1.040   4.623  15.010  0.6645 -1.3639 -2.7572
  658MPD2    N1 9800   0.878   4.609  15.451 -0.1711 -0.1238 -0.1384
  658MPD2    H7 9801   0.877   4.577  15.548 -0.6870 -1.5993 -0.6275
  659TMC3    C1 9802   0.655   4.670  15.498 -0.6807  0.3587  0.1466
  659TMC3    C2 9803   0.664   0.037  15.588  0.0396  0.0401 -0.3203
  659TMC3    C3 9804   0.553   0.108  15.625  0.4737 -0.2299  0.4479
  659TMC3    C4 9805   0.533   4.634  15.447 -0.0718  0.3562  0.2256
  659TMC3    C5 9806   0.425   4.707  15.492  0.4402  0.0152  0.7158
  659TMC3    C6 9807   0.428   0.081  15.577  0.8035 -0.1252  0.2674
  659TMC3     C 9808   0.761   4.657  15.393 -0.4446 -0.4711  0.1422
  659TMC3     O 9809   0.731   4.679  15.279 -0.4125  0.1591  0.1504
  659TMC3     H 9810   0.763   0.075  15.609 -1.1389  2.5393  0.7100
  659TMC3    H1 9811   0.513   4.563  15.367 -1.2090  1.7493 -0.7323
  659TMC3    H2 9812   0.345   0.143  15.611  0.2992 -0.6135 -0.0705
  659TMC3    C7 9813   0.286   4.683  15.448  0.0794  0.4877 -0.1126
  659TMC3    C8 9814   0.564   0.214  15.724 -0.8247  0.3971 -0.1886
  659TMC3    O1 9815   0.202   4.733  15.523  0.0813  0.2510 -0.1082
  659TMC3    O2 9816   0.474   0.298  15.718  0.5852 -0.7014  0.1692
  660MPD2     C 9817   3.448   4.296  12.755  0.4892  0.2144  0.1770
  660MPD2    C1 9818   3.320   4.306  12.805 -0.0886  0.5559  0.1716
  660MPD2    C2 9819   3.308   4.306  12.938 -0.2980  1.0748  1.2068
  660MPD2    C3 9820   3.412   4.293  13.028 -0.8573 -0.0278 -0.9283
  660MPD2    C4 9821   3.538   4.277  12.976 -0.8421  0.2148  0.3908
  660MPD2    C5 9822   3.556   4.293  12.838  0.3333  0.0078 -0.0264
  660MPD2     H 9823   3.212   4.306  12.990  0.1222  1.6005  1.9734
  660MPD2    H1 9824   3.630   4.279  13.034  0.2737 -0.0151 -1.3972
  660MPD2    H2 9825   3.452   4.303  12.647 -0.3758  1.2092  0.2103
  660MPD2    H3 9826   3.655   4.282  12.796  0.4009  0.6457 -0.0365
  660MPD2     N 9827   3.381   4.261  13.157  0.2499 -0.2283  0.0536
  660MPD2    H5 9828   3.284   4.266  13.188  0.1195 -0.7816 -0.2676
  660MPD2    N1 9829   3.212   4.307  12.711  0.1707  0.5855  0.1018
  660MPD2    H7 9830   3.236   4.298  12.613  0.2898 -0.4029  0.2238
  661TMC3    C1 9831   2.992   4.307  12.628 -0.0875  0.1326  0.0172
  661TMC3    C2 9832   3.024   4.391  12.515  0.0165 -0.9504 -0.4301
  661TMC3    C3 9833   2.925   4.410  12.421 -0.0215  0.2038  0.4939
  661TMC3    C4 9834   2.871   4.251  12.641 -0.2538 -0.7433 -0.9088
  661TMC3    C5 9835   2.785   4.261  12.532 -0.2590 -0.1009 -0.1916
  661TMC3    C6 9836   2.809   4.337  12.422 -0.2213 -0.0074  0.3359
  661TMC3     C 9837   3.078   4.295  12.746  0.6064  0.3403 -0.4486
  661TMC3     O 9838   3.029   4.299  12.859  0.1349 -0.3124 -0.0352
  661TMC3     H 9839   3.117   4.445  12.502  0.5129 -1.8990 -0.8303
  661TMC3    H1 9840   2.855   4.168  12.709  5.0051 -0.6476  0.3893
  661TMC3    H2 9841   2.737   4.347  12.341 -0.6829 -2.4109  0.4390
  661TMC3    C7 9842   2.657   4.213  12.556  0.2501 -0.0073  0.4661
  661TMC3    C8 9843   2.951   4.504  12.318 -0.6740  0.5468 -0.6525
  661TMC3    O1 9844   2.601   4.214  12.664 -0.2342 -1.1250  0.7403
  661TMC3    O2 9845   3.038   4.583  12.334 -0.0731 -0.4025  0.2761
  662MPD2     C 9846   3.596   2.698  17.508  0.1089 -0.9509  0.8648
  662MPD2    C1 9847   3.611   2.818  17.433 -0.0762 -0.2457 -0.2153
  662MPD2    C2 9848   3.585   2.939  17.492  0.0245  0.0427  0.1644
  662MPD2    C3 9849   3.541   2.949  17.624 -0.3230 -0.1497 -0.0025
  662MPD2    C4 9850   3.519   2.826  17.690  0.2832 -0.0352 -0.0612
  662MPD2    C5 9851   3.549   2.703  17.639  0.0815 -0.3328  0.5150
  662MPD2     H 9852   3.597   3.027  17.430 -1.4796  0.8454  1.0080
  662MPD2    H1 9853   3.489   2.828   0.053 -1.6105 -2.1387 -0.5633
  662MPD2    H2 9854   3.614   2.598  17.472 -0.9246 -0.5627 -0.7127
  662MPD2    H3 9855   3.520   2.613  17.692  2.1277 -0.2299  1.8146
  662MPD2     N 9856   3.545   3.069  17.700 -0.0976 -0.2305 -0.4705
  662MPD2    H5 9857   3.497   3.067   0.049  0.8900  0.9357  0.0766
  662MPD2    N1 9858   3.646   2.824  17.294  0.8227  0.6164  0.0598
  662MPD2    H7 9859   3.672   2.916  17.259  1.3970  0.3390 -0.2400
  663TMC3    C1 9860   3.725   2.743  17.095  0.2308  0.1499 -0.1479
  663TMC3    C2 9861   3.809   2.851  17.095  0.0573  0.0841 -0.2815
  663TMC3    C3 9862   3.924   2.845  17.017  0.6012  0.5950 -0.0624
  663TMC3    C4 9863   3.766   2.627  17.032  0.2373 -0.6205 -0.1810
  663TMC3    C5 9864   3.891   2.617  16.979  0.0202 -0.6255  0.6771
  663TMC3    C6 9865   3.968   2.727  16.959 -0.7197 -0.2506 -0.0760
  663TMC3     C 9866   3.666   2.710  17.220  0.8356  0.1500  0.8349
  663TMC3     O 9867   3.642   2.593  17.247 -0.2130  0.3996  0.2425
  663TMC3     H 9868   3.787   2.954  17.122  1.8020 -0.0772  1.7670
  663TMC3    H1 9869   3.702   2.540  17.026 -1.4658  0.5540  0.9478
  663TMC3    H2 9870   4.072   2.717  16.928 -0.6634 -0.3620  0.1486
  663TMC3    C7 9871   3.958   2.493  17.016 -0.2496  0.8825  0.0258
  663TMC3    C8 9872   4.029   2.906  17.093  0.1248  0.4431  0.7147
  663TMC3    O1 9873   4.071   2.472  16.970  0.0377 -0.3142  0.4414
  663TMC3    O2 9874   4.130   2.936  17.036  0.0880  0.3568  0.3749
  664MPD2     C 9875   1.991   1.659  17.409  0.0332  0.6779  0.2179
  664MPD2    C1 9876   2.088   1.751  17.445  0.2197  0.5351  0.1654
  664MPD2    C2 9877   2.155   1.733  17.566 -0.9926  0.1148 -0.1870
  664MPD2    C3 9878   2.124   1.636  17.653 -0.8006 -0.0530  0.6023
  664MPD2    C4 9879   2.027   1.543  17.613  0.0995  0.0091 -0.3576
  664MPD2    C5 9880   1.960   1.563  17.495 -0.0384  0.3983 -0.0525
  664MPD2     H 9881   2.237   1.796  17.596 -0.3433 -0.4177 -0.8600
  664MPD2    H1 9882   1.993   1.456  17.668  1.4511 -0.8873 -0.9653
  664MPD2    H2 9883   1.943   1.658  17.311 -0.1587 -0.0768  0.3242
  664MPD2    H3 9884   1.885   1.489  17.469 -0.8028  0.8305  0.9068
  664MPD2     N 9885   2.209   1.614   0.023  0.4201  0.2893 -0.6170
  664MPD2    H5 9886   2.301   1.655   0.034  0.7226 -0.0421 -1.9943
  664MPD2    N1 9887   2.121   1.861  17.361  0.1776  0.3352 -0.6508
  664MPD2    H7 9888   2.206   1.911  17.384 -0.3497  0.7314  0.4389
  665TMC3    C1 9889   2.256   1.554   0.247  0.4912 -0.3324 -0.0949
  665TMC3    C2 9890   2.203   1.493   0.362 -0.1978  0.7744  0.4001
  665TMC3    C3 9891   2.261   1.510   0.478 -0.7097  0.2117 -0.7132
  665TMC3    C4 9892   2.370   1.627   0.252 -0.0570  0.9017 -0.0625
  665TMC3    C5 9893   2.428   1.639   0.379 -0.0260  0.2596  0.0316
  665TMC3    C6 9894   2.375   1.588   0.495  0.5538 -0.0496  0.4149
  665TMC3     C 9895   2.162   1.558   0.134 -0.9854  0.3176 -0.5827
  665TMC3     O 9896   2.056   1.504   0.150 -0.4441 -0.3725  0.4957
  665TMC3     H 9897   2.108   1.441   0.353  0.0991  0.3768 -0.3679
  665TMC3    H1 9898   2.415   1.669   0.163  2.4403 -0.5568  0.5108
  665TMC3    H2 9899   2.436   1.593   0.584  1.1494 -0.4128  0.0246
  665TMC3    C7 9900   2.531   1.743   0.393 -0.3897 -0.0735  0.5909
  665TMC3    C8 9901   2.188   1.470   0.601  0.6948 -1.4724 -0.5381
  665TMC3    O1 9902   2.550   1.815   0.298  0.1953 -0.6932 -0.1077
  665TMC3    O2 9903   2.069   1.436   0.605 -0.0901  0.4567  0.2471
  666TMC3    C1 9904   1.508   1.990  10.503 -0.0506  0.8116  0.2566
  666TMC3    C2 9905   1.514   1.947  10.371 -0.3303 -0.5582  0.0492
  666TMC3    C3 9906   1.464   2.029  10.271  0.9389 -0.4096 -0.6002
  666TMC3    C4 9907   1.473   2.115  10.543  0.6098  0.3444  0.4625
  666TMC3    C5 9908   1.422   2.196  10.438  0.6926  0.0950  0.1593
  666TMC3    C6 9909   1.430   2.157  10.300 -0.1177 -0.2771 -0.8457
  666TMC3     C 9910   1.480   1.895  10.601 -0.2077 -0.5272  0.9272
  666TMC3     O 9911   1.504   1.923  10.717  0.4042  0.2160 -0.3385
  666TMC3     H 9912   1.548   1.848  10.340 -1.2562  0.0228 -2.7784
  666TMC3    H1 9913   1.451   2.136  10.648  0.2995  2.0515  0.0454
  666TMC3    H2 9914   1.406   2.224  10.218 -1.5559 -1.0633 -1.0619
  666TMC3    C7 9915   1.389   2.334  10.470  0.3074  0.1225 -0.1895
  666TMC3    C8 9916   1.422   1.954  10.158 -0.2828  0.3990  0.3665
  666TMC3    O1 9917   1.285   2.384  10.427 -0.0019 -0.0550 -0.3895
  666TMC3    O2 9918   1.483   1.851  10.120  0.1184 -0.3131  0.4811
  667MPD2     C 9919   2.892   1.875  14.379  0.0506 -0.3975  0.7299
  667MPD2    C1 9920   2.910   1.805  14.498  0.7141  0.0741 -0.5741
  667MPD2    C2 9921   2.815   1.724  14.548 -0.6160  0.6919  0.2566
  667MPD2    C3 9922   2.706   1.697  14.475  0.1433 -0.1071 -0.0808
  667MPD2    C4 9923   2.688   1.757  14.349  0.1428  0.1426  0.0521
  667MPD2    C5 9924   2.781   1.846  14.297 -1.0503  0.6388  0.0557
  667MPD2     H 9925   2.834   1.665  14.637  0.1351 -2.7636 -2.1972
  667MPD2    H1 9926   2.597   1.737  14.294  0.4918 -0.1533 -0.4125
  667MPD2    H2 9927   2.972   1.942  14.348  0.3022 -0.9098  0.2666
  667MPD2    H3 9928   2.766   1.898  14.204  0.3471  0.3168 -0.3536
  667MPD2     N 9929   2.608   1.613  14.519 -0.1849  0.1058  0.3434
  667MPD2    H5 9930   2.524   1.621  14.462  1.3970  1.4499 -1.8099
  667MPD2    N1 9931   3.017   1.844  14.587 -0.1288 -0.3770  0.0012
  667MPD2    H7 9932   3.016   1.804  14.680  0.6233  0.5396  0.3934
  668TMC3    C1 9933   3.199   1.962  14.682 -0.1318 -0.1059  0.6786
  668TMC3    C2 9934   3.284   2.067  14.667  0.2270 -0.1969  0.8586
  668TMC3    C3 9935   3.331   2.132  14.776  0.1316  0.3273 -0.1318
  668TMC3    C4 9936   3.145   1.927  14.805 -0.0329 -0.0955 -0.0210
  668TMC3    C5 9937   3.195   1.990  14.911  0.3469  0.2914 -0.1742
  668TMC3    C6 9938   3.289   2.093  14.904 -0.2394 -0.1283  0.2694
  668TMC3     C 9939   3.123   1.934  14.560 -0.4442 -0.1765  0.3261
  668TMC3     O 9940   3.154   1.990  14.457  0.2079 -0.9358 -0.6670
  668TMC3     H 9941   3.315   2.086  14.565 -1.0965  1.1267  0.7014
  668TMC3    H1 9942   3.073   1.847  14.822 -1.0625  0.8963  0.3009
  668TMC3    H2 9943   3.327   2.150  14.988  0.2002 -0.9317  0.6136
  668TMC3    C7 9944   3.128   1.984  15.042  0.4249  0.7633 -0.0204
  668TMC3    C8 9945   3.450   2.210  14.761  0.1895 -0.2572  0.3056
  668TMC3    O1 9946   3.139   2.079  15.117  0.0646 -0.1220  0.3683
  668TMC3    O2 9947   3.478   2.277  14.856  0.0309 -0.0928  0.0318
  669TMC3    C1 9948   0.575   1.578  14.389 -0.5703 -0.2148  0.1879
  669TMC3    C2 9949   0.443   1.583  14.359  0.9212 -0.1362 -0.1191
  669TMC3    C3 9950   0.398   1.699  14.304 -0.8841 -0.1854  0.7783
  669TMC3    C4 9951   0.657   1.682  14.360 -0.1341 -0.4649  0.3060
  669TMC3    C5 9952   0.612   1.790  14.293 -0.7334  0.1037 -0.0936
  669TMC3    C6 9953   0.474   1.806  14.268  0.5912  0.1155 -0.5515
  669TMC3     C 9954   0.613   1.480  14.485 -0.8244 -0.0604  0.4808
  669TMC3     O 9955   0.528   1.408  14.541 -0.2751  0.0779  0.1362
  669TMC3     H 9956   0.373   1.510  14.398  0.4744  0.8637  0.9665
  669TMC3    H1 9957   0.763   1.672  14.384 -0.1308 -0.8189  0.1426
  669TMC3    H2 9958   0.429   1.884  14.207 -1.1488 -3.0256 -3.3101
  669TMC3    C7 9959   0.711   1.883  14.240  0.3327 -0.2291 -0.5548
  669TMC3    C8 9960   0.258   1.721  14.307  0.3749 -0.0922 -0.5053
  669TMC3    O1 9961   0.807   1.904  14.311 -0.3260 -0.0126 -0.0373
  669TMC3    O2 9962   0.181   1.623  14.304 -0.1528  0.5394 -0.4485
  670MPD2     C 9963   4.007   4.488  13.794  0.1186 -0.1242 -0.5513
  670MPD2    C1 9964   4.075   4.454  13.903  0.3186 -0.0357 -0.2239
  670MPD2    C2 9965   4.007   4.399  14.010  0.2870  0.0149  0.2961
  670MPD2    C3 9966   3.866   4.414  14.018  0.7111 -0.3331  0.8153
  670MPD2    C4 9967   3.805   4.484  13.916 -0.5831 -0.2684 -0.0818
  670MPD2    C5 9968   3.872   4.513  13.810  0.1154 -0.1993  0.6869
  670MPD2     H 9969   4.055   4.367  14.103 -0.7847 -0.7225  0.5911
  670MPD2    H1 9970   3.698   4.496  13.902 -0.9361 -1.6934  1.4931
  670MPD2    H2 9971   4.062   4.516  13.705 -1.2297  1.0233 -1.0249
  670MPD2    H3 9972   3.814   4.554  13.728  0.0824 -2.2156 -0.2972
  670MPD2     N 9973   3.800   4.363  14.132 -0.1666 -0.2209  0.0723
  670MPD2    H5 9974   3.860   4.333  14.207  0.3103  3.5880  1.1993
  670MPD2    N1 9975   4.219   4.454  13.908 -0.1148 -0.1175 -0.3458
  670MPD2    H7 9976   4.261   4.401  13.984 -1.7204  0.3352  0.8573
  671TMC3    C1 9977   3.617   4.272  14.261 -0.0319 -0.3052  0.3828
  671TMC3    C2 9978   3.701   4.237  14.357 -0.3959 -0.3100 -0.8265
  671TMC3    C3 9979   3.652   4.142  14.436  0.5889  0.1902  0.3196
  671TMC3    C4 9980   3.509   4.205  14.225 -0.2995 -0.3980 -1.1577
  671TMC3    C5 9981   3.465   4.107  14.309 -0.0437  0.1641  0.1282
  671TMC3    C6 9982   3.535   4.088  14.422 -0.3351  0.7348  0.6386
  671TMC3     C 9983   3.664   4.362  14.158  0.0401  0.2831 -0.0934
  671TMC3     O 9984   3.578   4.423  14.096 -0.4165 -0.8476  0.3832
  671TMC3     H 9985   3.785   4.297  14.389 -2.1142  1.0074  1.1964
  671TMC3    H1 9986   3.463   4.230  14.130 -4.3361 -0.3816  0.8125
  671TMC3    H2 9987   3.507   4.009  14.491 -0.3509 -0.1761 -0.4212
  671TMC3    C7 9988   3.431   3.990  14.240 -0.2329 -0.7085 -0.5350
  671TMC3    C8 9989   3.741   4.047  14.495  0.1668 -0.0962  1.0127
  671TMC3    O1 9990   3.335   3.999  14.167 -0.3101  0.1149  0.2217
  671TMC3    O2 9991   3.709   3.928  14.490  0.1396  0.0518 -0.6078
  672MPD2     C 9992   4.019   4.678   1.292 -0.1466 -0.0377  0.4289
  672MPD2    C1 9993   4.104   4.657   1.190 -0.2680  0.7176  0.4870
  672MPD2    C2 9994   4.228   4.718   1.190 -0.3786  0.0239  0.4796
  672MPD2    C3 9995   4.263   0.070   1.290 -0.2307  0.7286 -0.1016
  672MPD2    C4 9996   4.175   0.092   1.393 -0.0682 -0.1869  0.5127
  672MPD2    C5 9997   4.062   0.023   1.398  0.8212 -0.2425 -0.9703
  672MPD2     H 9998   4.288   4.702   1.101 -3.2586  1.6303 -1.7614
  672MPD2    H1 9999   4.198   0.156   1.478 -0.8813 -1.1745  1.4757
  672MPD2    H210000   3.921   4.639   1.318 -0.7128 -0.0681 -1.7189
  672MPD2    H310001   3.995   0.022   1.483  0.7978  1.8062 -0.9604
  672MPD2     N10002   4.390   0.145   1.281 -0.1650 -0.7521 -0.1306
  672MPD2    H510003   4.408   0.211   1.356  0.6984 -0.9636 -0.1575
  672MPD2    N110004   4.069   4.579   1.079 -0.0265 -0.1425 -0.6964
  672MPD2    H710005   4.143   4.573   1.010  1.3717  1.8942  0.6093
  673TMC3    C110006   3.948   4.485   0.912 -0.0254  0.6543  0.0805
  673TMC3    C210007   4.055   4.404   0.879 -0.1245  0.0372 -0.5694
  673TMC3    C310008   4.048   4.347   0.755 -0.3469 -0.5215  0.0271
  673TMC3    C410009   3.849   4.516   0.828  0.7566 -0.2633  0.0109
  673TMC3    C510010   3.850   4.452   0.708 -0.3202  0.0809  0.4853
  673TMC3    C610011   3.947   4.368   0.670 -0.2750 -0.1665 -0.2038
  673TMC3     C10012   3.942   4.541   1.043  0.5136 -0.5512  0.0801
  673TMC3     O10013   3.837   4.580   1.089  0.2406 -0.3943 -0.6474
  673TMC3     H10014   4.137   4.383   0.946  0.8731  0.4227 -1.6696
  673TMC3    H110015   3.764   4.577   0.858  1.3963  1.1506 -1.0238
  673TMC3    H210016   3.946   4.319   0.573  1.6483  0.7148 -0.6764
  673TMC3    C710017   3.745   4.478   0.606  0.7197 -0.1648 -0.5696
  673TMC3    C810018   4.156   4.260   0.712 -0.2660 -0.4794  0.2136
  673TMC3    O110019   3.728   4.391   0.520  0.3699 -0.1693 -0.0437
  673TMC3    O210020   4.125   4.190   0.619 -0.2858 -0.6303 -0.6837
  674MPD2     C10021   3.924   3.672  17.585  0.1322 -0.1041  0.2655
  674MPD2    C110022   3.893   3.640  17.716 -0.0956 -0.4605  0.5008
  674MPD2    C210023   3.849   3.738   0.064  0.0385 -0.0986 -0.1950
  674MPD2    C310024   3.843   3.864   0.016 -0.2235  0.4421 -0.2566
  674MPD2    C410025   3.884   3.893  17.631  0.4025 -0.2336 -0.0643
  674MPD2    C510026   3.923   3.800  17.543 -0.0205  0.5897  0.2055
  674MPD2     H10027   3.816   3.726   0.166  2.0490 -1.6296  0.2763
  674MPD2    H110028   3.889   3.987  17.576 -0.4849 -0.8801 -1.2402
  674MPD2    H210029   3.936   3.590  17.515  0.4248  1.6978 -1.7673
  674MPD2    H310030   3.936   3.831  17.440  2.6700 -2.5897 -0.4038
  674MPD2     N10031   3.810   3.962   0.114  0.6935 -0.6678  0.2971
  674MPD2    H510032   3.779   3.927   0.204 -1.6722 -1.0304 -0.6554
  674MPD2    N110033   3.904   3.503   0.016  0.0280  0.0789  0.4058
  674MPD2    H710034   3.906   3.431  17.686  0.7779  0.7938 -0.2884
  675TMC3    C110035   3.933   3.527   0.260 -0.5651  0.0099  0.5183
  675TMC3    C210036   3.884   3.497   0.383 -0.1759  0.1533 -0.2479
  675TMC3    C310037   3.935   3.535   0.497 -0.3187  0.1511  0.4986
  675TMC3    C410038   4.041   3.610   0.250 -0.5623 -0.2380 -0.5314
  675TMC3    C510039   4.097   3.651   0.368 -0.4030  0.0527 -0.0847
  675TMC3    C610040   4.046   3.615   0.490  0.3163  0.1249  0.0666
  675TMC3     C10041   3.893   3.443   0.145  0.4816 -0.0586 -0.5674
  675TMC3     O10042   3.874   3.325   0.178 -0.4146 -0.0839 -0.0702
  675TMC3     H10043   3.809   3.419   0.392  1.7967 -1.9188 -1.9329
  675TMC3    H110044   4.090   3.619   0.154  0.5710 -1.9444 -0.1119
  675TMC3    H210045   4.108   3.639   0.576  1.4230 -0.0007 -0.7055
  675TMC3    C710046   4.183   3.767   0.374  0.1546  0.0982 -1.1084
  675TMC3    C810047   3.872   3.520   0.618 -0.1236 -0.5091 -0.5182
  675TMC3    O110048   4.265   3.782   0.466  0.0613  0.0128 -0.4885
  675TMC3    O210049   3.815   3.413   0.643 -0.0088 -0.0460 -0.2546
  676MPD2     C10050   2.083   3.100  11.065  0.6570 -0.5357 -0.1793
  676MPD2    C110051   2.044   3.006  11.155 -0.3868 -0.3534  0.9180
  676MPD2    C210052   2.053   2.873  11.121 -0.3669 -0.0016  0.3718
  676MPD2    C310053   2.096   2.830  10.997  0.1397  0.1091  0.1343
  676MPD2    C410054   2.125   2.927  10.902 -0.2188 -0.4853  0.3622
  676MPD2    C510055   2.119   3.056  10.940  0.0876  0.1412 -0.4427
  676MPD2     H10056   2.022   2.799  11.194 -0.4625 -1.0327 -0.7133
  676MPD2    H110057   2.155   2.889  10.805  1.0620  0.0552  0.5541
  676MPD2    H210058   2.090   3.205  11.087  1.9096 -0.8400  0.8711
  676MPD2    H310059   2.139   3.137  10.872  0.1165  1.1345  0.7465
  676MPD2     N10060   2.102   2.691  10.960  1.1450 -0.1499  1.0375
  676MPD2    H510061   2.123   2.676  10.862 -0.8017  1.0858  0.4398
  676MPD2    N110062   1.990   3.032  11.277  0.1122 -0.4887 -0.7740
  676MPD2    H710063   1.936   2.955  11.316 -1.5604  1.2708  0.4020
  677TMC3    C110064   1.864   3.163  11.436 -0.4021 -0.1583  0.0628
  677TMC3    C210065   1.760   3.075  11.442 -0.4889 -0.3376 -0.2755
  677TMC3    C310066   1.670   3.089  11.542  0.5689 -0.1959  0.2786
  677TMC3    C410067   1.876   3.262  11.525  0.8737 -0.4673 -0.6509
  677TMC3    C510068   1.789   3.269  11.633 -0.3059  0.2091 -0.3382
  677TMC3    C610069   1.686   3.182  11.638  0.5231 -0.4676  0.6296
  677TMC3     C10070   1.960   3.163  11.319 -0.1296  1.0519  0.8079
  677TMC3     O10071   2.009   3.268  11.284 -0.3829  0.4597  0.2981
  677TMC3     H10072   1.748   3.011  11.356 -0.5117 -1.8505  0.8505
  677TMC3    H110073   1.965   3.325  11.526  0.3167  0.3144 -0.1153
  677TMC3    H210074   1.619   3.184  11.723  0.7043 -2.2733  0.8018
  677TMC3    C710075   1.805   3.353  11.745  0.7748  0.2233 -0.2421
  677TMC3    C810076   1.605   2.965  11.595  0.9234  0.0076  0.0681
  677TMC3    O110077   1.741   3.320  11.844  0.7201 -0.0375  0.5226
  677TMC3    O210078   1.625   2.957  11.719  0.7314  0.5101 -0.3577
  678MPD2     C10079   3.344   3.188   1.487 -0.1547 -0.4209  0.0939
  678MPD2    C110080   3.395   3.083   1.414 -0.4529  0.3303  0.2632
  678MPD2    C210081   3.309   2.992   1.360 -0.1547  0.6611 -0.4190
  678MPD2    C310082   3.180   2.987   1.407 -0.0983  0.1655  0.0530
  678MPD2    C410083   3.138   3.073   1.509  0.2077  0.0652  0.2471
  678MPD2    C510084   3.217   3.172   1.546 -0.1741  0.1053  0.4315
  678MPD2     H10085   3.339   2.919   1.286  0.9615  2.2645 -1.5672
  678MPD2    H110086   3.036   3.080   1.545  0.7446  0.4608  1.7011
  678MPD2    H210087   3.411   3.269   1.514  0.6686 -0.7367 -1.0191
  678MPD2    H310088   3.187   3.237   1.627 -0.3175  1.5658 -0.7835
  678MPD2     N10089   3.092   2.893   1.336  0.4620  0.0450  0.8345
  678MPD2    H510090   3.120   2.864   1.242  1.8401  1.9916  0.6323
  678MPD2    N110091   3.529   3.089   1.362 -0.0862  0.4827 -0.0792
  678MPD2    H710092   3.543   3.033   1.278 -0.9289 -1.5339  1.1112
  679TMC3    C110093   3.987   3.159   1.407 -0.0461 -0.8837 -0.4093
  679TMC3    C210094   3.861   3.147   1.458  0.6357 -0.4246 -0.0765
  679TMC3    C310095   3.760   3.127   1.370 -0.1404  0.9374  0.0074
  679TMC3    C410096   4.006   3.192   1.273  0.1686 -0.1766 -0.0061
  679TMC3    C510097   3.897   3.183   1.189 -0.1970  0.0560  0.8165
  679TMC3    C610098   3.770   3.152   1.235 -0.3007 -0.1879 -0.3094
  679TMC3     C10099   4.100   3.160   1.497 -0.6690 -0.8252  0.1140
  679TMC3     O10100   4.112   3.072   1.581  0.7841  0.1277  0.0666
  679TMC3     H10101   3.843   3.133   1.564  0.8457 -1.7528 -0.2230
  679TMC3    H110102   4.109   3.195   1.241  0.2504 -1.3266  0.1549
  679TMC3    H210103   3.679   3.139   1.177  0.7608 -0.5236 -1.9080
  679TMC3    C710104   3.933   3.163   1.053 -0.2443 -0.2599 -0.3459
  679TMC3    C810105   3.631   3.145   1.431 -0.1269 -0.3605 -0.0973
  679TMC3    O110106   3.871   3.075   0.999  0.7085  0.0061 -0.4340
  679TMC3    O210107   3.630   3.188   1.547  0.3446 -0.3165 -0.7165
  680MPD2     C10108   3.190   1.255  13.728 -0.5535  0.3337  0.1640
  680MPD2    C110109   3.298   1.218  13.799  0.5128  0.1248 -0.0284
  680MPD2    C210110   3.369   1.315  13.880  0.5374  0.3804 -0.1829
  680MPD2    C310111   3.317   1.444  13.888  0.0149 -0.2095  0.1528
  680MPD2    C410112   3.213   1.482  13.804  0.0448  0.2420 -0.5616
  680MPD2    C510113   3.150   1.387  13.722 -0.4577  0.5686  0.1605
  680MPD2     H10114   3.452   1.281  13.940 -0.4975 -1.2040  0.3453
  680MPD2    H110115   3.180   1.585  13.799 -1.6683 -0.2455  0.7953
  680MPD2    H210116   3.140   1.187  13.659  1.5730 -2.0076  0.9257
  680MPD2    H310117   3.076   1.423  13.652 -0.4387 -1.7438 -1.0237
  680MPD2     N10118   3.375   1.538  13.977 -0.0592  0.2473  0.2845
  680MPD2    H510119   3.337   1.632  13.973  0.5223  0.4990  0.5343
  680MPD2    N110120   3.371   1.092  13.780  0.0252  0.2382 -0.1212
  680MPD2    H710121   3.461   1.089  13.827  1.5049 -1.6002 -3.1000
  681TMC3    C110122   3.420   0.876  13.712  0.1777  0.1848  0.1212
  681TMC3    C210123   3.394   0.771  13.794 -0.1383  0.5382 -0.2871
  681TMC3    C310124   3.500   0.699  13.830  0.1369 -0.8716  0.2882
  681TMC3    C410125   3.544   0.912  13.662  0.0338  0.3552  0.3514
  681TMC3    C510126   3.646   0.825  13.694 -0.4326  0.2315  0.2517
  681TMC3    C610127   3.627   0.727  13.786  0.0108  0.3376  0.2173
  681TMC3     C10128   3.324   0.982  13.712 -0.0708  0.5166  0.5310
  681TMC3     O10129   3.211   0.962  13.678  0.4998 -0.4992  0.3102
  681TMC3     H10130   3.291   0.746  13.819 -0.4121  0.6093 -1.3373
  681TMC3    H110131   3.555   0.996  13.595 -0.6696 -0.5612 -0.9129
  681TMC3    H210132   3.712   0.679  13.833  2.9373  2.3283 -2.9450
  681TMC3    C710133   3.776   0.850  13.640  0.0648 -0.2834  0.1014
  681TMC3    C810134   3.496   0.664  13.968  0.2976  0.5139 -0.1207
  681TMC3    O110135   3.863   0.764  13.656 -0.6563  0.4733 -0.5210
  681TMC3    O210136   3.500   0.541  13.989  0.0413 -0.2447  0.6658
  682MPD2     C10137   0.651   3.219  11.072 -0.8931 -0.3199  0.0505
  682MPD2    C110138   0.716   3.117  11.124 -0.7699  1.2092  0.1784
  682MPD2    C210139   0.683   3.076  11.251  0.4848  0.2103  0.1341
  682MPD2    C310140   0.580   3.135  11.328 -0.1225  0.5300  0.4169
  682MPD2    C410141   0.515   3.243  11.272 -0.5626  0.0503  0.3809
  682MPD2    C510142   0.556   3.286  11.148 -0.0543 -0.8449 -0.7831
  682MPD2     H10143   0.731   2.984  11.282  1.2016  0.6041  0.1847
  682MPD2    H110144   0.423   3.287  11.311 -1.1066 -0.2369 -0.5772
  682MPD2    H210145   0.675   3.269  10.979  1.4391  2.2258  1.9822
  682MPD2    H310146   0.501   3.366  11.100  1.6176  1.8940  1.8948
  682MPD2     N10147   0.545   3.099  11.461 -0.9503  0.6857  0.0137
  682MPD2    H510148   0.484   3.153  11.522 -0.3161  1.2087  0.1816
  682MPD2    N110149   0.818   3.045  11.051 -0.7280 -0.1263  0.4347
  682MPD2    H710150   0.856   2.960  11.092  3.0220  0.7665 -1.1532
  683TMC3    C110151   0.505   2.982  11.854  0.4911  0.3343 -0.4887
  683TMC3    C210152   0.406   2.884  11.871 -1.1253 -0.5678 -0.6764
  683TMC3    C310153   0.376   2.804  11.761 -0.0368 -0.2933  0.5489
  683TMC3    C410154   0.556   3.019  11.732 -0.0081  0.0829 -0.5466
  683TMC3    C510155   0.530   2.929  11.631 -0.1941  0.4331  0.2500
  683TMC3    C610156   0.447   2.817  11.642 -0.8281 -0.0455  0.8228
  683TMC3     C10157   0.574   3.021  11.977  0.5692  0.7672  0.2463
  683TMC3     O10158   0.633   3.128  11.989  0.1334 -0.1368  0.1318
  683TMC3     H10159   0.347   2.870  11.960 -1.8063 -1.7119 -1.3090
  683TMC3    H110160   0.634   3.092  11.715 -0.8220  1.6413  2.3091
  683TMC3    H210161   0.416   2.752  11.561 -0.1235  1.7791 -0.9161
  683TMC3    C710162   0.561   2.966  11.493  0.3157 -0.5221 -0.1521
  683TMC3    C810163   0.273   2.703  11.780 -0.1622 -0.4164 -0.4093
  683TMC3    O110164   0.588   2.872  11.423  0.2200 -0.0675 -0.4055
  683TMC3    O210165   0.196   2.711  11.875 -0.0976  0.2809 -0.3324
  684MPD2     C10166   3.648   2.257  16.755  0.5959 -0.2758  1.3044
  684MPD2    C110167   3.705   2.264  16.629 -0.0030 -0.7064  0.3509
  684MPD2    C210168   3.721   2.384  16.565 -0.1192  0.6573 -0.3918
  684MPD2    C310169   3.689   2.498  16.628  0.1126 -0.7388 -0.4505
  684MPD2    C410170   3.641   2.492  16.753 -0.4090 -0.6638  0.2477
  684MPD2    C510171   3.616   2.370  16.817  0.3579  0.2693  0.7824
  684MPD2     H10172   3.780   2.389  16.474 -0.5735  2.0739 -0.5963
  684MPD2    H110173   3.626   2.590  16.798  0.7394 -0.5330  0.3479
  684MPD2    H210174   3.614   2.162  16.795  0.5136 -0.0145  1.8514
  684MPD2    H310175   3.562   2.366  16.911 -0.3240 -2.0008  0.2965
  684MPD2     N10176   3.719   2.619  16.567 -0.4543  0.0716 -0.5409
  684MPD2    H510177   3.712   2.693  16.636  0.2992 -0.2023 -0.1809
  684MPD2    N110178   3.750   2.159  16.556 -0.4518  0.5939  0.2268
  684MPD2    H710179   3.802   2.174  16.470  0.1886 -1.4041  0.2509
  685TMC3    C110180   3.828   1.953  16.501 -0.1319  0.1227 -1.1605
  685TMC3    C210181   3.797   2.022  16.383 -0.9646 -0.0953 -0.5453
  685TMC3    C310182   3.893   2.035  16.281 -0.4665  0.3260  0.2618
  685TMC3    C410183   3.954   1.905  16.526 -1.0260  0.9631 -0.3741
  685TMC3    C510184   4.045   1.919  16.422  0.2541 -0.3792  0.0645
  685TMC3    C610185   4.014   1.981  16.301  0.3718 -0.0782 -0.0310
  685TMC3     C10186   3.784   2.036  16.610  0.6021 -0.7566  0.1722
  685TMC3     O10187   3.765   1.979  16.719 -0.1602  0.6795  1.0848
  685TMC3     H10188   3.692   2.041  16.364 -1.3926 -0.3605  1.5182
  685TMC3    H110189   3.984   1.875  16.625 -1.9940  1.7180  0.1402
  685TMC3    H210190   4.086   1.984  16.220 -0.2101  2.6575 -0.4379
  685TMC3    C710191   4.183   1.897  16.454 -0.5609 -0.0627  0.2012
  685TMC3    C810192   3.861   2.058  16.142 -0.2619  0.2126  0.1291
  685TMC3    O110193   4.210   1.868  16.570 -0.0671  0.7102  0.5485
  685TMC3    O210194   3.934   2.012  16.054  0.0638  0.2542  0.2896
  686MPD2     C10195   0.650   1.941  15.306  0.0727 -0.2965  0.0308
  686MPD2    C110196   0.667   1.846  15.405 -0.3520 -0.4129 -0.2068
  686MPD2    C210197   0.739   1.731  15.364  0.2492  0.7424  0.4035
  686MPD2    C310198   0.796   1.720  15.237 -0.3558 -0.6161 -0.3354
  686MPD2    C410199   0.783   1.820  15.148 -0.3652  0.7138 -0.1156
  686MPD2    C510200   0.711   1.928  15.184  0.5571  0.0601 -0.5247
  686MPD2     H10201   0.746   1.648  15.434  1.8280 -0.6879 -1.4514
  686MPD2    H110202   0.831   1.813  15.051  0.1074  1.6551  0.0472
  686MPD2    H210203   0.594   2.032  15.326  1.1088 -0.0844  2.0386
  686MPD2    H310204   0.703   2.008  15.111  2.1030  0.1527 -0.5985
  686MPD2     N10205   0.863   1.604  15.190  0.3062  0.1370 -0.1090
  686MPD2    H510206   0.898   1.617  15.096  1.2691  1.1554  0.3897
  686MPD2    N110207   0.593   1.855  15.525  0.4587  0.0149  0.4472
  686MPD2    H710208   0.526   1.930  15.539 -0.3182 -0.1429 -2.5484
  687TMC3    C110209   0.800   1.436  15.361  0.0727  0.6818  0.4676
  687TMC3    C210210   0.661   1.430  15.365 -0.3007 -0.3353  0.5209
  687TMC3    C310211   0.603   1.414  15.489 -0.1399 -0.1166 -0.4267
  687TMC3    C410212   0.876   1.396  15.470  0.5397 -0.3802  0.4716
  687TMC3    C510213   0.810   1.359  15.585 -0.1365 -0.3261 -0.5137
  687TMC3    C610214   0.675   1.375  15.600 -0.1392 -0.0846 -0.1806
  687TMC3     C10215   0.860   1.471  15.235  0.4917  0.4925  0.0351
  687TMC3     O10216   0.909   1.376  15.178 -0.7053 -0.1683 -0.8655
  687TMC3     H10217   0.607   1.459  15.276 -0.8863  1.4815  1.4494
  687TMC3    H110218   0.983   1.384  15.458  0.6109  0.3088  0.4326
  687TMC3    H210219   0.626   1.377  15.697  0.2980 -0.6123  0.0491
  687TMC3    C710220   0.886   1.349  15.710 -0.0897 -0.3836 -0.6375
  687TMC3    C810221   0.470   1.460  15.493 -0.1714 -0.6381  0.3270
  687TMC3    O110222   0.837   1.360  15.820 -0.0741  0.7767  0.0435
  687TMC3    O210223   0.433   1.507  15.392 -0.0643  0.1981 -0.1556
  688MPD2     C10224   4.289   1.009  17.397 -0.1930  0.4454 -1.0742
  688MPD2    C110225   4.315   0.910  17.492 -0.5213 -0.5790  0.2051
  688MPD2    C210226   4.400   0.810  17.457 -0.0235 -0.3074 -0.6100
  688MPD2    C310227   4.465   0.808  17.332 -0.2440  0.0795  0.5496
  688MPD2    C410228   4.438   0.899  17.241 -0.2938 -0.2749  0.9279
  688MPD2    C510229   4.351   0.997  17.276  0.1541 -0.1540  0.5493
  688MPD2     H10230   4.413   0.722  17.519 -0.8597  1.0875  1.5469
  688MPD2    H110231   4.481   0.895  17.141  0.9902 -1.2879  1.5145
  688MPD2    H210232   4.224   1.095  17.412 -1.0037 -0.3251 -0.2463
  688MPD2    H310233   4.325   1.075  17.206 -1.1792  0.5721  1.8412
  688MPD2     N10234   4.552   0.697  17.299 -0.6211 -0.0350 -0.0237
  688MPD2    H510235   4.596   0.705  17.208 -0.4744  1.0827  0.1511
  688MPD2    N110236   4.242   0.891  17.614 -0.0248  0.0151  1.5317
  688MPD2    H710237   4.267   0.815  17.677 -0.3562 -1.6318 -0.3385
  689TMC3    C110238   4.075   0.951   0.035  1.0010 -0.2696 -0.1083
  689TMC3    C210239   4.051   1.063   0.107  0.3251  0.3912 -0.8875
  689TMC3    C310240   4.017   1.043   0.235 -0.7541 -0.6150  0.9926
  689TMC3    C410241   4.054   0.824   0.084  0.1871  0.1661 -0.1669
  689TMC3    C510242   4.010   0.811   0.215  0.4341  0.2773  0.5753
  689TMC3    C610243   3.988   0.922   0.293  0.4191  0.4636 -0.0284
  689TMC3     C10244   4.133   0.977  17.648 -0.5552  0.2423  0.2242
  689TMC3     O10245   4.100   1.088  17.603 -0.2104 -0.4987  0.0148
  689TMC3     H10246   4.095   1.157   0.076 -0.5541  1.4928  1.1918
  689TMC3    H110247   4.084   0.738   0.025 -0.6672 -1.1160  1.2577
  689TMC3    H210248   3.949   0.907   0.393  0.2769  1.2261  0.0319
  689TMC3    C710249   3.960   0.687   0.261 -0.2164  0.1487  0.3509
  689TMC3    C810250   3.986   1.155   0.316  0.3307  0.4113  0.0749
  689TMC3    O110251   3.956   0.667   0.382 -0.0439  0.1239 -0.4996
  689TMC3    O210252   3.952   1.260   0.261 -0.2265  0.2583  0.3631
  690MPD2     C10253   2.581   3.013  15.638  0.1643 -0.0206 -0.6385
  690MPD2    C110254   2.519   2.933  15.537 -0.7048 -0.7792 -0.1461
  690MPD2    C210255   2.579   2.910  15.411  0.3574 -0.0445 -0.0310
  690MPD2    C310256   2.701   2.968  15.387 -0.9639  0.2078  0.5926
  690MPD2    C410257   2.763   3.042  15.488 -0.3937 -0.5359  0.4512
  690MPD2    C510258   2.708   3.063  15.611  0.2180 -0.2856 -0.4121
  690MPD2     H10259   2.525   2.856  15.334 -0.5370  1.0354 -0.1679
  690MPD2    H110260   2.863   3.080  15.470 -0.6067 -0.6927 -1.1397
  690MPD2    H210261   2.548   3.021  15.740 -0.1062  3.6446 -1.0226
  690MPD2    H310262   2.766   3.122  15.681 -0.2515 -0.3705  0.0396
  690MPD2     N10263   2.754   2.951  15.255  0.0282  0.1909  0.6304
  690MPD2    H510264   2.689   2.919  15.183  0.6516 -2.0328  1.0605
  690MPD2    N110265   2.388   2.875  15.556  0.0784 -0.4410 -0.5468
  690MPD2    H710266   2.343   2.830  15.477  1.0931 -1.3638 -0.5962
  691TMC3    C110267   2.219   2.782  15.703  0.1092  0.2119 -0.1102
  691TMC3    C210268   2.119   2.818  15.620 -0.0443 -0.2237 -0.0670
  691TMC3    C310269   1.989   2.768  15.653  0.1573 -0.7644 -0.9202
  691TMC3    C410270   2.198   2.701  15.814  0.3524 -0.6912  0.2452
  691TMC3    C510271   2.068   2.650  15.843 -0.3470  0.0287  0.3876
  691TMC3    C610272   1.967   2.685  15.760  0.5093  0.3431 -0.2158
  691TMC3     C10273   2.350   2.839  15.687 -0.0669  0.2426  0.6919
  691TMC3     O10274   2.413   2.841  15.791 -0.4675  0.0305 -0.1220
  691TMC3     H10275   2.137   2.885  15.537  0.3706  0.5275  0.6229
  691TMC3    H110276   2.282   2.676  15.879  0.5521  0.2461  0.3494
  691TMC3    H210277   1.868   2.645  15.777  0.2896  1.3047  0.7884
  691TMC3    C710278   2.062   2.542  15.939  0.0438 -0.1640  0.7882
  691TMC3    C810279   1.884   2.796  15.566 -0.9182  0.4498 -0.1195
  691TMC3    O110280   2.157   2.533  16.014  0.1395 -0.8103 -1.0631
  691TMC3    O210281   1.914   2.800  15.449 -0.2326  0.4852  0.0646
  692TMC3    C110282   3.381   3.804  16.097  0.5578 -0.2582  0.0739
  692TMC3    C210283   3.508   3.818  16.149 -0.2528  0.6184 -0.1669
  692TMC3    C310284   3.615   3.754  16.094  0.2733  0.7720  0.0546
  692TMC3    C410285   3.354   3.705  16.004  0.2343  1.0771  0.1404
  692TMC3    C510286   3.467   3.635  15.953 -0.4280  0.1330 -0.2086
  692TMC3    C610287   3.592   3.652  16.001 -0.0847  0.2884  0.3510
  692TMC3     C10288   3.282   3.879  16.166 -0.3827  0.2075 -0.3441
  692TMC3     O10289   3.168   3.837  16.166 -0.5811  0.2427  0.2338
  692TMC3     H10290   3.519   3.887  16.232 -1.9198 -1.1418  1.5050
  692TMC3    H110291   3.252   3.705  15.965 -0.7060  1.0385  2.5721
  692TMC3    H210292   3.673   3.639  15.930 -0.0076 -0.7652  0.6301
  692TMC3    C710293   3.446   3.508  15.881 -0.2852  0.2313 -0.5486
  692TMC3    C810294   3.713   3.708  16.188 -0.5231  0.4765 -0.1054
  692TMC3    O110295   3.351   3.497  15.805 -0.3812  0.4895  1.0010
  692TMC3    O210296   3.760   3.597  16.166  0.3527  0.0962 -0.1823
  693MPD2     C10297   2.914   2.071  10.954 -0.1426 -0.0120 -0.6401
  693MPD2    C110298   2.894   1.983  11.060 -0.5116  0.2135  0.2964
  693MPD2    C210299   2.982   1.984  11.167  0.6965 -0.1094  0.0451
  693MPD2    C310300   3.071   2.091  11.187 -0.6354 -0.3750 -0.2826
  693MPD2    C410301   3.090   2.176  11.085 -0.1884  0.2095 -0.4255
  693MPD2    C510302   3.021   2.162  10.966  0.0781 -0.3994 -0.1044
  693MPD2     H10303   2.961   1.912  11.246 -1.6486 -0.3538 -0.7907
  693MPD2    H110304   3.159   2.259  11.094 -3.2380  2.6341  0.4934
  693MPD2    H210305   2.857   2.066  10.863 -1.5344 -0.1300  0.2377
  693MPD2    H310306   3.049   2.228  10.884 -0.2493  0.4314  0.4632
  693MPD2     N10307   3.162   2.090  11.298  0.2001  0.2955  0.0936
  693MPD2    H510308   3.228   2.168  11.300 -0.8203  1.1257  3.1830
  693MPD2    N110309   2.793   1.887  11.061  0.6006 -0.4317 -0.0595
  693MPD2    H710310   2.802   1.824  11.140  0.1895 -0.0969  0.2474
  694TMC3    C110311   2.583   1.776  11.033 -0.1260 -0.5770 -0.2879
  694TMC3    C210312   2.493   1.712  10.949 -0.1586 -0.1148 -0.1389
  694TMC3    C310313   2.417   1.614  11.007 -0.4928  0.8411  0.9830
  694TMC3    C410314   2.597   1.748  11.165  0.3955 -0.0053 -0.3512
  694TMC3    C510315   2.523   1.644  11.219 -0.0996  0.7632  0.6400
  694TMC3    C610316   2.439   1.570  11.137  0.4150 -0.4500  0.4687
  694TMC3     C10317   2.679   1.875  10.981  0.3981  0.2442  0.8017
  694TMC3     O10318   2.643   1.938  10.881 -0.3688  0.1543  0.3539
  694TMC3     H10319   2.493   1.743  10.845 -1.5631 -1.0747 -0.4180
  694TMC3    H110320   2.644   1.822  11.228 -0.2488 -0.2971  0.4698
  694TMC3    H210321   2.388   1.484  11.178  0.1283  0.5462  2.2162
  694TMC3    C710322   2.533   1.619  11.360 -0.4841 -0.2602  0.5934
  694TMC3    C810323   2.301   1.555  10.936  0.7306 -0.4156 -0.3795
  694TMC3    O110324   2.648   1.630  11.397  0.1041  0.4184  0.1051
  694TMC3    O210325   2.238   1.472  11.007 -0.7286  0.0808 -0.2835
  695MPD2     C10326   3.982   3.910  13.915  0.5570  0.1652 -0.0264
  695MPD2    C110327   3.924   3.785  13.939 -0.0517  0.6582  0.0043
  695MPD2    C210328   3.783   3.789  13.943  0.3302  0.4244  0.6311
  695MPD2    C310329   3.710   3.901  13.897 -0.3400  0.2983  0.0847
  695MPD2    C410330   3.772   4.021  13.870  0.1348  0.2860 -0.5662
  695MPD2    C510331   3.907   4.021  13.891  0.3107 -0.6104  0.5448
  695MPD2     H10332   3.724   3.704  13.973  0.3460  0.1845 -0.0207
  695MPD2    H110333   3.730   4.118  13.847  1.1069  1.0818  1.0318
  695MPD2    H210334   4.090   3.922  13.924  0.7081  0.1563 -1.9210
  695MPD2    H310335   3.955   4.116  13.874 -1.3633 -0.0212 -0.9083
  695MPD2     N10336   3.571   3.891  13.900  0.1473  0.2056  0.2763
  695MPD2    H510337   3.539   3.805  13.943 -0.8125  0.1875 -0.4892
  695MPD2    N110338   3.989   3.673  13.989  0.0345 -0.0592 -0.1887
  695MPD2    H710339   3.936   3.593  14.022 -1.3675  1.7620  1.9631
  696TMC3    C110340   3.339   3.928  13.869  0.2070 -0.1580 -0.3842
  696TMC3    C210341   3.321   3.791  13.890 -0.6768  0.3359 -0.2232
  696TMC3    C310342   3.199   3.738  13.919  0.6077 -0.6084  0.0408
  696TMC3    C410343   3.230   4.015  13.851  0.3761  0.3471 -0.2257
  696TMC3    C510344   3.111   3.952  13.882  0.0440  0.3268 -0.4420
  696TMC3    C610345   3.089   3.819  13.899  0.3452  0.4027 -0.8153
  696TMC3     C10346   3.479   3.981  13.866 -0.4280 -1.0895 -0.0691
  696TMC3     O10347   3.490   4.089  13.809 -0.3463 -0.4926 -0.1967
  696TMC3     H10348   3.401   3.718  13.886 -0.2272  0.7479  1.1342
  696TMC3    H110349   3.230   4.123  13.841 -1.3242  0.2325 -1.6466
  696TMC3    H210350   2.991   3.785  13.930  0.1000  1.8290 -0.0195
  696TMC3    C710351   3.017   4.041  13.933  0.9027 -0.0114 -0.2599
  696TMC3    C810352   3.176   3.597  13.955 -0.3333  0.1399 -0.5863
  696TMC3    O110353   2.902   4.028  13.896 -0.1615  0.0751 -0.0016
  696TMC3    O210354   3.067   3.547  13.922  0.1674  0.2651 -0.1832
  697MPD2     C10355   3.101   0.369  16.137 -0.2548 -0.4003 -0.8775
  697MPD2    C110356   3.078   0.360  16.000 -0.1335 -0.2951  0.2197
  697MPD2    C210357   3.077   0.479  15.926  0.7927  0.7864 -0.1439
  697MPD2    C310358   3.093   0.599  15.984  0.2919 -0.7565  0.1590
  697MPD2    C410359   3.117   0.607  16.117 -0.0979 -0.0977 -0.5766
  697MPD2    C510360   3.120   0.494  16.196  0.1819  0.1727  0.6138
  697MPD2     H10361   3.063   0.486  15.819 -1.5506 -0.9700  0.0544
  697MPD2    H110362   3.144   0.697  16.170 -0.4271 -1.1121  1.3306
  697MPD2    H210363   3.110   0.282  16.200 -0.8082  0.6226  0.6246
  697MPD2    H310364   3.136   0.496  16.303  2.1183  0.1293  0.3212
  697MPD2     N10365   3.102   0.706  15.896  0.3660  0.8205 -0.0327
  697MPD2    H510366   3.061   0.697  15.804  0.1617 -0.2334  0.1631
  697MPD2    N110367   3.055   0.237  15.935  0.2882  0.2118  0.2175
  697MPD2    H710368   3.057   0.162  16.003  0.5855  0.1456  0.1339
  698TMC3    C110369   3.145   0.927  15.815 -0.3648 -0.0160 -0.2675
  698TMC3    C210370   3.207   1.048  15.834  0.2592  0.4452  0.1679
  698TMC3    C310371   3.275   1.099  15.733 -0.2021  0.3178 -0.5050
  698TMC3    C410372   3.141   0.871  15.686  0.1950  0.3919 -0.4515
  698TMC3    C510373   3.211   0.927  15.588 -0.6770  0.5699  0.3302
  698TMC3    C610374   3.279   1.041  15.610  0.0156  0.0415  0.8982
  698TMC3     C10375   3.147   0.833  15.927 -0.3315 -0.9612  0.4337
  698TMC3     O10376   3.202   0.862  16.031 -0.0132  0.1232 -0.2105
  698TMC3     H10377   3.228   1.076  15.937 -0.1354  1.1475  0.0550
  698TMC3    H110378   3.084   0.787  15.649 -2.1818  1.0410  1.7352
  698TMC3    H210379   3.320   1.097  15.527 -0.3560 -1.3368 -0.2212
  698TMC3    C710380   3.175   0.894  15.450  0.0967 -0.5149 -0.3284
  698TMC3    C810381   3.349   1.221  15.760 -0.0841 -0.6118 -0.1379
  698TMC3    O110382   3.066   0.849  15.422  0.4410  0.0644  0.0735
  698TMC3    O210383   3.319   1.299  15.849 -0.3622  0.1556  0.3298
  699TMC3    C110384   3.404   4.147  13.363 -0.0816  0.8807 -0.3422
  699TMC3    C210385   3.480   4.043  13.416  0.0758 -0.4750 -0.5727
  699TMC3    C310386   3.414   3.949  13.488  0.6052  0.1458  0.0199
  699TMC3    C410387   3.272   4.152  13.398  0.1647  0.2064  0.8890
  699TMC3    C510388   3.211   4.058  13.474  0.3581 -0.0222  0.2387
  699TMC3    C610389   3.281   3.953  13.519  0.0773 -1.0236  0.1276
  699TMC3     C10390   3.471   4.213  13.252 -0.0669  0.2988 -0.2844
  699TMC3     O10391   3.592   4.202  13.243 -0.1542  0.0339  0.4653
  699TMC3     H10392   3.585   4.034  13.390  0.4528  0.5029  0.5657
  699TMC3    H110393   3.214   4.237  13.362 -1.0047 -1.2853 -0.7834
  699TMC3    H210394   3.236   3.880  13.585 -0.6453 -0.2842  0.4509
  699TMC3    C710395   3.070   4.056  13.507 -0.5267  0.3262 -0.4577
  699TMC3    C810396   3.494   3.845  13.553 -0.5160  0.5340  0.0898
  699TMC3    O110397   3.025   3.948  13.548 -0.1528  0.2257  0.5683
  699TMC3    O210398   3.616   3.858  13.554  0.0059  0.2809  0.3001
  700TMC3    C110399   2.216   1.205  17.447 -0.3548 -0.3350  0.7559
  700TMC3    C210400   2.259   1.078  17.420 -0.0792  0.3088  0.0005
  700TMC3    C310401   2.366   1.030  17.495 -0.0557  0.1840 -0.4350
  700TMC3    C410402   2.276   1.286  17.534  0.1401  0.5286  0.2255
  700TMC3    C510403   2.379   1.233  17.606 -0.4649 -0.0592 -0.5396
  700TMC3    C610404   2.426   1.101  17.589 -0.1318  0.3138 -0.3433
  700TMC3     C10405   2.181   1.278  17.322  0.1199  0.4861 -0.7308
  700TMC3     O10406   2.069   1.246  17.275 -0.5395 -0.0753 -0.0099
  700TMC3     H10407   2.218   1.016  17.341  1.7240 -1.0171  0.1260
  700TMC3    H110408   2.232   1.380  17.566  0.0115  0.3485  0.5702
  700TMC3    H210409   2.507   1.070  17.655 -0.4166 -1.0051 -0.6164
  700TMC3    C710410   2.463   1.324  17.676 -0.4080 -0.4002 -0.1033
  700TMC3    C810411   2.411   0.896  17.459  0.1120  0.0188  0.0122
  700TMC3    O110412   2.515   1.296   0.044  0.5774 -0.2000  0.7852
  700TMC3    O210413   2.370   0.842  17.354  0.0041 -0.2183  0.4426
  701TMC3    C110414   2.424   4.578  15.854 -0.2207 -0.6042 -0.9210
  701TMC3    C210415   2.408   4.504  15.738  0.0723 -0.0305  0.7066
  701TMC3    C310416   2.482   4.536  15.627  0.4127 -0.0636 -0.2170
  701TMC3    C410417   2.518   4.679  15.860  0.0064 -0.1915  0.4416
  701TMC3    C510418   2.583   4.716  15.746 -0.1086  0.4070  0.2941
  701TMC3    C610419   2.561   4.646  15.632 -0.2071  0.1969 -0.0685
  701TMC3     C10420   2.360   4.541  15.976  0.6573  0.2808 -0.2057
  701TMC3     O10421   2.379   4.619  16.067  0.0180  0.0349 -0.1011
  701TMC3     H10422   2.345   4.416  15.728 -0.9820  0.6041  1.8578
  701TMC3    H110423   2.526   0.005  15.949  2.2421 -1.0977  0.8621
  701TMC3    H210424   2.623   4.669  15.546 -1.2690  0.6767 -0.7051
  701TMC3    C710425   2.622   0.117  15.723 -0.0817  0.1345 -0.6753
  701TMC3    C810426   2.520   4.430  15.532 -0.7450  0.0132  0.1476
  701TMC3    O110427   2.636   0.161  15.608 -0.3099 -0.2358 -0.2952
  701TMC3    O210428   2.635   4.435  15.490  0.3008  0.0624  0.7531
  702MPD2     C10429   2.174   2.596  10.408  0.4317  0.1638 -0.1502
  702MPD2    C110430   2.117   2.623  10.527 -0.5140 -0.3847  0.2150
  702MPD2    C210431   2.066   2.751  10.546  0.3792 -0.1413 -0.0023
  702MPD2    C310432   2.071   2.843  10.443 -0.0293  0.6843  0.1549
  702MPD2    C410433   2.125   2.809  10.322  0.6113  0.0062  0.9441
  702MPD2    C510434   2.190   2.689  10.310  0.1025 -0.2165  1.1117
  702MPD2     H10435   2.007   2.762  10.636  0.3769  0.9439 -0.1385
  702MPD2    H110436   2.120   2.874  10.235  3.1122 -0.7332  0.2465
  702MPD2    H210437   2.217   2.498  10.391  0.5546 -0.0879  1.6177
  702MPD2    H310438   2.248   2.667  10.221 -1.0426 -0.5317  0.4395
  702MPD2     N10439   2.019   2.975  10.450  0.0932  0.1377 -0.3915
  702MPD2    H510440   2.044   3.041  10.377  0.9115  0.2616  0.0041
  702MPD2    N110441   2.096   2.530  10.627  0.4171  0.1283 -0.7363
  702MPD2    H710442   2.052   2.569  10.709 -0.4774  0.3513 -1.3131
  703TMC3    C110443   1.945   3.161  10.564 -0.0755 -0.7008 -0.2282
  703TMC3    C210444   1.851   3.213  10.652 -0.3967 -0.2984 -0.1003
  703TMC3    C310445   1.867   3.347  10.693  0.1471  0.0216 -0.3589
  703TMC3    C410446   2.055   3.225  10.521 -0.1303  0.6932 -0.6220
  703TMC3    C510447   2.057   3.358  10.556  1.0830 -0.1693 -0.0165
  703TMC3    C610448   1.966   3.418  10.636 -0.0468  0.7998 -0.4946
  703TMC3     C10449   1.942   3.019  10.552  0.0737 -0.6107  0.6615
  703TMC3     O10450   1.900   2.961  10.651  0.0694 -0.0740  0.4622
  703TMC3     H10451   1.765   3.157  10.685 -0.0118 -0.6366  0.3168
  703TMC3    H110452   2.133   3.189  10.454 -0.6810 -1.3437 -0.1530
  703TMC3    H210453   1.958   3.525  10.652  1.1911  0.7232  0.7210
  703TMC3    C710454   2.191   3.420  10.577 -0.3198  0.3355 -0.0120
  703TMC3    C810455   1.854   3.378  10.833 -0.6874 -0.1863 -0.2924
  703TMC3    O110456   2.293   3.381  10.520 -0.2772 -0.0895  0.5392
  703TMC3    O210457   1.948   3.439  10.877 -0.5862 -0.0918 -0.3177
  704TMC3    C110458   3.828   0.613  12.796  1.1910 -0.2237 -0.4291
  704TMC3    C210459   3.949   0.684  12.795  0.5325  0.9716 -0.1773
  704TMC3    C310460   4.058   0.634  12.848  0.1314  0.8513 -0.0645
  704TMC3    C410461   3.819   0.486  12.851  0.1440  0.2713  0.1900
  704TMC3    C510462   3.941   0.437  12.894 -0.2300  1.0149  0.1357
  704TMC3    C610463   4.056   0.505  12.907  0.2036 -0.3759 -0.4925
  704TMC3     C10464   3.723   0.647  12.698  0.2782  0.2319 -0.3628
  704TMC3     O10465   3.628   0.567  12.689 -0.1104  0.2180 -0.0780
  704TMC3     H10466   3.950   0.776  12.737  1.2627 -0.9624 -3.2025
  704TMC3    H110467   3.727   0.431  12.836  1.2144 -2.1127  2.4662
  704TMC3    H210468   4.141   0.453  12.951 -0.1962 -0.2121  0.4711
  704TMC3    C710469   3.956   0.295  12.882 -0.1122 -0.3050 -0.3691
  704TMC3    C810470   4.182   0.700  12.807 -0.5865 -0.1956 -0.1409
  704TMC3    O110471   4.066   0.246  12.875  0.4579  0.1268  0.2091
  704TMC3    O210472   4.174   0.756  12.702  0.0033  0.0188  0.5904
  705MPD2     C10473   4.012   3.233  16.892  0.3262 -0.5378  0.5583
  705MPD2    C110474   3.953   3.224  16.770 -0.2108 -0.4943  0.3581
  705MPD2    C210475   3.810   3.238  16.766 -0.9263 -0.2417  0.7962
  705MPD2    C310476   3.726   3.265  16.870  0.0729  0.5131 -0.0222
  705MPD2    C410477   3.790   3.255  16.987 -0.8854 -0.0928  0.0733
  705MPD2    C510478   3.929   3.247  17.001  0.5891 -0.3223 -0.1407
  705MPD2     H10479   3.769   3.262  16.668 -0.0600  0.7479  0.6733
  705MPD2    H110480   3.731   3.270  17.076 -1.0688 -1.2521  0.1388
  705MPD2    H210481   4.118   3.241  16.912 -0.0018  0.0395  2.0686
  705MPD2    H310482   3.978   3.253  17.098 -0.3195  0.4520  0.2702
  705MPD2     N10483   3.591   3.309  16.860  0.4292  0.5808  0.2111
  705MPD2    H510484   3.545   3.338  16.946 -1.3056  1.1861 -0.9262
  705MPD2    N110485   4.024   3.215  16.647  0.0713 -0.2733  0.3164
  705MPD2    H710486   3.967   3.220  16.563  0.5400  0.3659  0.0333
  706TMC3    C110487   4.263   3.154  16.283  0.5713  0.3130  0.3763
  706TMC3    C210488   4.223   3.270  16.223 -0.1741  0.4949 -0.6767
  706TMC3    C310489   4.169   3.369  16.301 -0.2288 -0.1170  0.0631
  706TMC3    C410490   4.251   3.142  16.414  0.1456 -0.1045  0.6159
  706TMC3    C510491   4.194   3.239  16.490 -0.5324 -0.4288 -0.5904
  706TMC3    C610492   4.145   3.357  16.440 -0.6739  0.1309  0.3075
  706TMC3     C10493   4.381   3.092  16.224 -0.6254  0.2838 -0.0669
  706TMC3     O10494   4.479   3.067  16.294 -0.4929 -0.0610 -0.2355
  706TMC3     H10495   4.245   3.282  16.117  0.7913  0.9010 -0.4300
  706TMC3    H110496   4.290   3.050  16.458  1.2528  0.5681  1.0525
  706TMC3    H210497   4.109   3.439  16.501 -0.5409 -0.9216  1.7673
  706TMC3    C710498   4.158   3.194  16.623 -0.2327  0.4186 -0.0465
  706TMC3    C810499   4.146   3.496  16.238 -0.2132  0.2442  0.3978
  706TMC3    O110500   4.243   3.148  16.695  0.3337  0.6738  0.0725
  706TMC3    O210501   4.112   3.506  16.121  0.0460 -0.7522  0.1174
  707TMC3    C110502   0.699   1.966   0.645  0.5491  0.2559  0.5916
  707TMC3    C210503   0.785   1.883   0.706  0.5022 -0.1810  0.2443
  707TMC3    C310504   0.728   1.773   0.766 -0.7052  0.5632 -0.0417
  707TMC3    C410505   0.565   1.946   0.636  0.5497 -0.4357  1.2560
  707TMC3    C510506   0.509   1.844   0.710  0.1744  0.6393  1.2770
  707TMC3    C610507   0.590   1.756   0.779  0.7418  0.1986  0.3349
  707TMC3     C10508   0.771   2.066   0.559 -0.1110  0.4452 -0.3286
  707TMC3     O10509   0.868   2.120   0.611  0.5404 -0.4707 -0.0433
  707TMC3     H10510   0.892   1.896   0.698  0.6590 -1.5545  0.0121
  707TMC3    H110511   0.502   2.024   0.596  0.7004  0.3918  2.6259
  707TMC3    H210512   0.541   1.674   0.830 -0.6622  1.8419  1.6324
  707TMC3    C710513   0.363   1.829   0.699  0.1937 -0.0823 -0.3768
  707TMC3    C810514   0.810   1.670   0.822 -0.2042 -0.3697  0.3890
  707TMC3    O110515   0.309   1.935   0.689 -0.2830 -0.2891  0.1629
  707TMC3    O210516   0.748   1.563   0.852  0.4314 -0.1833 -0.0358
  708MPD2     C10517   2.213   2.075  13.306 -0.6908 -0.5102 -0.0067
  708MPD2    C110518   2.331   2.017  13.269 -0.0331 -0.1039  0.2594
  708MPD2    C210519   2.444   2.059  13.332  0.8670  0.1027 -0.3296
  708MPD2    C310520   2.450   2.162  13.420  0.5823 -0.2360 -0.1752
  708MPD2    C410521   2.331   2.221  13.461 -0.0439 -0.7500 -0.9931
  708MPD2    C510522   2.212   2.173  13.408 -0.0298 -0.0023 -0.4735
  708MPD2     H10523   2.536   2.004  13.316  0.9290  0.5182 -1.3825
  708MPD2    H110524   2.329   2.293  13.541  0.4606 -2.4755  0.5837
  708MPD2    H210525   2.122   2.054  13.251  0.0783 -1.2529 -0.9828
  708MPD2    H310526   2.119   2.220  13.440  1.2902  2.0402  0.3286
  708MPD2     N10527   2.570   2.164  13.488  0.4397 -0.1540  0.7273
  708MPD2    H510528   2.629   2.083  13.478  1.8107  1.4338 -3.8049
  708MPD2    N110529   2.337   1.912  13.170  0.0844 -0.2649  0.0668
  708MPD2    H710530   2.430   1.879  13.147 -0.9461 -0.6183 -3.4809
  709TMC3    C110531   2.258   1.742  13.028  0.4122 -0.4005  0.0564
  709TMC3    C210532   2.138   1.681  12.994 -0.0846 -0.3526  0.0759
  709TMC3    C310533   2.124   1.548  13.012 -0.1953 -0.1335 -0.3542
  709TMC3    C410534   2.359   1.670  13.086  0.4501 -0.5338  0.3155
  709TMC3    C510535   2.338   1.535  13.115 -0.1385  0.0325  0.3702
  709TMC3    C610536   2.225   1.467  13.073  0.0243 -0.5789  0.5686
  709TMC3     C10537   2.232   1.869  13.090  0.5598 -0.0303  0.7166
  709TMC3     O10538   2.119   1.912  13.080 -0.1921 -0.1439 -0.1848
  709TMC3     H10539   2.058   1.744  12.956  2.0472  0.7035 -2.6875
  709TMC3    H110540   2.458   1.713  13.101 -0.7596  2.8373 -1.4979
  709TMC3    H210541   2.221   1.360  13.088 -1.6570 -0.6683 -0.4946
  709TMC3    C710542   2.429   1.463  13.197 -0.7731  0.3602  0.2151
  709TMC3    C810543   1.991   1.491  13.008 -0.3357 -0.0517 -0.3178
  709TMC3    O110544   2.414   1.344  13.215 -0.1499  0.0439 -0.0493
  709TMC3    O210545   1.970   1.389  13.076  0.2535  0.7359 -0.0485
  710TMC3    C110546   3.756   2.916   0.324 -0.1337  0.6197  0.4264
  710TMC3    C210547   3.782   2.891   0.192 -0.1359 -0.6435  0.5039
  710TMC3    C310548   3.913   2.910   0.144 -0.2233  0.4785  0.2352
  710TMC3    C410549   3.852   2.971   0.404  0.1021  0.0865 -0.0412
  710TMC3    C510550   3.981   2.982   0.358 -0.1163 -0.4183 -0.4086
  710TMC3    C610551   4.017   2.957   0.226  0.6756 -0.2899 -0.3361
  710TMC3     C10552   3.631   2.855   0.380  0.0202  0.5147  0.1988
  710TMC3     O10553   3.585   2.764   0.310  0.5765  0.1315  0.7096
  710TMC3     H10554   3.698   2.879   0.124  0.8518  1.1095 -1.0189
  710TMC3    H110555   3.827   2.985   0.509  1.8878  1.6411  0.1757
  710TMC3    H210556   4.121   2.954   0.196  1.1535  0.7415  1.2175
  710TMC3    C710557   4.062   3.080   0.423  0.6705 -0.6892 -0.1211
  710TMC3    C810558   3.928   2.910  17.738  0.1073 -0.7930  0.3663
  710TMC3    O110559   4.126   3.154   0.350  0.3872  0.1401  0.0815
  710TMC3    O210560   3.847   2.847  17.672  0.2254 -0.2263 -0.2562
  711TMC3    C110561   2.861   4.220  15.110 -0.8677 -0.2955  0.1563
  711TMC3    C210562   2.873   4.256  15.240 -0.1738  0.3529 -0.0786
  711TMC3    C310563   3.004   4.252  15.289  0.2385  0.2091 -0.6430
  711TMC3    C410564   2.967   4.170  15.039 -0.0899  1.0069 -0.2130
  711TMC3    C510565   3.096   4.164  15.093 -0.8102  0.2068  0.3503
  711TMC3    C610566   3.115   4.216  15.218 -0.0885  0.7398 -0.4155
  711TMC3     C10567   2.733   4.169  15.061 -0.0191 -0.0000 -0.1113
  711TMC3     O10568   2.748   4.057  15.009 -0.3908  0.3974  0.2013
  711TMC3     H10569   2.790   4.298  15.295  0.6246 -0.2182  1.5852
  711TMC3    H110570   2.953   4.156  14.933 -0.3746 -1.7142  0.1871
  711TMC3    H210571   3.215   4.211  15.259  0.2810  0.3181 -1.3596
  711TMC3    C710572   3.179   4.052  15.077 -0.6954  0.1386 -0.0866
  711TMC3    C810573   3.015   4.270  15.431 -0.4994 -0.3419  0.1455
  711TMC3    O110574   3.271   4.030  15.158  0.3945 -0.9556 -0.2715
  711TMC3    O210575   2.917   4.307  15.494 -0.2832 -0.2018  0.3309
  712MPD2     C10576   4.503   0.432  14.128  0.1528  0.4703  0.6696
  712MPD2    C110577   4.388   0.443  14.054  0.0429 -0.3497  0.2265
  712MPD2    C210578   4.332   0.563  14.038 -0.1205  0.0560  0.1223
  712MPD2    C310579   4.392   0.682  14.088  0.1036 -0.5081  0.0018
  712MPD2    C410580   4.518   0.671  14.152  0.3268  0.0059  1.2041
  712MPD2    C510581   4.570   0.542  14.180  0.3202 -0.0963 -0.2994
  712MPD2     H10582   4.242   0.573  13.978 -0.6780 -1.8995  0.6215
  712MPD2    H110583   4.585   0.747  14.190 -0.8746  2.4960 -1.7330
  712MPD2    H210584   4.555   0.338  14.139 -1.4867 -0.2085  2.6952
  712MPD2    H310585   4.660   0.528  14.239 -1.8193  1.6537  3.3827
  712MPD2     N10586   4.350   0.812  14.058 -0.1836 -0.7430 -0.5462
  712MPD2    H510587   4.412   0.892  14.066  0.3710 -1.2374  0.0894
  712MPD2    N110588   4.313   0.333  14.011 -0.1584 -0.3734 -0.1695
  712MPD2    H710589   4.215   0.345  13.986  1.0870  0.2439 -4.7948
  713TMC3    C110590   4.208   0.958  13.947 -0.0026  0.0378 -0.1574
  713TMC3    C210591   4.322   1.004  13.897  0.0522  0.1371 -0.0354
  713TMC3    C310592   4.305   1.131  13.842 -0.0391 -0.2919  0.0958
  713TMC3    C410593   4.087   1.006  13.934  0.0292  0.5319  0.1569
  713TMC3    C510594   4.075   1.132  13.884  0.6513 -0.4806  0.2730
  713TMC3    C610595   4.180   1.196  13.833  0.0890  0.2521  0.9364
  713TMC3     C10596   4.220   0.836  14.021  0.4019  0.2537  0.2102
  713TMC3     O10597   4.124   0.771  14.056 -0.1062 -0.2662  0.2270
  713TMC3     H10598   4.403   0.937  13.874 -1.5492 -1.2701 -1.6066
  713TMC3    H110599   4.004   0.957  13.985  0.1696  0.1643  0.0332
  713TMC3    H210600   4.169   1.301  13.810  0.0536  0.1884  0.6565
  713TMC3    C710601   3.941   1.201  13.868 -0.1972  0.3171 -0.2512
  713TMC3    C810602   4.414   1.198  13.773 -0.2656 -0.2335 -0.0479
  713TMC3    O110603   3.833   1.144  13.853  0.5254  0.1477 -0.0670
  713TMC3    O210604   4.385   1.295  13.704  0.2163 -0.6580 -0.5837
  714MPD2     C10605   1.960   3.938   1.448 -0.1042  0.1901 -0.9983
  714MPD2    C110606   1.982   3.833   1.357 -0.6460  0.1605 -0.0334
  714MPD2    C210607   1.909   3.837   1.245  0.7033  0.4688 -0.6335
  714MPD2    C310608   1.823   3.941   1.219  0.8484  0.0491 -0.7181
  714MPD2    C410609   1.820   4.052   1.300 -0.2081  0.1190  0.6227
  714MPD2    C510610   1.882   4.045   1.421 -0.0219 -0.2595  0.1081
  714MPD2     H10611   1.930   3.758   1.175 -0.5896 -0.7165  0.3299
  714MPD2    H110612   1.757   4.138   1.278  1.2947  0.8911 -0.6276
  714MPD2    H210613   2.013   3.946   1.542  1.2105 -3.3550 -1.4297
  714MPD2    H310614   1.868   4.118   1.501  0.4870  0.2438 -0.2558
  714MPD2     N10615   1.750   3.942   1.101 -0.0600 -0.3229  0.0942
  714MPD2    H510616   1.774   3.869   1.036  0.2252 -1.1392  1.1133
  714MPD2    N110617   2.095   3.756   1.384  0.4541  0.4099  0.7848
  714MPD2    H710618   2.155   3.783   1.461 -0.4581  0.8715  1.3298
  715TMC3    C110619   2.266   3.588   1.359  0.3841 -0.2749  0.0114
  715TMC3    C210620   2.307   3.470   1.301 -1.0909 -0.5916  0.3305
  715TMC3    C310621   2.441   3.443   1.310 -0.5134 -0.6784  0.1434
  715TMC3    C410622   2.354   3.677   1.425 -0.1118  0.2820  0.2231
  715TMC3    C510623   2.479   3.645   1.432 -0.2561 -0.1207 -0.3111
  715TMC3    C610624   2.529   3.532   1.377  0.0442 -0.1801  0.6198
  715TMC3     C10625   2.133   3.636   1.322 -0.1525  0.0272 -0.6825
  715TMC3     O10626   2.072   3.559   1.251 -0.8833  0.1730  0.8843
  715TMC3     H10627   2.238   3.402   1.252 -0.1844 -1.9354  0.9179
  715TMC3    H110628   2.331   3.781   1.446 -0.2139  1.0927 -4.0114
  715TMC3    H210629   2.635   3.510   1.376  0.1295  0.2001  1.4210
  715TMC3    C710630   2.569   3.738   1.499  0.2485 -0.0927  0.3577
  715TMC3    C810631   2.493   3.354   1.208  0.4159 -0.3351 -0.8020
  715TMC3    O110632   2.679   3.754   1.443  0.2788 -0.3504 -0.2745
  715TMC3    O210633   2.431   3.341   1.104 -0.2971 -0.2235 -0.0664
  716MPD2     C10634   1.752   2.430  10.289 -0.0115 -1.0332  0.1990
  716MPD2    C110635   1.697   2.353  10.191 -0.5147 -0.2966 -0.4663
  716MPD2    C210636   1.761   2.233  10.157  0.1617 -0.1999  0.3534
  716MPD2    C310637   1.879   2.196  10.221 -0.5198  0.0222 -0.2472
  716MPD2    C410638   1.934   2.284  10.317  0.6212 -0.4476 -0.4892
  716MPD2    C510639   1.863   2.392  10.355 -0.0221 -0.9993  0.1300
  716MPD2     H10640   1.728   2.175  10.072 -0.6298 -0.0541  0.5539
  716MPD2    H110641   2.024   2.270  10.376  0.5647  0.8930 -0.0948
  716MPD2    H210642   1.692   2.513  10.324  0.0021 -1.3330  0.9443
  716MPD2    H310643   1.909   2.452  10.432 -0.0873 -0.3396 -0.3416
  716MPD2     N10644   1.947   2.086  10.168  0.7185 -0.0038  0.7504
  716MPD2    H510645   1.893   2.032  10.102  0.0457 -0.8627  1.9940
  716MPD2    N110646   1.569   2.402  10.136  0.9336 -0.0710  0.2072
  716MPD2    H710647   1.535   2.488  10.177  0.1215 -0.9428  1.3695
  717TMC3    C110648   2.116   1.907  10.162  0.6772  0.1782  0.0482
  717TMC3    C210649   2.081   1.867  10.032  0.1312 -0.4208  0.6284
  717TMC3    C310650   2.134   1.746   9.983 -1.0804 -0.4143  0.0858
  717TMC3    C410651   2.199   1.828  10.237 -0.2746 -0.0882 -0.0546
  717TMC3    C510652   2.256   1.719  10.178  0.3805  0.8580 -0.6674
  717TMC3    C610653   2.217   1.677  10.058  0.2743  0.2276  0.0439
  717TMC3     C10654   2.065   2.033  10.219 -0.0356 -0.6096  0.1540
  717TMC3     O10655   2.129   2.072  10.316 -0.6582 -0.6423  0.0556
  717TMC3     H10656   1.999   1.903   9.971  0.4365  0.6715  0.8617
  717TMC3    H110657   2.217   1.860  10.339 -0.4592  0.2510 -0.1292
  717TMC3    H210658   2.271   1.591  10.020  1.4764  0.0318  2.1890
  717TMC3    C710659   2.358   1.635  10.244  1.1668  0.6330 -0.5397
  717TMC3    C810660   2.091   1.707   9.844 -0.2890 -0.0850  0.2851
  717TMC3    O110661   2.376   1.522  10.195 -0.2349 -0.6406  0.8965
  717TMC3    O210662   1.975   1.725   9.814  0.7082 -0.4785 -0.0395
  718MPD2     C10663   1.571   0.478  13.699  0.5300 -0.4053  0.6717
  718MPD2    C110664   1.557   0.607  13.651  0.1464  0.2827 -0.4915
  718MPD2    C210665   1.432   0.667  13.649  0.0124 -0.8184  0.4014
  718MPD2    C310666   1.320   0.605  13.710 -0.7862  1.0746 -0.0280
  718MPD2    C410667   1.334   0.476  13.748  0.1495 -0.0237  0.3376
  718MPD2    C510668   1.456   0.412  13.739 -0.1790  0.6014  0.0238
  718MPD2     H10669   1.430   0.770  13.615 -2.4409 -0.5967  1.1603
  718MPD2    H110670   1.259   0.420  13.802 -0.6264 -1.0847 -1.8705
  718MPD2    H210671   1.661   0.417  13.697  1.7458  1.4257  0.1959
  718MPD2    H310672   1.466   0.309  13.771 -0.8216  0.7546  0.7363
  718MPD2     N10673   1.200   0.677  13.713 -0.2975  0.0958 -0.0956
  718MPD2    H510674   1.199   0.765  13.662 -2.6595 -0.0276 -0.2954
  718MPD2    N110675   1.672   0.677  13.599  0.2001  0.2021  0.5505
  718MPD2    H710676   1.765   0.650  13.629  0.5596  0.1029 -0.6753
  719TMC3    C110677   1.812   0.828  13.511  0.0207 -0.6977 -0.0740
  719TMC3    C210678   1.825   0.920  13.610 -0.2922 -0.7554 -0.1419
  719TMC3    C310679   1.830   1.046  13.572  0.0093  0.2870  0.0256
  719TMC3    C410680   1.829   0.855  13.379  0.8263 -0.0462 -0.5675
  719TMC3    C510681   1.870   0.980  13.346  0.4792  0.2619 -0.7780
  719TMC3    C610682   1.862   1.080  13.442 -0.2239 -0.6782 -0.2546
  719TMC3     C10683   1.672   0.788  13.525  0.4282  0.8090 -0.3938
  719TMC3     O10684   1.592   0.848  13.455  0.0620 -0.0160 -0.1309
  719TMC3     H10685   1.794   0.894  13.711  1.4172  2.1825  1.1345
  719TMC3    H110686   1.812   0.771  13.312  1.2347  1.5243 -2.6242
  719TMC3    H210687   1.904   1.177  13.416 -0.9040  0.0127  1.2767
  719TMC3    C710688   1.833   1.021  13.209 -0.8060  0.4527 -0.3523
  719TMC3    C810689   1.718   1.127  13.609 -0.0280 -0.5511  0.1725
  719TMC3    O110690   1.898   1.117  13.164 -0.1898  0.0714 -0.2256
  719TMC3    O210691   1.667   1.092  13.718 -0.1978 -0.0646 -0.2737
  720MPD2     C10692   4.114   2.672  14.274 -0.6472 -0.1522  1.0112
  720MPD2    C110693   4.189   2.685  14.162 -0.1909  0.3878  0.8108
  720MPD2    C210694   4.316   2.630  14.150 -0.4008  0.0666  0.3883
  720MPD2    C310695   4.375   2.566  14.261  0.0288 -0.1876 -0.3129
  720MPD2    C410696   4.291   2.547  14.379  0.2663 -0.2764 -1.1922
  720MPD2    C510697   4.162   2.601  14.381 -0.2687  0.6610  0.0990
  720MPD2     H10698   4.377   2.654  14.064 -0.4574 -0.6623  0.1507
  720MPD2    H110699   4.312   2.475  14.457  2.9970 -0.0990 -1.7855
  720MPD2    H210700   4.020   2.726  14.276 -0.1333  0.7511  0.7294
  720MPD2    H310701   4.095   2.579  14.464 -1.6208  0.8419 -0.9558
  720MPD2     N10702   4.519   2.527  14.261  0.4973  0.8971 -0.0198
  720MPD2    H510703   4.567   2.547  14.174  0.3788 -0.2712 -0.3655
  720MPD2    N110704   4.123   2.760  14.056  0.2851 -0.0779  0.0612
  720MPD2    H710705   4.026   2.785  14.070 -0.0099 -1.1499 -0.0076
  721TMC3    C110706   4.734   2.476  14.344  0.2551  0.0900  0.1800
  721TMC3    C210707   0.065   2.454  14.458  0.0743  0.1327 -0.1290
  721TMC3    C310708   0.190   2.403  14.439  0.3168  0.3202  0.0624
  721TMC3    C410709   0.039   2.454  14.219 -1.1652 -0.5286 -0.2654
  721TMC3    C510710   0.164   2.404  14.208  0.0021  0.2756  0.0226
  721TMC3    C610711   0.239   2.376  14.319 -0.0004  0.4073  0.1810
  721TMC3     C10712   4.594   2.473  14.368 -0.4878  0.9029  0.2374
  721TMC3     O10713   4.544   2.444  14.473  0.1374  0.0903 -0.3768
  721TMC3     H10714   0.021   2.469  14.556 -1.3226 -3.2752 -0.2069
  721TMC3    H110715   4.723   2.473  14.126 -0.8074 -1.4962 -0.6651
  721TMC3    H210716   0.340   2.337  14.307 -0.4047  0.7120 -4.4659
  721TMC3    C710717   0.232   2.439  14.090 -0.5284 -0.0335  0.2002
  721TMC3    C810718   0.269   2.351  14.544 -0.4672  0.4012  0.5172
  721TMC3    O110719   0.228   2.554  14.060  0.3138  0.0462  0.0629
  721TMC3    O210720   0.390   2.373  14.528  0.5816 -0.1080 -0.4708
  722MPD2     C10721   3.148   1.194  13.346 -0.5943 -0.0454  0.3374
  722MPD2    C110722   3.113   1.321  13.299 -0.0725  0.6830  0.2943
  722MPD2    C210723   2.990   1.330  13.234 -0.1156 -0.2296  0.0919
  722MPD2    C310724   2.927   1.222  13.173  0.5947  0.1801 -0.2689
  722MPD2    C410725   2.968   1.094  13.209 -0.7634  0.3812  0.2253
  722MPD2    C510726   3.076   1.088  13.294  0.1120  0.0061  0.1711
  722MPD2     H10727   2.965   1.433  13.212  2.0368  0.5825  1.4040
  722MPD2    H110728   2.927   1.006  13.161 -0.2362 -0.2169  0.8786
  722MPD2    H210729   3.246   1.183  13.392  1.5212  1.9709 -3.6223
  722MPD2    H310730   3.115   0.989  13.318 -0.0422 -0.8691 -3.1611
  722MPD2     N10731   2.814   1.240  13.080 -0.0763 -0.3074  0.3684
  722MPD2    H510732   2.801   1.338  13.056  3.6680  0.0772 -0.0784
  722MPD2    N110733   3.172   1.435  13.356 -0.2223 -0.3812 -0.1380
  722MPD2    H710734   3.109   1.513  13.370 -0.5028 -0.5919 -0.2121
  723TMC3    C110735   2.642   1.204  12.932 -0.0123 -0.1575 -0.1328
  723TMC3    C210736   2.534   1.125  12.906  0.1910  0.0588 -0.7907
  723TMC3    C310737   2.422   1.186  12.847 -0.0638 -0.1068  0.2192
  723TMC3    C410738   2.650   1.337  12.904 -0.1519 -0.4298  0.2499
  723TMC3    C510739   2.535   1.396  12.857 -0.5856 -0.1634 -0.3426
  723TMC3    C610740   2.416   1.323  12.826  0.4541 -0.0174 -0.2181
  723TMC3     C10741   2.741   1.141  13.014 -1.0676  0.1523  0.0642
  723TMC3     O10742   2.744   1.023  13.040 -0.1490  0.1132  0.4053
  723TMC3     H10743   2.535   1.018  12.919  0.6892  0.4129  2.0285
  723TMC3    H110744   2.735   1.399  12.926  1.4120 -2.5720  0.2136
  723TMC3    H210745   2.333   1.382  12.790 -0.3865 -0.1557  1.4872
  723TMC3    C710746   2.545   1.531  12.822 -0.6397  0.2892  0.5079
  723TMC3    C810747   2.302   1.118  12.833  0.3180  0.6224 -0.2702
  723TMC3    O110748   2.622   1.594  12.893  0.2723 -0.3563  0.4072
  723TMC3    O210749   2.203   1.178  12.873 -0.1329  0.0457  0.3669
  724TMC3    C110750   4.088   0.022  10.749  0.4345  0.1322 -0.1581
  724TMC3    C210751   4.020   0.126  10.809  0.5048  0.9670  0.6417
  724TMC3    C310752   4.083   0.200  10.908  0.6130 -0.2266  1.0895
  724TMC3    C410753   4.197   4.710  10.819  0.0179 -0.2005 -0.4800
  724TMC3    C510754   4.263   0.042  10.915 -0.1013 -0.0392 -0.2237
  724TMC3    C610755   4.204   0.159  10.959 -0.2848  0.2917 -0.2412
  724TMC3     C10756   4.011   4.646  10.697 -0.1108  0.9716 -0.5287
  724TMC3     O10757   4.015   4.544  10.765  0.2781  1.3493  0.2307
  724TMC3     H10758   3.939   0.174  10.756  1.0986  1.4906  0.1994
  724TMC3    H110759   4.236   4.619  10.773 -0.7689 -0.0876 -1.3645
  724TMC3    H210760   4.276   0.224  11.006 -1.1193  1.3581 -0.4323
  724TMC3    C710761   4.404   0.059  10.891 -0.1561 -1.0156  0.1680
  724TMC3    C810762   4.029   0.333  10.940 -0.1342 -0.6311  0.5605
  724TMC3    O110763   4.443   0.170  10.848 -0.1284 -0.6370  0.1138
  724TMC3    O210764   3.914   0.358  10.907 -0.1258  0.4366 -0.6674
  725TMC3    C110765   0.333   3.119  12.994 -0.2920  0.1347  0.6808
  725TMC3    C210766   0.207   3.131  12.939  0.5576  1.0461  0.0272
  725TMC3    C310767   0.159   3.019  12.880 -0.2323 -0.2078  0.0479
  725TMC3    C410768   0.410   3.006  12.985 -0.2522 -0.0556 -0.1282
  725TMC3    C510769   0.351   2.897  12.928  0.9380 -0.2548  0.8501
  725TMC3    C610770   0.228   2.901  12.874 -0.0646  0.5629  0.3707
  725TMC3     C10771   0.362   3.195  13.109 -0.1124  0.1815  0.0207
  725TMC3     O10772   0.477   3.199  13.148  0.4344 -0.0178  0.1751
  725TMC3     H10773   0.147   3.220  12.953  2.0904  1.6810  2.5140
  725TMC3    H110774   0.509   3.001  13.029  1.4164 -0.7700 -3.9949
  725TMC3    H210775   0.185   2.825  12.809  0.7840  0.2305  0.2006
  725TMC3    C710776   0.420   2.766  12.913  0.3653 -0.6555  0.0845
  725TMC3    C810777   0.041   3.034  12.793  0.8376 -0.4504  0.0355
  725TMC3    O110778   0.346   2.675  12.884 -0.0891  0.1300 -0.2021
  725TMC3    O210779   4.720   2.934  12.765  0.4898  0.5698  0.5702
  726MPD2     C10780   2.942   4.616  11.028  0.4282 -0.2511 -0.2352
  726MPD2    C110781   2.884   4.650  10.908 -0.0817  0.2758  0.1206
  726MPD2    C210782   2.748   4.637  10.890  0.5900 -0.3768 -0.2164
  726MPD2    C310783   2.668   4.573  10.984  0.5710  0.8472  0.1957
  726MPD2    C410784   2.724   4.534  11.104  0.6053  0.2835  0.7730
  726MPD2    C510785   2.858   4.564  11.122 -0.2279  0.3018  0.4262
  726MPD2     H10786   2.697   4.662  10.798 -1.6092 -0.9788  0.8313
  726MPD2    H110787   2.669   4.478  11.179  1.3311 -1.8409 -0.2726
  726MPD2    H210788   3.045   4.624  11.060 -0.1322 -0.6394  1.6966
  726MPD2    H310789   2.910   4.522  11.208 -0.9682 -0.1736  0.6422
  726MPD2     N10790   2.540   4.527  10.952  0.4422 -0.0188 -0.1576
  726MPD2    H510791   2.492   4.480  11.028  1.2462  0.3315  0.5650
  726MPD2    N110792   2.949   4.714  10.798  0.4615 -0.2118 -0.4162
  726MPD2    H710793   2.899   4.718  10.710 -0.8342  0.8691  0.3695
  727TMC3    C110794   3.111   0.103  10.687  0.9924  0.5732 -0.1387
  727TMC3    C210795   3.184   0.215  10.714  0.2817  0.4130 -0.5456
  727TMC3    C310796   3.180   0.316  10.619 -0.6857  0.0539 -0.2203
  727TMC3    C410797   3.050   0.078  10.569 -0.4031  0.1342  0.1398
  727TMC3    C510798   3.052   0.174  10.477  0.1744  0.5335  0.1217
  727TMC3    C610799   3.109   0.297  10.497  0.0071 -0.8796  0.2599
  727TMC3     C10800   3.074   0.027  10.808  0.0570 -0.3358 -0.2235
  727TMC3     O10801   3.146   0.049  10.907 -0.6434  0.0336  0.2176
  727TMC3     H10802   3.228   0.237  10.810  2.3292  0.1568 -1.4366
  727TMC3    H110803   3.000   4.720  10.548  1.3480 -0.5323 -1.0355
  727TMC3    H210804   3.105   0.370  10.417 -1.8635 -0.4773  0.7304
  727TMC3    C710805   2.961   0.154  10.363  0.5808  0.8890 -0.0319
  727TMC3    C810806   3.241   0.448  10.644  0.1831 -0.7294  0.0984
  727TMC3    O110807   2.866   0.079  10.378  0.7218  0.0102  0.4328
  727TMC3    O210808   3.281   0.459  10.757 -0.5004  0.0663 -0.3324
  728TMC3    C110809   2.871   3.017  15.068  0.8671  0.7333  0.4279
  728TMC3    C210810   2.967   3.093  15.020  0.5190  0.0714 -0.5300
  728TMC3    C310811   2.973   3.107  14.883  0.1713 -0.1214 -0.2450
  728TMC3    C410812   2.770   2.965  14.991  1.3300 -0.2136 -0.5539
  728TMC3    C510813   2.770   2.990  14.856 -0.0159 -0.0632  0.0337
  728TMC3    C610814   2.878   3.044  14.799 -0.0982 -0.5272  0.5787
  728TMC3     C10815   2.875   3.000  15.215  0.5456 -0.3127  0.2069
  728TMC3     O10816   2.967   3.051  15.281 -0.3042  0.1580 -0.0261
  728TMC3     H10817   3.044   3.136  15.082  0.1045 -1.3575  0.9714
  728TMC3    H110818   2.687   2.907  15.029  1.0735 -0.2811 -1.2045
  728TMC3    H210819   2.873   3.069  14.694 -2.6831 -1.5646  0.4626
  728TMC3    C710820   2.647   2.987  14.787 -0.7458  0.0824 -0.3839
  728TMC3    C810821   3.082   3.185  14.838 -0.0771  0.4821 -0.2872
  728TMC3    O110822   2.582   2.884  14.800 -0.0123  0.3838  0.2749
  728TMC3    O210823   3.183   3.188  14.907  0.4038  0.2457  0.0897
  729MPD2     C10824   4.102   4.196  16.675  0.0259 -0.0042  0.1762
  729MPD2    C110825   4.235   4.184  16.694 -0.0996 -0.1559  0.2815
  729MPD2    C210826   4.275   4.154  16.826 -0.3617 -0.2771 -1.1450
  729MPD2    C310827   4.199   4.183  16.936 -0.1570 -0.6747 -0.0223
  729MPD2    C410828   4.074   4.221  16.910  0.0244 -0.0636  0.4511
  729MPD2    C510829   4.017   4.217  16.782 -0.0552  0.1177 -0.1696
  729MPD2     H10830   4.380   4.136  16.845 -0.6858  1.5045  2.3695
  729MPD2    H110831   4.016   4.277  16.982  0.7997  0.6881  0.4938
  729MPD2    H210832   4.063   4.204  16.574  0.5955 -0.3592 -0.0654
  729MPD2    H310833   3.914   4.244  16.765  0.9526  2.8791 -1.9570
  729MPD2     N10834   4.240   4.209  17.070 -0.2098 -0.6313  0.1938
  729MPD2    H510835   4.176   4.265  17.126 -1.6539 -0.4134 -1.6789
  729MPD2    N110836   4.326   4.202  16.590  0.0135 -0.2722 -0.0727
  729MPD2    H710837   4.291   4.248  16.506 -1.6404 -1.1005  0.1553
  730TMC3    C110838   4.399   4.258  17.247  0.2946  0.2509  0.4815
  730TMC3    C210839   4.525   4.286  17.278  0.8115  0.2246 -1.0904
  730TMC3    C310840   4.545   4.339  17.404 -0.1062  0.6990 -0.5422
  730TMC3    C410841   4.291   4.311  17.321 -0.4967 -0.8614  0.4582
  730TMC3    C510842   4.314   4.352  17.448 -0.4741 -0.0572  0.5868
  730TMC3    C610843   4.440   4.360  17.488  0.0892 -0.3943  0.5275
  730TMC3     C10844   4.373   4.203  17.117  0.5812 -0.5607 -0.6117
  730TMC3     O10845   4.466   4.146  17.066 -0.4182 -0.2172  0.0324
  730TMC3     H10846   4.609   4.277  17.210 -0.2833  2.3938 -2.7002
  730TMC3    H110847   4.187   4.291  17.295 -1.1030  3.5085 -0.4258
  730TMC3    H210848   4.438   4.398  17.589 -1.0155 -0.7057  0.6179
  730TMC3    C710849   4.226   4.452  17.505  0.5436 -0.0807 -0.8933
  730TMC3    C810850   4.643   4.440  17.416 -1.1649  0.1112  0.2938
  730TMC3    O110851   4.238   4.476  17.622  0.1879  0.4353  0.2582
  730TMC3    O210852   4.714   4.450  17.316 -0.0290  0.2431  0.9223
  731MPD2     C10853   3.943   2.049  12.505 -0.2363 -0.0295  0.0605
  731MPD2    C110854   4.062   2.109  12.505 -1.4030  0.7989  0.5974
  731MPD2    C210855   4.108   2.141  12.634  0.1858  0.4081 -0.7760
  731MPD2    C310856   4.039   2.102  12.750 -0.2630  0.4074  0.0121
  731MPD2    C410857   3.920   2.038  12.733  0.4506  0.3387  0.2806
  731MPD2    C510858   3.868   2.013  12.614  0.2787  0.3953 -0.5852
  731MPD2     H10859   4.203   2.193  12.643  0.5814 -0.2191 -1.3031
  731MPD2    H110860   3.855   2.008  12.815  0.8348 -1.3943 -0.0442
  731MPD2    H210861   3.900   2.022  12.409  0.6563 -0.0420 -0.3312
  731MPD2    H310862   3.780   1.954  12.588  0.5735 -0.7929  1.0813
  731MPD2     N10863   4.092   2.138  12.874  0.2066  0.0007 -0.1626
  731MPD2    H510864   4.178   2.193  12.875 -0.5136  1.1385 -2.1219
  731MPD2    N110865   4.127   2.155  12.390 -0.1910 -0.6257 -0.4951
  731MPD2    H710866   4.091   2.130  12.299  3.7613 -2.9686 -1.4361
  732TMC3    C110867   4.303   2.201  12.253  0.4564  0.3825 -0.7651
  732TMC3    C210868   4.211   2.235  12.157  0.1290  0.2047 -0.1276
  732TMC3    C310869   4.255   2.230  12.030  0.2234  0.0410  0.0052
  732TMC3    C410870   4.435   2.159  12.229 -0.3999 -0.9044  0.3899
  732TMC3    C510871   4.478   2.162  12.100  0.6832 -0.0430  0.3809
  732TMC3    C610872   4.383   2.190  11.995  0.6232  0.5114 -0.1645
  732TMC3     C10873   4.258   2.193  12.389 -0.1181  0.7907 -0.1038
  732TMC3     O10874   4.349   2.204  12.472  0.4575  0.1443 -0.2484
  732TMC3     H10875   4.121   2.285  12.191 -1.3096 -0.0497 -3.6200
  732TMC3    H110876   4.505   2.144  12.310 -1.9009 -0.2683  1.7983
  732TMC3    H210877   4.414   2.195  11.892  1.3093 -0.0153  0.0131
  732TMC3    C710878   4.614   2.129  12.062 -0.6795  0.2613 -0.6760
  732TMC3    C810879   4.200   2.325  11.927  0.1693  0.1136  0.1205
  732TMC3    O110880   4.652   2.092  11.952 -0.5560 -0.2887 -0.5052
  732TMC3    O210881   4.269   2.361  11.833  0.0738 -0.7118  0.3693
  733TMC3    C110882   0.811   0.865  13.724 -0.5358 -0.8128 -0.2125
  733TMC3    C210883   0.873   0.769  13.793 -0.5630 -0.1701  0.3019
  733TMC3    C310884   1.014   0.776  13.785  0.5265  0.1489 -0.6081
  733TMC3    C410885   0.869   0.978  13.672 -0.7346  0.2970  0.5579
  733TMC3    C510886   1.005   0.990  13.682 -0.5947  0.4608  0.1812
  733TMC3    C610887   1.076   0.889  13.741 -0.4822 -0.3209 -0.8336
  733TMC3     C10888   0.666   0.863  13.723 -0.6841  0.0448 -0.2710
  733TMC3     O10889   0.603   0.921  13.635 -0.1193  0.0803 -0.2707
  733TMC3     H10890   0.824   0.677  13.824 -0.4989 -0.5330 -0.6759
  733TMC3    H110891   0.815   1.051  13.613 -0.9184 -0.3602 -0.0949
  733TMC3    H210892   1.181   0.910  13.760 -0.9215  0.8454  0.2713
  733TMC3    C710893   1.061   1.090  13.593  0.4620  0.9678  0.7707
  733TMC3    C810894   1.092   0.654  13.788  0.5788  0.4779  0.0255
  733TMC3    O110895   0.993   1.148  13.509 -0.0877 -0.0559  0.6764
  733TMC3    O210896   1.052   0.551  13.838 -0.0752 -0.6385  0.0596
  734MPD2     C10897   2.390   3.098  12.618 -0.2876 -0.4042 -0.5724
  734MPD2    C110898   2.331   3.009  12.530 -0.5973 -0.8711 -0.6510
  734MPD2    C210899   2.378   3.019  12.402  0.2507 -0.0849  0.1030
  734MPD2    C310900   2.479   3.100  12.358 -0.5974 -0.7399 -0.4466
  734MPD2    C410901   2.551   3.170  12.454  0.7324  0.3485  0.4603
  734MPD2    C510902   2.503   3.177  12.582 -0.2114  0.6559  0.6892
  734MPD2     H10903   2.339   2.957  12.322 -4.4009  0.6592  1.7810
  734MPD2    H110904   2.643   3.223  12.432  1.9176 -1.7489  0.3694
  734MPD2    H210905   2.354   3.095  12.721 -0.4210  2.8234 -0.5192
  734MPD2    H310906   2.552   3.235  12.659  0.6797  0.2552  0.4194
  734MPD2     N10907   2.497   3.104  12.220  0.1507 -0.2603  0.2912
  734MPD2    H510908   2.417   3.064  12.171  2.3104  0.1684 -3.5925
  734MPD2    N110909   2.239   2.906  12.569  0.3533 -0.3212  0.6126
  734MPD2    H710910   2.219   2.899  12.668  0.0691  1.1521  0.6527
  735TMC3    C110911   2.110   2.700  12.542 -0.4137 -0.0659  0.3994
  735TMC3    C210912   2.053   2.644  12.426 -0.0193  0.0263 -0.8802
  735TMC3    C310913   2.094   2.522  12.387  0.6513  0.4221  0.4083
  735TMC3    C410914   2.205   2.632  12.612 -0.0696  1.0482  0.0737
  735TMC3    C510915   2.244   2.507  12.565 -0.2153 -0.5044  0.0466
  735TMC3    C610916   2.183   2.446  12.457  0.4484 -0.2203 -0.6909
  735TMC3     C10917   2.164   2.824  12.485 -0.6520 -0.6751  0.1540
  735TMC3     O10918   2.156   2.829  12.361  0.1782 -0.1237  0.6202
  735TMC3     H10919   1.980   2.701  12.371 -0.7328  1.5956  1.6908
  735TMC3    H110920   2.238   2.676  12.705 -1.2279  0.5919  0.7026
  735TMC3    H210921   2.221   2.352  12.419 -0.4250 -0.8636  0.0635
  735TMC3    C710922   2.382   2.472  12.593  0.4649 -0.4786  0.6165
  735TMC3    C810923   2.072   2.494  12.254 -0.8215 -0.3587 -0.3690
  735TMC3    O110924   2.442   2.418  12.505  0.0200 -0.4881  0.2729
  735TMC3    O210925   2.086   2.379  12.213 -0.4106 -0.0036 -0.0919
  736MPD2     C10926   2.586   2.541  12.890 -0.0780  0.5287  0.6054
  736MPD2    C110927   2.559   2.509  12.761  0.0426  0.3214 -0.1886
  736MPD2    C210928   2.666   2.486  12.681  0.3308 -0.9158  0.4655
  736MPD2    C310929   2.797   2.478  12.738  0.5751 -0.3103 -0.3027
  736MPD2    C410930   2.815   2.506  12.873 -0.6065  0.3942 -0.2554
  736MPD2    C510931   2.711   2.550  12.946  0.1218  0.2691  0.5730
  736MPD2     H10932   2.645   2.478  12.575  1.4747 -0.6818  0.2290
  736MPD2    H110933   2.911   2.507  12.924 -0.6460  1.0570 -0.1966
  736MPD2    H210934   2.514   2.595  12.950 -0.7095 -0.7430  0.9993
  736MPD2    H310935   2.736   2.593  13.042 -1.1965  0.0062  1.0419
  736MPD2     N10936   2.914   2.491  12.664 -0.0063 -0.4055 -0.2757
  736MPD2    H510937   2.999   2.518  12.713 -0.6951 -2.1086  1.8367
  736MPD2    N110938   2.426   2.519  12.715 -0.0248  0.0728 -0.3598
  736MPD2    H710939   2.354   2.522  12.787  0.5027 -1.0107  0.2130
  737TMC3    C110940   3.060   2.480  12.473 -0.3856 -0.3509  0.0054
  737TMC3    C210941   3.102   2.609  12.489 -0.9259  0.0584 -0.1036
  737TMC3    C310942   3.190   2.657  12.394  0.2348 -0.5561  0.7683
  737TMC3    C410943   3.100   2.402  12.368  0.5168  0.0421 -0.4981
  737TMC3    C510944   3.196   2.449  12.279  0.6347  0.3167 -0.4906
  737TMC3    C610945   3.229   2.581  12.286 -0.1228 -0.3310  0.2316
  737TMC3     C10946   2.931   2.454  12.528 -0.5556 -0.1309 -0.0828
  737TMC3     O10947   2.851   2.401  12.452  1.0096 -0.2311 -0.1970
  737TMC3     H10948   3.058   2.673  12.565  2.6141  2.4961 -0.1230
  737TMC3    H110949   3.046   2.310  12.351 -2.1519  1.0475  2.4543
  737TMC3    H210950   3.306   2.619  12.219 -1.0050  1.0043 -0.0285
  737TMC3    C710951   3.233   2.361  12.166  0.5237  0.3663 -0.0907
  737TMC3    C810952   3.213   2.796  12.381 -1.2044  0.0244 -0.0709
  737TMC3    O110953   3.218   2.240  12.177  0.2329  0.4308  0.3183
  737TMC3    O210954   3.232   2.857  12.485  0.1885 -1.1063  0.1222
  738MPD2     C10955   3.600   1.375  15.827  0.2139 -0.4787  0.0737
  738MPD2    C110956   3.580   1.310  15.708  0.6267  0.1124 -0.2293
  738MPD2    C210957   3.673   1.320  15.604 -0.3571  0.1985  0.2259
  738MPD2    C310958   3.781   1.400  15.613  0.2543 -0.8301 -0.3232
  738MPD2    C410959   3.802   1.466  15.728 -0.8313  0.3485 -0.4590
  738MPD2    C510960   3.718   1.451  15.837  0.5419 -0.3802 -0.7168
  738MPD2     H10961   3.656   1.256  15.519  1.3306 -0.2156  0.1951
  738MPD2    H110962   3.879   1.542  15.736  0.5969 -1.1317 -0.2480
  738MPD2    H210963   3.541   1.359  15.916 -1.0533 -0.5663 -0.7828
  738MPD2    H310964   3.730   1.502  15.932 -1.4051  0.5039 -0.9349
  738MPD2     N10965   3.872   1.414  15.504  0.4241  0.0265  0.1398
  738MPD2    H510966   3.957   1.466  15.525  1.1645 -1.0210 -0.2457
  738MPD2    N110967   3.464   1.226  15.687  0.1844  0.7336  0.2346
  738MPD2    H710968   3.464   1.166  15.605  4.9016  0.9148  0.0593
  739TMC3    C110969   3.938   1.435  15.282  0.6825  0.4016 -0.1983
  739TMC3    C210970   3.897   1.471  15.153 -0.1889  0.3460 -1.1324
  739TMC3    C310971   3.998   1.522  15.067 -0.0452 -0.1472 -0.0166
  739TMC3    C410972   4.063   1.461  15.328  0.1905  0.4641 -1.0285
  739TMC3    C510973   4.161   1.512  15.243 -0.9540 -0.8464 -0.7890
  739TMC3    C610974   4.129   1.541  15.107  0.2096 -0.5393 -0.0059
  739TMC3     C10975   3.839   1.395  15.373  0.1392  0.1948 -0.0521
  739TMC3     O10976   3.736   1.356  15.318  0.4926 -0.3332  0.0207
  739TMC3     H10977   3.800   1.442  15.115 -1.1292  2.4178 -0.3500
  739TMC3    H110978   4.105   1.418  15.419 -0.1231  1.2604 -0.5103
  739TMC3    H210979   4.205   1.565  15.034  0.1619  0.2478  0.2079
  739TMC3    C710980   4.294   1.506  15.294 -0.3377  0.5531  0.4182
  739TMC3    C810981   3.956   1.557  14.935 -0.1403 -0.0605  0.4352
  739TMC3    O110982   4.309   1.473  15.409 -0.3280  0.2183  1.1001
  739TMC3    O210983   3.841   1.542  14.906  0.6390  0.2367  0.2285
  740TMC3    C110984   4.278   2.874  14.589  0.1998  0.0309 -0.0229
  740TMC3    C210985   4.324   2.818  14.707 -0.1327 -0.6129 -0.1494
  740TMC3    C310986   4.452   2.764  14.708  0.3777  0.7735 -0.4825
  740TMC3    C410987   4.356   2.882  14.474 -0.6096  0.4487 -0.5428
  740TMC3    C510988   4.488   2.829  14.487  0.0363 -0.5781 -0.1474
  740TMC3    C610989   4.532   2.768  14.599  0.9123  0.5707  0.8006
  740TMC3     C10990   4.134   2.891  14.570 -0.0093 -0.1060 -0.4592
  740TMC3     O10991   4.092   2.948  14.469 -0.3023  0.5991 -0.2152
  740TMC3     H10992   4.265   2.839  14.795 -1.8089 -0.4434 -1.3175
  740TMC3    H110993   4.326   2.921  14.378  0.3154 -0.3850 -1.1806
  740TMC3    H210994   4.633   2.728  14.606  0.1459 -1.8869 -2.0997
  740TMC3    C710995   4.576   2.834  14.376 -0.1871 -0.1287  0.2995
  740TMC3    C810996   4.492   2.668  14.808  0.4345  0.4016 -0.8179
  740TMC3    O110997   4.686   2.778  14.393 -0.2268  0.0343  0.0329
  740TMC3    O210998   4.610   2.635  14.801 -0.0710 -0.0537  0.1302
  741TMC3    C110999   3.924   1.924  14.959 -0.2766  0.5933 -0.1172
  741TMC3    C211000   3.802   1.918  14.912  0.3114  0.1739 -0.2621
  741TMC3    C311001   3.712   1.857  14.995 -0.1235 -0.1343 -0.3825
  741TMC3    C411002   3.962   1.884  15.082  0.4543 -0.0910  0.0013
  741TMC3    C511003   3.868   1.830  15.161  0.2788  0.2749 -0.4731
  741TMC3    C611004   3.734   1.821  15.122 -0.1113  0.0540  0.5863
  741TMC3     C11005   4.030   1.985  14.883 -0.0084 -0.3989 -0.2645
  741TMC3     O11006   4.142   1.973  14.925 -0.2483 -0.7276  0.2800
  741TMC3     H11007   3.787   1.937  14.807 -0.6114 -0.5589 -0.2606
  741TMC3    H111008   4.064   1.902  15.115  0.0773  1.2873  0.4235
  741TMC3    H211009   3.651   1.827  15.191  0.5845  2.4734  1.2070
  741TMC3    C711010   3.909   1.818  15.305  0.0359 -0.3922  0.0031
  741TMC3    C811011   3.607   1.781  14.926 -0.3106 -0.6282  0.0228
  741TMC3    O111012   4.026   1.808  15.344  0.0866 -0.2956  0.0760
  741TMC3    O211013   3.571   1.831  14.822 -0.1868  0.1209  0.4655
  742TMC3    C111014   3.852   0.612  15.934 -0.5211  0.2663 -0.0291
  742TMC3    C211015   3.761   0.598  15.830  0.0162  0.2586  0.3045
  742TMC3    C311016   3.820   0.561  15.710  1.5668  1.3148 -0.8122
  742TMC3    C411017   3.981   0.564  15.945 -0.7774  0.0833  0.4293
  742TMC3    C511018   4.021   0.506  15.828 -0.1681  0.3988  0.2565
  742TMC3    C611019   3.947   0.503  15.712  0.1259 -0.4383 -0.0526
  742TMC3     C11020   3.811   0.675  16.057 -0.1545  0.3127  0.4347
  742TMC3     O11021   3.898   0.733  16.122  0.1080  0.1219 -0.1396
  742TMC3     H11022   3.670   0.658  15.834  1.3877  2.2863  1.1067
  742TMC3    H111023   4.035   0.576  16.039  3.7580 -1.4983 -1.9778
  742TMC3    H211024   3.988   0.471  15.617 -2.5254 -0.5418 -1.1712
  742TMC3    C711025   4.148   0.440  15.829  1.0309 -0.6295  0.2635
  742TMC3    C811026   3.746   0.551  15.582  0.3535  0.5429  0.7232
  742TMC3    O111027   4.151   0.359  15.741  0.0833  0.1680  0.2147
  742TMC3    O211028   3.807   0.528  15.482 -0.3447  0.3896  0.1258
  743MPD2     C11029   1.617   2.219   1.509 -0.1973  0.1001  0.0713
  743MPD2    C111030   1.711   2.136   1.449  0.0305  0.3640 -0.6544
  743MPD2    C211031   1.847   2.164   1.460  0.2225  0.0657  0.3468
  743MPD2    C311032   1.889   2.266   1.542  0.3202  0.2042  0.2028
  743MPD2    C411033   1.795   2.333   1.610 -0.0907  0.4225 -0.1425
  743MPD2    C511034   1.665   2.320   1.589  0.0218 -0.0807 -0.5443
  743MPD2     H11035   1.910   2.104   1.396  0.2410 -1.8651  2.1833
  743MPD2    H111036   1.817   2.415   1.678 -1.9112  2.8974 -2.5148
  743MPD2    H211037   1.511   2.199   1.497 -0.1224 -1.1779  1.4632
  743MPD2    H311038   1.592   2.378   1.644 -2.0325 -3.4621  0.2958
  743MPD2     N11039   2.031   2.280   1.561  0.6629 -0.1144  0.4719
  743MPD2    H511040   2.086   2.214   1.506 -1.4773 -0.2810 -1.4648
  743MPD2    N111041   1.673   2.019   1.372  0.2929  0.2236 -0.3979
  743MPD2    H711042   1.574   2.010   1.352  0.1350  0.8062  0.1175
  744TMC3    C111043   1.703   1.814   1.259  0.0544 -0.3816  0.0863
  744TMC3    C211044   1.587   1.844   1.189 -0.0932 -0.2248 -0.4083
  744TMC3    C311045   1.566   1.768   1.081 -0.6887 -0.1555  0.1919
  744TMC3    C411046   1.797   1.727   1.201  0.2498 -0.1632  0.0045
  744TMC3    C511047   1.774   1.649   1.094  0.3309 -0.1500  0.9818
  744TMC3    C611048   1.651   1.673   1.037  0.4186  0.4398 -0.6341
  744TMC3     C11049   1.760   1.916   1.344 -0.0241 -0.0394 -1.0200
  744TMC3     O11050   1.878   1.896   1.363 -0.6272 -0.5543 -0.2294
  744TMC3     H11051   1.515   1.919   1.220  1.7085  1.8704 -1.2699
  744TMC3    H111052   1.885   1.703   1.260  1.4437  0.7199 -1.3939
  744TMC3    H211053   1.633   1.629   0.940  2.2358  0.0106 -0.7860
  744TMC3    C711054   1.874   1.580   1.026 -0.0583 -0.8246 -0.0879
  744TMC3    C811055   1.427   1.769   1.046 -0.1738  0.4310 -0.0781
  744TMC3    O111056   1.849   1.548   0.912 -0.2802 -0.1478 -0.0177
  744TMC3    O211057   1.355   1.865   1.056  0.5596  0.2643  0.0182
  745TMC3    C111058   4.289   0.103  13.928 -0.2177  0.5609  0.3059
  745TMC3    C211059   4.186   0.062  14.002  0.1395 -0.0359  0.0686
  745TMC3    C311060   4.064   0.051  13.950  0.4371  0.0663  0.9691
  745TMC3    C411061   4.279   0.112  13.793 -0.1546 -0.5392 -0.0920
  745TMC3    C511062   4.164   0.097  13.733 -0.0248 -0.4602 -0.0037
  745TMC3    C611063   4.050   0.069  13.814  0.3906 -0.1574 -0.3891
  745TMC3     C11064   4.372   0.208  13.987  0.6379 -0.2026 -0.2986
  745TMC3     O11065   4.489   0.179  13.979  0.3453 -0.1277 -0.6237
  745TMC3     H11066   4.203   0.063  14.109 -0.9612  2.6464  0.2196
  745TMC3    H111067   4.366   0.154  13.743 -0.0314 -0.2438  0.3723
  745TMC3    H211068   3.951   0.086  13.771  0.2651 -3.0292 -1.2197
  745TMC3    C711069   4.136   0.167  13.610 -0.3640  0.5252 -0.0011
  745TMC3    C811070   3.955   0.131  14.015  0.6178  0.7834 -0.0485
  745TMC3    O111071   4.035   0.132  13.545 -0.3978  0.1017  0.3180
  745TMC3    O211072   3.839   0.125  13.983  0.2715  0.5824 -0.8387
  746TMC3    C111073   2.083   2.462  10.970  0.4231 -0.2963 -0.2723
  746TMC3    C211074   2.153   2.463  10.852  0.0378 -0.2227  0.2803
  746TMC3    C311075   2.139   2.361  10.765 -0.4845  1.2431 -0.6618
  746TMC3    C411076   2.013   2.344  11.002 -0.2019 -1.2091 -0.3465
  746TMC3    C511077   2.003   2.245  10.909  0.1402 -0.1256  0.2414
  746TMC3    C611078   2.059   2.252  10.789 -0.2331 -0.2520  0.2176
  746TMC3     C11079   2.060   2.591  11.036  0.1532 -0.0456  0.1248
  746TMC3     O11080   2.027   2.575  11.156 -0.0027 -0.0610 -0.1141
  746TMC3     H11081   2.238   2.529  10.839  1.4652 -2.2926 -0.8003
  746TMC3    H111082   1.958   2.338  11.095  0.5110  2.2050  0.2862
  746TMC3    H211083   2.033   2.181  10.712 -1.5764  1.6483 -1.0908
  746TMC3    C711084   1.907   2.140  10.936 -0.4409  0.6089 -0.1146
  746TMC3    C811085   2.141   2.402  10.630 -0.3810  0.4548  0.1891
  746TMC3    O111086   1.842   2.110  10.839  0.4598  0.0750 -0.2637
  746TMC3    O211087   2.209   2.336  10.551 -0.4394  0.2379 -0.6673
  747TMC3    C111088   3.667   2.704  11.250  0.2939  0.1734  0.1383
  747TMC3    C211089   3.644   2.597  11.332 -0.3378 -0.1234 -0.2185
  747TMC3    C311090   3.622   2.609  11.467  0.0940 -0.4925 -0.2383
  747TMC3    C411091   3.699   2.823  11.311  0.0973 -0.1941 -0.1509
  747TMC3    C511092   3.677   2.836  11.443 -0.1200 -0.3959  0.5089
  747TMC3    C611093   3.632   2.737  11.523  0.1386  0.3055 -0.1886
  747TMC3     C11094   3.691   2.679  11.106 -0.3505 -0.5340  0.7202
  747TMC3     O11095   3.719   2.778  11.042  0.1465 -0.4963  0.2337
  747TMC3     H11096   3.615   2.503  11.288  0.4777 -0.0800 -0.8570
  747TMC3    H111097   3.739   2.903  11.250  0.5962 -1.2371 -1.1783
  747TMC3    H211098   3.620   2.762  11.628 -0.9820  2.4193 -0.8222
  747TMC3    C711099   3.778   2.930  11.497  0.1615 -0.3595  0.4464
  747TMC3    C811100   3.578   2.503  11.553  0.6109  0.2962  0.3103
  747TMC3    O111101   3.760   2.987  11.607  0.2915  0.1342  0.1246
  747TMC3    O211102   3.557   2.395  11.493  0.0879  0.5569 -0.4506
  748MPD2     C11103   1.024   2.249   1.160  0.3795 -0.4705 -0.9412
  748MPD2    C111104   1.148   2.197   1.213 -0.2154  0.0701 -0.5393
  748MPD2    C211105   1.264   2.281   1.219 -1.3284  0.3816 -0.1463
  748MPD2    C311106   1.240   2.417   1.180  0.2357 -0.6160  0.9107
  748MPD2    C411107   1.113   2.463   1.149 -0.3028 -0.0039  0.1515
  748MPD2    C511108   1.008   2.380   1.135  0.8864 -0.2350 -0.5859
  748MPD2     H11109   1.360   2.246   1.255 -0.7602  1.7800 -0.3391
  748MPD2    H111110   1.082   2.565   1.133  0.8210  0.2387 -0.4321
  748MPD2    H211111   0.939   2.182   1.152 -1.1153  1.0248  2.3362
  748MPD2    H311112   0.918   2.425   1.094  0.1827 -0.4650  0.7298
  748MPD2     N11113   1.350   2.499   1.173  0.1246  0.2363 -0.5056
  748MPD2    H511114   1.442   2.463   1.195  0.1360  1.0123  0.7444
  748MPD2    N111115   1.154   2.066   1.250  0.0019 -0.5154 -0.4356
  748MPD2    H711116   1.068   2.012   1.241  0.6957 -1.3923 -1.7201
  749TMC3    C111117   1.488   2.674   1.118  0.9167  0.2990 -0.0332
  749TMC3    C211118   1.578   2.639   1.214  0.5413  0.3618  0.2195
  749TMC3    C311119   1.701   2.696   1.221  0.4808 -0.7408  0.6153
  749TMC3    C411120   1.518   2.775   1.030 -0.9853  0.1941 -0.1768
  749TMC3    C511121   1.646   2.827   1.037  0.2741 -0.4535 -0.0920
  749TMC3    C611122   1.742   2.793   1.133 -0.4794  0.2861  0.9979
  749TMC3     C11123   1.352   2.628   1.126 -0.5446  0.0494 -0.2595
  749TMC3     O11124   1.261   2.703   1.095  0.2346 -0.2920  0.0164
  749TMC3     H11125   1.562   2.558   1.285  1.1670  1.7024  1.8858
  749TMC3    H111126   1.449   2.823   0.961 -0.4682  1.0155 -0.1287
  749TMC3    H211127   1.842   2.835   1.134 -0.5294  0.4993 -1.7390
  749TMC3    C711128   1.689   2.928   0.951 -0.5736 -0.6432  0.2848
  749TMC3    C811129   1.794   2.661   1.330 -0.3549 -0.0779 -0.7263
  749TMC3    O111130   1.754   3.024   0.999 -1.2093 -0.2978  0.3445
  749TMC3    O211131   1.745   2.668   1.442  0.4804  0.1677 -0.1291
  750MPD2     C11132   2.059   4.557  11.902  0.8921 -0.3269 -0.4924
  750MPD2    C111133   1.954   4.483  11.956  0.1744 -0.1779  0.4441
  750MPD2    C211134   1.856   4.433  11.871 -0.0881  0.2090 -0.2545
  750MPD2    C311135   1.870   4.440  11.733  0.0978 -0.2156  0.1960
  750MPD2    C411136   1.974   4.510  11.680 -0.1289  0.4027 -0.0047
  750MPD2    C511137   2.070   4.569  11.763  0.8312 -0.6230  0.4576
  750MPD2     H11138   1.766   4.387  11.909 -0.9323  2.5518  0.5819
  750MPD2    H111139   1.988   4.524  11.573 -0.6515  1.9430  0.1292
  750MPD2    H211140   2.134   4.609  11.960 -0.9155  0.0016  1.5501
  750MPD2    H311141   2.151   4.633  11.729  0.2635 -0.6033 -0.8610
  750MPD2     N11142   1.775   4.384  11.639  0.9265  0.0460 -0.0012
  750MPD2    H511143   1.798   4.393  11.541 -0.0090 -0.9095 -0.3098
  750MPD2    N111144   1.953   4.462  12.094  0.0207  0.0677 -0.0650
  750MPD2    H711145   2.026   4.508  12.148  0.0142 -0.4304  0.3697
  751TMC3    C111146   1.603   4.247  11.546 -0.0890 -0.6847  0.1176
  751TMC3    C211147   1.483   4.180  11.575 -0.4606  0.4789  0.0224
  751TMC3    C311148   1.420   4.133  11.469  0.6084 -0.2445  0.6128
  751TMC3    C411149   1.675   4.236  11.432  0.0990 -1.1194  0.7676
  751TMC3    C511150   1.612   4.174  11.333 -0.2941 -0.2545 -0.5198
  751TMC3    C611151   1.484   4.127  11.348  0.1773 -0.3764 -0.4071
  751TMC3     C11152   1.668   4.297  11.664  0.2082  0.2498 -0.9713
  751TMC3     O11153   1.625   4.263  11.772 -0.0246  0.0116  0.0270
  751TMC3     H11154   1.439   4.170  11.674  0.8001 -1.8549  0.3456
  751TMC3    H111155   1.774   4.279  11.424 -1.2390  1.6872 -0.6995
  751TMC3    H211156   1.429   4.098  11.260 -2.0858  1.7673  0.2808
  751TMC3    C711157   1.689   4.127  11.226 -0.5255  0.0327  0.6520
  751TMC3    C811158   1.352   4.009  11.482 -0.1084 -0.3991  0.1950
  751TMC3    O111159   1.771   4.203  11.183  0.0778  0.2105  0.3976
  751TMC3    O211160   1.367   3.927  11.394 -0.4396 -0.1862  0.1048
  752TMC3    C111161   0.531   3.922  17.125  0.8306  0.1764  0.2050
  752TMC3    C211162   0.606   3.819  17.179  0.5592 -0.2332 -0.5461
  752TMC3    C311163   0.553   3.758  17.284 -0.8283 -0.1366  0.3776
  752TMC3    C411164   0.422   3.978  17.186  0.3635 -0.5203 -0.3136
  752TMC3    C511165   0.385   3.921  17.308 -0.3162 -0.1878  0.8143
  752TMC3    C611166   0.444   3.808  17.353  1.1354  0.4000  0.5962
  752TMC3     C11167   0.566   3.959  16.985 -0.4702 -0.2284  0.2498
  752TMC3     O11168   0.681   3.938  16.947  0.3057 -0.3735 -0.6231
  752TMC3     H11169   0.697   3.788  17.129  1.0266 -0.3725  0.4081
  752TMC3    H111170   0.378   4.069  17.147 -0.0722 -0.0080  1.3795
  752TMC3    H211171   0.394   3.749  17.429 -1.3187  3.1702  1.1073
  752TMC3    C711172   0.266   3.989  17.365  0.4023 -0.2127 -0.0079
  752TMC3    C811173   0.623   3.643  17.332 -0.3167 -0.1129  0.0766
  752TMC3    O111174   0.201   4.059  17.286  0.3159 -0.3302  0.1864
  752TMC3    O211175   0.696   3.591  17.246  0.1541  0.2526  0.3732
  753TMC3    C111176   2.455   0.429  13.777  0.3692  0.0499  0.2134
  753TMC3    C211177   2.513   0.356  13.881  0.6026  0.8609 -0.4754
  753TMC3    C311178   2.564   0.233  13.854  0.1210 -0.3516  0.3796
  753TMC3    C411179   2.450   0.385  13.650 -0.3868  0.3662 -0.9220
  753TMC3    C511180   2.518   0.270  13.622  0.0641  0.6143 -0.3056
  753TMC3    C611181   2.566   0.188  13.722  0.3376 -0.0960  0.2313
  753TMC3     C11182   2.418   0.566  13.812  0.3316 -0.7380 -0.3115
  753TMC3     O11183   2.413   0.596  13.934 -0.3201 -0.1603  0.4236
  753TMC3     H11184   2.505   0.396  13.981  0.8440  0.4539 -0.2968
  753TMC3    H111185   2.400   0.428  13.564  0.5778  0.9842 -1.1789
  753TMC3    H211186   2.624   0.100  13.696  2.2675  1.7445 -1.6459
  753TMC3    C711187   2.518   0.224  13.486  0.2837 -0.0490 -0.4345
  753TMC3    C811188   2.626   0.149  13.955 -0.2532 -0.0327 -0.7796
  753TMC3    O111189   2.492   0.315  13.410 -0.0755 -0.9116 -0.0576
  753TMC3    O211190   2.638   0.028  13.937 -0.2271  0.3284  0.4946
  754MPD2     C11191   1.576   3.836  13.105 -0.1168  0.2321  0.1618
  754MPD2    C111192   1.513   3.715  13.109  0.9621 -0.4611 -0.0898
  754MPD2    C211193   1.375   3.711  13.138  0.7592  0.0163 -0.6808
  754MPD2    C311194   1.308   3.832  13.180  0.9681  0.0271  0.0181
  754MPD2    C411195   1.379   3.946  13.175  0.4643 -0.2055 -0.3794
  754MPD2    C511196   1.505   3.951  13.122  0.6083 -0.0355 -0.0525
  754MPD2     H11197   1.318   3.619  13.125  0.5440  0.0875 -0.2417
  754MPD2    H111198   1.327   4.040  13.190  1.6718  0.1381  1.5255
  754MPD2    H211199   1.684   3.841  13.093 -0.1518 -0.8885 -0.5798
  754MPD2    H311200   1.548   4.050  13.114 -1.4763  0.9755  1.2977
  754MPD2     N11201   1.164   3.839  13.210 -0.5731 -0.6846  0.3810
  754MPD2    H511202   1.120   3.930  13.198  1.0045  0.0917  0.5076
  754MPD2    N111203   1.598   3.602  13.071 -0.3425 -0.1276 -0.1625
  754MPD2    H711204   1.687   3.632  13.034 -1.0402  2.4145  0.2586
  755MPD2     C11205   0.736   4.542  13.393  0.5338 -0.1371 -0.1744
  755MPD2    C111206   0.682   4.459  13.490 -0.3713 -0.1337 -0.0035
  755MPD2    C211207   0.712   4.324  13.490 -0.1299  0.0076 -0.5443
  755MPD2    C311208   0.787   4.267  13.385 -0.5527 -0.0403  0.1358
  755MPD2    C411209   0.855   4.357  13.305 -0.8735 -0.3239  0.6528
  755MPD2    C511210   0.831   4.488  13.308 -0.3667  0.0437  0.2618
  755MPD2     H11211   0.671   4.255  13.564  0.4847  1.1072  0.8306
  755MPD2    H111212   0.933   4.322  13.239 -1.2103  0.7556 -0.2951
  755MPD2    H211213   0.709   4.647  13.382  0.5039 -0.3226 -1.7880
  755MPD2    H311214   0.887   4.557  13.247 -0.3691 -0.2116 -0.0302
  755MPD2     N11215   0.816   4.128  13.370 -0.2032  0.2227  0.6418
  755MPD2    H511216   0.860   4.104  13.281 -0.2782  3.0250 -0.1257
  755MPD2    N111217   0.591   4.520  13.587  0.0680  0.5103  0.4071
  755MPD2    H711218   0.581   4.618  13.563  0.4928  1.0004  2.1902
  756MPD2     C11219   1.795   0.505  10.013  0.2864 -0.2883 -0.0044
  756MPD2    C111220   1.695   0.443  10.086  0.2189 -0.2311  0.1642
  756MPD2    C211221   1.595   0.372  10.018 -0.1849 -0.2171  0.1153
  756MPD2    C311222   1.591   0.359   9.883 -0.5329  0.0342  0.3563
  756MPD2    C411223   1.693   0.419   9.812 -0.7399 -0.1383  0.1024
  756MPD2    C511224   1.787   0.496   9.874  0.0294 -0.4331  0.3501
  756MPD2     H11225   1.516   0.318  10.069  1.5285 -1.0331  1.9033
  756MPD2    H111226   1.690   0.417   9.704  3.0812  3.2194 -0.0659
  756MPD2    H211227   1.873   0.569  10.053 -0.0231 -0.0815  0.2721
  756MPD2    H311228   1.856   0.559   9.819 -0.3966  0.1822  0.5124
  756MPD2     N11229   1.499   0.273   9.827 -0.2986  0.4578 -0.4229
  756MPD2    H511230   1.457   0.205   9.891  2.4564 -0.1099  0.7774
  756MPD2    N111231   1.698   0.419  10.227  0.3680  0.4406  0.5823
  756MPD2    H711232   1.614   0.380  10.268 -0.4314  1.5678  0.0040
  757MPD2     C11233   1.209   4.174  10.124 -0.6593 -0.6344 -0.3430
  757MPD2    C111234   1.116   4.185  10.029 -0.0333  0.8848 -0.2825
  757MPD2    C211235   1.132   4.294   9.934 -0.3421  0.2205 -0.3568
  757MPD2    C311236   1.242   4.374   9.930  0.0048  0.3610  0.0938
  757MPD2    C411237   1.345   4.341  10.016  0.3272  1.1156  0.4584
  757MPD2    C511238   1.328   4.248  10.116  0.7763 -0.3415 -0.7465
  757MPD2     H11239   1.060   4.310   9.854 -3.4517  0.2041  2.4569
  757MPD2    H111240   1.443   4.388  10.022  0.7282  0.5035 -1.2851
  757MPD2    H211241   1.198   4.104  10.206  0.8040  1.4271  1.6212
  757MPD2    H311242   1.410   4.238  10.186 -1.0527 -4.1279  0.7963
  757MPD2     N11243   1.246   4.473   9.830  0.1040  0.7301 -0.1843
  757MPD2    H511244   1.172   4.480   9.760 -0.3409  1.8787  0.4085
  757MPD2    N111245   1.009   4.090  10.015  0.1760  0.5238  0.5097
  757MPD2    H711246   1.006   4.013  10.081 -0.4013 -0.4325 -0.6407
  758MPD2     C11247   1.437   3.646  15.581  0.3292  0.2240 -0.8321
  758MPD2    C111248   1.458   3.522  15.640  0.0442 -0.5863 -0.0678
  758MPD2    C211249   1.429   3.510  15.776 -0.7726 -0.6653  0.7581
  758MPD2    C311250   1.387   3.622  15.843  0.2603  0.3586  0.0375
  758MPD2    C411251   1.366   3.744  15.781  0.6602  0.2709 -0.3963
  758MPD2    C511252   1.394   3.756  15.649 -0.0587  0.2650  0.6628
  758MPD2     H11253   1.447   3.414  15.822 -0.0142 -0.9290 -0.0688
  758MPD2    H111254   1.326   3.832  15.829  1.7018 -1.2398  3.1963
  758MPD2    H211255   1.465   3.657  15.477 -0.6510  0.7050 -1.0369
  758MPD2    H311256   1.383   3.851  15.597 -1.0734  1.2953  2.7493
  758MPD2     N11257   1.370   3.630  15.985  0.1123 -0.2556  0.7255
  758MPD2    H511258   1.351   3.721  16.026 -3.8056 -1.5032  1.7293
  758MPD2    N111259   1.514   3.417  15.567 -0.3776 -0.1096  0.7158
  758MPD2    H711260   1.561   3.449  15.482  0.6757  0.8954  1.6731
  759MPD2     C11261   0.739   2.287  10.125 -0.1871  0.0989 -0.5451
  759MPD2    C111262   0.619   2.272  10.069  0.0530 -0.1031 -0.1707
  759MPD2    C211263   0.621   2.257   9.931 -0.3503 -0.4280  0.1270
  759MPD2    C311264   0.736   2.265   9.852  0.6022 -0.3679 -0.4939
  759MPD2    C411265   0.857   2.285   9.919 -0.4149 -0.4573  0.3456
  759MPD2    C511266   0.854   2.276  10.056 -0.0502 -0.1050 -0.4403
  759MPD2     H11267   0.524   2.258   9.881  0.3721  3.1488 -1.2052
  759MPD2    H111268   0.950   2.298   9.865 -1.1168 -0.0095 -0.7457
  759MPD2    H211269   0.746   2.288  10.234  0.9242  0.1332 -0.6222
  759MPD2    H311270   0.943   2.266  10.117  0.2071  0.8918 -0.6573
  759MPD2     N11271   0.730   2.257   9.712  0.3119  0.2747 -0.5684
  759MPD2    H511272   0.642   2.239   9.666 -0.8336  0.3926  1.5827
  759MPD2    N111273   0.509   2.239  10.154 -0.5297  0.0702  0.0048
  759MPD2    H711274   0.522   2.236  10.254 -3.2817  1.3575  0.3931
  760MPD2     C11275   4.287   4.270  11.971 -0.5061 -0.3561  0.3296
  760MPD2    C111276   4.421   4.275  12.007  0.3764  0.0332  0.3418
  760MPD2    C211277   4.496   4.165  12.025 -0.4273  0.1016  0.4108
  760MPD2    C311278   4.441   4.036  12.022 -0.0026  0.2243 -0.1892
  760MPD2    C411279   4.306   4.029  11.988  0.2785 -0.2901  0.0290
  760MPD2    C511280   4.237   4.142  11.959 -0.0104 -0.0022  0.4639
  760MPD2     H11281   4.599   4.189  12.047 -0.2745  0.1450 -0.3813
  760MPD2    H111282   4.255   3.933  11.982 -0.7946  0.1830  1.4225
  760MPD2    H211283   4.230   4.358  11.946 -0.1842  0.1458  1.3428
  760MPD2    H311284   4.130   4.131  11.943 -0.0707  3.1892 -1.2191
  760MPD2     N11285   4.515   3.917  12.046 -0.5282  0.5139 -0.4793
  760MPD2    H511286   4.463   3.830  12.044 -0.2006  0.3075 -0.0590
  760MPD2    N111287   4.487   4.396  12.029 -0.2482  0.2923  0.5447
  760MPD2    H711288   4.582   4.390  12.067 -0.6180  0.1775  1.4548
  761MPD2     C11289   0.993   3.724  11.716 -0.4965 -0.4716 -0.3960
  761MPD2    C111290   1.075   3.691  11.614 -0.1646 -0.0707  0.5503
  761MPD2    C211291   1.165   3.783  11.565 -0.0463  0.0571  0.3107
  761MPD2    C311292   1.166   3.915  11.622  0.1679  0.5487  0.4670
  761MPD2    C411293   1.089   3.938  11.729  0.0502 -0.0208 -0.1394
  761MPD2    C511294   1.006   3.846  11.773  0.2125 -0.0271  0.6102
  761MPD2     H11295   1.221   3.759  11.476 -1.7139 -1.3485 -0.3791
  761MPD2    H111296   1.094   4.033  11.782  0.5597 -0.0361 -0.1584
  761MPD2    H211297   0.931   3.647  11.761 -2.0018  0.5616 -0.6957
  761MPD2    H311298   0.940   3.868  11.856  0.6193 -2.2390  1.5124
  761MPD2     N11299   1.259   4.015  11.587 -0.0383 -0.6020 -0.1448
  761MPD2    H511300   1.246   4.098  11.644 -1.8834 -0.9128 -0.1284
  761MPD2    N111301   1.066   3.557  11.560  0.8624  0.6295 -0.1789
  761MPD2    H711302   1.027   3.481  11.614  0.5303  0.3569 -0.8003
  762MPD2     C11303   1.631   3.367  11.289 -0.4378 -0.9965  0.1427
  762MPD2    C111304   1.546   3.292  11.204 -0.3459  1.0122  0.1879
  762MPD2    C211305   1.588   3.289  11.070 -0.3818  0.3029  0.4177
  762MPD2    C311306   1.699   3.362  11.021 -0.2214  0.4071  0.4041
  762MPD2    C411307   1.770   3.433  11.108  0.5309 -1.1549  0.0409
  762MPD2    C511308   1.741   3.433  11.242  0.6935  0.7070 -0.6539
  762MPD2     H11309   1.528   3.236  10.997 -1.2091  2.0863 -0.1764
  762MPD2    H111310   1.840   3.511  11.081 -0.3766 -0.1869  0.4568
  762MPD2    H211311   1.601   3.381  11.392  1.4454 -0.3662  0.6002
  762MPD2    H311312   1.806   3.483  11.313  1.1103 -2.0468  0.9335
  762MPD2     N11313   1.731   3.345  10.885  0.4952 -0.0564  0.0131
  762MPD2    H511314   1.676   3.278  10.833  0.6806 -0.1387 -0.0729
  762MPD2    N111315   1.421   3.263  11.256 -0.7614  0.7284 -0.0780
  762MPD2    H711316   1.409   3.288  11.354  1.6588 -1.6750  0.8291
  763MPD2     C11317   3.396   3.323  16.280  0.7525  0.5808  0.3165
  763MPD2    C111318   3.285   3.400  16.259  0.6953 -0.2462  0.5523
  763MPD2    C211319   3.285   3.524  16.314  0.0174  0.1690  0.3917
  763MPD2    C311320   3.397   3.561  16.395  0.0321  0.3135 -0.1158
  763MPD2    C411321   3.504   3.484  16.412 -0.2789 -0.2425  0.1215
  763MPD2    C511322   3.501   3.364  16.349  0.5254 -0.1130  0.0776
  763MPD2     H11323   3.205   3.596  16.298  1.1755  1.2512 -0.4932
  763MPD2    H111324   3.593   3.501  16.472  1.6840 -2.8496 -2.0376
  763MPD2    H211325   3.413   3.236  16.217 -2.2789 -0.8419  1.4715
  763MPD2    H311326   3.583   3.294  16.348  2.4012  2.1592 -3.2867
  763MPD2     N11327   3.404   3.683  16.468 -0.4134  0.7197 -0.4135
  763MPD2    H511328   3.495   3.706  16.506 -0.9496  0.1725  1.1741
  763MPD2    N111329   3.188   3.372  16.154 -0.0695  0.2508 -0.0357
  763MPD2    H711330   3.136   3.453  16.122  0.1471  0.5828  0.4521
  764MPD2     C11331   1.100   0.482  17.441  0.0584 -0.5088 -0.0887
  764MPD2    C111332   1.029   0.371  17.471  0.3697 -0.6264  0.0545
  764MPD2    C211333   1.057   0.301  17.588 -0.0123  0.4622 -1.0465
  764MPD2    C311334   1.165   0.337  17.668  1.2107  0.1387  0.1013
  764MPD2    C411335   1.241   0.446  17.638 -0.3103 -0.1147  0.1061
  764MPD2    C511336   1.208   0.511  17.522  0.4257 -0.7546 -0.7416
  764MPD2     H11337   1.001   0.213  17.614  1.6057 -0.2265  0.1151
  764MPD2    H111338   1.316   0.490  17.703  0.7543 -1.0587 -0.4598
  764MPD2    H211339   1.092   0.540  17.350  0.6490  0.7776  0.6808
  764MPD2    H311340   1.260   0.601  17.494  1.1200 -0.7820  0.4751
  764MPD2     N11341   1.162   0.268   0.050  0.1871 -0.2205 -0.0928
  764MPD2    H511342   1.074   0.230   0.081  1.0915 -1.1322  1.3653
  764MPD2    N111343   0.913   0.329  17.402  0.1437  0.4207 -0.0645
  764MPD2    H711344   0.866   0.241  17.420  2.2656 -1.1683 -2.1831
  765MPD2     C11345   1.408   2.938  15.436 -0.3624 -0.1372 -0.5716
  765MPD2    C111346   1.409   2.905  15.568  0.2066 -0.7365  0.1975
  765MPD2    C211347   1.521   2.842  15.622  0.1806  0.0513  0.0102
  765MPD2    C311348   1.644   2.844  15.560 -0.3001 -0.3389  0.7229
  765MPD2    C411349   1.637   2.877  15.426 -0.4630 -0.2423 -0.1158
  765MPD2    C511350   1.521   2.917  15.363 -0.1481 -1.0515  0.6637
  765MPD2     H11351   1.519   2.829  15.730 -1.3406  1.5839  0.1653
  765MPD2    H111352   1.723   2.886  15.361 -1.6499  0.1285 -1.6385
  765MPD2    H211353   1.321   2.982  15.388  0.1881  0.8530 -0.6644
  765MPD2    H311354   1.517   2.947  15.259  2.0414 -0.0832  0.8693
  765MPD2     N11355   1.761   2.812  15.633 -0.6545 -0.1844  0.1196
  765MPD2    H511356   1.755   2.805  15.734  1.6053 -0.2362  0.2516
  765MPD2    N111357   1.296   2.941  15.639  0.1478 -0.6862 -0.0162
  765MPD2    H711358   1.226   2.996  15.589  0.1456  0.9178  1.7226
  766MPD2     C11359   0.500   2.818  15.590 -0.0260 -0.2261 -0.3933
  766MPD2    C111360   0.637   2.816  15.572 -0.0013  0.6417  0.3088
  766MPD2    C211361   0.689   2.770  15.449  0.5787  0.9578 -0.1569
  766MPD2    C311362   0.607   2.720  15.350  0.4741 -0.2707 -0.1174
  766MPD2    C411363   0.468   2.720  15.375  0.0890 -0.3685  0.0847
  766MPD2    C511364   0.417   2.769  15.495  1.0060 -0.7123 -0.0575
  766MPD2     H11365   0.794   2.776  15.423  0.2741  1.9115 -1.1557
  766MPD2    H111366   0.403   2.685  15.297  1.7827  2.7876 -2.7327
  766MPD2    H211367   0.458   2.853  15.684 -0.8447  0.9698 -1.2034
  766MPD2    H311368   0.310   2.783  15.488  1.0481  0.7540  2.1769
  766MPD2     N11369   0.649   2.677  15.223  0.3406  0.9427  0.3668
  766MPD2    H511370   0.577   2.658  15.155  0.7247 -1.7700  0.7457
  766MPD2    N111371   0.718   2.863  15.674  0.8000  0.0164 -0.3709
  766MPD2    H711372   0.673   2.890  15.761 -1.6241 -0.5195 -1.4606
  767MPD2     C11373   0.196   2.946  15.196  0.4770 -0.5493 -0.3326
  767MPD2    C111374   0.324   2.960  15.142  0.4624 -0.6468 -0.3790
  767MPD2    C211375   0.348   2.937  15.009  0.6053 -0.7254 -0.0808
  767MPD2    C311376   0.246   2.907  14.923  0.3325  0.4308  0.6158
  767MPD2    C411377   0.122   2.878  14.977 -0.2825  0.8454 -0.2689
  767MPD2    C511378   0.099   2.899  15.111 -0.2345 -0.0840 -0.3073
  767MPD2     H11379   0.449   2.948  14.971  0.4181 -1.1859 -0.7116
  767MPD2    H111380   0.042   2.853  14.909 -1.1078  2.0752  0.2523
  767MPD2    H211381   0.174   2.973  15.299 -1.3556  0.9551 -1.1194
  767MPD2    H311382   4.734   2.888  15.151 -0.3954  0.1303 -0.6540
  767MPD2     N11383   0.284   2.888  14.788  1.1840  0.6354  0.2216
  767MPD2    H511384   0.379   2.869  14.759  0.7007 -0.9709 -0.3224
  767MPD2    N111385   0.420   3.009  15.239 -0.0245 -0.5302 -0.7523
  767MPD2    H711386   0.382   3.026  15.332  0.7011 -0.6033 -0.4424
  768MPD2     C11387   0.800   1.417  10.919  0.2148  0.6568 -0.2220
  768MPD2    C111388   0.905   1.468  10.992 -0.7863 -0.0872 -0.4585
  768MPD2    C211389   0.944   1.414  11.113 -0.4360  0.0846  0.1199
  768MPD2    C311390   0.877   1.299  11.168  0.2422  0.2674 -0.1961
  768MPD2    C411391   0.770   1.253  11.095  0.0837  0.2197  0.8080
  768MPD2    C511392   0.732   1.308  10.973  0.0325  0.1829 -0.0964
  768MPD2     H11393   1.023   1.464  11.168 -0.7862 -1.6642  2.2217
  768MPD2    H111394   0.723   1.164  11.134  0.4082 -1.0442 -1.6887
  768MPD2    H211395   0.764   1.451  10.823 -0.2568  0.7899  0.0040
  768MPD2    H311396   0.642   1.281  10.919 -0.1590  1.7982 -0.5704
  768MPD2     N11397   0.915   1.237  11.294 -0.4415 -0.0875  0.6417
  768MPD2    H511398   0.846   1.180  11.341  0.4874 -2.3157 -0.6767
  768MPD2    N111399   0.984   1.583  10.950 -0.2257 -0.3804 -0.4198
  768MPD2    H711400   1.072   1.603  10.996 -0.0490 -3.0993  0.4482
  769MPD2     C11401   2.493   3.981  15.307  0.2448  0.7467  0.5960
  769MPD2    C111402   2.367   4.032  15.304 -0.8011  0.6301  0.0167
  769MPD2    C211403   2.343   4.156  15.361 -0.2690 -0.1399  0.2585
  769MPD2    C311404   2.438   4.226  15.428  0.8235 -0.4039 -0.0329
  769MPD2    C411405   2.565   4.165  15.434 -0.0798 -0.4080  1.2000
  769MPD2    C511406   2.592   4.040  15.383 -0.1099  0.2004  0.3991
  769MPD2     H11407   2.244   4.196  15.339 -0.3760 -2.1688 -2.9600
  769MPD2    H111408   2.654   4.206  15.480  0.0726 -0.2331  0.7543
  769MPD2    H211409   2.514   3.892  15.248 -0.8492  0.1834  1.0630
  769MPD2    H311410   2.688   3.993  15.398  0.1828  0.3637 -0.9527
  769MPD2     N11411   2.418   4.347  15.499  0.5603 -0.0696  0.0979
  769MPD2    H511412   2.325   4.384  15.514 -0.5823 -2.9244 -0.0118
  769MPD2    N111413   2.272   3.952  15.240 -0.2263  0.4003 -0.6408
  769MPD2    H711414   2.299   3.888  15.167  0.5703 -1.3285  1.1629
  770MPD2     C11415   1.884   3.286  14.621  0.2261  0.2959  0.4824
  770MPD2    C111416   1.799   3.395  14.595 -0.4878  0.2835  0.9990
  770MPD2    C211417   1.847   3.515  14.635  0.0373  0.1881  0.3067
  770MPD2    C311418   1.951   3.528  14.722  0.3019  0.2464 -0.1516
  770MPD2    C411419   2.031   3.423  14.748 -0.3802 -0.1152 -0.0062
  770MPD2    C511420   2.003   3.299  14.695 -0.1007 -0.3439  0.7261
  770MPD2     H11421   1.786   3.602  14.615 -0.7733 -0.1319  1.4005
  770MPD2    H111422   2.105   3.417  14.826 -1.3367  0.6604  0.9473
  770MPD2    H211423   1.859   3.188  14.581 -1.3206  0.6212  0.6788
  770MPD2    H311424   2.077   3.221  14.705 -0.1078 -0.2992  1.1264
  770MPD2     N11425   1.969   3.656  14.773 -0.4168 -0.1615 -0.2272
  770MPD2    H511426   1.891   3.717  14.750  0.7987  2.2898  2.2664
  770MPD2    N111427   1.678   3.379  14.526 -0.1055 -0.8993 -0.0265
  770MPD2    H711428   1.655   3.284  14.496 -1.2129 -0.6773  0.1212
  771MPD2     C11429   3.073   2.479  13.607 -0.0598  0.2996  0.1601
  771MPD2    C111430   3.003   2.589  13.549 -0.8974 -1.0719 -0.7203
  771MPD2    C211431   2.931   2.563  13.435  0.5871 -0.9740  0.0027
  771MPD2    C311432   2.908   2.432  13.392  0.1228  0.8026  0.1366
  771MPD2    C411433   2.977   2.325  13.446  0.3538  0.8647 -1.0055
  771MPD2    C511434   3.065   2.350  13.549 -0.6857  0.3606  0.2248
  771MPD2     H11435   2.871   2.643  13.396  0.8949 -0.6122  0.2739
  771MPD2    H111436   2.970   2.223  13.410 -0.0038  0.4418  0.2472
  771MPD2    H211437   3.135   2.487  13.695  1.6357  1.5326 -1.1485
  771MPD2    H311438   3.124   2.271  13.594  1.4672  0.7874 -1.8485
  771MPD2     N11439   2.795   2.413  13.306  0.0479 -0.4059 -0.1110
  771MPD2    H511440   2.735   2.492  13.284 -0.7834 -1.5360 -2.0100
  771MPD2    N111441   3.008   2.725  13.602 -0.0500 -0.2839  0.2542
  771MPD2    H711442   2.953   2.795  13.554  0.6375  0.4685  0.5718
  772MPD2     C11443   2.565   3.195  13.496 -0.5613 -0.9560  0.0658
  772MPD2    C111444   2.588   3.183  13.633 -0.1311  0.0418 -0.2197
  772MPD2    C211445   2.481   3.172  13.719 -0.5161  1.1920 -0.0532
  772MPD2    C311446   2.352   3.187  13.670  0.0861  0.5006 -0.0082
  772MPD2    C411447   2.333   3.214  13.532 -0.2955 -0.2635 -0.0369
  772MPD2    C511448   2.441   3.219  13.449 -0.0431 -0.0490  0.0521
  772MPD2     H11449   2.510   3.157  13.822 -0.2328 -1.3679 -0.5263
  772MPD2    H111450   2.237   3.213  13.483  0.5705 -1.8200 -1.7012
  772MPD2    H211451   2.644   3.179  13.424 -0.9355  1.3661 -0.8651
  772MPD2    H311452   2.420   3.220  13.342  1.3904  0.4306 -0.2249
  772MPD2     N11453   2.245   3.164  13.753  0.3131 -0.3919 -0.0679
  772MPD2    H511454   2.154   3.184  13.712  0.9876  1.2083 -0.7573
  772MPD2    N111455   2.714   3.143  13.684 -0.1595  0.5327 -0.2812
  772MPD2    H711456   2.728   3.106  13.778  0.9196 -0.4541 -0.8254
  773MPD2     C11457   2.212   3.495   0.370  0.4697  0.1044 -0.5564
  773MPD2    C111458   2.174   3.430   0.255 -0.1584  0.4426  0.4647
  773MPD2    C211459   2.241   3.313   0.227  0.1855  0.2386  0.4191
  773MPD2    C311460   2.333   3.256   0.312  0.2041 -0.6137  0.0285
  773MPD2    C411461   2.359   3.317   0.433  0.9528 -0.0890 -0.3186
  773MPD2    C511462   2.300   3.437   0.460 -0.4564  0.7656 -0.1787
  773MPD2     H11463   2.227   3.271   0.129  0.8205  1.3394 -0.1464
  773MPD2    H111464   2.420   3.278   0.513 -1.9928 -1.7898  1.1055
  773MPD2    H211465   2.164   3.589   0.395  0.3508 -0.0214 -0.3082
  773MPD2    H311466   2.327   3.485   0.554  0.7566  2.4462 -1.3906
  773MPD2     N11467   2.397   3.137   0.275  0.2571  0.2919  0.4037
  773MPD2    H511468   2.357   3.078   0.202  2.7254  1.8622 -2.2090
  773MPD2    N111469   2.080   3.481   0.161 -0.0063 -0.1143  0.3679
  773MPD2    H711470   2.074   3.440   0.068 -0.1983  2.1738 -0.6326
  774MPD2     C11471   0.919   2.795  13.409 -0.6636 -0.3528  0.0943
  774MPD2    C111472   0.905   2.913  13.481  0.0722 -0.1039 -0.1312
  774MPD2    C211473   0.979   3.019  13.437 -0.3654 -0.2362  0.0487
  774MPD2    C311474   1.073   3.007  13.334 -0.3877 -0.6448 -0.6170
  774MPD2    C411475   1.085   2.888  13.265  0.3431 -0.5150 -0.1894
  774MPD2    C511476   0.999   2.789  13.302  0.0811  0.3275 -0.1956
  774MPD2     H11477   0.982   3.110  13.496  0.1023 -0.2946  0.1125
  774MPD2    H111478   1.159   2.886  13.186 -1.2380 -1.0532 -1.6553
  774MPD2    H211479   0.857   2.708  13.427  0.3130 -1.2897 -1.1124
  774MPD2    H311480   1.013   2.695  13.250 -0.7093 -0.2280  0.5976
  774MPD2     N11481   1.158   3.120  13.310 -0.1149 -0.0636  0.3428
  774MPD2    H511482   1.140   3.199  13.370  0.7710 -0.4083  1.0571
  774MPD2    N111483   0.829   2.907  13.600  0.0617 -0.0432 -0.0244
  774MPD2    H711484   0.801   2.815  13.635 -1.3890  0.7893  1.0009
  775MPD2     C11485   2.570   4.127  15.911  0.5442  0.2455 -0.3491
  775MPD2    C111486   2.593   4.231  15.995 -0.0298  0.0001 -0.3438
  775MPD2    C211487   2.687   4.326  15.958  0.6412 -0.3090 -0.4782
  775MPD2    C311488   2.750   4.317  15.834  0.5659  0.2756  0.2953
  775MPD2    C411489   2.710   4.210  15.744 -0.7601  0.0589  0.0529
  775MPD2    C511490   2.627   4.116  15.788 -0.1713  0.3507  0.0912
  775MPD2     H11491   2.704   4.416  16.016  1.6670 -1.8792  1.6444
  775MPD2    H111492   2.751   4.201  15.644 -3.7074 -1.8784 -0.9890
  775MPD2    H211493   2.504   4.046  15.941  1.7721  0.1838  2.2096
  775MPD2    H311494   2.620   4.028  15.725  1.3776 -0.4496  1.0403
  775MPD2     N11495   2.848   4.408  15.791 -1.1385 -0.5606  0.0453
  775MPD2    H511496   2.871   4.395  15.693 -3.0642 -0.8581 -0.3746
  775MPD2    N111497   2.517   4.241  16.110 -0.1294  0.1772 -0.0194
  775MPD2    H711498   2.446   4.169  16.119  0.9177 -0.8225  0.3173
  776MPD2     C11499   1.351   0.073  12.334 -0.0108  0.2546 -0.0172
  776MPD2    C111500   1.489   0.080  12.324 -0.2886 -0.3097 -0.2271
  776MPD2    C211501   1.547   0.182  12.247  0.0730 -0.5384  0.8100
  776MPD2    C311502   1.462   0.273  12.186 -0.5569 -0.2496  0.0938
  776MPD2    C411503   1.328   0.272  12.216 -0.0121 -0.1692  0.4892
  776MPD2    C511504   1.271   0.171  12.280 -0.1558 -0.1558 -0.2268
  776MPD2     H11505   1.652   0.179  12.221  0.1376 -0.4974  1.0672
  776MPD2    H111506   1.266   0.344  12.164 -2.5173 -1.8227  1.1906
  776MPD2    H211507   1.306   4.730  12.394 -1.3861  0.1656 -1.1720
  776MPD2    H311508   1.163   0.165  12.282 -0.2679  1.2998 -1.6527
  776MPD2     N11509   1.512   0.364  12.087  0.2004 -0.7000  0.1197
  776MPD2    H511510   1.441   0.424  12.047  0.9880 -0.0580 -0.3250
  776MPD2    N111511   1.560   4.710  12.397  0.6107 -0.1712 -0.0226
  776MPD2    H711512   1.498   4.632  12.414  0.1987  0.3569  0.9233
  777MPD2     C11513   2.812   2.096   0.629 -0.0027 -0.2597 -0.2970
  777MPD2    C111514   2.724   2.050   0.720 -0.2883 -0.3716 -0.1784
  777MPD2    C211515   2.644   1.938   0.682  0.4122 -0.7953  0.1643
  777MPD2    C311516   2.646   1.891   0.553 -0.5141  0.4163  0.3166
  777MPD2    C411517   2.732   1.942   0.459  0.9122  0.1848 -0.1288
  777MPD2    C511518   2.805   2.051   0.498  0.9212  0.1397  0.4480
  777MPD2     H11519   2.572   1.907   0.757 -1.9452  1.0304 -1.3656
  777MPD2    H111520   2.738   1.913   0.354 -0.9963 -0.5177 -0.0595
  777MPD2    H211521   2.886   2.169   0.658  0.9373 -1.1015 -0.6046
  777MPD2    H311522   2.875   2.098   0.429 -0.3566  0.7981 -0.3818
  777MPD2     N11523   2.559   1.778   0.524 -0.0574 -0.5660  0.1393
  777MPD2    H511524   2.511   1.732   0.600 -2.1999  3.5197  1.2230
  777MPD2    N111525   2.710   2.107   0.848  0.2255 -0.1876  1.1511
  777MPD2    H711526   2.782   2.169   0.884 -0.0815  1.7881 -1.7388
  778MPD2     C11527   3.666   2.379  14.644  0.1491  0.2534 -0.3250
  778MPD2    C111528   3.601   2.280  14.574 -0.0342  0.3489  0.7705
  778MPD2    C211529   3.632   2.260  14.445  0.1871  0.5884 -0.5340
  778MPD2    C311530   3.712   2.349  14.374  0.2915  0.3120 -0.5045
  778MPD2    C411531   3.770   2.452  14.448  0.0135 -0.0816  0.7149
  778MPD2    C511532   3.750   2.464  14.580  0.0372  0.3585  0.2192
  778MPD2     H11533   3.585   2.175  14.396 -0.0611  1.2451 -1.4365
  778MPD2    H111534   3.845   2.517  14.404 -1.0787  0.4645 -0.3350
  778MPD2    H211535   3.641   2.405  14.746  0.1163 -1.2031  0.0356
  778MPD2    H311536   3.798   2.538  14.644  0.4437  0.9093 -0.7242
  778MPD2     N11537   3.727   2.327  14.234 -0.4740  0.4773 -0.3757
  778MPD2    H511538   3.679   2.245  14.198 -1.8382  0.8928  0.5328
  778MPD2    N111539   3.505   2.203  14.634  0.2550 -0.0873  0.7314
  778MPD2    H711540   3.470   2.130  14.574 -1.7516  2.2892 -0.9982
  779MPD2     C11541   2.596   1.078  14.520 -0.1832 -0.5585  0.2985
  779MPD2    C111542   2.727   1.050  14.558  0.3942 -0.7483  0.1140
  779MPD2    C211543   2.824   1.142  14.526  0.1758 -0.5300 -0.2758
  779MPD2    C311544   2.799   1.245  14.440  0.0426 -0.8138 -0.4852
  779MPD2    C411545   2.670   1.279  14.403 -0.6894  0.2559  0.3000
  779MPD2    C511546   2.570   1.194  14.450 -1.0521  0.1828 -0.1750
  779MPD2     H11547   2.926   1.108  14.532  0.0593 -0.6596  0.9602
  779MPD2    H111548   2.641   1.362  14.341  2.3726  1.4563  0.5145
  779MPD2    H211549   2.512   1.018  14.554  1.6289 -2.6119  1.1070
  779MPD2    H311550   2.465   1.220  14.436 -0.8238  0.7669 -0.7797
  779MPD2     N11551   2.907   1.321  14.392 -0.0828  0.3509 -0.2619
  779MPD2    H511552   2.994   1.305  14.442 -0.8554  2.1680  1.6961
  779MPD2    N111553   2.769   0.933  14.620  0.1070  0.3488  0.4924
  779MPD2    H711554   2.867   0.925  14.645  0.0607 -2.0214 -0.0617
  780MPD2     C11555   2.284   1.047   0.161 -0.2512  0.5078  0.3849
  780MPD2    C111556   2.343   0.939   0.225  0.0164  0.7898 -0.5869
  780MPD2    C211557   2.412   0.952   0.346  0.0800  0.4618  0.1021
  780MPD2    C311558   2.421   1.067   0.407 -0.0118  0.1139 -0.5059
  780MPD2    C411559   2.376   1.179   0.343 -0.6271 -0.3495 -0.3893
  780MPD2    C511560   2.304   1.168   0.221  0.0220 -0.2082 -0.2692
  780MPD2     H11561   2.444   0.864   0.400 -1.2119  0.7899  1.4095
  780MPD2    H111562   2.385   1.279   0.382  1.1841  0.1541 -2.1219
  780MPD2    H211563   2.226   1.031   0.071 -1.7552  0.2632  1.3809
  780MPD2    H311564   2.278   1.265   0.179 -2.2730 -0.6937  0.0264
  780MPD2     N11565   2.484   1.068   0.528 -0.3045 -0.5418 -0.2054
  780MPD2    H511566   2.521   0.980   0.564  2.1631  0.8604  0.7020
  780MPD2    N111567   2.325   0.815   0.169  0.7536  0.0392  0.4337
  780MPD2    H711568   2.260   0.799   0.092  1.2503 -1.7393  0.3883
  781MPD2     C11569   3.685   3.928  12.266 -0.3748 -0.6310  0.2495
  781MPD2    C111570   3.765   3.821  12.292  0.1833  0.3242 -0.0974
  781MPD2    C211571   3.858   3.776  12.199  0.2028 -0.3801  0.2243
  781MPD2    C311572   3.848   3.823  12.070  0.1130 -0.9971  0.0874
  781MPD2    C411573   3.759   3.923  12.036  0.2589 -0.3224 -0.6255
  781MPD2    C511574   3.690   3.983  12.139  0.4116  0.6025 -0.2611
  781MPD2     H11575   3.926   3.694  12.218 -0.9008 -1.3881 -0.2072
  781MPD2    H111576   3.757   3.968  11.937  0.9005  0.9867 -0.0537
  781MPD2    H211577   3.614   3.967  12.337 -0.2922  1.7818 -0.9577
  781MPD2    H311578   3.628   4.072  12.130  0.1792  0.3214 -1.4817
  781MPD2     N11579   3.921   3.776  11.952  0.6832  0.8248 -0.1841
  781MPD2    H511580   3.913   3.835  11.870 -1.7151 -1.2063 -1.3870
  781MPD2    N111581   3.763   3.769  12.425 -0.7774  0.4561 -0.5354
  781MPD2    H711582   3.687   3.802  12.484  0.9867  0.4903  1.7040
  782MPD2     C11583   1.946   4.150  10.192 -0.0305 -0.2773 -0.3235
  782MPD2    C111584   2.049   4.095  10.258  0.8770 -0.0134 -0.4953
  782MPD2    C211585   2.098   4.154  10.374 -0.3314 -0.2754  0.1626
  782MPD2    C311586   2.043   4.272  10.421 -0.1017 -0.8693 -0.0585
  782MPD2    C411587   1.932   4.317  10.359  0.7443 -0.4556  0.2739
  782MPD2    C511588   1.882   4.260  10.241  0.3001 -0.2182  0.4266
  782MPD2     H11589   2.196   4.120  10.407  0.8589  4.1509  1.2472
  782MPD2    H111590   1.870   4.400  10.391  0.8848  0.5229 -1.9834
  782MPD2    H211591   1.908   4.086  10.114 -2.5993  0.0452  0.6524
  782MPD2    H311592   1.790   4.296  10.198 -0.4296 -2.3916  0.1794
  782MPD2     N11593   2.097   4.321  10.536  0.4995 -0.0863  0.0079
  782MPD2    H511594   2.179   4.270  10.567 -0.5078 -1.1722  0.8260
  782MPD2    N111595   2.100   3.974  10.201  0.1424  0.0667  0.9203
  782MPD2    H711596   2.063   3.955  10.109  1.1351 -0.6511  0.6743
  783MPD2     C11597   1.623   3.811  11.063 -1.0651  0.6399  0.2125
  783MPD2    C111598   1.694   3.924  11.085  0.3404  0.6528  0.2752
  783MPD2    C211599   1.814   3.949  11.011  0.2691  0.1534 -0.5828
  783MPD2    C311600   1.854   3.870  10.905 -0.3229  1.3168  0.8876
  783MPD2    C411601   1.784   3.751  10.894  0.4049 -0.1517 -0.3113
  783MPD2    C511602   1.666   3.731  10.963  0.0935 -0.0918  0.5969
  783MPD2     H11603   1.863   4.043  11.033 -0.1798  0.3461 -0.4047
  783MPD2    H111604   1.819   3.668  10.833  0.7141 -2.0665  2.5182
  783MPD2    H211605   1.535   3.798  11.125 -1.2375  1.6446  0.1826
  783MPD2    H311606   1.612   3.640  10.941  1.7211 -0.1258 -3.3318
  783MPD2     N11607   1.959   3.905  10.810 -0.2334  0.4156  0.6686
  783MPD2    H511608   2.023   3.979  10.836 -0.3937  1.0047 -0.6526
  783MPD2    N111609   1.648   3.999  11.195  0.0651  0.6485  0.2465
  783MPD2    H711610   1.578   3.959  11.255  0.4859  1.1002  1.0447
  784MPD2     C11611   4.613   4.004   0.686  0.0967 -0.3037 -0.2585
  784MPD2    C111612   4.621   4.090   0.794 -0.2200 -0.1484  0.2697
  784MPD2    C211613   4.506   4.173   0.832 -0.4023  0.2893  0.2618
  784MPD2    C311614   4.387   4.173   0.752  0.2615  0.0336  0.2478
  784MPD2    C411615   4.392   4.070   0.651  0.2463  0.7859 -0.2650
  784MPD2    C511616   4.492   3.978   0.629 -0.7907  0.0877 -0.3456
  784MPD2     H11617   4.503   4.237   0.920 -2.8688  1.6945 -0.8399
  784MPD2    H111618   4.310   4.051   0.583  0.5810 -1.1686 -0.1234
  784MPD2    H211619   4.691   3.935   0.655  1.7168  2.7102 -2.9690
  784MPD2    H311620   4.481   3.904   0.551 -0.4311  2.8402 -3.0133
  784MPD2     N11621   4.277   4.269   0.769 -0.2008  0.3146  0.2025
  784MPD2    H511622   4.294   4.339   0.840 -3.0370 -0.2244  1.4106
  784MPD2    N111623   0.004   4.117   0.870 -1.0306  0.2281  0.1859
  784MPD2    H711624   0.004   4.200   0.929 -0.8484  0.5755 -0.3036
  785MPD2     C11625   4.668   2.476  10.901  0.5762 -0.3569  0.0172
  785MPD2    C111626   4.661   2.601  10.959 -0.6230 -0.4655  0.4018
  785MPD2    C211627   4.537   2.665  10.976 -0.0614 -0.0530 -0.4750
  785MPD2    C311628   4.420   2.593  10.930  0.3494 -0.0590  0.2544
  785MPD2    C411629   4.430   2.479  10.850 -0.6502  0.2032  0.0093
  785MPD2    C511630   4.557   2.428  10.843 -0.5121  0.8383  0.0951
  785MPD2     H11631   4.525   2.760  11.028 -1.4428 -0.0821 -0.7427
  785MPD2    H111632   4.349   2.416  10.816  1.1215 -0.7607 -2.4095
  785MPD2    H211633   0.022   2.417  10.909  0.8423 -0.1493 -1.4324
  785MPD2    H311634   4.557   2.324  10.812  0.5595  0.3021  1.8450
  785MPD2     N11635   4.298   2.656  10.969 -0.0006 -0.3291  0.4778
  785MPD2    H511636   4.310   2.745  11.016 -2.1065  0.0142  0.3776
  785MPD2    N111637   0.050   2.657  11.000 -0.0840 -0.3308 -0.5603
  785MPD2    H711638   0.134   2.611  10.967 -0.3241 -0.7274 -0.6245
  786MPD2     C11639   3.301   0.492  15.323  0.1997  0.7817 -0.3815
  786MPD2    C111640   3.432   0.483  15.279 -0.5790  0.0832  0.1335
  786MPD2    C211641   3.542   0.524  15.368  0.1034 -0.1696  0.0949
  786MPD2    C311642   3.514   0.540  15.504  0.3696 -0.0547  0.8332
  786MPD2    C411643   3.380   0.566  15.537 -0.1683 -0.8541  0.3487
  786MPD2    C511644   3.284   0.548  15.445  0.7797  0.0332 -0.1149
  786MPD2     H11645   3.643   0.523  15.328  0.6156  0.0982  1.3907
  786MPD2    H111646   3.356   0.602  15.637  0.5214  0.1855  0.1419
  786MPD2    H211647   3.217   0.448  15.272  0.6504  1.3545 -1.6240
  786MPD2    H311648   3.187   0.557  15.492  1.1532 -1.4537  0.9234
  786MPD2     N11649   3.612   0.562  15.602 -0.3095 -0.1590  0.2277
  786MPD2    H511650   3.581   0.561  15.698  0.4786 -0.7982  0.4734
  786MPD2    N111651   3.463   0.432  15.148  0.2804 -0.1098 -0.2109
  786MPD2    H711652   3.560   0.410  15.125  0.4028 -0.9178  1.0532
  787MPD2     C11653   3.642   4.593  15.327  0.7145 -0.5774 -1.2920
  787MPD2    C111654   3.659   4.595  15.192 -0.2868  0.2416  0.1234
  787MPD2    C211655   3.702   4.476  15.131 -0.2596 -0.4864 -0.2018
  787MPD2    C311656   3.735   4.368  15.204  0.2664  0.7842  0.0659
  787MPD2    C411657   3.726   4.370  15.340 -0.1166  0.7144 -0.9464
  787MPD2    C511658   3.681   4.485  15.401  0.2696 -0.5999  0.0384
  787MPD2     H11659   3.722   4.475  15.025 -0.7678 -5.5989 -0.2521
  787MPD2    H111660   3.751   4.282  15.399 -0.1362 -0.4115 -2.6133
  787MPD2    H211661   3.615   4.682  15.383  0.7450 -0.5145 -1.3766
  787MPD2    H311662   3.694   4.493  15.509 -1.4787  0.6109  0.1642
  787MPD2     N11663   3.791   4.263  15.137 -0.8423  0.5109 -0.3923
  787MPD2    H511664   3.819   4.281  15.041 -1.3748 -1.5372 -0.9313
  787MPD2    N111665   3.624   4.707  15.118  0.3959  0.9373  0.3057
  787MPD2    H711666   3.573   0.043  15.167 -1.8306  0.0753 -0.7671
  788MPD2     C11667   1.111   3.935   0.845 -0.0495 -0.7673 -0.2488
  788MPD2    C111668   1.123   3.843   0.740  0.2298  0.1455 -0.5826
  788MPD2    C211669   1.151   3.883   0.612  0.2664  0.1018  0.7124
  788MPD2    C311670   1.138   4.017   0.581 -0.6423  0.2338 -0.4807
  788MPD2    C411671   1.102   4.098   0.682  1.0244  0.0377 -0.1873
  788MPD2    C511672   1.098   4.064   0.818 -0.9098 -0.1786  0.8265
  788MPD2     H11673   1.198   3.814   0.543  2.0349  0.5527  1.4729
  788MPD2    H111674   1.094   4.204   0.659  1.3292 -0.0296 -0.6203
  788MPD2    H211675   1.101   3.912   0.951 -1.0010  0.1700 -0.1324
  788MPD2    H311676   1.071   4.137   0.893 -0.8167  2.7023 -1.9739
  788MPD2     N11677   1.149   4.072   0.452  0.6975  0.3475 -0.4549
  788MPD2    H511678   1.136   4.172   0.452 -2.3107 -0.0171 -0.5180
  788MPD2    N111679   1.107   3.704   0.752 -0.3079 -0.1842 -0.1357
  788MPD2    H711680   1.112   3.654   0.664  2.5682 -1.7251  0.8804
  789MPD2     C11681   1.121   3.401  16.594 -0.2635 -0.4390  0.2023
  789MPD2    C111682   1.025   3.427  16.490  0.1191  0.9856  0.2527
  789MPD2    C211683   0.918   3.514  16.521 -0.5338  0.2254  0.4314
  789MPD2    C311684   0.905   3.569  16.651 -0.1082  0.1443  0.1975
  789MPD2    C411685   1.008   3.550  16.744  0.3468 -0.2563 -0.2585
  789MPD2    C511686   1.115   3.476  16.709  0.1578  0.3438 -1.2032
  789MPD2     H11687   0.839   3.523  16.448 -0.1262 -2.8611 -0.4165
  789MPD2    H111688   1.019   3.576  16.849  2.5964 -1.5318 -0.1906
  789MPD2    H211689   1.200   3.327  16.590  0.0070 -0.1391 -0.0371
  789MPD2    H311690   1.195   3.463  16.781 -0.3320  1.3517 -0.4778
  789MPD2     N11691   0.789   3.635  16.696 -0.3270 -0.0588 -0.1273
  789MPD2    H511692   0.778   3.654  16.795 -1.1569 -1.0064 -0.0368
  789MPD2    N111693   1.024   3.355  16.367 -0.6275  0.4890 -0.7482
  789MPD2    H711694   0.970   3.390  16.289  2.0105  2.5007 -1.6896
  790MPD2     C11695   1.882   0.042  13.913  0.1682  0.6932  0.4876
  790MPD2    C111696   1.795   4.680  13.885  0.0099 -0.4443 -1.1838
  790MPD2    C211697   1.715   4.689  13.769 -0.6564 -0.0746  0.2067
  790MPD2    C311698   1.716   0.064  13.680  0.6774 -0.0787 -0.5322
  790MPD2    C411699   1.803   0.166  13.717  0.3449 -0.2895 -0.0042
  790MPD2    C511700   1.878   0.148  13.830  1.1483 -0.1312 -0.4973
  790MPD2     H11701   1.654   4.606  13.738 -0.7459  0.0803 -0.0343
  790MPD2    H111702   1.817   0.258  13.661 -1.2889 -0.2546 -0.3541
  790MPD2    H211703   1.949   0.036  13.998  0.1255 -2.3197  0.3348
  790MPD2    H311704   1.949   0.229  13.844 -0.9232  1.7855 -0.9699
  790MPD2     N11705   1.624   0.069  13.576  0.3556  0.3176  0.2909
  790MPD2    H511706   1.552   0.000  13.557  0.8932 -1.1436  3.4531
  790MPD2    N111707   1.808   4.567  13.970  0.7455  0.4644 -0.3165
  790MPD2    H711708   1.873   4.574  14.048  0.9092  2.6480 -0.6631
  791MPD2     C11709   1.005   0.286  13.110  0.1270  0.2240  0.0100
  791MPD2    C111710   1.072   0.172  13.078 -0.2559  0.3673 -0.9229
  791MPD2    C211711   0.992   0.062  13.048 -0.0607 -0.1011 -0.3048
  791MPD2    C311712   0.854   0.082  13.033  0.1401 -0.8202 -0.3585
  791MPD2    C411713   0.791   0.202  13.055  0.2814  0.7893  0.7703
  791MPD2    C511714   0.869   0.303  13.100  0.4283  0.2091 -0.3584
  791MPD2     H11715   1.044   4.704  13.034  1.2147  0.4478  0.7387
  791MPD2    H111716   0.685   0.225  13.055 -0.0675 -0.7817 -2.1601
  791MPD2    H211717   1.058   0.379  13.129  2.9215 -1.5342  0.7348
  791MPD2    H311718   0.821   0.399  13.118 -0.5617 -0.0032 -1.8164
  791MPD2     N11719   0.783   4.700  13.001 -0.2067 -0.2566 -0.2087
  791MPD2    H511720   0.839   4.617  12.982  0.3100  0.3578 -1.3138
  791MPD2    N111721   1.207   0.151  13.107 -0.2714 -0.1681  0.5501
  791MPD2    H711722   1.245   0.057  13.106 -1.4113 -0.6120 -0.2918
  792MPD2     C11723   2.055   0.226  11.757 -0.1339 -0.1538 -0.2143
  792MPD2    C111724   2.011   0.240  11.627  0.3292 -0.3043  0.4960
  792MPD2    C211725   1.874   0.211  11.604  0.4157  0.8772  0.9276
  792MPD2    C311726   1.788   0.164  11.701  0.0927  0.1885 -0.3271
  792MPD2    C411727   1.838   0.157  11.826 -0.1687 -0.6418 -0.2128
  792MPD2    C511728   1.974   0.178  11.851  0.6462 -0.3276 -0.1361
  792MPD2     H11729   1.840   0.239  11.505 -2.3092 -0.0668  1.6196
  792MPD2    H111730   1.772   0.121  11.904 -0.8072  0.7229 -0.1212
  792MPD2    H211731   2.159   0.252  11.771 -0.2737  1.5745 -2.2170
  792MPD2    H311732   2.023   0.148  11.943  0.3231 -2.5043 -0.6743
  792MPD2     N11733   1.650   0.132  11.688  0.8210  0.1953 -0.3883
  792MPD2    H511734   1.598   0.096  11.768  1.9735 -0.0732  0.2377
  792MPD2    N111735   2.104   0.292  11.534  0.5289 -0.4002 -0.3817
  792MPD2    H711736   2.198   0.312  11.568  1.0530  0.7663 -2.5574
  793MPD2     C11737   1.260   0.366  10.853 -0.5847 -0.1343 -0.6104
  793MPD2    C111738   1.382   0.375  10.913  0.4480 -0.0921  0.1744
  793MPD2    C211739   1.388   0.338  11.044  0.8096  0.1188 -1.0729
  793MPD2    C311740   1.281   0.289  11.117  0.4804  0.4668  0.1452
  793MPD2    C411741   1.159   0.292  11.054  0.9756  0.1548 -0.6352
  793MPD2    C511742   1.149   0.330  10.923  0.5541  0.0873  0.3113
  793MPD2     H11743   1.483   0.322  11.093  1.5209 -0.4864 -2.6679
  793MPD2    H111744   1.063   0.276  11.101  0.8866 -1.4145 -1.3651
  793MPD2    H211745   1.235   0.391  10.750 -1.4900  0.0851 -0.3297
  793MPD2    H311746   1.056   0.310  10.870 -0.1717 -3.0769  2.7988
  793MPD2     N11747   1.297   0.248  11.252  0.0437 -0.2705 -0.2833
  793MPD2    H511748   1.392   0.248  11.290  0.0354 -0.8560 -0.2693
  793MPD2    N111749   1.501   0.425  10.841  0.2062  0.3267  0.3536
  793MPD2    H711750   1.583   0.444  10.897  0.7620 -0.8875 -0.0420
  794MPD2     C11751   1.581   4.150  17.579 -0.3871 -0.5371  0.2063
  794MPD2    C111752   1.615   4.042  17.493 -0.1294  0.1033  0.3189
  794MPD2    C211753   1.572   4.047  17.361 -0.2104 -0.2020 -0.0886
  794MPD2    C311754   1.512   4.160  17.307  0.0496  0.2101 -0.5283
  794MPD2    C411755   1.501   4.267  17.395  0.2353  0.1244  0.1067
  794MPD2    C511756   1.531   4.266  17.530 -0.0992  0.2854 -0.3180
  794MPD2     H11757   1.602   3.969  17.292 -1.1157 -2.0375  1.5591
  794MPD2    H111758   1.450   4.356  17.361  0.1795  0.5600  1.3438
  794MPD2    H211759   1.598   4.137  17.685  0.1068 -1.2723  0.0377
  794MPD2    H311760   1.504   4.349  17.594  1.7246  0.5934  0.0338
  794MPD2     N11761   1.463   4.167  17.175 -0.5072  0.5346  0.3724
  794MPD2    H511762   1.419   4.254  17.149  0.9953  0.9521 -0.7716
  794MPD2    N111763   1.678   3.926  17.540  0.3753 -0.2185  0.4477
  794MPD2    H711764   1.681   3.846  17.478  2.8583 -0.8716  1.4030
  795MPD2     C11765   3.731   1.671  13.930  0.5687  1.0873 -0.6191
  795MPD2    C111766   3.693   1.571  13.846  0.0769 -0.4789 -0.1920
  795MPD2    C211767   3.756   1.445  13.846 -0.2259 -0.0536 -0.0564
  795MPD2    C311768   3.864   1.430  13.925  0.0579 -0.4427  0.0649
  795MPD2    C411769   3.905   1.527  14.018  0.0185 -0.1589  0.1815
  795MPD2    C511770   3.840   1.644  14.017  0.2275  0.3118 -0.4541
  795MPD2     H11771   3.728   1.368  13.775  0.4645  1.0198 -1.5057
  795MPD2    H111772   3.983   1.500  14.088  2.7122  0.3128 -2.6203
  795MPD2    H211773   3.683   1.768  13.926  1.2085  1.4956  1.4398
  795MPD2    H311774   3.868   1.716  14.093 -0.0463 -0.2882  0.2159
  795MPD2     N11775   3.960   1.328  13.912  0.9478  0.2080  0.0820
  795MPD2    H511776   4.044   1.351  13.966  0.1698  0.5694  1.1430
  795MPD2    N111777   3.589   1.597  13.749  0.5845  0.0259 -0.0666
  795MPD2    H711778   3.580   1.529  13.673  2.1500 -0.5785  0.2899
  796MPD2     C11779   3.522   3.008  15.877 -0.1725  0.4303 -0.0141
  796MPD2    C111780   3.599   3.061  15.980  0.2115 -0.5895 -0.0335
  796MPD2    C211781   3.596   3.197  15.998 -0.3896  0.1348 -0.1197
  796MPD2    C311782   3.518   3.277  15.920 -0.3016  0.8505  0.3228
  796MPD2    C411783   3.419   3.217  15.835  0.1808  0.5959  0.6138
  796MPD2    C511784   3.429   3.085  15.814 -0.8176  0.4982  1.0803
  796MPD2     H11785   3.649   3.241  16.082 -1.9728  0.0917  0.9040
  796MPD2    H111786   3.353   3.272  15.768  1.2694 -0.3473 -1.2206
  796MPD2    H211787   3.515   2.902  15.856 -2.6943  1.0866 -2.4639
  796MPD2    H311788   3.362   3.026  15.753  0.5476  0.8168 -0.7194
  796MPD2     N11789   3.532   3.411  15.935  0.8923  0.4569  0.1668
  796MPD2    H511790   3.614   3.438  15.988  0.8509  1.7924 -0.4366
  796MPD2    N111791   3.686   2.972  16.054  0.2305 -0.1227 -0.0927
  796MPD2    H711792   3.674   2.872  16.046  3.2352 -0.5588  0.8109
  797MPD2     C11793   4.311   2.646  17.321 -0.1659 -0.0120 -0.3148
  797MPD2    C111794   4.445   2.660  17.349 -0.7044 -0.4946 -0.9342
  797MPD2    C211795   4.529   2.629  17.242  0.3899  0.1623  0.0790
  797MPD2    C311796   4.489   2.594  17.117  0.1412 -0.6089 -0.7726
  797MPD2    C411797   4.356   2.593  17.094  0.9066 -0.3145 -0.1918
  797MPD2    C511798   4.269   2.613  17.198  0.0712 -0.2286 -0.8247
  797MPD2     H11799   4.635   2.645  17.259  0.3438  0.9620 -0.3752
  797MPD2    H111800   4.318   2.573  16.995 -1.3394  1.5368  0.2919
  797MPD2    H211801   4.241   2.660  17.402  1.2293 -2.8671  1.3737
  797MPD2    H311802   4.164   2.620  17.170 -0.1970 -1.1538 -0.0623
  797MPD2     N11803   4.568   2.565  17.007  0.0117 -0.0778  0.0255
  797MPD2    H511804   4.522   2.560  16.917 -0.2160 -2.7260  0.2821
  797MPD2    N111805   4.502   2.709  17.469  0.0028  0.1464 -0.1822
  797MPD2    H711806   4.603   2.707  17.468  0.0315  1.3079  0.0654
  798MPD2     C11807   0.320   3.005  17.121 -0.0318 -0.0071  0.5794
  798MPD2    C111808   0.252   2.886  17.142 -0.7543 -0.4976 -0.1675
  798MPD2    C211809   0.195   2.854  17.264 -0.0521  0.3560 -0.0597
  798MPD2    C311810   0.189   2.951  17.362 -0.0683  0.7030  0.0931
  798MPD2    C411811   0.258   3.078  17.346  0.5031  0.1216 -0.3666
  798MPD2    C511812   0.328   3.096  17.226  0.1989  0.1622  0.0207
  798MPD2     H11813   0.155   2.755  17.281 -0.1568  0.0461 -2.1297
  798MPD2    H111814   0.239   3.162  17.412 -0.9613 -0.3143 -0.2392
  798MPD2    H211815   0.344   3.044  17.023 -2.0970  0.5895  0.3035
  798MPD2    H311816   0.366   3.193  17.195  0.7920  0.3608  1.3611
  798MPD2     N11817   0.117   2.913  17.472 -0.1014  0.0652  0.4534
  798MPD2    H511818   0.054   2.834  17.460 -1.2509  1.1223 -0.5129
  798MPD2    N111819   0.250   2.778  17.051  0.2900 -0.2050 -0.2687
  798MPD2    H711820   0.202   2.693  17.078 -0.6113 -0.0937 -1.5116
  799MPD2     C11821   3.663   3.630  15.079 -0.4837 -0.6871 -0.0372
  799MPD2    C111822   3.653   3.644  14.944  0.3255  0.1029 -0.0261
  799MPD2    C211823   3.589   3.752  14.892  0.2539  0.7430  0.4498
  799MPD2    C311824   3.545   3.858  14.972  0.0520  0.6885 -0.3320
  799MPD2    C411825   3.554   3.839  15.105 -0.0974 -0.2026  0.5144
  799MPD2    C511826   3.610   3.729  15.159 -0.3945  0.0654  0.1785
  799MPD2     H11827   3.587   3.761  14.784  0.8830  0.3131  0.3985
  799MPD2    H111828   3.512   3.917  15.168 -0.1646 -1.1859  1.6949
  799MPD2    H211829   3.712   3.547  15.129  1.7959  2.0466  2.2450
  799MPD2    H311830   3.611   3.712  15.266  0.0475 -0.9634  0.0180
  799MPD2     N11831   3.482   3.977  14.931 -0.3361  0.0003 -0.1625
  799MPD2    H511832   3.465   4.046  15.004 -0.5163  0.7347 -0.8926
  799MPD2    N111833   3.722   3.565  14.847  0.1881  0.7732 -0.3688
  799MPD2    H711834   3.709   3.587  14.748 -0.2296  0.8955 -0.2850
  800MPD2     C11835   3.875   0.560  14.292  0.9109  0.1072  0.5001
  800MPD2    C111836   4.004   0.520  14.306  0.0834  0.6407  0.6630
  800MPD2    C211837   4.052   0.409  14.229  0.0862 -0.7261 -0.0767
  800MPD2    C311838   3.965   0.336  14.152 -0.1769 -0.0083 -0.1708
  800MPD2    C411839   3.827   0.367  14.148  0.2642  0.0089 -0.2170
  800MPD2    C511840   3.788   0.483  14.217 -0.3568  0.0328  0.5938
  800MPD2     H11841   4.159   0.393  14.226  0.1925 -0.1717  0.5633
  800MPD2    H111842   3.764   0.308  14.083  1.5412  1.2218 -2.5306
  800MPD2    H211843   3.852   0.649  14.349 -0.9393  0.1413 -0.2878
  800MPD2    H311844   3.682   0.508  14.214 -0.0819  0.8221 -3.1780
  800MPD2     N11845   4.020   0.228  14.084  0.3426 -0.3376  0.1650
  800MPD2    H511846   4.121   0.221  14.089  0.5536  2.1774 -0.5193
  800MPD2    N111847   4.092   0.604  14.377 -0.1872 -0.2350 -0.5032
  800MPD2    H711848   4.053   0.690  14.415  1.5268 -0.6602  2.2339
  801MPD2     C11849   4.290   1.289  14.388  0.0840  0.5575  0.1297
  801MPD2    C111850   4.209   1.180  14.387 -0.8299  0.2715 -0.1781
  801MPD2    C211851   4.075   1.199  14.406 -0.4797  0.1300 -0.1050
  801MPD2    C311852   4.018   1.323  14.430  0.5549 -0.6900  0.2478
  801MPD2    C411853   4.102   1.432  14.430 -0.2613 -0.4877 -0.7605
  801MPD2    C511854   4.236   1.410  14.410  0.0766  0.6514 -0.3004
  801MPD2     H11855   4.010   1.113  14.414 -0.4750 -0.0975 -2.5052
  801MPD2    H111856   4.069   1.530  14.462 -1.0900 -1.0305  0.0620
  801MPD2    H211857   4.398   1.283  14.392  0.0098 -1.8004 -0.9633
  801MPD2    H311858   4.308   1.491  14.417  1.9733 -1.1796  1.3263
  801MPD2     N11859   3.887   1.349  14.468  0.3651 -0.2808 -0.0034
  801MPD2    H511860   3.877   1.436  14.520  2.5165  0.1580 -0.3371
  801MPD2    N111861   4.258   1.048  14.385  0.1150  0.6381 -0.2392
  801MPD2    H711862   4.189   0.974  14.378 -0.5936  1.4345 -1.6981
  802MPD2     C11863   2.797   1.041  17.286  0.1037  0.8874  0.2277
  802MPD2    C111864   2.930   1.073  17.275 -0.2594  0.1120  0.4229
  802MPD2    C211865   3.012   0.991  17.195 -0.1636 -0.3009  0.4669
  802MPD2    C311866   2.958   0.885  17.123 -0.7744  0.1052 -0.1241
  802MPD2    C411867   2.820   0.852  17.135  0.0231 -0.0716  0.3414
  802MPD2    C511868   2.746   0.930  17.226  0.4579  0.0876 -0.2996
  802MPD2     H11869   3.117   1.016  17.183 -0.3167  0.1013 -0.0363
  802MPD2    H111870   2.767   0.771  17.087  0.2063  0.3571 -0.5846
  802MPD2    H211871   2.752   1.092  17.370 -0.0248 -0.2674  0.8584
  802MPD2    H311872   2.644   0.902  17.250  1.4973 -2.6631  1.0102
  802MPD2     N11873   3.045   0.807  17.042  0.8283  0.0569  0.1521
  802MPD2    H511874   3.142   0.836  17.038  0.0409  2.2478 -2.7130
  802MPD2    N111875   2.996   1.173  17.343 -0.1570  0.0192 -0.1618
  802MPD2    H711876   3.097   1.177  17.336 -0.1882  1.1860  0.1816
  803MPD2     C11877   4.343   0.343  12.078  0.1044  0.1013  0.5511
  803MPD2    C111878   4.434   0.309  12.173 -0.0457  0.1472  0.2156
  803MPD2    C211879   4.422   0.198  12.260 -0.8464  0.6185  0.1554
  803MPD2    C311880   4.314   0.109  12.232 -0.2312 -0.0992  0.0028
  803MPD2    C411881   4.231   0.137  12.127 -0.1485  1.0560  0.0068
  803MPD2    C511882   4.244   0.260  12.054  0.4128  0.3335 -0.3629
  803MPD2     H11883   4.477   0.178  12.351 -0.5443 -1.1009 -0.3943
  803MPD2    H111884   4.136   0.085  12.127  0.3004  0.2642  1.7447
  803MPD2    H211885   4.345   0.436  12.022 -1.6097 -1.1392 -1.5676
  803MPD2    H311886   4.166   0.293  11.986 -1.2326  0.9570  1.8035
  803MPD2     N11887   4.288   4.732  12.315  0.2667 -0.1815  0.0400
  803MPD2    H511888   4.217   4.666  12.284  0.2773 -0.7776  1.2871
  803MPD2    N111889   4.535   0.407  12.199  0.9854  1.0030 -0.0583
  803MPD2    H711890   4.581   0.403  12.289  1.6249 -1.2655 -0.5085
  804MPD2     C11891   4.006   1.484  17.320 -0.3552 -0.0093  0.0840
  804MPD2    C111892   4.062   1.390  17.405 -0.8991  1.1149 -0.8490
  804MPD2    C211893   4.170   1.427  17.487 -0.3336  0.1273  0.1633
  804MPD2    C311894   4.234   1.548  17.470 -0.6587 -0.3314 -0.1184
  804MPD2    C411895   4.177   1.639  17.382  0.1071 -0.4537 -0.2089
  804MPD2    C511896   4.067   1.607  17.310  0.0469 -0.1971 -0.5274
  804MPD2     H11897   4.213   1.353  17.553  0.2888 -0.5585 -1.0024
  804MPD2    H111898   4.207   1.743  17.377  0.9851 -0.7786 -1.8728
  804MPD2    H211899   3.917   1.475  17.259 -0.6793 -2.1472  0.8879
  804MPD2    H311900   4.015   1.680  17.248  2.4601  0.0820 -2.2392
  804MPD2     N11901   4.349   1.589  17.543 -0.1240 -0.3187 -0.3652
  804MPD2    H511902   4.384   1.684  17.540  2.0831 -1.1738 -2.3595
  804MPD2    N111903   3.995   1.266  17.427 -0.2298  0.1677 -0.1180
  804MPD2    H711904   4.041   1.214  17.500 -2.1943 -0.1767  0.8692
  805MPD2     C11905   3.076   4.202  15.717 -0.1670  0.0202 -0.2970
  805MPD2    C111906   3.165   4.195  15.613  0.3207 -0.5927 -0.6812
  805MPD2    C211907   3.299   4.170  15.644  0.0179 -1.0483 -0.3023
  805MPD2    C311908   3.345   4.154  15.772  0.2992  0.3868  0.2854
  805MPD2    C411909   3.256   4.159  15.877 -0.0742 -0.4141 -0.4484
  805MPD2    C511910   3.121   4.178  15.849  0.5322  0.2536  0.2344
  805MPD2     H11911   3.369   4.176  15.562  1.4758 -0.5440  0.9931
  805MPD2    H111912   3.291   4.140  15.977  1.8145  0.5689 -0.9276
  805MPD2    H211913   2.971   4.216  15.693 -0.6432 -3.2885 -0.1785
  805MPD2    H311914   3.051   4.175  15.931  1.8866  2.2718  1.4669
  805MPD2     N11915   3.482   4.154  15.786  0.6442 -0.6293 -0.1069
  805MPD2    H511916   3.541   4.161  15.704  1.1630  1.4021  0.4519
  805MPD2    N111917   3.139   4.227  15.479 -0.2529 -0.8704  0.6249
  805MPD2    H711918   3.220   4.217  15.418 -1.3223  2.4095 -1.2889
  806MPD2     C11919   3.740   3.722   1.085 -0.0574  0.0730 -0.2907
  806MPD2    C111920   3.801   3.824   1.008 -0.2429  0.2754  0.2386
  806MPD2    C211921   3.848   3.788   0.881 -0.0039  0.0644 -0.3037
  806MPD2    C311922   3.848   3.657   0.833  0.0972 -0.3362 -0.4149
  806MPD2    C411923   3.788   3.560   0.905  1.2604 -0.0981  0.2942
  806MPD2    C511924   3.739   3.593   1.030 -0.7634  0.2175  0.5939
  806MPD2     H11925   3.877   3.867   0.813  0.2982  1.0587  0.9734
  806MPD2    H111926   3.779   3.457   0.873 -0.3175  0.3709 -0.7825
  806MPD2    H211927   3.705   3.742   1.186 -0.6971  0.2010 -0.5387
  806MPD2    H311928   3.701   3.508   1.084  1.1709 -0.2425  1.2471
  806MPD2     N11929   3.897   3.629   0.704  1.2098 -0.6469  1.2725
  806MPD2    H511930   3.936   3.706   0.650  0.3792 -2.1346 -1.4867
  806MPD2    N111931   3.821   3.955   1.067  0.2197 -0.0351 -0.2570
  806MPD2    H711932   3.784   3.982   1.158 -0.6884 -2.0334 -0.0331
  807MPD2     C11933   3.625   4.397   1.638 -0.4750  0.2523  0.0897
  807MPD2    C111934   3.618   4.282   1.557 -0.3489 -0.0973  0.7025
  807MPD2    C211935   3.542   4.173   1.595 -1.0858  0.1728  0.3386
  807MPD2    C311936   3.477   4.169   1.720 -0.2529  0.0658  0.2466
  807MPD2    C411937   3.500   4.270   1.805 -0.4019  0.2666 -0.8640
  807MPD2    C511938   3.568   4.386   1.763 -1.2147  0.0054  0.3958
  807MPD2     H11939   3.530   4.094   1.522 -2.0698  0.3568  0.2934
  807MPD2    H111940   3.462   4.269   1.906  1.5271 -1.0720 -0.1555
  807MPD2    H211941   3.680   4.484   1.603 -0.3134  0.6881  1.4471
  807MPD2    H311942   3.593   4.467   1.830  0.3079 -0.3163  0.2075
  807MPD2     N11943   3.404   4.057   1.750  0.5153  0.2433 -0.1318
  807MPD2    H511944   3.404   3.986   1.678  1.0264 -0.5579  0.6582
  807MPD2    N111945   3.695   4.267   1.438  0.3573 -0.1980  0.2596
  807MPD2    H711946   3.680   4.185   1.380  2.1906 -0.5941  0.3443
  808MPD2     C11947   4.612   1.454  11.228 -0.5828  0.0405  0.5952
  808MPD2    C111948   4.584   1.342  11.154  0.4355  0.1986 -0.0188
  808MPD2    C211949   4.526   1.352  11.028 -0.1460 -0.3842 -0.5783
  808MPD2    C311950   4.505   1.470  10.969 -0.3944  0.0315  0.7532
  808MPD2    C411951   4.528   1.587  11.039 -1.2169  0.1709 -0.1856
  808MPD2    C511952   4.579   1.578  11.170 -0.4275  0.6192 -0.2130
  808MPD2     H11953   4.506   1.252  10.992  1.5160 -0.1618 -2.1203
  808MPD2    H111954   4.507   1.685  10.999 -0.8825  0.4284  0.2679
  808MPD2    H211955   4.643   1.447  11.331  0.4336  1.7587  0.4002
  808MPD2    H311956   4.577   1.673  11.222 -0.7800  1.2681 -1.4112
  808MPD2     N11957   4.456   1.483  10.835 -0.0246 -0.0144 -0.0561
  808MPD2    H511958   4.428   1.577  10.808  0.3632 -0.9845 -3.8196
  808MPD2    N111959   4.578   1.211  11.207 -0.2100  0.0594  0.0574
  808MPD2    H711960   4.541   1.138  11.146  0.8245  0.8235 -1.4976
  809MPD2     C11961   4.360   0.967   9.874 -0.4658 -0.5643  0.3057
  809MPD2    C111962   4.441   0.958   9.977 -0.0787 -0.2386 -0.4514
  809MPD2    C211963   4.439   1.048  10.079  0.3642 -0.3195 -0.4749
  809MPD2    C311964   4.347   1.156  10.080  0.5279  0.2770  0.1613
  809MPD2    C411965   4.261   1.165   9.972  0.0373  0.0459 -0.2907
  809MPD2    C511966   4.273   1.067   9.873  1.0206 -0.3503 -0.3441
  809MPD2     H11967   4.512   1.036  10.158  2.3223 -1.9220 -2.5117
  809MPD2    H111968   4.198   1.251   9.950 -0.1144  0.6560  2.4090
  809MPD2    H211969   4.360   0.897   9.790 -1.2377  0.3993 -0.4961
  809MPD2    H311970   4.211   1.075   9.785  1.5180 -0.1671 -0.6844
  809MPD2     N11971   4.352   1.258  10.174  0.4847 -0.1121 -0.1140
  809MPD2    H511972   4.298   1.340  10.150  0.5664  0.6925  2.4290
  809MPD2    N111973   4.543   0.856   9.990 -0.0241  0.3466 -0.4751
  809MPD2    H711974   4.618   0.869  10.056 -0.9938 -2.2123  1.1592
  810MPD2     C11975   3.710   0.224  11.298  0.2912 -0.1408 -0.0806
  810MPD2    C111976   3.743   0.268  11.172 -0.3831 -0.0962 -0.3716
  810MPD2    C211977   3.723   0.403  11.138 -0.2830  0.5881  0.5587
  810MPD2    C311978   3.698   0.488  11.242  0.3810 -0.7683 -0.2566
  810MPD2    C411979   3.682   0.449  11.369 -0.5055 -0.0084 -0.3939
  810MPD2    C511980   3.683   0.315  11.390  0.1542 -0.4686  0.3304
  810MPD2     H11981   3.755   0.435  11.040 -1.0269  0.1537  0.1705
  810MPD2    H111982   3.658   0.514  11.452  1.3275 -0.1907  0.2902
  810MPD2    H211983   3.696   0.120  11.326  1.0400 -0.1019  0.4364
  810MPD2    H311984   3.646   0.278  11.484 -0.9274 -1.4190 -0.4723
  810MPD2     N11985   3.696   0.628  11.213  0.6580  0.5518  0.0659
  810MPD2    H511986   3.690   0.692  11.292 -1.7539  0.9235 -0.4141
  810MPD2    N111987   3.758   0.178  11.065  0.1394 -0.1130  0.0130
  810MPD2    H711988   3.789   0.215  10.976 -1.4070  1.5786  0.1563
  811MPD2     C11989   3.353   0.105  10.304  0.6829  0.2318  0.0365
  811MPD2    C111990   3.432   0.161  10.408  0.3192 -0.1663  0.4786
  811MPD2    C211991   3.459   0.299  10.400  0.3447  0.4555  0.3703
  811MPD2    C311992   3.431   0.371  10.286  0.0520  0.4741 -0.0230
  811MPD2    C411993   3.364   0.307  10.183  0.0722 -0.6710 -0.4024
  811MPD2    C511994   3.332   0.170  10.187  0.2649  0.2592 -0.2509
  811MPD2     H11995   3.495   0.362  10.480  1.0979 -1.0741  1.2483
  811MPD2    H111996   3.353   0.363  10.091  2.0504 -0.0358 -0.2352
  811MPD2    H211997   3.317   0.003  10.306 -1.9723  1.1242 -1.8998
  811MPD2    H311998   3.267   0.128  10.111  0.9134 -0.5335 -0.3711
  811MPD2     N11999   3.462   0.507  10.280 -0.2804  0.4676 -0.3590
  811MPD2    H512000   3.533   0.527  10.350 -1.6425 -1.4084  1.5838
  811MPD2    N112001   3.464   0.080  10.520  0.4079  0.2564  0.4715
  811MPD2    H712002   3.433   4.720  10.509  1.2262  0.0245  0.2039
  812MPD2     C12003   2.527   4.696  12.248  0.1213  0.2486  1.2079
  812MPD2    C112004   2.614   0.061  12.284  0.1715  0.7590 -0.2584
  812MPD2    C212005   2.680   0.053  12.406 -0.6475  0.1970 -0.2963
  812MPD2    C312006   2.665   4.681  12.491  0.3219  0.1253 -0.2553
  812MPD2    C412007   2.573   4.582  12.456  0.5174 -0.5498  0.1711
  812MPD2    C512008   2.505   4.592  12.335  0.6953  0.3345 -0.4829
  812MPD2     H12009   2.741   0.137  12.437 -1.2551  0.1190  1.1007
  812MPD2    H112010   2.542   4.497  12.516  1.3357 -0.9125  0.0771
  812MPD2    H212011   2.473   4.692  12.154 -1.0859  0.6018  1.8889
  812MPD2    H312012   2.431   4.516  12.313  0.2204  1.0351 -1.2547
  812MPD2     N12013   2.727   4.663  12.614 -1.0942  0.3513 -0.0861
  812MPD2    H512014   2.696   4.583  12.668  1.4870 -0.6581 -0.1295
  812MPD2    N112015   2.622   0.176  12.192 -0.6971  0.6446  0.2390
  812MPD2    H712016   2.556   0.172  12.116  1.0384  3.6119 -1.4091
  813MPD2     C12017   1.107   1.516  12.888 -0.1625 -0.0087  0.4206
  813MPD2    C112018   1.118   1.653  12.868  0.4696  0.1967  0.7089
  813MPD2    C212019   1.157   1.736  12.969  0.0564 -0.2752  0.4531
  813MPD2    C312020   1.191   1.688  13.093 -0.2812  0.3985 -0.0546
  813MPD2    C412021   1.188   1.554  13.111 -0.0924  0.2463  0.0362
  813MPD2    C512022   1.152   1.465  13.010  0.4880 -0.0104 -0.4726
  813MPD2     H12023   1.164   1.844  12.960 -1.5953 -0.2534 -0.5997
  813MPD2    H112024   1.221   1.500  13.199 -1.4468 -0.2822  0.2210
  813MPD2    H212025   1.074   1.450  12.809 -0.4908  0.4684  0.1573
  813MPD2    H312026   1.163   1.358  13.019  2.2390  0.2305  0.2791
  813MPD2     N12027   1.225   1.777  13.195 -0.5209 -0.3963  0.2286
  813MPD2    H512028   1.235   1.875  13.171  0.2016 -0.0132  2.0628
  813MPD2    N112029   1.077   1.698  12.743  0.3258 -0.1871  0.8326
  813MPD2    H712030   1.057   1.624  12.677  0.8525  1.9424 -1.7476
  814MPD2     C12031   1.780   2.963  12.492 -0.0633 -0.3748  0.0894
  814MPD2    C112032   1.860   2.987  12.380  0.2161  0.3412  0.0181
  814MPD2    C212033   1.952   3.091  12.374 -0.4478 -0.4169  0.1085
  814MPD2    C312034   1.986   3.169  12.487 -0.1856  0.3712  0.8331
  814MPD2    C412035   1.905   3.143  12.599  0.0730  0.6348  0.1153
  814MPD2    C512036   1.811   3.045  12.595  0.0664  0.7845 -0.1159
  814MPD2     H12037   1.998   3.100  12.277  0.6399 -0.2369  0.6427
  814MPD2    H112038   1.915   3.198  12.691 -0.0371  0.7215  0.0751
  814MPD2    H212039   1.703   2.887  12.493 -0.5661  0.1593  1.2752
  814MPD2    H312040   1.743   3.035  12.679 -0.2198  1.4850 -0.2582
  814MPD2     N12041   2.072   3.279  12.497  0.9127 -0.1041  0.1679
  814MPD2    H512042   2.052   3.340  12.576  3.7702  0.4680  0.4487
  814MPD2    N112043   1.827   2.937  12.252 -0.4142  0.2879  0.2469
  814MPD2    H712044   1.869   2.985  12.173  0.3567 -0.1496  0.3855
  815MPD2     C12045   2.514   1.092  12.151  0.5929  0.1190  0.0010
  815MPD2    C112046   2.431   1.131  12.047 -0.1268 -0.0185 -0.1022
  815MPD2    C212047   2.290   1.126  12.072  0.1342  0.1629  0.9183
  815MPD2    C312048   2.242   1.098  12.200  0.0886  0.4201 -0.3827
  815MPD2    C412049   2.328   1.060  12.301 -0.6789  0.1138 -0.7597
  815MPD2    C512050   2.465   1.061  12.278  0.2446 -0.5526 -0.3496
  815MPD2     H12051   2.219   1.162  11.999  0.6084 -0.8142 -0.0218
  815MPD2    H112052   2.297   1.023  12.399 -0.9401  2.9691  0.2453
  815MPD2    H212053   2.620   1.095  12.133  1.0400 -2.3127  2.2389
  815MPD2    H312054   2.531   1.022  12.355 -1.7811  2.3189  2.8843
  815MPD2     N12055   2.107   1.120  12.226  0.2876 -0.0936  0.0951
  815MPD2    H512056   2.044   1.153  12.153 -0.5779 -1.0808  0.4098
  815MPD2    N112057   2.485   1.142  11.924 -0.3483  0.4637  0.5553
  815MPD2    H712058   2.584   1.123  11.929 -0.6119 -1.0184  0.1896
  816MPD2     C12059   2.630   0.675  17.648 -0.6145 -0.3280 -0.8922
  816MPD2    C112060   2.566   0.717  17.539  0.2570  0.3493  0.1232
  816MPD2    C212061   2.573   0.642  17.419 -0.1148 -0.0633  0.6131
  816MPD2    C312062   2.642   0.522  17.413 -0.0645  0.3540  0.1101
  816MPD2    C412063   2.705   0.478  17.534 -0.7527  0.1646  0.2346
  816MPD2    C512064   2.703   0.556  17.648  0.5368  0.3711 -0.0710
  816MPD2     H12065   2.534   0.686  17.328  2.3277 -0.2690 -0.5393
  816MPD2    H112066   2.762   0.386  17.523 -1.4879 -0.4915  1.8871
  816MPD2    H212067   2.634   0.740  17.734  1.2733  0.6312 -1.6965
  816MPD2    H312068   2.757   0.515  17.733  0.5629 -0.8092 -0.6548
  816MPD2     N12069   2.651   0.454  17.285  0.2936 -0.5875 -0.4606
  816MPD2    H512070   2.583   0.478  17.214 -0.3470 -1.3383 -0.1038
  816MPD2    N112071   2.501   0.841  17.551  0.5967 -0.5809  0.1416
  816MPD2    H712072   2.521   0.894  17.636  0.4335 -0.6249  0.2075
  817MPD2     C12073   1.939   2.596  10.058 -0.6990 -0.4889 -0.2735
  817MPD2    C112074   1.903   2.503   9.967 -0.3377  0.6913 -0.8816
  817MPD2    C212075   1.787   2.514   9.895 -0.2064  0.3144 -0.1445
  817MPD2    C312076   1.713   2.629   9.905  0.3861 -0.0085  0.0981
  817MPD2    C412077   1.751   2.729  10.001 -0.3831 -0.2512  0.4732
  817MPD2    C512078   1.858   2.702  10.078 -0.6455  0.2083  0.4702
  817MPD2     H12079   1.771   2.443   9.815  0.8709 -0.8877  0.7138
  817MPD2    H112080   1.694   2.820  10.015  1.2803  0.7420  0.8055
  817MPD2    H212081   2.022   2.581  10.125 -1.5825  0.6184  1.0686
  817MPD2    H312082   1.892   2.782  10.142  1.8139 -0.1369 -0.3969
  817MPD2     N12083   1.603   2.646   9.813  0.5684  0.0283  0.0456
  817MPD2    H512084   1.590   2.575   9.742 -1.4407 -0.8870  1.3207
  817MPD2    N112085   1.984   2.391   9.933 -0.1098  0.9281 -0.0607
  817MPD2    H712086   1.933   2.328   9.872  0.0472 -0.7652  1.5460
  818MPD2     C12087   1.505   2.811  10.618  0.0574  0.4305  0.0556
  818MPD2    C112088   1.385   2.744  10.618 -0.6758  0.0821 -0.3020
  818MPD2    C212089   1.381   2.605  10.591 -0.0607 -0.3091  0.8088
  818MPD2    C312090   1.497   2.540  10.565  0.5582  0.0315 -0.0749
  818MPD2    C412091   1.617   2.599  10.580  0.3760  0.1368  0.9360
  818MPD2    C512092   1.617   2.733  10.613  0.7233  0.2389  0.4192
  818MPD2     H12093   1.287   2.551  10.587 -0.3199  0.0981  1.4386
  818MPD2    H112094   1.714   2.552  10.575 -0.9542 -2.1705 -3.2398
  818MPD2    H212095   1.518   2.918  10.629  0.0523  0.4271  0.0953
  818MPD2    H312096   1.709   2.787  10.629  1.2744 -1.1285  1.8015
  818MPD2     N12097   1.500   2.400  10.524  0.5065 -0.3030 -0.4028
  818MPD2    H512098   1.584   2.346  10.537  0.1403 -0.9732 -0.7965
  818MPD2    N112099   1.264   2.811  10.619 -0.3770  0.7169 -0.2306
  818MPD2    H712100   1.186   2.747  10.603  2.3966 -2.4840 -0.8742
  819MPD2     C12101   3.766   3.887  15.654  0.1854 -0.5379 -0.0313
  819MPD2    C112102   3.783   3.752  15.676  0.4357 -0.9606  0.0084
  819MPD2    C212103   3.899   3.694  15.726 -0.2347 -0.5302 -0.2301
  819MPD2    C312104   3.998   3.783  15.759  0.1511 -0.3948 -0.0684
  819MPD2    C412105   3.985   3.922  15.749  0.3065 -0.0662 -0.2327
  819MPD2    C512106   3.867   3.971  15.695  0.0209 -0.5980 -0.5096
  819MPD2     H12107   3.908   3.589  15.752 -1.0848 -0.8487 -1.2113
  819MPD2    H112108   4.063   3.991  15.779 -0.3549  0.9809 -0.9048
  819MPD2    H212109   3.675   3.927  15.612  0.1309 -1.3145 -0.6513
  819MPD2    H312110   3.849   4.077  15.683  0.1281 -0.6823 -1.4147
  819MPD2     N12111   4.117   3.729  15.820  0.0952  0.0778 -0.0569
  819MPD2    H512112   4.127   3.628  15.824  0.2458  0.1465  1.1646
  819MPD2    N112113   3.681   3.662  15.633 -0.0867 -0.1563 -0.5795
  819MPD2    H712114   3.593   3.710  15.618 -0.7695 -1.7342 -1.6303
  820MPD2     C12115   3.064   3.753  14.894 -0.4496 -0.5690  0.3288
  820MPD2    C112116   3.138   3.827  14.991  0.0696  0.3552 -0.2688
  820MPD2    C212117   3.217   3.757  15.086 -0.2207 -0.4014 -0.3647
  820MPD2    C312118   3.219   3.618  15.093  0.3965  0.0742 -0.3264
  820MPD2    C412119   3.138   3.555  15.004  0.8333 -0.7114  0.1390
  820MPD2    C512120   3.069   3.621  14.908 -0.2753  0.0362  0.0369
  820MPD2     H12121   3.287   3.815  15.146 -0.2802 -1.5256  0.8149
  820MPD2    H112122   3.133   3.448  15.017  4.1305 -0.6861  1.6217
  820MPD2    H212123   3.008   3.796  14.812  2.4038 -0.4208 -1.5674
  820MPD2    H312124   3.002   3.563  14.846  1.3777 -1.0009 -0.7595
  820MPD2     N12125   3.282   3.543  15.193 -0.4219 -0.5114 -0.0392
  820MPD2    H512126   3.282   3.442  15.181 -0.5412 -0.6604  1.2471
  820MPD2    N112127   3.124   3.969  14.983  0.2237 -0.2258 -0.3824
  820MPD2    H712128   3.059   4.007  14.916 -0.0820 -0.3233 -0.1408
  821MPD2     C12129   4.145   0.332  13.366 -0.1584 -0.0216  0.3488
  821MPD2    C112130   4.203   0.362  13.486 -0.6017  0.2093  0.3176
  821MPD2    C212131   4.267   0.487  13.496 -0.4598  0.1366  0.0234
  821MPD2    C312132   4.268   0.573  13.396  0.8202 -0.0418 -0.2896
  821MPD2    C412133   4.204   0.535  13.272 -0.3082 -0.2833  0.1436
  821MPD2    C512134   4.150   0.417  13.257  0.0479  0.0774  0.1420
  821MPD2     H12135   4.302   0.503  13.597 -0.3071  1.1683 -0.1944
  821MPD2    H112136   4.207   0.605  13.189 -0.3447 -0.6300 -0.1494
  821MPD2    H212137   4.106   0.234  13.342 -1.6194  0.7628 -0.5316
  821MPD2    H312138   4.127   0.383  13.156  0.8266 -0.9633  0.3227
  821MPD2     N12139   4.349   0.692  13.395  0.6730  0.1729  0.2449
  821MPD2    H512140   4.370   0.742  13.310  0.4832  1.3708  0.9073
  821MPD2    N112141   4.210   0.276  13.593  0.0391 -0.0951  0.5388
  821MPD2    H712142   4.278   0.291  13.667  1.0806 -1.0749 -0.2154
  822MPD2     C12143   4.656   0.726  15.885 -1.0024 -0.4255 -0.7110
  822MPD2    C112144   4.701   0.728  16.018  0.0744 -1.0603 -0.8738
  822MPD2    C212145   4.639   0.818  16.106 -0.5588  0.3393 -0.2688
  822MPD2    C312146   4.519   0.891  16.075 -0.2580  0.0485  0.6525
  822MPD2    C412147   4.477   0.888  15.942 -0.1364 -0.1771 -0.9741
  822MPD2    C512148   4.540   0.800  15.857  0.3097 -0.7133  0.4051
  822MPD2     H12149   4.676   0.819  16.208  0.1973 -2.1586 -0.4939
  822MPD2    H112150   4.386   0.939  15.912 -1.1953 -0.2509  2.0586
  822MPD2    H212151   4.701   0.655  15.816  2.1433  1.8361 -0.9613
  822MPD2    H312152   4.500   0.788  15.757  1.0294  2.4795 -0.2556
  822MPD2     N12153   4.457   0.966  16.170  0.5106  0.0305  0.2698
  822MPD2    H512154   4.495   0.955  16.263 -1.6660  0.4019  1.2035
  822MPD2    N112155   0.067   0.644  16.069 -0.6709  0.3879  0.2199
  822MPD2    H712156   0.081   0.664  16.168  0.2513 -1.9569  0.5770
  823MPD2     C12157   4.153   1.219  16.936 -0.8075 -0.3448  0.0042
  823MPD2    C112158   4.186   1.138  16.831 -0.1692  0.4407  0.0945
  823MPD2    C212159   4.176   1.004  16.847  0.1692 -0.1526 -0.2550
  823MPD2    C312160   4.146   0.952  16.976  0.0071  0.2010  0.4920
  823MPD2    C412161   4.098   1.036  17.073  0.0552  0.1737 -0.0577
  823MPD2    C512162   4.101   1.170  17.049  0.3700  0.5225  0.1487
  823MPD2     H12163   4.210   0.941  16.766  0.6944 -2.9016  2.0870
  823MPD2    H112164   4.082   0.997  17.173  2.6110 -1.4555 -0.2877
  823MPD2    H212165   4.153   1.327  16.931  0.1631 -0.3342  0.2149
  823MPD2    H312166   4.082   1.241  17.129  2.1559  0.2667  0.8134
  823MPD2     N12167   4.166   0.816  17.006 -0.3564  0.4321 -0.1949
  823MPD2    H512168   4.155   0.792  17.104 -0.1555 -0.7856 -0.4622
  823MPD2    N112169   4.230   1.199  16.707 -0.1416 -0.6766 -0.2393
  823MPD2    H712170   4.262   1.295  16.716 -2.0514 -0.2256  1.6500
  824MPD2     C12171   0.305   4.598  15.812  0.0264  0.9044 -0.3947
  824MPD2    C112172   0.378   4.636  15.916  0.2299 -0.2302  0.0513
  824MPD2    C212173   0.478   4.553  15.949  0.4668  0.6711 -0.4517
  824MPD2    C312174   0.507   4.434  15.889 -0.2572  0.4873  0.2935
  824MPD2    C412175   0.428   4.401  15.778 -0.2818  0.5485  0.2145
  824MPD2    C512176   0.326   4.481  15.739  0.2434 -0.2112  0.0555
  824MPD2     H12177   0.545   4.575  16.031 -0.0368 -3.1149  0.9874
  824MPD2    H112178   0.447   4.310  15.721  0.6920  1.2898 -0.6525
  824MPD2    H212179   0.229   4.665  15.773  1.8296  1.1319 -3.5244
  824MPD2    H312180   0.262   4.456  15.655  0.2371  1.1115 -0.3314
  824MPD2     N12181   0.620   4.364  15.933 -0.1546  0.2786  0.4862
  824MPD2    H512182   0.656   4.399  16.021 -0.4239 -2.1230  1.5654
  824MPD2    N112183   0.357   0.009  16.003  0.6028 -0.0324 -0.2928
  824MPD2    H712184   0.422   0.015  16.081  0.7684  0.9586 -0.4974
  825MPD2     C12185   1.432   4.389  16.164 -1.1356 -0.6783 -0.5674
  825MPD2    C112186   1.326   4.414  16.085 -0.5294 -0.5085 -0.2473
  825MPD2    C212187   1.338   4.518  15.995 -1.1617 -0.2116 -0.1680
  825MPD2    C312188   1.456   4.585  15.981 -0.0067 -0.8116  0.2460
  825MPD2    C412189   1.561   4.560  16.073 -0.1426 -0.0789  0.1098
  825MPD2    C512190   1.549   4.455  16.159  0.4846 -0.2489 -0.5776
  825MPD2     H12191   1.261   4.540  15.922 -1.1286  1.0444  0.1611
  825MPD2    H112192   1.648   4.624  16.082 -0.3369  0.4273 -1.5316
  825MPD2    H212193   1.422   4.314  16.241 -0.6117  1.0205  1.1660
  825MPD2    H312194   1.633   4.437  16.226  0.4766  0.4641 -0.3781
  825MPD2     N12195   1.474   4.685  15.886  0.1402  0.2081 -0.2515
  825MPD2    H512196   1.559   0.005  15.895 -0.1885  0.2100  3.0026
  825MPD2    N112197   1.208   4.332  16.098  0.3031 -0.0668  0.6046
  825MPD2    H712198   1.212   4.254  16.162 -1.5413  0.1694  0.9954
  826MPD2     C12199   0.767   4.386  13.996  1.0978 -0.3092 -0.4345
  826MPD2    C112200   0.801   4.477  13.902  0.3868 -0.2726 -0.8123
  826MPD2    C212201   0.754   4.609  13.916 -0.0076  0.0002 -0.0211
  826MPD2    C312202   0.695   4.648  14.035  0.4294 -0.3617  0.0960
  826MPD2    C412203   0.671   4.553  14.136 -0.4038  0.8222 -0.3765
  826MPD2    C512204   0.708   4.425  14.109  0.8014 -0.3981  0.3634
  826MPD2     H12205   0.771   4.675  13.832  0.6637 -0.2107 -0.0486
  826MPD2    H112206   0.621   4.580  14.228 -2.0682  0.0774 -1.0493
  826MPD2    H212207   0.789   4.281  13.988  2.6683 -0.1145  1.3363
  826MPD2    H312208   0.691   4.362  14.196 -0.9792 -0.0743  0.2442
  826MPD2     N12209   0.656   0.053  14.065  0.6597  0.1069 -0.7470
  826MPD2    H512210   0.601   0.076  14.147  2.2728 -0.2368  0.4309
  826MPD2    N112211   0.884   4.435  13.797 -0.8749 -0.4855 -0.1529
  826MPD2    H712212   0.910   4.337  13.790  0.4501 -0.1840  0.4816
  827MPD2     C12213   1.667   0.917  10.183  0.3564 -0.4478  0.5460
  827MPD2    C112214   1.600   0.874  10.298  1.3802 -0.5947 -0.7880
  827MPD2    C212215   1.511   0.770  10.292  0.5357 -0.2080 -0.4204
  827MPD2    C312216   1.483   0.717  10.169  0.8207 -0.2826 -0.4422
  827MPD2    C412217   1.545   0.762  10.055  0.1293 -0.4802 -0.0701
  827MPD2    C512218   1.641   0.862  10.056  0.0708  0.0679  0.2783
  827MPD2     H12219   1.452   0.745  10.380  1.8914 -0.2870  0.4656
  827MPD2    H112220   1.515   0.730   9.956 -4.6224 -0.8350  1.4529
  827MPD2    H212221   1.738   0.998  10.173 -0.3927  0.1209 -0.1512
  827MPD2    H312222   1.688   0.905   9.969  0.4897  1.2911  1.1152
  827MPD2     N12223   1.368   0.633  10.162  0.6071  0.1940 -0.1200
  827MPD2    H512224   1.340   0.605  10.255 -1.7763 -4.7701 -2.3746
  827MPD2    N112225   1.628   0.952  10.409 -0.1800  0.2897 -0.6323
  827MPD2    H712226   1.700   1.022  10.395 -0.9816  0.7738 -2.3308
  828MPD2     C12227   0.125   1.032  12.792 -0.8840  0.6503  0.1040
  828MPD2    C112228   0.021   1.084  12.718 -0.3834 -0.3613  0.1459
  828MPD2    C212229   0.041   1.110  12.591  0.4552 -0.1688 -0.0133
  828MPD2    C312230   0.167   1.088  12.533 -0.4596  0.9332 -0.1597
  828MPD2    C412231   0.274   1.034  12.609 -0.3239 -0.2327  0.6146
  828MPD2    C512232   0.250   1.005  12.743 -0.5479  0.0743 -0.1783
  828MPD2     H12233   4.688   1.144  12.538  1.1828 -0.2330 -1.2886
  828MPD2    H112234   0.378   1.017  12.582 -0.7794 -0.8713 -0.7052
  828MPD2    H212235   0.106   1.006  12.895 -1.7986 -1.4829 -0.6041
  828MPD2    H312236   0.332   0.966  12.802 -1.1780 -0.5086  0.3023
  828MPD2     N12237   0.183   1.098  12.392  0.6688 -0.0017  0.3174
  828MPD2    H512238   0.276   1.080  12.358  0.6849  0.6565  0.0198
  828MPD2    N112239   4.626   1.082  12.769  0.3331 -0.4316 -0.5145
  828MPD2    H712240   4.554   1.112  12.704 -1.9249 -0.2470  2.0877
  829MPD2     C12241   3.958   1.424  12.384 -0.5802  0.0591  0.1240
  829MPD2    C112242   3.900   1.368  12.499 -0.5794 -0.6157 -0.5086
  829MPD2    C212243   3.981   1.332  12.604  0.8941 -0.1145  0.0354
  829MPD2    C312244   4.120   1.331  12.589  1.2243  0.0065 -0.1185
  829MPD2    C412245   4.170   1.375  12.471 -1.0465  0.3110  0.0230
  829MPD2    C512246   4.093   1.422  12.370 -0.4738  1.0129 -0.1729
  829MPD2     H12247   3.943   1.318  12.704 -2.9781 -0.4594 -1.4772
  829MPD2    H112248   4.277   1.388  12.459 -1.1189  0.3163 -0.6645
  829MPD2    H212249   3.897   1.460  12.303  0.9419  1.3269 -0.4695
  829MPD2    H312250   4.135   1.453  12.275 -0.2579  3.5741  0.7523
  829MPD2     N12251   4.199   1.285  12.699 -0.4831 -0.1807 -0.0598
  829MPD2    H512252   4.291   1.248  12.674  0.2468 -1.0227  3.9069
  829MPD2    N112253   3.758   1.362  12.504 -0.1552  0.2560  0.1137
  829MPD2    H712254   3.722   1.401  12.418 -1.0753 -1.7915 -0.4407
  830MPD2     C12255   4.420   3.196  15.620 -0.2758 -0.4560 -0.0356
  830MPD2    C112256   4.487   3.275  15.706  0.0618  0.2427  0.2781
  830MPD2    C212257   4.613   3.302  15.669  0.0766 -0.1845  0.0094
  830MPD2    C312258   4.686   3.242  15.563  0.6240 -0.5088 -0.8568
  830MPD2    C412259   4.619   3.151  15.486  0.4731 -0.1268 -0.5376
  830MPD2    C512260   4.489   3.134  15.517 -0.1903 -0.2594 -0.0499
  830MPD2     H12261   4.659   3.379  15.730  1.6302 -2.4775  1.7709
  830MPD2    H112262   4.657   3.083  15.410  0.2232 -0.0740 -0.7087
  830MPD2    H212263   4.315   3.172  15.636 -0.5374  1.3772  1.0226
  830MPD2    H312264   4.437   3.056  15.462  1.8143 -0.8346 -1.1694
  830MPD2     N12265   0.077   3.287  15.522  0.0752  0.0698  0.3089
  830MPD2    H512266   0.120   3.246  15.440 -2.5351 -1.0911 -0.4737
  830MPD2    N112267   4.430   3.346  15.809 -0.3631 -0.1121 -0.3791
  830MPD2    H712268   4.329   3.342  15.813 -0.4282  1.4329 -0.5134
  831MPD2     C12269   4.720   1.060  16.599  0.3729  0.6740  0.0546
  831MPD2    C112270   4.727   0.967  16.495  0.2227  0.3166  0.0102
  831MPD2    C212271   4.621   0.877  16.483  0.0048 -0.5640 -0.2442
  831MPD2    C312272   4.518   0.866  16.578  0.0608  0.0955 -0.3490
  831MPD2    C412273   4.524   0.955  16.686  0.0497 -0.7082  0.4799
  831MPD2    C512274   4.625   1.049  16.697  0.3323 -0.3153 -0.1925
  831MPD2     H12275   4.614   0.819  16.392  0.1759  0.7879 -1.1168
  831MPD2    H112276   4.460   0.956  16.773  0.1301  0.3372  0.5231
  831MPD2    H212277   0.072   1.118  16.624 -0.3279  1.3889  0.8337
  831MPD2    H312278   4.630   1.115  16.783  0.6876 -0.5693 -0.0152
  831MPD2     N12279   4.413   0.773  16.565  0.1660 -0.2100  0.4556
  831MPD2    H512280   4.343   0.759  16.637 -1.2731 -1.1320 -1.1196
  831MPD2    N112281   0.107   0.970  16.414  1.0041  0.4403  0.2193
  831MPD2    H712282   0.151   1.059  16.395 -3.3442  2.0715 -2.1944
  832MPD2     C12283   3.375   1.667  17.436  0.0568 -0.0177  0.2725
  832MPD2    C112284   3.324   1.798  17.430 -0.0508 -0.2590  0.8531
  832MPD2    C212285   3.238   1.828  17.327  0.7664  0.8105 -0.5505
  832MPD2    C312286   3.186   1.727  17.248  0.8441 -0.3036  0.2448
  832MPD2    C412287   3.235   1.598  17.257 -0.5004 -0.4555 -0.5156
  832MPD2    C512288   3.337   1.569  17.343  0.3760 -0.9179 -0.2103
  832MPD2     H12289   3.183   1.921  17.333 -1.6951 -0.7174  0.8178
  832MPD2    H112290   3.190   1.519  17.197  0.4414 -1.4803  0.1207
  832MPD2    H212291   3.458   1.641  17.500  0.6078 -1.2555 -0.9360
  832MPD2    H312292   3.375   1.469  17.357  0.1272 -0.4780  3.7348
  832MPD2     N12293   3.080   1.745  17.158  0.3578 -0.0799  0.3260
  832MPD2    H512294   3.036   1.664  17.117  0.2813 -0.3070  0.8650
  832MPD2    N112295   3.379   1.908  17.498  0.6195 -0.1393  0.6573
  832MPD2    H712296   3.350   2.001  17.468  1.0842 -0.5594 -1.1240
  833MPD2     C12297   4.672   3.643  13.072 -0.0534  0.2654 -0.7238
  833MPD2    C112298   4.671   3.579  12.945 -0.0899 -0.3402 -0.2763
  833MPD2    C212299   0.055   3.539  12.889 -0.4497  0.4718 -0.4681
  833MPD2    C312300   0.175   3.567  12.950 -0.3409 -0.6991  0.2100
  833MPD2    C412301   0.171   3.638  13.065  0.3149  0.2133  0.0306
  833MPD2    C512302   0.054   3.670  13.126  0.0129 -1.0368 -0.5060
  833MPD2     H12303   0.056   3.482  12.797 -0.0839  0.1062 -0.2378
  833MPD2    H112304   0.263   3.651  13.121  0.1644  1.0556  0.0929
  833MPD2    H212305   4.587   3.683  13.126 -1.7275 -0.7445 -2.5942
  833MPD2    H312306   0.046   3.730  13.216 -1.6325  0.0682 -1.3876
  833MPD2     N12307   0.296   3.523  12.899  0.1799  0.4073  0.0359
  833MPD2    H512308   0.381   3.553  12.948  0.9470  0.0710 -1.0898
  833MPD2    N112309   4.552   3.587  12.869  0.3512  0.2971 -0.0868
  833MPD2    H712310   4.466   3.608  12.919  0.2982  0.3040 -0.1817
  834MPD2     C12311   0.616   2.802  12.276  0.2023 -0.0600 -0.2407
  834MPD2    C112312   0.601   2.925  12.207  0.3477 -0.4426  0.2144
  834MPD2    C212313   0.605   3.043  12.277  0.4546  0.1751  0.2972
  834MPD2    C312314   0.623   3.047  12.416  0.1768  0.4371 -0.2200
  834MPD2    C412315   0.631   2.926  12.484  0.5414 -1.3401  0.2679
  834MPD2    C512316   0.639   2.807  12.410 -0.8610  0.1600  0.1060
  834MPD2     H12317   0.609   3.128  12.209  0.3060 -0.4123 -0.4491
  834MPD2    H112318   0.648   2.921  12.591  0.1310  1.0630  0.4412
  834MPD2    H212319   0.630   2.705  12.231  0.5700  0.1893 -0.6730
  834MPD2    H312320   0.648   2.717  12.470  1.5340 -0.6406 -1.4319
  834MPD2     N12321   0.608   3.165  12.489  0.2768 -0.0210 -0.7610
  834MPD2    H512322   0.640   3.159  12.585  1.2150 -2.0934 -1.1947
  834MPD2    N112323   0.577   2.909  12.067  0.1424 -0.4634  0.3398
  834MPD2    H712324   0.532   2.824  12.035  0.5035 -0.3716 -0.4309
  835MPD2     C12325   0.648   1.098  11.456  0.0866 -0.0469 -0.2995
  835MPD2    C112326   0.605   1.229  11.469 -0.3242  0.2719 -0.2481
  835MPD2    C212327   0.643   1.297  11.587  0.4129 -0.0940 -0.1575
  835MPD2    C312328   0.715   1.227  11.687  0.3049 -0.8641  0.0397
  835MPD2    C412329   0.757   1.098  11.669 -0.1752  0.2902  0.1722
  835MPD2    C512330   0.732   1.045  11.547 -0.3699  0.6792 -0.5357
  835MPD2     H12331   0.620   1.403  11.586 -0.6498 -0.3398 -1.9343
  835MPD2    H112332   0.827   1.041  11.729  1.1879  0.7386 -0.9696
  835MPD2    H212333   0.635   1.047  11.362 -1.0195 -0.3655  0.0169
  835MPD2    H312334   0.769   0.945  11.523  1.0733  1.9661 -3.6287
  835MPD2     N12335   0.758   1.284  11.810 -0.2331  0.5310 -0.4314
  835MPD2    H512336   0.790   1.210  11.872  0.8912  0.5472 -0.9906
  835MPD2    N112337   0.536   1.311  11.380 -0.1752  0.1339  0.1277
  835MPD2    H712338   0.530   1.408  11.407 -0.2119  0.0217  0.5195
  836MPD2     C12339   0.087   1.442  11.943  0.1377 -0.0298 -1.1558
  836MPD2    C112340   0.154   1.455  12.070  0.4095  0.2423  0.0720
  836MPD2    C212341   0.083   1.463  12.190 -0.2505 -0.3349 -0.5087
  836MPD2    C312342   4.684   1.461  12.186  0.0850  0.2930 -1.2792
  836MPD2    C412343   4.619   1.452  12.066  0.9081  0.2957  0.5114
  836MPD2    C512344   4.686   1.450  11.947 -0.3040  0.3743  0.7494
  836MPD2     H12345   0.127   1.480  12.288  0.0758  1.1954 -0.9113
  836MPD2    H112346   4.512   1.446  12.053  1.0888 -1.7032 -0.1106
  836MPD2    H212347   0.138   1.442  11.847  0.2673  1.8633 -1.0821
  836MPD2    H312348   4.624   1.432  11.860  2.1697  0.2127 -0.9884
  836MPD2     N12349   4.599   1.468  12.303 -0.5238 -0.1723 -0.3786
  836MPD2    H512350   4.501   1.461  12.280 -0.8069  2.1418  0.1346
  836MPD2    N112351   0.298   1.442  12.066 -0.2378  0.3808  0.2447
  836MPD2    H712352   0.348   1.460  11.979  1.5787  0.1394  1.2274
  837MPD2     C12353   3.841   1.020  10.647  0.8236  0.0925 -0.5274
  837MPD2    C112354   3.750   1.078  10.561  0.9125  0.3111 -0.9795
  837MPD2    C212355   3.702   1.198  10.596 -0.9750  0.2222 -0.2521
  837MPD2    C312356   3.741   1.270  10.706 -0.1732  0.0121  0.3641
  837MPD2    C412357   3.837   1.216  10.791  0.3986 -0.2468 -0.5661
  837MPD2    C512358   3.867   1.081  10.764  0.7854  0.3983 -0.3709
  837MPD2     H12359   3.641   1.252  10.525 -0.2037  2.1693  0.5517
  837MPD2    H112360   3.871   1.265  10.881 -1.4025  0.6079 -0.3405
  837MPD2    H212361   3.886   0.923  10.625 -1.3704 -0.8339 -0.9255
  837MPD2    H312362   3.951   1.036  10.814 -1.6960  0.7757  4.1222
  837MPD2     N12363   3.699   1.403  10.706  0.0008  0.4348  0.2881
  837MPD2    H512364   3.621   1.419  10.643  1.5839 -0.9794 -2.0287
  837MPD2    N112365   3.716   1.024  10.435  0.1530  0.1342 -0.4996
  837MPD2    H712366   3.678   1.085  10.363 -2.6052  1.1303  1.8202
  838MPD2     C12367   2.030   4.145  11.484  0.2001 -0.2736  0.2289
  838MPD2    C112368   2.016   4.129  11.619 -1.0575  0.1221 -0.0870
  838MPD2    C212369   1.925   4.035  11.660  0.3535  0.2829  0.2760
  838MPD2    C312370   1.859   3.957  11.574 -0.1589  0.5155  0.3449
  838MPD2    C412371   1.877   3.974  11.440  0.4543  0.6766 -0.3831
  838MPD2    C512372   1.963   4.069  11.388 -0.5525 -0.0395  0.0477
  838MPD2     H12373   1.906   4.018  11.765 -1.6522  3.4645  0.4261
  838MPD2    H112374   1.827   3.913  11.366  0.3575  2.3417 -1.6990
  838MPD2    H212375   2.101   4.221  11.455 -0.4830 -0.2553 -1.4474
  838MPD2    H312376   1.973   4.099  11.285  5.0378  0.3291  0.6852
  838MPD2     N12377   1.759   3.872  11.632  0.0624 -0.0780 -0.3981
  838MPD2    H512378   1.758   3.872  11.734  1.0601  0.1884 -0.3801
  838MPD2    N112379   2.101   4.201  11.707  0.3059  0.4342  0.3389
  838MPD2    H712380   2.182   4.237  11.657  0.6413 -2.6073 -1.3045
  839MPD2     C12381   1.818   3.592  11.924  0.5189 -0.4304  0.3561
  839MPD2    C112382   1.898   3.578  11.810 -0.4615  0.4300 -0.3283
  839MPD2    C212383   2.003   3.670  11.784  0.2340 -0.5181 -0.5067
  839MPD2    C312384   2.019   3.774  11.877 -0.7161  0.1849  0.0506
  839MPD2    C412385   1.935   3.781  11.985  0.3409 -0.6403 -0.7578
  839MPD2    C512386   1.833   3.697  12.005  0.1202  0.1340 -0.0661
  839MPD2     H12387   2.063   3.654  11.695  2.1041  2.0233  0.2966
  839MPD2    H112388   1.953   3.865  12.052 -4.9019 -0.4523  0.4813
  839MPD2    H212389   1.736   3.525  11.946  0.5723 -0.4393  0.5299
  839MPD2    H312390   1.775   3.707  12.096 -1.0680  0.8043 -0.8971
  839MPD2     N12391   2.138   3.854  11.900 -0.1843 -0.1455 -0.8792
  839MPD2    H512392   2.131   3.923  11.974  0.9986 -1.0139  0.0572
  839MPD2    N112393   1.881   3.466  11.721 -0.2068  1.0100 -0.6202
  839MPD2    H712394   1.935   3.471  11.635 -0.3219 -0.9638 -0.8061
  840MPD2     C12395   2.044   1.454  10.493  0.0903 -0.5618 -0.1314
  840MPD2    C112396   2.029   1.395  10.612 -0.1282 -0.2133  0.1725
  840MPD2    C212397   2.110   1.439  10.721  0.6555  0.5531 -0.2014
  840MPD2    C312398   2.200   1.543  10.705 -0.8024  0.9540 -0.2999
  840MPD2    C412399   2.201   1.611  10.584 -0.2496 -0.0464 -0.5875
  840MPD2    C512400   2.130   1.559  10.483  0.3909 -0.7356  0.2849
  840MPD2     H12401   2.110   1.388  10.816  1.3638  1.5670  0.3465
  840MPD2    H112402   2.276   1.685  10.558  0.3673 -1.5076 -3.0363
  840MPD2    H212403   1.981   1.432  10.408  0.7077  1.0665 -1.0019
  840MPD2    H312404   2.134   1.613  10.390 -0.3675 -2.0377 -0.5001
  840MPD2     N12405   2.286   1.598  10.805  0.7621  0.0599 -0.2892
  840MPD2    H512406   2.344   1.675  10.773 -0.5189  0.3256 -1.9981
  840MPD2    N112407   1.920   1.308  10.626 -0.1140 -0.4576 -0.1962
  840MPD2    H712408   1.868   1.267  10.549 -2.5912  2.0418  0.1565
  841MPD2     C12409   1.624   1.531  14.533 -0.2568  0.3463  0.9907
  841MPD2    C112410   1.654   1.399  14.564  0.0944 -0.1996 -0.1829
  841MPD2    C212411   1.778   1.385  14.629 -0.1671  0.1503 -0.6358
  841MPD2    C312412   1.875   1.479  14.622 -0.4359  0.3019 -0.3862
  841MPD2    C412413   1.840   1.607  14.589  0.0998  0.0505 -0.6919
  841MPD2    C512414   1.710   1.632  14.555 -0.1439 -0.0824  0.2240
  841MPD2     H12415   1.801   1.286  14.668 -0.3007 -0.0029 -0.9455
  841MPD2    H112416   1.908   1.691  14.592 -0.8240  0.7083  2.0247
  841MPD2    H212417   1.527   1.552  14.490  0.3827 -1.1451 -1.1456
  841MPD2    H312418   1.689   1.731  14.516 -0.6296 -0.6203 -0.8796
  841MPD2     N12419   2.009   1.443  14.650 -0.1842 -0.6591 -0.3434
  841MPD2    H512420   2.027   1.345  14.670  0.8468 -0.0761  1.6579
  841MPD2    N112421   1.571   1.282  14.552 -0.1644 -0.6719  0.2271
  841MPD2    H712422   1.608   1.195  14.588  1.6487 -0.2255 -0.5368
  842MPD2     C12423   2.591   2.413  16.699 -0.2740  0.3725  0.8846
  842MPD2    C112424   2.525   2.289  16.697  0.0665 -0.1816 -0.0380
  842MPD2    C212425   2.503   2.219  16.814  0.2520 -0.7501  0.7473
  842MPD2    C312426   2.541   2.275  16.934 -0.1866 -0.9552  0.7886
  842MPD2    C412427   2.602   2.394  16.941 -0.3526 -0.4152 -0.4585
  842MPD2    C512428   2.628   2.464  16.822  0.3282  0.0752 -0.4506
  842MPD2     H12429   2.429   2.141  16.799 -1.5598  0.8263  1.5434
  842MPD2    H112430   2.635   2.450  17.028 -2.8113 -1.9199  1.4249
  842MPD2    H212431   2.629   2.469  16.614 -1.2101 -2.1331 -1.1727
  842MPD2    H312432   2.689   2.554  16.827  1.5832 -0.8156  0.2705
  842MPD2     N12433   2.506   2.232  17.067 -0.1961 -0.2064  0.0747
  842MPD2    H512434   2.519   2.295  17.145  0.9664 -1.5268  0.9313
  842MPD2    N112435   2.477   2.252  16.566 -0.4559 -0.2424  0.4579
  842MPD2    H712436   2.480   2.326  16.497  1.8341  0.9335  1.8497
  843MPD2     C12437   4.417   3.047   0.197  0.2144 -0.0952 -0.1031
  843MPD2    C112438   4.471   3.022   0.319 -0.2334 -0.5431  0.1049
  843MPD2    C212439   4.589   3.092   0.341 -0.1510 -0.4843 -0.1718
  843MPD2    C312440   4.641   3.183   0.250 -0.6947 -0.1402 -0.4151
  843MPD2    C412441   4.587   3.194   0.130 -0.6549 -0.2659  0.4632
  843MPD2    C512442   4.471   3.125   0.106 -0.5429  0.0835 -0.2702
  843MPD2     H12443   4.632   3.087   0.441 -1.7452 -0.8785  0.4841
  843MPD2    H112444   4.624   3.264   0.056  0.3193 -2.0667 -0.7460
  843MPD2    H212445   4.322   3.003   0.168 -0.2707 -0.1742  1.6228
  843MPD2    H312446   4.417   3.144   0.014  0.8179 -0.8733 -1.2783
  843MPD2     N12447   0.023   3.262   0.273 -0.4048  0.2414 -0.6984
  843MPD2    H512448   0.072   3.305   0.196  0.4390 -0.1585 -0.3795
  843MPD2    N112449   4.412   2.928   0.405  0.5382 -0.0053 -0.6183
  843MPD2    H712450   4.334   2.870   0.375  0.7961 -0.0709 -1.1556
  844MPD2     C12451   2.630   1.420  16.677  0.2065  0.2305 -0.1000
  844MPD2    C112452   2.726   1.358  16.597 -0.0160  0.0951  1.1504
  844MPD2    C212453   2.862   1.390  16.613  0.1951 -0.0819 -0.0433
  844MPD2    C312454   2.901   1.488  16.700 -0.6119  0.6940 -0.0805
  844MPD2    C412455   2.810   1.552  16.774  1.1313 -0.2201  0.3916
  844MPD2    C512456   2.676   1.516  16.767  0.4428  0.1157  0.1879
  844MPD2     H12457   2.941   1.336  16.563 -0.6097 -0.3069 -1.0648
  844MPD2    H112458   2.854   1.626  16.840 -2.0117 -0.2517  2.4842
  844MPD2    H212459   2.524   1.401  16.669 -0.3892  3.2360  0.6788
  844MPD2    H312460   2.607   1.585  16.815  0.5853  1.0509 -0.9309
  844MPD2     N12461   3.041   1.513  16.713  0.1257  0.3053  0.0302
  844MPD2    H512462   3.108   1.442  16.684  0.6659  0.4357  0.9665
  844MPD2    N112463   2.697   1.258  16.497  0.4348  0.5422 -0.4513
  844MPD2    H712464   2.764   1.244  16.422 -0.5738 -0.0794 -1.2354
  845MPD2     C12465   3.624   2.226  17.155  0.3048 -0.1956  0.2150
  845MPD2    C112466   3.509   2.190  17.221 -0.1189 -0.8081  0.2256
  845MPD2    C212467   3.441   2.073  17.189 -0.1549  0.9835 -0.5413
  845MPD2    C312468   3.503   1.983  17.099 -0.5575  1.0381 -0.3263
  845MPD2    C412469   3.623   2.014  17.042 -0.2140  0.1362 -0.0983
  845MPD2    C512470   3.686   2.135  17.071 -0.9683  0.4836 -0.4444
  845MPD2     H12471   3.346   2.058  17.240  0.7576 -1.4564  0.4518
  845MPD2    H112472   3.673   1.947  16.973 -0.1343  0.5588 -0.4560
  845MPD2    H212473   3.674   2.322  17.161 -0.4726  0.2955 -1.3202
  845MPD2    H312474   3.785   2.163  17.035 -0.1666  1.1091  2.2804
  845MPD2     N12475   3.436   1.863  17.051 -0.3943  0.1323  0.0794
  845MPD2    H512476   3.337   1.854  17.072 -0.4264  0.9560  0.2581
  845MPD2    N112477   3.456   2.282  17.313  0.0324 -0.5002 -1.2942
  845MPD2    H712478   3.493   2.377  17.317 -1.6887  0.0909  0.2913
  846MPD2     C12479   4.705   2.949  13.898 -0.2355 -0.6145 -1.0259
  846MPD2    C112480   4.600   3.025  13.932 -0.4802  0.2149  0.0423
  846MPD2    C212481   4.543   3.017  14.060  0.6748 -0.0957 -0.3203
  846MPD2    C312482   4.587   2.923  14.145  0.2865  0.6777  0.4464
  846MPD2    C412483   4.696   2.844  14.116  0.4939  0.1867 -0.9149
  846MPD2    C512484   0.023   2.866  13.992  0.2451 -0.4521 -0.6024
  846MPD2     H12485   4.463   3.084  14.087 -0.5109 -1.3745 -0.6158
  846MPD2    H112486   0.008   2.775  14.185 -0.5804  0.3155 -0.0415
  846MPD2    H212487   0.016   2.951  13.800  1.6305  0.6825 -0.1172
  846MPD2    H312488   0.109   2.805  13.966  1.6427  1.2062  0.1228
  846MPD2     N12489   4.534   2.909  14.268  0.0630  0.1869  0.3467
  846MPD2    H512490   4.453   2.968  14.284  0.1626  0.7329 -1.2182
  846MPD2    N112491   4.534   3.111  13.843 -0.2354 -0.0749 -0.1124
  846MPD2    H712492   4.442   3.149  13.861 -0.1648 -0.6000  1.3593
  847MPD2     C12493   0.161   3.750  14.385  0.0899 -1.0287  0.2691
  847MPD2    C112494   0.252   3.776  14.488  0.1707 -0.6044 -0.9561
  847MPD2    C212495   0.312   3.670  14.559  0.0569  0.1996  0.1462
  847MPD2    C312496   0.276   3.542  14.529  0.1187  0.2988  0.3688
  847MPD2    C412497   0.188   3.504  14.427 -0.1450 -0.3002  0.7591
  847MPD2    C512498   0.128   3.617  14.362  0.5332 -0.2067 -0.0422
  847MPD2     H12499   0.371   3.678  14.649  0.7809 -2.1888 -0.1107
  847MPD2    H112500   0.163   3.403  14.397  0.0074 -0.4705  1.2242
  847MPD2    H212501   0.118   3.834  14.332  0.3693 -1.1859 -0.2080
  847MPD2    H312502   0.059   3.601  14.280  0.3009  0.4166  0.0333
  847MPD2     N12503   0.329   3.443  14.618  0.0750  0.5451 -0.2970
  847MPD2    H512504   0.393   3.484  14.685 -0.2092 -0.2232  0.4336
  847MPD2    N112505   0.282   3.903  14.542 -0.2040 -0.1508  0.4860
  847MPD2    H712506   0.340   3.902  14.625 -1.4721 -1.9272  1.3316
  848MPD2     C12507   2.833   2.190  16.493  1.1252  0.2089  0.8143
  848MPD2    C112508   2.858   2.233  16.621 -0.6194  0.1249 -0.4309
  848MPD2    C212509   2.903   2.365  16.639 -0.3703 -0.5998 -0.4580
  848MPD2    C312510   2.927   2.448  16.531 -0.5087 -0.6240  0.4286
  848MPD2    C412511   2.896   2.399  16.404  0.4062  0.0968 -0.0293
  848MPD2    C512512   2.837   2.274  16.389  0.4010 -0.0121 -0.5568
  848MPD2     H12513   2.914   2.408  16.738  2.2791  0.1704 -1.0638
  848MPD2    H112514   2.924   2.452  16.313 -1.9656 -1.5594 -1.7320
  848MPD2    H212515   2.800   2.090  16.468 -0.4833  1.7282 -3.1724
  848MPD2    H312516   2.825   2.234  16.289  0.1477 -1.1267 -0.0760
  848MPD2     N12517   2.966   2.578  16.539 -0.2746 -0.5593  0.0138
  848MPD2    H512518   2.948   2.624  16.450  1.4645  1.2809  0.6143
  848MPD2    N112519   2.854   2.151  16.737 -0.3695  0.1632 -0.5079
  848MPD2    H712520   2.887   2.192  16.824 -0.7067 -0.3336 -0.1483
  849MPD2     C12521   2.633   1.403  13.421 -0.8790  0.5964  0.6891
  849MPD2    C112522   2.595   1.532  13.371  0.0792 -0.5481 -0.2329
  849MPD2    C212523   2.649   1.646  13.420  0.5089  0.4789 -0.2108
  849MPD2    C312524   2.727   1.642  13.535 -0.2760 -0.2930 -0.0002
  849MPD2    C412525   2.756   1.515  13.593 -0.4560 -0.3223  1.1612
  849MPD2    C512526   2.710   1.396  13.541  0.1092 -0.4356  0.3008
  849MPD2     H12527   2.617   1.738  13.372 -1.5766  0.6718  1.5502
  849MPD2    H112528   2.804   1.501  13.689 -0.1588  1.6618  1.3164
  849MPD2    H212529   2.582   1.317  13.379 -2.5122  2.0402 -0.2527
  849MPD2    H312530   2.732   1.299  13.586 -0.2227 -1.3728 -1.5366
  849MPD2     N12531   2.781   1.752  13.603 -0.0776 -0.1761  0.0645
  849MPD2    H512532   2.837   1.728  13.684  0.2251  1.9653  0.4941
  849MPD2    N112533   2.503   1.553  13.267  0.4926  0.1683 -0.0808
  849MPD2    H712534   2.479   1.650  13.254 -4.4156 -1.1349 -0.5313
  850MPD2     C12535   4.667   4.417  15.188  1.1662  0.0635  0.4407
  850MPD2    C112536   4.653   4.492  15.295 -0.5388  0.8670 -0.1462
  850MPD2    C212537   0.034   4.549  15.349  0.3264  0.5486 -0.7439
  850MPD2    C312538   0.152   4.536  15.287  0.7513  0.5546  0.9014
  850MPD2    C412539   0.165   4.444  15.184 -0.0866 -0.0606 -0.4451
  850MPD2    C512540   0.054   4.392  15.135 -0.2087 -0.8218 -0.3326
  850MPD2     H12541   0.025   4.608  15.439 -1.7991  0.3312 -0.8112
  850MPD2    H112542   0.261   4.412  15.144 -0.7100 -2.1552 -0.2863
  850MPD2    H212543   4.579   4.370  15.146  2.4012 -2.4337  0.6295
  850MPD2    H312544   0.052   4.321  15.053  2.3705  0.9705 -1.9612
  850MPD2     N12545   0.272   4.591  15.340 -0.0432 -0.3404 -0.7741
  850MPD2    H512546   0.348   4.590  15.273  1.7920 -2.8704  1.3623
  850MPD2    N112547   4.519   4.517  15.328  0.0245 -0.0175  0.2524
  850MPD2    H712548   4.457   4.500  15.250  2.6502  1.3915 -2.1550
  851MPD2     C12549   0.286   4.179  15.960 -0.8354  0.4160 -0.2760
  851MPD2    C112550   0.196   4.176  15.855 -0.5352 -0.3892  0.2392
  851MPD2    C212551   0.197   4.066  15.778  0.2180 -1.0912  0.8344
  851MPD2    C312552   0.293   3.966  15.791  0.6702 -0.1623  0.7929
  851MPD2    C412553   0.386   3.978  15.891 -0.3355  0.6954 -0.8791
  851MPD2    C512554   0.378   4.082  15.980 -0.2175  0.0068 -0.1298
  851MPD2     H12555   0.126   4.054  15.696  2.7289 -2.1582 -1.1837
  851MPD2    H112556   0.470   3.908  15.896 -1.8659 -1.2544 -2.5525
  851MPD2    H212557   0.279   4.260  16.032 -0.1177  0.6967 -0.5177
  851MPD2    H312558   0.447   4.089  16.063 -0.7622 -0.4636  0.3580
  851MPD2     N12559   0.282   3.862  15.691 -0.5427 -0.3065  0.2714
  851MPD2    H512560   0.213   3.877  15.619  2.7944  1.8110 -2.4965
  851MPD2    N112561   0.103   4.286  15.832 -0.1820  0.3193 -0.1678
  851MPD2    H712562   0.097   4.362  15.899  0.7690  0.4469 -0.2252
  852MPD2     C12563   3.940   3.088  10.488  0.2653  0.6945 -0.0739
  852MPD2    C112564   4.042   3.099  10.579  0.1638  0.1614  1.1544
  852MPD2    C212565   4.164   3.161  10.537  0.5169  0.6439 -0.0411
  852MPD2    C312566   4.179   3.219  10.411 -0.0502  0.4436 -0.3385
  852MPD2    C412567   4.072   3.214  10.324  0.1514 -0.9442  0.1502
  852MPD2    C512568   3.958   3.148  10.363 -0.2456 -0.2226 -0.0453
  852MPD2     H12569   4.259   3.149  10.589 -0.6267 -0.5109  1.7538
  852MPD2    H112570   4.073   3.249  10.222 -1.1404 -1.0940  0.0914
  852MPD2    H212571   3.850   3.032  10.510  0.4022  0.3013 -0.5102
  852MPD2    H312572   3.879   3.155  10.289  0.6534 -0.4415 -1.0271
  852MPD2     N12573   4.316   3.253  10.367  0.4736 -0.3663 -0.2937
  852MPD2    H512574   4.399   3.235  10.423  0.7470 -0.8059 -0.8354
  852MPD2    N112575   4.053   3.030  10.699  0.1245 -0.7511 -0.3096
  852MPD2    H712576   4.133   3.050  10.758  0.3221 -0.1199 -0.8039
  853MPD2     C12577   1.068   2.147  12.248 -0.2869 -0.3174  0.1229
  853MPD2    C112578   0.967   2.232  12.288 -0.9426 -0.0265 -0.5266
  853MPD2    C212579   0.850   2.246  12.207 -0.0296  1.3189  0.0315
  853MPD2    C312580   0.842   2.191  12.079 -0.0103 -0.2815  0.5632
  853MPD2    C412581   0.949   2.114  12.032 -0.7402 -0.1935  0.2404
  853MPD2    C512582   1.058   2.098  12.124 -0.0512 -0.3618 -0.4943
  853MPD2     H12583   0.765   2.301  12.248 -1.5352 -0.1221 -1.1395
  853MPD2    H112584   0.948   2.068  11.934  0.9673 -1.3510  0.7732
  853MPD2    H212585   1.161   2.138  12.303  1.4069  0.7327 -2.5572
  853MPD2    H312586   1.143   2.039  12.091  0.9656  1.5187 -1.2291
  853MPD2     N12587   0.730   2.200  11.991  0.7411  0.0433 -0.4294
  853MPD2    H512588   0.735   2.135  11.913 -3.3627  0.0773 -0.7092
  853MPD2    N112589   0.982   2.309  12.407 -0.0110 -0.4460  0.5204
  853MPD2    H712590   1.067   2.294  12.460  1.0246 -1.2756 -1.3595
  854MPD2     C12591   3.036   2.999  13.306 -0.2431  0.2596  0.5050
  854MPD2    C112592   3.025   2.915  13.200  0.2389 -0.3759  0.6508
  854MPD2    C212593   3.099   2.800  13.195  0.1488 -0.0423  0.0638
  854MPD2    C312594   3.184   2.769  13.302  0.0110 -0.1178 -0.7743
  854MPD2    C412595   3.201   2.857  13.404  0.7604 -0.0381  0.1810
  854MPD2    C512596   3.131   2.973  13.400 -0.1573 -0.1228 -0.3074
  854MPD2     H12597   3.078   2.729  13.115 -2.3327 -0.0395  0.7204
  854MPD2    H112598   3.276   2.842  13.481  1.6685 -0.5749 -0.8224
  854MPD2    H212599   2.973   3.087  13.300  0.8849  1.0661  0.4090
  854MPD2    H312600   3.161   3.036  13.483 -2.5155 -0.7039  0.9851
  854MPD2     N12601   3.266   2.656  13.301  0.7909  0.6500 -0.3392
  854MPD2    H512602   3.311   2.625  13.386 -1.0956 -1.2441 -0.0148
  854MPD2    N112603   2.925   2.937  13.097 -0.1336 -0.3268 -0.6731
  854MPD2    H712604   2.847   3.002  13.105  1.9664  2.2126 -0.8729
  855MPD2     C12605   3.440   2.247  14.011 -0.8657 -0.3141 -0.2248
  855MPD2    C112606   3.461   2.136  13.932 -1.1068  0.0675 -0.1697
  855MPD2    C212607   3.457   2.150  13.794  0.4584 -0.2069 -0.0251
  855MPD2    C312608   3.426   2.278  13.750 -0.2436  0.3554 -0.2845
  855MPD2    C412609   3.407   2.388  13.827 -0.3901  0.0104 -0.2955
  855MPD2    C512610   3.418   2.373  13.962 -0.2288 -0.0898  0.1390
  855MPD2     H12611   3.469   2.069  13.723  1.2842 -1.3801  1.4563
  855MPD2    H112612   3.372   2.487  13.800 -1.3085  0.2207  1.6271
  855MPD2    H212613   3.428   2.249  14.119 -2.5146  1.6875 -0.4504
  855MPD2    H312614   3.392   2.461  14.019  0.6368 -0.7825  1.6039
  855MPD2     N12615   3.420   2.297  13.614  0.6511  0.3591 -0.5613
  855MPD2    H512616   3.389   2.390  13.587  2.0519  0.9570 -0.0626
  855MPD2    N112617   3.496   2.013  13.988 -0.2344  0.4486 -0.9497
  855MPD2    H712618   3.502   1.932  13.927  0.4036  0.9361 -1.5449
  856MPD2     C12619   0.686   3.208  14.126 -0.5578 -0.4532 -0.5646
  856MPD2    C112620   0.749   3.324  14.156  0.1027  0.2963 -0.2665
  856MPD2    C212621   0.688   3.446  14.151 -0.0569 -0.3664  0.6184
  856MPD2    C312622   0.552   3.451  14.133 -0.1560 -0.3803 -0.8851
  856MPD2    C412623   0.483   3.333  14.113  0.7168  0.1934 -0.4568
  856MPD2    C512624   0.553   3.211  14.107  0.2735  0.0101 -0.0826
  856MPD2     H12625   0.750   3.534  14.153 -0.2389 -0.2008 -0.8214
  856MPD2    H112626   0.378   3.331  14.087  0.7133 -3.0032 -0.1125
  856MPD2    H212627   0.744   3.117  14.131  3.5633  2.1451 -0.2877
  856MPD2    H312628   0.501   3.116  14.092  0.4069 -0.0097 -0.4088
  856MPD2     N12629   0.476   3.571  14.131  0.4352  0.4953 -0.0445
  856MPD2    H512630   0.379   3.564  14.104 -0.1700  2.0854  1.6913
  856MPD2    N112631   0.891   3.325  14.167  0.0998 -0.5842  0.0776
  856MPD2    H712632   0.928   3.418  14.186  0.8405 -0.4603 -1.9574
  857MPD2     C12633   1.997   0.766  12.633  0.1013  0.0386  0.4315
  857MPD2    C112634   2.130   0.738  12.596 -0.0105 -0.0289 -0.1645
  857MPD2    C212635   2.228   0.831  12.627 -0.1767 -0.1087  0.4399
  857MPD2    C312636   2.200   0.930  12.717 -0.7602  0.7283 -0.1070
  857MPD2    C412637   2.071   0.954  12.763  0.1603  0.6141 -0.4450
  857MPD2    C512638   1.975   0.881  12.710 -0.0926 -0.3801 -0.3586
  857MPD2     H12639   2.330   0.825  12.591  0.0292  1.8235  0.6558
  857MPD2    H112640   2.039   1.038  12.823 -0.8995  0.1803 -0.4094
  857MPD2    H212641   1.914   0.709  12.594 -0.2204 -0.3609  1.7113
  857MPD2    H312642   1.873   0.906  12.738  0.4240  0.9148  0.3806
  857MPD2     N12643   2.309   1.007  12.758 -0.2795  0.5246  0.1136
  857MPD2    H512644   2.404   0.975  12.740 -1.2882 -1.2153 -2.2154
  857MPD2    N112645   2.165   0.617  12.527 -0.2441 -0.4260  0.0044
  857MPD2    H712646   2.264   0.600  12.515  0.2182  1.6319  0.7334
  858MPD2     C12647   2.933   4.197  16.884  0.0536 -0.2770 -0.7107
  858MPD2    C112648   3.055   4.248  16.826  0.2243  0.6302  0.8485
  858MPD2    C212649   3.122   4.354  16.886  0.4224  0.1028 -0.7238
  858MPD2    C312650   3.070   4.419  16.995 -0.3440 -0.2083 -0.9218
  858MPD2    C412651   2.953   4.371  17.042 -0.6909 -0.3410  0.2440
  858MPD2    C512652   2.883   4.268  16.987 -0.3668  0.0031 -0.1803
  858MPD2     H12653   3.213   4.385  16.834  0.7032 -1.6188 -1.2619
  858MPD2    H112654   2.913   4.417  17.132  1.2880  1.0009  0.4546
  858MPD2    H212655   2.886   4.102  16.860 -1.8256  0.4461  0.0502
  858MPD2    H312656   2.787   4.241  17.030 -0.7801  0.9605 -0.5234
  858MPD2     N12657   3.144   4.519  17.070  0.0417  0.3435 -0.1705
  858MPD2    H512658   3.109   4.540  17.163  0.0704  2.2733 -0.6082
  858MPD2    N112659   3.110   4.169  16.722  0.2216 -0.4162 -0.0716
  858MPD2    H712660   3.057   4.085  16.700 -0.7934  0.6200 -1.5431
  859MPD2     C12661   1.989   1.746  15.624  0.2787  0.7076 -0.3465
  859MPD2    C112662   1.989   1.673  15.509  0.1576 -0.9083 -0.4090
  859MPD2    C212663   1.989   1.535  15.525  0.7498 -0.4359  0.8559
  859MPD2    C312664   1.982   1.475  15.652 -0.6773  0.4118 -0.1956
  859MPD2    C412665   1.989   1.553  15.764 -0.1318 -0.2235 -0.2888
  859MPD2    C512666   1.983   1.692  15.751 -0.2986  0.4482  0.2106
  859MPD2     H12667   2.001   1.470  15.439 -1.2670 -1.6441  1.4884
  859MPD2    H112668   2.014   1.512  15.861 -0.3770 -0.1068 -0.1752
  859MPD2    H212669   2.002   1.853  15.615 -2.2722  0.7950 -2.7851
  859MPD2    H312670   1.997   1.762  15.833  0.9948  0.5780 -0.1153
  859MPD2     N12671   1.993   1.331  15.660 -0.7368  0.1554  0.1349
  859MPD2    H512672   2.019   1.290  15.748 -0.8813 -0.0111  0.1001
  859MPD2    N112673   2.004   1.737  15.388  0.7452  0.4994 -0.1216
  859MPD2    H712674   2.050   1.827  15.394  1.3940  0.0648  1.3666
  860MPD2     C12675   4.055   2.547  11.782 -0.0810 -0.4953 -0.4234
  860MPD2    C112676   4.010   2.471  11.891 -0.7001 -0.0642 -0.6723
  860MPD2    C212677   3.897   2.514  11.959  0.5671 -0.5801  0.7270
  860MPD2    C312678   3.832   2.631  11.925 -0.0782  0.7546  0.0846
  860MPD2    C412679   3.869   2.700  11.811  0.4415 -0.2386  0.5755
  860MPD2    C512680   3.982   2.654  11.743  0.1214 -0.2539  0.0208
  860MPD2     H12681   3.874   2.456  12.048 -3.0103  1.1130  0.9188
  860MPD2    H112682   3.833   2.798  11.781  3.9411  0.6754 -0.6000
  860MPD2    H212683   4.143   2.530  11.722  0.5328 -0.3734  0.4346
  860MPD2    H312684   4.024   2.703  11.656  2.7365 -0.9488  0.9104
  860MPD2     N12685   3.728   2.673  12.014 -0.6488 -0.3684 -0.3910
  860MPD2    H512686   3.719   2.606  12.090 -1.1714  0.3411  0.1834
  860MPD2    N112687   4.079   2.370  11.954 -0.6006  0.1322 -0.6633
  860MPD2    H712688   4.034   2.338  12.039 -0.4472  0.4716 -0.4514
  861MPD2     C12689   3.320   0.581  11.303  0.7871 -0.5521  0.1647
  861MPD2    C112690   3.352   0.714  11.301  0.6791 -0.7271  0.1580
  861MPD2    C212691   3.294   0.795  11.205  0.6514 -0.2421 -0.3652
  861MPD2    C312692   3.214   0.739  11.099  0.3574  0.7468  0.6805
  861MPD2    C412693   3.197   0.604  11.097  0.0821 -0.3393 -0.1003
  861MPD2    C512694   3.260   0.525  11.190 -1.6826  0.4251 -0.2781
  861MPD2     H12695   3.305   0.901  11.223  0.6494 -0.1378 -0.9797
  861MPD2    H112696   3.136   0.554  11.023  1.1333 -1.0478 -0.4927
  861MPD2    H212697   3.360   0.509  11.373 -1.5091 -1.2766  0.7356
  861MPD2    H312698   3.243   0.418  11.185  0.1189  0.1610 -0.7840
  861MPD2     N12699   3.156   0.809  10.991 -0.5256 -0.3303  0.5796
  861MPD2    H512700   3.077   0.764  10.945 -1.9553  0.9132  1.8446
  861MPD2    N112701   3.427   0.765  11.412  0.0401  0.1049 -0.2768
  861MPD2    H712702   3.459   0.860  11.399 -1.3843  0.5859 -0.2976
  862MPD2     C12703   2.829   0.546  10.462  0.3642 -0.0070 -0.6211
  862MPD2    C112704   2.884   0.568  10.585 -0.3093  0.0795  0.0791
  862MPD2    C212705   2.868   0.468  10.684 -0.0839  0.7330  0.4762
  862MPD2    C312706   2.779   0.362  10.676  0.6737 -0.7795 -0.3611
  862MPD2    C412707   2.716   0.345  10.552 -0.1683 -0.0912  0.2289
  862MPD2    C512708   2.745   0.435  10.446  0.4872  1.1551 -0.0573
  862MPD2     H12709   2.923   0.485  10.775 -0.4592 -1.0709  1.0302
  862MPD2    H112710   2.644   0.265  10.539  0.6242 -0.7067 -0.3447
  862MPD2    H212711   2.836   0.615  10.378  1.1590 -1.2010 -1.5324
  862MPD2    H312712   2.689   0.419  10.354 -1.5354  1.1505  1.1696
  862MPD2     N12713   2.744   0.290  10.789  0.2607  0.5715 -0.2516
  862MPD2    H512714   2.683   0.211  10.772  1.0837 -0.0129 -0.4185
  862MPD2    N112715   2.953   0.681  10.621 -0.4068  0.9057  0.1524
  862MPD2    H712716   2.965   0.688  10.722 -1.1307 -3.6779  0.5724
  863MPD2     C12717   1.615   3.045  16.414 -0.7625 -0.4889 -0.4732
  863MPD2    C112718   1.624   3.166  16.482 -0.5380  0.1256  0.0682
  863MPD2    C212719   1.722   3.180  16.572  0.2480 -0.7065 -0.4304
  863MPD2    C312720   1.807   3.070  16.613 -0.7218 -0.3597 -0.7320
  863MPD2    C412721   1.785   2.951  16.558  1.1972  0.1459 -0.0615
  863MPD2    C512722   1.691   2.940  16.463  0.7026 -0.0036  0.8097
  863MPD2     H12723   1.732   3.281  16.609 -0.5532 -1.0590  0.7673
  863MPD2    H112724   1.853   2.875  16.593  0.1324  0.4198  2.6513
  863MPD2    H212725   1.548   3.031  16.330  0.4484  1.2186 -1.7418
  863MPD2    H312726   1.692   2.844  16.411  2.1296  0.1079  0.6251
  863MPD2     N12727   1.897   3.080  16.718  0.7460 -0.3935  0.0187
  863MPD2    H512728   1.953   2.998  16.741 -0.3239 -1.1552 -0.1233
  863MPD2    N112729   1.534   3.268  16.435 -0.3775  0.3744 -0.2182
  863MPD2    H712730   1.463   3.248  16.364  2.3570  0.6822 -3.0349
  864MPD2     C12731   2.222   4.089  17.691 -0.3005 -0.5507 -1.0711
  864MPD2    C112732   2.195   4.091  17.557  0.0685  0.3822 -0.8065
  864MPD2    C212733   2.231   4.211  17.488  0.6501  0.4919 -0.1394
  864MPD2    C312734   2.284   4.320  17.553 -0.0338 -0.0568 -0.8264
  864MPD2    C412735   2.304   4.315  17.689  0.0548 -0.1448 -0.1834
  864MPD2    C512736   2.275   4.199   0.012 -0.3631  0.1548  0.2069
  864MPD2     H12737   2.216   4.221  17.381 -0.3109  2.0159  0.1455
  864MPD2    H112738   2.351   4.395   0.003  0.1241  0.1196 -0.6222
  864MPD2    H212739   2.204   4.006   0.017 -1.5984  0.4539 -0.1923
  864MPD2    H312740   2.292   4.192   0.119 -0.2711 -1.1116  0.1049
  864MPD2     N12741   2.318   4.445  17.490 -0.0261  0.2271  0.1781
  864MPD2    H512742   2.346   4.515  17.559  0.2460  1.3007 -1.0167
  864MPD2    N112743   2.151   3.963  17.499  0.3319 -0.1057 -0.4978
  864MPD2    H712744   2.144   3.879  17.555 -1.1322 -0.6663 -1.5110
  865MPD2     C12745   2.310   0.107  16.605  0.5294  0.1275  0.6345
  865MPD2    C112746   2.304   4.718  16.657 -0.5522 -0.2052  0.3063
  865MPD2    C212747   2.291   4.703  16.796  0.0603  0.0184  0.3682
  865MPD2    C312748   2.280   0.078  16.880  0.0325 -0.1048 -0.3876
  865MPD2    C412749   2.271   0.202  16.821  0.3174  0.1572 -0.1610
  865MPD2    C512750   2.295   0.213  16.687  0.2708  0.4032 -0.3704
  865MPD2     H12751   2.300   4.602  16.834 -0.6859 -0.2792 -0.2353
  865MPD2    H112752   2.260   0.292  16.881 -2.3752  1.0618 -2.0258
  865MPD2    H212753   2.323   0.125  16.499 -1.1187  2.6809  0.8543
  865MPD2    H312754   2.315   0.309  16.640  0.6988  0.7069  0.4419
  865MPD2     N12755   2.274   0.047  17.023  0.2679  0.3884 -0.4962
  865MPD2    H512756   2.287   4.684  17.043 -0.3155  0.3934 -0.0930
  865MPD2    N112757   2.317   4.609  16.570  0.0502  0.2067 -0.2662
  865MPD2    H712758   2.340   4.634  16.475  0.0408  0.6684 -0.1488
  866MPD2     C12759   3.810   1.220  11.672  0.1190  0.0020 -0.9686
  866MPD2    C112760   3.785   1.115  11.587  0.4321 -0.2950 -0.1635
  866MPD2    C212761   3.674   1.121  11.498  0.5544 -0.2446  0.4210
  866MPD2    C312762   3.603   1.235  11.495  0.6842 -0.1312  0.0610
  866MPD2    C412763   3.631   1.341  11.570  0.7288  0.7427  0.0488
  866MPD2    C512764   3.738   1.331  11.652  0.4053 -0.4153  0.3753
  866MPD2     H12765   3.654   1.039  11.431  0.9172 -0.7961  0.9898
  866MPD2    H112766   3.575   1.433  11.559 -0.8882 -0.2502 -0.0498
  866MPD2    H212767   3.893   1.223  11.742 -0.5806  0.7397 -0.1804
  866MPD2    H312768   3.763   1.423  11.703 -3.1619  0.0332  1.3202
  866MPD2     N12769   3.484   1.247  11.415 -0.1051 -0.4081 -0.1841
  866MPD2    H512770   3.431   1.333  11.424 -0.9098 -0.7976 -1.2067
  866MPD2    N112771   3.868   0.999  11.590  0.2667  0.1033 -0.0778
  866MPD2    H712772   3.945   1.010  11.654  0.9353 -0.3298 -0.8087
  867MPD2     C12773   0.848   4.400  16.663 -0.3316  0.5951  0.0951
  867MPD2    C112774   0.919   4.416  16.780  0.3575  0.0597 -0.4222
  867MPD2    C212775   0.890   4.519  16.870 -0.5155 -0.1703 -0.0749
  867MPD2    C312776   0.788   4.607  16.836 -0.3477  0.1205 -0.0958
  867MPD2    C412777   0.715   4.590  16.720  0.0126  0.1342 -0.5603
  867MPD2    C512778   0.748   4.483  16.635  0.3470 -0.1870 -0.2832
  867MPD2     H12779   0.945   4.536  16.962  0.5182 -2.1016 -0.3258
  867MPD2    H112780   0.637   4.663  16.702  0.8139  0.9900 -0.5545
  867MPD2    H212781   0.878   4.324  16.592  0.7098 -0.0399  1.2128
  867MPD2    H312782   0.701   4.477  16.538 -0.0313 -0.2768 -0.0941
  867MPD2     N12783   0.748   4.713  16.917  0.3505 -0.3598  0.5060
  867MPD2    H512784   0.657   0.018  16.903  0.0715 -0.8506  0.9092
  867MPD2    N112785   1.031   4.332  16.795 -0.1206  0.6718  0.5199
  867MPD2    H712786   1.044   4.264  16.722 -0.8053  2.5072 -1.3056
  868MPD2     C12787   2.801   4.298  13.515  0.2400 -0.2391 -0.0090
  868MPD2    C112788   2.862   4.179  13.485  0.2233 -0.0006 -0.2098
  868MPD2    C212789   2.784   4.074  13.452 -0.1416 -0.1479 -0.4676
  868MPD2    C312790   2.646   4.083  13.458 -0.5354 -0.7721 -0.7795
  868MPD2    C412791   2.589   4.203  13.496  0.5302  0.5885  0.1145
  868MPD2    C512792   2.666   4.310  13.521  1.2548  0.0044  0.2750
  868MPD2     H12793   2.827   3.979  13.421  1.2006  0.8481 -1.6297
  868MPD2    H112794   2.482   4.210  13.512  0.7446  0.1263  1.7529
  868MPD2    H212795   2.862   4.385  13.532  1.7463 -1.2656 -0.1885
  868MPD2    H312796   2.620   4.405  13.548  1.7020  0.1540  0.5140
  868MPD2     N12797   2.573   3.965  13.440 -0.0132  0.4631 -0.1725
  868MPD2    H512798   2.625   3.878  13.441 -1.3210 -0.3025  2.2613
  868MPD2    N112799   2.999   4.173  13.486 -0.0154 -0.6624  0.5388
  868MPD2    H712800   3.047   4.262  13.487 -1.9556  0.3448  3.0318
  869MPD2     C12801   0.771   2.957   1.333 -0.1257  0.6173  0.1728
  869MPD2    C112802   0.765   2.836   1.397 -1.2380  0.3835 -0.0452
  869MPD2    C212803   0.645   2.804   1.458 -0.0259  0.1778 -0.0799
  869MPD2    C312804   0.535   2.894   1.450 -0.3882 -0.0027 -0.0854
  869MPD2    C412805   0.544   3.005   1.373  0.7481  0.5914 -0.0987
  869MPD2    C512806   0.661   3.044   1.322 -0.2588 -0.4593  0.3363
  869MPD2     H12807   0.652   2.725   1.531 -1.9374 -1.1278 -1.3205
  869MPD2    H112808   0.456   3.061   1.343  0.0478 -1.5594 -2.0550
  869MPD2    H212809   0.862   2.986   1.283  0.2308 -1.2058 -0.2081
  869MPD2    H312810   0.662   3.136   1.264  1.9915 -1.4931 -1.2466
  869MPD2     N12811   0.405   2.868   1.501  0.5436  0.5210 -0.8524
  869MPD2    H512812   0.330   2.935   1.491  0.8162  1.6438  4.4427
  869MPD2    N112813   0.879   2.752   1.399  0.2754 -0.1239  0.0835
  869MPD2    H712814   0.966   2.788   1.360 -1.4043  1.3410 -2.3634
  870MPD2     C12815   4.183   1.099   1.508  0.2984 -0.2350 -0.3503
  870MPD2    C112816   4.091   1.003   1.467 -0.3165  0.4764  0.2954
  870MPD2    C212817   3.960   1.046   1.444 -0.7701 -0.1450  0.6060
  870MPD2    C312818   3.925   1.174   1.478  0.4059 -0.4558 -0.8798
  870MPD2    C412819   4.015   1.269   1.517 -0.3821  0.1092  0.6066
  870MPD2    C512820   4.141   1.228   1.533  0.3005  0.2073  0.1698
  870MPD2     H12821   3.872   0.983   1.440 -0.4315 -0.7637  3.0575
  870MPD2    H112822   3.990   1.374   1.526  1.9309  0.6540  0.7721
  870MPD2    H212823   4.280   1.069   1.547  1.1036  1.8756 -0.7177
  870MPD2    H312824   4.205   1.306   1.573  2.1288 -0.6092 -1.1683
  870MPD2     N12825   3.784   1.206   1.477  0.0182 -0.3671 -0.0240
  870MPD2    H512826   3.725   1.141   1.426  0.8139  0.8092 -2.4403
  870MPD2    N112827   4.135   0.865   1.458  0.0175 -0.3585  0.4129
  870MPD2    H712828   4.233   0.843   1.475  0.5390 -0.2757 -2.3994
  871MPD2     C12829   4.604   0.413  16.584  0.0812  0.3186  0.3726
  871MPD2    C112830   4.542   0.330  16.671  0.5922 -0.9304 -0.4511
  871MPD2    C212831   4.532   0.194  16.624  0.2161  0.2136 -0.4363
  871MPD2    C312832   4.572   0.141  16.505  0.5123  0.5218 -0.0769
  871MPD2    C412833   4.630   0.238  16.418 -0.7366  0.4310 -0.3865
  871MPD2    C512834   4.629   0.378  16.451  0.4643 -0.1162  0.3208
  871MPD2     H12835   4.492   0.119  16.691  0.1259 -0.0845 -0.8192
  871MPD2    H112836   4.654   0.217  16.314  1.4244 -0.0594  0.2189
  871MPD2    H212837   4.616   0.518  16.608 -1.3477  0.5522  0.1058
  871MPD2    H312838   4.672   0.449  16.381 -0.9884  1.6285  1.1785
  871MPD2     N12839   4.580   0.007  16.465 -0.5276  0.4630 -0.0272
  871MPD2    H512840   4.633   4.722  16.382  0.2296  1.4838  0.1916
  871MPD2    N112841   4.504   0.372  16.801 -0.0202  0.3317  0.9054
  871MPD2    H712842   4.525   0.470  16.818  0.3622  0.1123  1.7069
  872MPD2     C12843   0.669   2.361  13.843  0.5719 -0.6201  0.1597
  872MPD2    C112844   0.617   2.475  13.898 -0.2127  0.5814  0.1539
  872MPD2    C212845   0.491   2.473  13.952 -0.0129 -0.1804  0.2595
  872MPD2    C312846   0.426   2.349  13.971 -0.5087  0.6435  0.9996
  872MPD2    C412847   0.494   2.226  13.942  0.0914  0.3093 -0.2191
  872MPD2    C512848   0.612   2.237  13.874 -0.4510 -0.3530  0.1003
  872MPD2     H12849   0.441   2.561  13.992 -2.1417 -1.0321 -0.5677
  872MPD2    H112850   0.455   2.126  13.955  1.0692 -0.1730 -1.0589
  872MPD2    H212851   0.771   2.349  13.808  0.2461 -0.5389 -0.8143
  872MPD2    H312852   0.665   2.155  13.828 -1.6515  0.1377 -2.1711
  872MPD2     N12853   0.315   2.336  14.054 -0.6333 -0.0639  0.1071
  872MPD2    H512854   0.282   2.242  14.075  0.2205 -0.6719 -1.2813
  872MPD2    N112855   0.686   2.600  13.907 -0.0769  0.1499  0.1601
  872MPD2    H712856   0.635   2.684  13.931  0.8873  1.2461 -1.6250
  873MPD2     C12857   3.285   2.555   0.846  0.1918 -0.6223  0.7571
  873MPD2    C112858   3.160   2.518   0.880 -0.8744 -0.4941  0.2936
  873MPD2    C212859   3.126   2.381   0.880  0.0951  0.1930 -0.1149
  873MPD2    C312860   3.212   2.286   0.837 -0.6220  0.3295  0.4010
  873MPD2    C412861   3.331   2.329   0.782 -0.5080  0.2964 -0.6609
  873MPD2    C512862   3.367   2.462   0.789 -0.1518  0.5375  0.5437
  873MPD2     H12863   3.035   2.354   0.933 -0.2853 -1.7013 -1.7525
  873MPD2    H112864   3.412   2.262   0.755  1.0296  1.2876  1.4235
  873MPD2    H212865   3.333   2.651   0.857  0.5385 -0.6691 -0.3371
  873MPD2    H312866   3.466   2.485   0.752  1.1336 -1.0105  2.9998
  873MPD2     N12867   3.195   2.146   0.857 -0.2747  0.2779 -0.1729
  873MPD2    H512868   3.274   2.084   0.842  0.5193  1.1783  0.2539
  873MPD2    N112869   3.081   2.615   0.948  0.3912  0.3754 -0.8169
  873MPD2    H712870   3.125   2.701   0.978 -2.1997  1.6279 -0.6044
  874MPD2     C12871   2.443   2.768  16.110  0.5671  0.3646 -0.5587
  874MPD2    C112872   2.419   2.697  16.227 -0.1488 -0.6744 -0.3920
  874MPD2    C212873   2.482   2.744  16.339 -0.3671  0.0351  0.9273
  874MPD2    C312874   2.556   2.860  16.332  0.6052  1.3801  0.4034
  874MPD2    C412875   2.578   2.936  16.221  0.5148 -0.1393 -0.5090
  874MPD2    C512876   2.515   2.886  16.108 -0.4461  0.4772 -0.1633
  874MPD2     H12877   2.478   2.697  16.436 -0.2459  0.2165  1.0178
  874MPD2    H112878   2.629   3.031  16.211 -0.5603  0.3971 -0.9192
  874MPD2    H212879   2.399   2.737  16.016  2.3769  0.7288 -1.5268
  874MPD2    H312880   2.510   2.937  16.013  0.4727 -0.7232 -0.8608
  874MPD2     N12881   2.622   2.899  16.453 -0.4083  0.1621  0.1467
  874MPD2    H512882   2.604   2.840  16.534 -0.2520  1.9354  1.4698
  874MPD2    N112883   2.351   2.573  16.215 -0.2824 -0.1121  0.0291
  874MPD2    H712884   2.316   2.543  16.125 -0.2687  0.0717 -0.0360
  875MPD2     C12885   3.310   0.795  14.967 -0.1766  0.1794  0.0636
  875MPD2    C112886   3.188   0.762  15.025 -0.3821  0.1942 -0.7477
  875MPD2    C212887   3.168   0.796  15.160  0.2136 -0.2797 -0.3074
  875MPD2    C312888   3.281   0.854  15.224 -0.0665  0.1932 -0.6739
  875MPD2    C412889   3.406   0.874  15.166 -0.0583  0.2008  0.1096
  875MPD2    C512890   3.416   0.854  15.033 -0.1061  0.5770  0.2267
  875MPD2     H12891   3.073   0.781  15.209  0.3796 -0.0153  0.0892
  875MPD2    H112892   3.477   0.932  15.225  1.4773 -2.4510  0.8315
  875MPD2    H212893   3.340   0.780  14.864  2.6435 -1.0808  1.0583
  875MPD2    H312894   3.509   0.881  14.985  0.4639 -2.0062 -0.1092
  875MPD2     N12895   3.282   0.896  15.358 -0.2327  0.1889  0.3093
  875MPD2    H512896   3.369   0.934  15.397  0.2897 -0.9084  0.1996
  875MPD2    N112897   3.080   0.701  14.962  0.0559  0.7662  0.4726
  875MPD2    H712898   2.990   0.691  15.008 -1.9139 -1.5581 -3.8422
  876MPD2     C12899   2.621   2.397  15.939 -0.1853  0.8438  0.0149
  876MPD2    C112900   2.514   2.349  15.880  0.4710 -0.0943  0.8920
  876MPD2    C212901   2.462   2.227  15.920  0.3746 -0.3983  0.7088
  876MPD2    C312902   2.516   2.152  16.020 -0.8079  0.1670  0.9007
  876MPD2    C412903   2.627   2.205  16.084 -0.2720 -0.8376  1.1735
  876MPD2    C512904   2.684   2.323  16.033  0.4635 -0.3478 -0.6468
  876MPD2     H12905   2.372   2.190  15.872 -0.2273  0.9410  0.8247
  876MPD2    H112906   2.679   2.143  16.157  2.8082 -2.0111 -1.9865
  876MPD2    H212907   2.672   2.487  15.904 -0.3507  0.9802  0.1261
  876MPD2    H312908   2.782   2.348  16.072  0.2482  1.3117 -1.1730
  876MPD2     N12909   2.461   2.023  16.053  0.0584  0.0122  0.2715
  876MPD2    H512910   2.395   1.990  15.984 -0.8709  0.9748  0.6982
  876MPD2    N112911   2.463   2.430  15.774 -0.4068 -0.5307  0.7799
  876MPD2    H712912   2.517   2.514  15.759 -0.1959 -0.7950  0.0449
  877MPD2     C12913   1.868   2.370  15.223 -0.4996 -0.2299  0.1711
  877MPD2    C112914   1.989   2.403  15.163  0.0631 -0.1959 -0.0932
  877MPD2    C212915   2.011   2.367  15.035 -0.5352 -0.9238  0.7603
  877MPD2    C312916   1.927   2.292  14.960 -0.1138  0.3197 -0.6328
  877MPD2    C412917   1.808   2.253  15.020  0.0239  0.2007  0.7082
  877MPD2    C512918   1.780   2.300  15.152 -0.6593 -0.6260 -0.0028
  877MPD2     H12919   2.106   2.392  14.988  0.0733 -1.6092  1.6281
  877MPD2    H112920   1.738   2.184  14.974  1.9328 -1.2084 -0.0592
  877MPD2    H212921   1.846   2.391  15.327 -0.4092  1.9362 -0.2496
  877MPD2    H312922   1.691   2.261  15.200  0.3128 -0.3352  2.0370
  877MPD2     N12923   1.951   2.248  14.823  0.7523  0.6061 -0.3516
  877MPD2    H512924   1.899   2.169  14.786 -1.9154  2.3149 -0.2611
  877MPD2    N112925   2.089   2.479  15.233  0.2452  0.3034  0.3935
  877MPD2    H712926   2.170   2.497  15.174 -0.3907 -1.8814 -1.1380
  878MPD2     C12927   1.514   1.429  12.836  0.0732  0.2246  0.4132
  878MPD2    C112928   1.572   1.528  12.760  0.9879  0.3649  0.1089
  878MPD2    C212929   1.701   1.568  12.796  0.7606 -0.6181 -0.0732
  878MPD2    C312930   1.775   1.499  12.893 -0.3401  0.4619 -0.8283
  878MPD2    C412931   1.711   1.397  12.968  0.1235 -0.2776 -1.1424
  878MPD2    C512932   1.584   1.363  12.935 -0.4383 -0.2915 -0.3786
  878MPD2     H12933   1.766   1.640  12.749  0.4264  0.4957  1.1467
  878MPD2    H112934   1.763   1.336  13.041  1.2280  0.9279 -0.9163
  878MPD2    H212935   1.410   1.410  12.814 -0.3281  0.6766  1.9757
  878MPD2    H312936   1.540   1.286  12.997 -0.6604 -0.2084 -0.4338
  878MPD2     N12937   1.907   1.542  12.916  0.2068  0.5254  0.3313
  878MPD2    H512938   1.940   1.622  12.863 -1.0668 -0.2323 -1.6026
  878MPD2    N112939   1.487   1.582  12.666  0.0233 -0.3329  0.0548
  878MPD2    H712940   1.403   1.527  12.651  0.2054 -0.0611 -1.9572
  879MPD2     C12941   2.627   3.350  16.702  0.5306  0.0819  0.7051
  879MPD2    C112942   2.567   3.277  16.790  0.1235  0.5422 -0.4863
  879MPD2    C212943   2.472   3.184  16.748  0.6076 -0.1689  0.5154
  879MPD2    C312944   2.442   3.172  16.610 -0.0134 -0.4051  0.7216
  879MPD2    C412945   2.508   3.257  16.520 -0.2154 -0.0979 -0.1532
  879MPD2    C512946   2.593   3.350  16.570 -0.1960 -0.4661 -0.3494
  879MPD2     H12947   2.417   3.118  16.814 -0.7060 -1.4514 -1.8708
  879MPD2    H112948   2.484   3.255  16.414 -1.0441  0.1917  0.0328
  879MPD2    H212949   2.691   3.432  16.732 -0.7496  1.3679 -0.0463
  879MPD2    H312950   2.628   3.429  16.504  0.6759 -1.5597 -1.1985
  879MPD2     N12951   2.344   3.093  16.557  0.5953  0.3110  0.6683
  879MPD2    H512952   2.330   3.103  16.457  1.9353 -2.6527  0.1732
  879MPD2    N112953   2.613   3.293  16.920  1.2141  1.1556  0.1244
  879MPD2    H712954   2.673   3.374  16.932  2.2167  0.2738  1.1249
  880MPD2     C12955   3.456   0.102   0.378 -0.2283  0.3610 -0.4808
  880MPD2    C112956   3.514   0.156   0.492 -0.6752 -0.6081 -0.0767
  880MPD2    C212957   3.590   0.075   0.572 -0.9262  0.4135  0.3389
  880MPD2    C312958   3.619   4.681   0.530 -0.2645  0.9439  0.1820
  880MPD2    C412959   3.565   4.627   0.416 -0.5766 -0.3012  0.3941
  880MPD2    C512960   3.480   4.706   0.343  0.1066 -0.3695  0.1709
  880MPD2     H12961   3.627   0.110   0.668 -2.5853  2.0169  0.3980
  880MPD2    H112962   3.581   4.524   0.389 -0.9356  0.0512 -1.1407
  880MPD2    H212963   3.390   0.161   0.316 -1.5978  0.4607  1.0645
  880MPD2    H312964   3.426   4.674   0.255 -0.7064  0.1362  0.4736
  880MPD2     N12965   3.701   4.608   0.615 -0.0910 -0.4341  0.1948
  880MPD2    H512966   3.736   4.664   0.692 -0.0529  0.7031 -0.6512
  880MPD2    N112967   3.472   0.290   0.525  0.0549  0.3260 -0.1065
  880MPD2    H712968   3.426   0.349   0.457  0.4045  2.3166  1.4072
  881MPD2     C12969   3.605   1.202   0.185 -0.3587 -0.5781  0.4295
  881MPD2    C112970   3.610   1.075   0.142  0.3970 -0.5418 -0.3917
  881MPD2    C212971   3.609   0.979   0.238  0.4588 -0.0929  0.6368
  881MPD2    C312972   3.571   1.009   0.366  0.4177  0.9452 -0.6490
  881MPD2    C412973   3.547   1.141   0.401  0.2456 -0.2304  0.4044
  881MPD2    C512974   3.555   1.241   0.310  0.6273  0.2295  0.2305
  881MPD2     H12975   3.623   0.877   0.205 -3.1127 -1.3302  3.0010
  881MPD2    H112976   3.530   1.174   0.503  0.2412  3.8156 -0.8892
  881MPD2    H212977   3.604   1.274   0.104 -3.2652 -1.3141 -0.2076
  881MPD2    H312978   3.538   1.348   0.324  0.4162  0.4016 -1.3050
  881MPD2     N12979   3.548   0.912   0.463  0.5546  0.3007 -0.3638
  881MPD2    H512980   3.521   0.940   0.557 -1.7435  0.1142 -0.9616
  881MPD2    N112981   3.664   1.055   0.011 -0.0325 -0.0973 -0.3246
  881MPD2    H712982   3.674   1.135  17.691  1.0342  0.2347  0.2900
  882MPD2     C12983   1.784   1.839  14.118  0.7165  0.8531 -0.1754
  882MPD2    C112984   1.784   1.956  14.190  0.2759  0.2209 -0.5877
  882MPD2    C212985   1.703   2.058  14.149 -0.0017  0.3657 -0.5934
  882MPD2    C312986   1.624   2.045  14.036 -0.2159 -0.2641  0.8068
  882MPD2    C412987   1.617   1.921  13.973 -0.1210 -0.2311 -0.5219
  882MPD2    C512988   1.700   1.818  14.017  0.3409  0.1528 -0.3334
  882MPD2     H12989   1.696   2.149  14.208  0.3959 -0.4257  0.6642
  882MPD2    H112990   1.566   1.908  13.879  0.2451 -0.1886 -0.7249
  882MPD2    H212991   1.845   1.757  14.155 -0.6629 -0.3405 -0.5541
  882MPD2    H312992   1.703   1.729  13.956  0.2922 -0.2075  0.1890
  882MPD2     N12993   1.549   2.148  13.990  0.3953  0.2691 -0.4250
  882MPD2    H512994   1.475   2.115  13.929 -0.2856  0.9446  0.0223
  882MPD2    N112995   1.875   1.965  14.303 -0.4047 -0.4768 -0.1113
  882MPD2    H712996   1.941   1.890  14.324 -0.8661 -0.4685  1.3087
  883MPD2     C12997   4.161   2.288  16.470  0.2837  0.3126  0.2452
  883MPD2    C112998   4.223   2.332  16.348  0.9210 -0.9128 -0.0620
  883MPD2    C212999   4.362   2.318  16.323 -0.1905  0.1485 -0.7723
  883MPD2    C313000   4.442   2.264  16.428 -0.5414 -0.0681 -1.0829
  883MPD2    C413001   4.386   2.229  16.551  0.1722 -0.2001  0.1125
  883MPD2    C513002   4.246   2.233  16.561  0.4016  0.0638  0.1017
  883MPD2     H13003   4.409   2.359  16.235  0.4864 -0.0860 -0.5199
  883MPD2    H113004   4.442   2.174  16.625  1.8505  1.7262  0.2855
  883MPD2    H213005   4.053   2.287  16.484  0.4937  1.1366  1.8646
  883MPD2    H313006   4.206   2.199  16.655 -0.4695  1.5811  0.2690
  883MPD2     N13007   4.581   2.272  16.409  0.4262  0.0110 -0.5436
  883MPD2    H513008   4.611   2.303  16.317 -1.5617 -0.3337 -1.3161
  883MPD2    N113009   4.148   2.366  16.233  0.0603  0.4073  0.4486
  883MPD2    H713010   4.200   2.398  16.152  0.7356 -0.2682  0.6168
  884MPD2     C13011   1.301   3.445  15.115  0.0533 -0.1979 -0.0523
  884MPD2    C113012   1.208   3.397  15.025  0.3595  0.7361 -0.5475
  884MPD2    C213013   1.103   3.328  15.074 -0.2385 -0.5959 -0.7963
  884MPD2    C313014   1.099   3.300  15.208  0.0800  0.0755  0.3359
  884MPD2    C413015   1.201   3.339  15.291 -0.0838 -0.1904  0.4301
  884MPD2    C513016   1.299   3.414  15.246 -0.4197  0.1911  0.5965
  884MPD2     H13017   1.025   3.291  15.008 -0.4385 -3.8483  1.2800
  884MPD2    H113018   1.211   3.319  15.397 -0.8173  0.8445  0.6979
  884MPD2    H213019   1.385   3.500  15.073 -1.3812  1.1189 -1.1818
  884MPD2    H313020   1.372   3.458  15.312 -2.6928  0.7606  2.7271
  884MPD2     N13021   0.983   3.228  15.251 -0.3640  0.2039 -0.3624
  884MPD2    H513022   0.906   3.208  15.188  1.7104 -2.8816 -1.8890
  884MPD2    N113023   1.210   3.410  14.886 -0.2878  0.3414  0.2159
  884MPD2    H713024   1.131   3.375  14.833  3.9993 -0.4046 -5.7081
  885MPD2     C13025   4.403   3.374   0.374  0.1977 -0.2635 -0.0574
  885MPD2    C113026   4.483   3.481   0.403 -0.4217  0.0667  0.3270
  885MPD2    C213027   4.508   3.587   0.314 -0.4976 -0.2777  0.4172
  885MPD2    C313028   4.438   3.593   0.199 -0.4856  0.2320  0.8929
  885MPD2    C413029   4.345   3.492   0.180 -0.2826  0.5459 -0.8946
  885MPD2    C513030   4.331   3.381   0.263  0.0635 -0.2746  0.6579
  885MPD2     H13031   4.576   3.669   0.332 -0.5847  0.6756 -3.5487
  885MPD2    H113032   4.281   3.478   0.093 -2.0119  0.3611  0.4063
  885MPD2    H213033   4.397   3.283   0.433  0.7211  0.0323  0.4579
  885MPD2    H313034   4.266   3.299   0.238  0.3286 -0.2878  0.0277
  885MPD2     N13035   4.458   3.700   0.107 -0.8911 -0.2798  0.1447
  885MPD2    H513036   4.526   3.775   0.117  0.5579 -1.7886  1.4311
  885MPD2    N113037   4.553   3.475   0.528 -0.0885  0.0150  0.4799
  885MPD2    H713038   4.530   3.392   0.581 -1.4778 -0.8833 -1.5243
  886MPD2     C13039   1.027   2.063  15.719 -0.5228  0.1872  0.1143
  886MPD2    C113040   1.108   1.987  15.642  0.3229 -0.4286 -0.0632
  886MPD2    C213041   1.090   1.994  15.502 -1.2243  0.3584 -0.1567
  886MPD2    C313042   0.997   2.082  15.454 -0.1682  0.2886  0.2054
  886MPD2    C413043   0.910   2.149  15.536  0.6399  0.1824 -0.5239
  886MPD2    C513044   0.919   2.132  15.671  0.6653 -0.0336 -0.3636
  886MPD2     H13045   1.159   1.941  15.436 -1.0474  0.2679  0.0995
  886MPD2    H113046   0.825   2.205  15.499 -1.1104 -2.0026  0.1807
  886MPD2    H213047   1.019   2.055  15.827 -1.3599 -3.2777 -0.2098
  886MPD2    H313048   0.844   2.175  15.737  0.5688 -0.8479  0.0519
  886MPD2     N13049   0.995   2.100  15.317  0.3409  0.2502 -0.2975
  886MPD2    H513050   1.053   2.037  15.262 -0.2581 -1.7092  1.2856
  886MPD2    N113051   1.216   1.908  15.688  0.2900  0.5328 -0.0736
  886MPD2    H713052   1.267   1.852  15.620  2.6134 -0.9995  2.8840
  887MPD2     C13053   1.966   2.048  16.000  0.1744  0.0367  0.1240
  887MPD2    C113054   1.849   2.103  15.960  0.4327 -0.1866  0.5643
  887MPD2    C213055   1.846   2.234  15.927  0.3075  0.9298 -0.4424
  887MPD2    C313056   1.959   2.315  15.928  0.0536 -0.5043  0.2159
  887MPD2    C413057   2.075   2.252  15.969 -0.3939  0.0324  0.2111
  887MPD2    C513058   2.071   2.122  16.004 -0.1651 -0.3592 -0.2157
  887MPD2     H13059   1.751   2.272  15.892  0.5180 -0.9155 -2.9561
  887MPD2    H113060   2.174   2.296  15.971 -0.5085  0.2262  1.5607
  887MPD2    H213061   1.980   1.941  16.013  1.3665 -0.1773 -2.9515
  887MPD2    H313062   2.167   2.075  16.026 -0.3605 -0.7025 -0.0994
  887MPD2     N13063   1.963   2.453  15.905 -0.5247  0.4649 -0.2018
  887MPD2    H513064   1.875   2.488  15.869 -1.1196 -1.7526 -0.9240
  887MPD2    N113065   1.729   2.028  15.959 -0.0097 -0.1344 -0.2190
  887MPD2    H713066   1.653   2.073  15.911 -0.3636 -1.1243 -0.5952
  888MPD2     C13067   3.339   1.790  15.381 -0.2212 -0.0294  0.4957
  888MPD2    C113068   3.334   1.879  15.489  0.7242 -0.5899 -0.2303
  888MPD2    C213069   3.399   1.999  15.480 -0.5914 -0.8290 -0.0563
  888MPD2    C313070   3.451   2.037  15.358 -0.0264 -0.1425  0.1090
  888MPD2    C413071   3.441   1.954  15.248  0.5812  0.0809 -0.3812
  888MPD2    C513072   3.388   1.829  15.259  0.2153  0.5314  0.3079
  888MPD2     H13073   3.406   2.056  15.571  0.9218 -1.8118  0.4485
  888MPD2    H113074   3.474   1.990  15.152 -1.4931  0.7365 -0.8485
  888MPD2    H213075   3.280   1.700  15.367 -0.1287 -0.3513  2.2231
  888MPD2    H313076   3.379   1.764  15.173  3.1358  1.0173 -0.3257
  888MPD2     N13077   3.505   2.167  15.353 -0.4448  0.3560  0.3603
  888MPD2    H513078   3.489   2.233  15.429  0.8076  2.0891 -0.8699
  888MPD2    N113079   3.285   1.835  15.613  0.1269  0.4790  0.0518
  888MPD2    H713080   3.281   1.901  15.690  0.0682  1.8687 -1.1362
  889MPD2     C13081   2.356   1.752  12.600  0.4319  0.4952 -0.4341
  889MPD2    C113082   2.456   1.719  12.693 -0.4192 -0.2199 -0.1109
  889MPD2    C213083   2.502   1.823  12.779  0.2166 -0.6467 -0.7638
  889MPD2    C313084   2.434   1.949  12.782 -0.2630 -0.3517 -0.2049
  889MPD2    C413085   2.348   1.981  12.676  0.0877  0.5577  0.0441
  889MPD2    C513086   2.317   1.884  12.586  0.3984  0.1007  0.1691
  889MPD2     H13087   2.537   1.789  12.876  2.7205  1.5309 -0.8988
  889MPD2    H113088   2.307   2.079  12.655 -0.5478 -0.4626 -3.4812
  889MPD2    H213089   2.306   1.681  12.535  1.2163 -3.0601  2.8084
  889MPD2    H313090   2.252   1.909  12.503  1.3190  0.7006 -0.3689
  889MPD2     N13091   2.451   2.032  12.895  0.2203 -0.2532 -0.0651
  889MPD2    H513092   2.529   2.006  12.955  0.1481  1.3768  0.7398
  889MPD2    N113093   2.453   1.581  12.728  0.6522 -0.1224 -0.2612
  889MPD2    H713094   2.417   1.515  12.661 -1.0834 -0.7531  1.2941
  890MPD2     C13095   2.256   3.220  14.537  0.7486 -0.7470 -0.2140
  890MPD2    C113096   2.353   3.313  14.572 -0.6726 -0.2423 -0.0155
  890MPD2    C213097   2.468   3.279  14.646 -0.0777 -0.4597  0.4236
  890MPD2    C313098   2.489   3.143  14.677 -0.1299  0.0990 -0.2718
  890MPD2    C413099   2.397   3.052  14.635 -0.4035  0.2312 -0.3779
  890MPD2    C513100   2.280   3.093  14.573  0.2298  0.0636 -0.2549
  890MPD2     H13101   2.543   3.351  14.677  0.1503  0.1551 -1.5471
  890MPD2    H113102   2.412   2.945  14.645  0.9110  0.5285  0.8883
  890MPD2    H213103   2.165   3.249  14.485  0.4640  0.0215  0.6994
  890MPD2    H313104   2.204   3.019  14.547  0.2110 -0.3073  0.8610
  890MPD2     N13105   2.603   3.111  14.757  0.3349  0.0039 -0.4753
  890MPD2    H513106   2.656   3.190  14.791  0.5246  0.1984 -1.2050
  890MPD2    N113107   2.327   3.446  14.530 -0.6848  0.1881  0.0566
  890MPD2    H713108   2.244   3.455  14.472  0.1716 -0.2226 -1.2485
  891MPD2     C13109   0.323   1.364  16.784 -0.0115 -0.1428  0.1903
  891MPD2    C113110   0.379   1.460  16.861 -0.0308  0.3357 -0.8808
  891MPD2    C213111   0.509   1.436  16.918  0.5186  0.4282  0.7921
  891MPD2    C313112   0.570   1.325  16.904  0.1348  0.4785 -0.3735
  891MPD2    C413113   0.518   1.233  16.817  0.3557  0.2826 -0.5996
  891MPD2    C513114   0.397   1.253  16.752 -0.1722  0.0291  0.5649
  891MPD2     H13115   0.549   1.521  16.973 -0.4603  2.7459 -2.0658
  891MPD2    H113116   0.572   1.140  16.800  0.6729  0.2279  0.7147
  891MPD2    H213117   0.229   1.384  16.733 -0.2407 -1.6782 -0.0012
  891MPD2    H313118   0.357   1.177  16.685 -1.3304  3.2460 -2.3881
  891MPD2     N13119   0.680   1.310  16.987 -0.3345  0.3263 -0.2080
  891MPD2    H513120   0.718   1.391  17.036 -1.4186  1.2067 -0.8301
  891MPD2    N113121   0.308   1.578  16.884  0.0087  0.9098  0.1613
  891MPD2    H713122   0.357   1.661  16.913 -0.0018  0.0603  2.5439
  892MPD2     C13123   1.327   2.462  14.726 -0.2610 -0.1675 -0.0581
  892MPD2    C113124   1.232   2.531  14.653 -0.7507 -0.3019 -0.1916
  892MPD2    C213125   1.235   2.536  14.517 -0.9211 -0.5610  0.2363
  892MPD2    C313126   1.324   2.446  14.450  0.0788 -0.0476 -0.2382
  892MPD2    C413127   1.415   2.372  14.521  1.3754 -0.3820 -0.4593
  892MPD2    C513128   1.414   2.378  14.656  0.4794  0.1500  0.2436
  892MPD2     H13129   1.158   2.591  14.463 -2.4632 -2.6205  0.3279
  892MPD2    H113130   1.480   2.299  14.475 -1.1334 -2.0067 -1.4236
  892MPD2    H213131   1.340   2.478  14.833  1.6286  2.9082 -0.7407
  892MPD2    H313132   1.489   2.316  14.701  2.3450  1.5670 -0.9184
  892MPD2     N13133   1.325   2.433  14.306 -0.1931  0.4625 -0.0509
  892MPD2    H513134   1.386   2.371  14.253 -2.3824 -0.1907 -1.7956
  892MPD2    N113135   1.123   2.595  14.716 -0.1534  0.5619 -0.1511
  892MPD2    H713136   1.062   2.647  14.654  0.0894 -1.2487 -1.8929
  893MPD2     C13137   0.649   1.210   1.636  0.5692  0.2526 -0.5514
  893MPD2    C113138   0.518   1.261   1.662 -0.0058 -0.6548 -0.5374
  893MPD2    C213139   0.429   1.177   1.726  0.1039  0.3966  0.5160
  893MPD2    C313140   0.451   1.044   1.744 -0.4886 -0.5820  0.1281
  893MPD2    C413141   0.584   0.998   1.715 -0.0968 -0.2915 -0.1429
  893MPD2    C513142   0.682   1.075   1.657 -0.2395  0.5252  0.5723
  893MPD2     H13143   0.328   1.213   1.745  0.6338  2.1903 -0.0709
  893MPD2    H113144   0.602   0.892   1.730 -0.8935 -0.2472  1.1545
  893MPD2    H213145   0.723   1.270   1.584 -0.2010 -1.1998 -3.3435
  893MPD2    H313146   0.779   1.031   1.637 -1.2151 -1.1526 -0.3981
  893MPD2     N13147   0.351   0.953   1.799 -0.2605  0.5089 -0.0037
  893MPD2    H513148   0.376   0.855   1.811 -1.6915 -0.1020 -1.9661
  893MPD2    N113149   0.504   1.396   1.636  0.5300 -0.5495  0.3971
  893MPD2    H713150   0.580   1.450   1.597 -1.2174  0.4543 -1.6077
  894MPD2     C13151   1.363   3.250   0.960  0.3538 -0.3227 -0.5170
  894MPD2    C113152   1.318   3.351   1.036  0.2134  0.3850  0.6003
  894MPD2    C213153   1.350   3.481   1.008 -0.4342 -0.0156 -0.3134
  894MPD2    C313154   1.422   3.513   0.896 -0.3982  0.3008  0.9260
  894MPD2    C413155   1.459   3.412   0.815 -0.0748  0.0000 -0.2969
  894MPD2    C513156   1.446   3.280   0.858  0.4299  0.4397  0.0372
  894MPD2     H13157   1.320   3.564   1.070 -1.6040 -0.3634 -0.4022
  894MPD2    H113158   1.512   3.430   0.722  1.5366  2.9597  1.1848
  894MPD2    H213159   1.356   3.145   0.986  0.1022 -0.5627 -1.5513
  894MPD2    H313160   1.493   3.198   0.804 -0.7405  0.0377 -0.3665
  894MPD2     N13161   1.436   3.649   0.873 -0.2518 -0.1935  0.0357
  894MPD2    H513162   1.412   3.715   0.946 -1.6913 -0.4523 -0.2051
  894MPD2    N113163   1.233   3.330   1.146  0.1351 -0.1914 -0.1950
  894MPD2    H713164   1.220   3.415   1.201  1.7461  0.8076 -1.3361
  895MPD2     C13165   0.468   2.305  13.541 -0.1144  0.1219  0.7485
  895MPD2    C113166   0.332   2.282  13.556  1.1741  0.2614 -0.0019
  895MPD2    C213167   0.272   2.170  13.494  0.7110 -0.0450 -1.3367
  895MPD2    C313168   0.349   2.077  13.441  0.1226  0.2634  0.4859
  895MPD2    C413169   0.489   2.097  13.429 -0.3402  1.0733 -0.4007
  895MPD2    C513170   0.545   2.204  13.487 -0.6048  0.1518 -0.1165
  895MPD2     H13171   0.165   2.161  13.501  0.9022 -1.8544 -0.7243
  895MPD2    H113172   0.555   2.022  13.388 -0.7170 -0.0859  1.1075
  895MPD2    H213173   0.521   2.387  13.589 -0.5540  1.1779 -0.5693
  895MPD2    H313174   0.653   2.217  13.486 -0.7202  1.3390  3.1344
  895MPD2     N13175   0.295   1.959  13.379  0.2846 -0.0862 -0.0348
  895MPD2    H513176   0.356   1.890  13.336  0.9348  0.7296 -0.4276
  895MPD2    N113177   0.248   2.387  13.607 -0.3222 -0.0403 -0.5142
  895MPD2    H713178   0.151   2.366  13.625 -0.3018 -0.8094 -1.2837
  896MPD2     C13179   2.950   4.683   1.595  0.2671  0.1464 -0.6036
  896MPD2    C113180   2.930   4.636   1.464 -0.2107  0.4949  0.0049
  896MPD2    C213181   2.833   4.538   1.440 -0.2765  0.0758 -0.7950
  896MPD2    C313182   2.739   4.512   1.543 -0.3996 -0.7730  0.0835
  896MPD2    C413183   2.755   4.572   1.671  0.1765  0.4586  0.1815
  896MPD2    C513184   2.862   4.648   1.697 -0.0504  0.1499  0.0600
  896MPD2     H13185   2.828   4.496   1.340  2.0349  0.0388 -0.8931
  896MPD2    H113186   2.689   4.559   1.756  0.1943  1.2381  0.3177
  896MPD2    H213187   3.027   0.018   1.620 -0.0610 -0.1544  1.2128
  896MPD2    H313188   2.873   4.695   1.795  2.9631 -3.0825  1.2708
  896MPD2     N13189   2.635   4.431   1.521  0.0886 -0.0528 -0.1343
  896MPD2    H513190   2.627   4.382   1.432 -2.3218  1.0303 -0.5054
  896MPD2    N113191   3.026   4.681   1.370  0.2856 -0.3313 -0.1957
  896MPD2    H713192   3.084   0.022   1.401  0.5652 -0.2402 -0.9352
  897MPD2     C13193   3.951   1.647  11.256  0.5767  0.4689  0.9908
  897MPD2    C113194   3.888   1.754  11.196 -0.2901 -0.3423 -0.3749
  897MPD2    C213195   3.776   1.808  11.258  0.1553 -0.2164 -0.3697
  897MPD2    C313196   3.732   1.755  11.377  0.0885  0.9749  0.6651
  897MPD2    C413197   3.790   1.645  11.440 -0.3584 -0.0134 -0.2683
  897MPD2    C513198   3.899   1.596  11.371 -0.2397 -0.0359  0.1794
  897MPD2     H13199   3.711   1.878  11.208  0.4198 -0.1885 -0.6700
  897MPD2    H113200   3.760   1.595  11.531 -1.1106  0.2244 -0.3881
  897MPD2    H213201   4.034   1.593  11.212 -0.5081  1.7322 -2.6517
  897MPD2    H313202   3.946   1.509  11.417  2.9375  1.4222 -0.3718
  897MPD2     N13203   3.616   1.815  11.435  0.6455  0.2108  0.1798
  897MPD2    H513204   3.580   1.899  11.391  2.0043  1.4120  1.3548
  897MPD2    N113205   3.922   1.800  11.067  0.0600  0.0190  0.2538
  897MPD2    H713206   3.865   1.878  11.037 -1.7567 -1.9544 -1.4785
  898MPD2     C13207   0.519   2.031  17.615  0.2907  0.0827 -0.4783
  898MPD2    C113208   0.653   2.006  17.586 -1.0576 -0.5428 -0.1636
  898MPD2    C213209   0.733   2.114  17.572 -0.4894 -0.6948 -0.5386
  898MPD2    C313210   0.685   2.244  17.566 -0.2531  0.0382  0.5103
  898MPD2    C413211   0.550   2.265  17.582  0.2321 -0.1318  0.3011
  898MPD2    C513212   0.473   2.154  17.618 -0.6134  0.2749 -0.8768
  898MPD2     H13213   0.837   2.092  17.553 -0.8186 -0.6797 -2.3247
  898MPD2    H113214   0.491   2.356  17.586  1.3449  0.6258 -0.3831
  898MPD2    H213215   0.444   1.959  17.643 -0.2365  0.2984 -1.3351
  898MPD2    H313216   0.368   2.171  17.640 -0.0882  0.8125  1.3199
  898MPD2     N13217   0.777   2.345  17.538  0.0714  0.2157 -0.2353
  898MPD2    H513218   0.868   2.320  17.502  1.0782  1.5613  1.3640
  898MPD2    N113219   0.716   1.879  17.568  0.4956  0.4503 -0.2087
  898MPD2    H713220   0.815   1.881  17.548  0.6529  0.2556  0.5740
  899MPD2     C13221   1.829   2.592  17.079  0.5027 -0.0135 -0.1445
  899MPD2    C113222   1.911   2.676  17.151 -0.3252  0.7611  0.7469
  899MPD2    C213223   1.937   2.644  17.282  0.1652 -0.1511 -0.3105
  899MPD2    C313224   1.885   2.532  17.336  0.9189  0.5101  0.8081
  899MPD2    C413225   1.801   2.457  17.263  0.1866 -0.2314 -0.0346
  899MPD2    C513226   1.771   2.488  17.134 -0.6593 -0.2463 -0.4341
  899MPD2     H13227   2.004   2.701  17.345  0.5642 -1.0423  0.0754
  899MPD2    H113228   1.756   2.365  17.300 -0.4639  0.1850  0.2029
  899MPD2    H213229   1.830   2.612  16.973 -0.1622 -0.8236 -0.3052
  899MPD2    H313230   1.711   2.423  17.072  1.5525 -1.5663 -1.1701
  899MPD2     N13231   1.885   2.503  17.478 -1.3878 -0.4650  0.1412
  899MPD2    H513232   1.825   2.431  17.516  0.7914 -1.7858  1.0922
  899MPD2    N113233   1.979   2.777  17.074  0.5600 -0.2700 -0.0223
  899MPD2    H713234   1.961   2.775  16.974 -0.0817  0.9868  0.0745
  900MPD2     C13235   1.450   4.509  12.792  0.7596  0.7450 -0.0555
  900MPD2    C113236   1.330   4.436  12.784  0.0663 -0.4767 -0.2668
  900MPD2    C213237   1.216   4.504  12.761  0.5806  0.4525  0.1849
  900MPD2    C313238   1.217   4.641  12.732  0.0456  0.0119 -0.6852
  900MPD2    C413239   1.336   4.711  12.721 -0.3021  0.4862 -0.4813
  900MPD2    C513240   1.452   4.644  12.765  0.1722 -0.0613 -0.2635
  900MPD2     H13241   1.121   4.451  12.756  0.1382  1.1536  1.1807
  900MPD2    H113242   1.334   0.083  12.706  2.2053  0.4181 -1.2230
  900MPD2    H213243   1.545   4.457  12.804  0.2084  0.3647  2.7910
  900MPD2    H313244   1.545   4.701  12.755 -0.2907  1.0768  1.8677
  900MPD2     N13245   1.094   4.690  12.705 -0.5334 -1.0083  0.6202
  900MPD2    H513246   1.024   4.617  12.698 -1.1331 -0.3036 -0.7152
  900MPD2    N113247   1.342   4.296  12.795 -0.0641  0.1730  0.3058
  900MPD2    H713248   1.439   4.266  12.800  0.1155  0.5136 -1.0390
  901MPD2     C13249   1.102   3.231  12.907  0.7120  0.2126 -0.5037
  901MPD2    C113250   1.180   3.257  12.794 -0.2267 -1.0006  0.0263
  901MPD2    C213251   1.222   3.385  12.776 -0.2070 -0.0257  0.1092
  901MPD2    C313252   1.188   3.492  12.859 -0.1154  0.3585  0.2414
  901MPD2    C413253   1.105   3.466  12.969  0.1447 -0.0922 -0.1221
  901MPD2    C513254   1.077   3.333  12.996 -0.0163  0.5853  0.5608
  901MPD2     H13255   1.278   3.419  12.689 -0.0891  0.9520  0.5704
  901MPD2    H113256   1.073   3.547  13.034  0.8297 -0.1290  0.2663
  901MPD2    H213257   1.063   3.133  12.932 -0.2716  0.6762 -0.2021
  901MPD2    H313258   1.026   3.305  13.087  1.3342 -1.3859  0.7004
  901MPD2     N13259   1.234   3.616  12.822 -0.1030  0.0197 -0.8147
  901MPD2    H513260   1.322   3.623  12.771 -0.5525  2.8237 -1.2161
  901MPD2    N113261   1.230   3.149  12.713  0.5041 -0.0734 -0.4613
  901MPD2    H713262   1.197   3.055  12.731 -0.0862  0.5985  1.9057
  902MPD2     C13263   0.776   2.680  12.962 -0.2762 -0.1142 -0.2371
  902MPD2    C113264   0.643   2.661  12.929 -0.0484 -0.6160 -0.0775
  902MPD2    C213265   0.613   2.535  12.876 -0.3268 -0.1749  0.3516
  902MPD2    C313266   0.712   2.435  12.873 -0.5901 -0.8549  0.0716
  902MPD2    C413267   0.841   2.466  12.910 -0.9745  0.0590  0.0338
  902MPD2    C513268   0.877   2.584  12.957 -0.2618  0.6970 -0.5302
  902MPD2     H13269   0.514   2.527  12.832  1.0890  1.4159 -3.1212
  902MPD2    H113270   0.924   2.396  12.902 -1.6653 -0.6009 -1.3380
  902MPD2    H213271   0.801   2.778  13.002 -0.6678 -0.5669  1.0988
  902MPD2    H313272   0.972   2.602  13.007  0.1941 -1.4801 -0.5914
  902MPD2     N13273   0.689   2.299  12.828 -0.4155 -0.8214  0.2909
  902MPD2    H513274   0.767   2.235  12.824  0.8558  0.5801  2.7140
  902MPD2    N113275   0.551   2.772  12.950 -0.2442 -0.8220  0.5168
  902MPD2    H713276   0.584   2.855  12.998 -2.4420  0.9312 -1.0400
  903MPD2     C13277   0.378   2.127  12.181  0.5899 -0.3658  0.0469
  903MPD2    C113278   0.303   2.107  12.295 -0.6055 -0.5271 -0.0349
  903MPD2    C213279   0.166   2.116  12.289 -0.2407 -0.4638  0.1720
  903MPD2    C313280   0.103   2.131  12.169 -0.2918  0.1166  0.2800
  903MPD2    C413281   0.178   2.146  12.053  0.6632  0.5320 -0.1569
  903MPD2    C513282   0.313   2.139  12.062  0.0531 -0.5675  0.3202
  903MPD2     H13283   0.104   2.106  12.377 -1.5316  1.2745 -0.5408
  903MPD2    H113284   0.145   2.164  11.952  2.3371 -0.0799 -0.8121
  903MPD2    H213285   0.486   2.138  12.177  0.5581 -0.1922 -0.3975
  903MPD2    H313286   0.371   2.152  11.971 -0.5647  0.7526  0.1051
  903MPD2     N13287   4.696   2.144  12.172 -0.0580 -0.5475  0.1066
  903MPD2    H513288   4.650   2.167  12.259  1.2982  1.8005  0.1993
  903MPD2    N113289   0.370   2.062  12.408  0.6066 -0.4674  0.0286
  903MPD2    H713290   0.470   2.049  12.404  0.9350  2.1167 -0.3567
  904MPD2     C13291   4.639   1.810  13.770  1.1786  0.7994 -0.1700
  904MPD2    C113292   4.615   1.685  13.836  0.9248 -0.7192 -0.1600
  904MPD2    C213293   4.722   1.609  13.890 -0.3604 -0.3260 -0.0150
  904MPD2    C313294   0.114   1.653  13.867  0.5409 -0.5617 -0.0717
  904MPD2    C413295   0.139   1.773  13.804 -0.9026 -0.8633 -0.3757
  904MPD2    C513296   0.032   1.845  13.756  0.4852 -0.0877 -0.7254
  904MPD2     H13297   4.701   1.517  13.942  0.5903 -0.3381  0.3453
  904MPD2    H113298   0.241   1.793  13.772 -0.8117 -0.9429 -0.1371
  904MPD2    H213299   4.563   1.863  13.715  0.2533  1.6303  1.8941
  904MPD2    H313300   0.046   1.940  13.705  0.2683  1.1802  1.5764
  904MPD2     N13301   0.218   1.573  13.919  0.6659  0.7779  0.2436
  904MPD2    H513302   0.183   1.491  13.967  1.0580  1.4161  1.6221
  904MPD2    N113303   4.477   1.663  13.849  0.2816  0.2305  0.0664
  904MPD2    H713304   4.408   1.733  13.824  0.7301  0.0766 -1.5958
  905MPD2     C13305   4.329   2.055  13.650  0.2755  0.5891 -0.8007
  905MPD2    C113306   4.314   1.920  13.640  0.3316 -0.8957 -0.2864
  905MPD2    C213307   4.382   1.850  13.547 -0.4574 -0.3937 -0.1132
  905MPD2    C313308   4.480   1.913  13.475  0.7889  0.1909 -0.6744
  905MPD2    C413309   4.502   2.045  13.489 -0.0317 -0.3332  0.0273
  905MPD2    C513310   4.417   2.117  13.567 -0.3911  0.0242 -1.1235
  905MPD2     H13311   4.366   1.744  13.532 -4.1461  0.4133 -1.7303
  905MPD2    H113312   4.571   2.099  13.425  1.1146  1.9175  3.1025
  905MPD2    H213313   4.270   2.114  13.719 -0.4173  2.1751 -2.7244
  905MPD2    H313314   4.431   2.225  13.566 -1.2510  0.1739  1.4358
  905MPD2     N13315   4.570   1.849  13.390  0.0163 -0.1086 -0.4597
  905MPD2    H513316   4.639   1.907  13.343 -0.7818  0.6965 -0.6253
  905MPD2    N113317   4.247   1.836  13.730  0.0129  0.1911  0.3098
  905MPD2    H713318   4.225   1.739  13.709  1.8962 -0.3793  0.9470
  906MPD2     C13319   2.498   1.581  11.653 -0.3200 -0.1840 -0.7678
  906MPD2    C113320   2.398   1.568  11.564 -0.1769 -0.3366  0.1483
  906MPD2    C213321   2.275   1.511  11.599  0.1089 -0.2185 -0.6022
  906MPD2    C313322   2.242   1.462  11.724 -0.8280  0.2231 -0.3915
  906MPD2    C413323   2.347   1.480  11.815 -0.1339 -0.3804  0.0943
  906MPD2    C513324   2.466   1.545  11.779 -0.6062 -0.0747  0.3933
  906MPD2     H13325   2.200   1.507  11.520  1.6691 -1.2316 -2.0306
  906MPD2    H113326   2.337   1.441  11.915  1.7934 -3.6313 -0.9958
  906MPD2    H213327   2.595   1.630  11.646 -0.2612  0.1196  2.5011
  906MPD2    H313328   2.551   1.550  11.846  0.4789 -1.7825 -0.8360
  906MPD2     N13329   2.124   1.399  11.763 -0.0569  0.0257  0.1498
  906MPD2    H513330   2.118   1.354  11.854 -1.8408 -0.4540 -0.2106
  906MPD2    N113331   2.415   1.594  11.427  0.0168 -0.6156  0.2746
  906MPD2    H713332   2.326   1.592  11.378 -0.2617  2.5876  0.6806
  907MPD2     C13333   1.406   0.714  15.809 -0.7460  0.5073 -0.4852
  907MPD2    C113334   1.429   0.596  15.867  0.6291  0.3957 -0.2364
  907MPD2    C213335   1.444   0.598  16.008 -0.2979  0.3105  0.4688
  907MPD2    C313336   1.438   0.716  16.080  0.0898  0.2574 -0.8647
  907MPD2    C413337   1.406   0.835  16.014 -0.6273  0.2850  0.0560
  907MPD2    C513338   1.392   0.833  15.876 -0.2771 -0.3183 -0.1608
  907MPD2     H13339   1.462   0.503  16.056  1.5444  1.2681  1.6893
  907MPD2    H113340   1.402   0.933  16.061 -0.8961  0.6369 -0.6831
  907MPD2    H213341   1.397   0.710  15.701  0.6015  1.0364 -0.6109
  907MPD2    H313342   1.373   0.920  15.814 -1.0782 -1.0025 -0.8757
  907MPD2     N13343   1.459   0.706  16.217  0.4680 -0.0776 -0.0635
  907MPD2    H513344   1.484   0.615  16.254 -0.5560 -0.8284 -1.2192
  907MPD2    N113345   1.433   0.466  15.804 -0.9925  0.4009 -0.3171
  907MPD2    H713346   1.464   0.385  15.856 -0.5617  1.2070  0.6724
  908MPD2     C13347   4.021   1.221  10.243  0.1864 -0.3418 -0.3390
  908MPD2    C113348   4.052   1.197  10.378 -0.1082 -0.2732 -0.8485
  908MPD2    C213349   4.054   1.305  10.465  0.2401 -0.0704 -0.4760
  908MPD2    C313350   4.035   1.436  10.430 -0.6456 -0.5786  0.0309
  908MPD2    C413351   4.000   1.458  10.295 -0.5849  0.4283 -0.0353
  908MPD2    C513352   4.007   1.354  10.204  0.1375  0.0973  0.3453
  908MPD2     H13353   4.075   1.292  10.571 -1.0186 -0.0959 -0.2261
  908MPD2    H113354   3.995   1.556  10.249  0.6469  0.3216 -0.3903
  908MPD2    H213355   4.022   1.143  10.168 -0.5643 -1.1492  0.4937
  908MPD2    H313356   3.999   1.358  10.096  1.7184  2.3401  0.3214
  908MPD2     N13357   4.030   1.533  10.532 -0.5219  0.6432  0.7790
  908MPD2    H513358   4.065   1.507  10.624  1.6622 -2.1491 -0.8245
  908MPD2    N113359   4.092   1.061  10.407 -0.8820  0.1414  0.6504
  908MPD2    H713360   4.086   0.995  10.330  0.4187  0.0199  0.6523
  909MPD2     C13361   3.871   4.314  12.059  0.3134  0.2614 -0.5455
  909MPD2    C113362   3.866   4.449  12.023  0.3992  0.3232  0.1855
  909MPD2    C213363   3.829   4.547  12.119 -0.1432  0.7275  0.6767
  909MPD2    C313364   3.789   4.516  12.247 -0.2139 -0.7178  0.2610
  909MPD2    C413365   3.798   4.382  12.284  0.0128 -0.6217  0.6112
  909MPD2    C513366   3.841   4.286  12.194 -0.3960  0.0796  0.6397
  909MPD2     H13367   3.810   4.647  12.081 -0.9348  0.5870  0.7098
  909MPD2    H113368   3.760   4.351  12.380 -1.7013 -0.5488 -0.0478
  909MPD2    H213369   3.896   4.239  11.984 -0.8727  0.6763 -1.3631
  909MPD2    H313370   3.857   4.183  12.222  1.4426  1.4516  4.5203
  909MPD2     N13371   3.741   4.616  12.331  0.8528 -0.6376  0.1166
  909MPD2    H513372   3.740   4.710  12.293 -1.1075  0.4444  2.8235
  909MPD2    N113373   3.906   4.498  11.899  0.1670 -0.1566 -0.9593
  909MPD2    H713374   3.916   4.598  11.883 -0.6149  0.4949  2.6159
  910MPD2     C13375   1.193   0.780  15.494 -0.8599 -0.6422  0.1728
  910MPD2    C113376   1.085   0.809  15.577 -0.3701 -0.2050  0.2604
  910MPD2    C213377   0.973   0.871  15.526 -0.5563 -0.5825 -0.3780
  910MPD2    C313378   0.978   0.917  15.398 -0.1827 -0.0643 -0.6415
  910MPD2    C413379   1.089   0.888  15.314 -0.2279  0.2765  0.4269
  910MPD2    C513380   1.197   0.819  15.364  0.0128  0.2098  0.5067
  910MPD2     H13381   0.880   0.883  15.581 -0.8298 -3.3301 -0.2425
  910MPD2    H113382   1.096   0.917  15.210 -1.5016  0.2788  0.3417
  910MPD2    H213383   1.274   0.713  15.521 -0.5544  0.4321  1.9782
  910MPD2    H313384   1.271   0.780  15.295  0.1971 -1.8070  1.8349
  910MPD2     N13385   0.864   0.985  15.330  0.0654  0.6409  0.1330
  910MPD2    H513386   0.870   0.998  15.230  3.4294 -0.6210  0.1669
  910MPD2    N113387   1.087   0.750  15.708 -0.1285 -0.3339 -0.1780
  910MPD2    H713388   1.154   0.676  15.722  0.2442 -0.0858 -0.6609
  911MPD2     C13389   3.300   1.417  16.449 -0.1853 -0.2372 -0.0528
  911MPD2    C113390   3.362   1.532  16.494  0.3031  0.3487  0.3507
  911MPD2    C213391   3.297   1.658  16.469  0.5015 -0.7304  0.0349
  911MPD2    C313392   3.176   1.658  16.398 -0.6532  0.5149  0.0713
  911MPD2    C413393   3.119   1.537  16.361 -0.0941  0.3288  0.1726
  911MPD2    C513394   3.181   1.419  16.388  0.4701 -0.4939 -0.3842
  911MPD2     H13395   3.338   1.750  16.509 -0.4903  1.1791 -3.3323
  911MPD2    H113396   3.025   1.522  16.309  1.8741 -1.4849 -2.8767
  911MPD2    H213397   3.354   1.323  16.447  0.1494 -0.0731  1.1592
  911MPD2    H313398   3.141   1.337  16.329 -1.2127 -0.3546  0.5853
  911MPD2     N13399   3.097   1.774  16.353  0.1443 -0.5077  0.3290
  911MPD2    H513400   3.006   1.760  16.310 -0.4153 -0.4322  1.4800
  911MPD2    N113401   3.488   1.521  16.550  0.0181  0.6437  0.6453
  911MPD2    H713402   3.517   1.427  16.576  0.1104  0.5450  0.1913
  912MPD2     C13403   2.726   1.664  15.762 -1.1101 -0.2734 -0.4679
  912MPD2    C113404   2.743   1.684  15.896  0.5768 -0.1923  0.4749
  912MPD2    C213405   2.705   1.579  15.979  0.0486 -0.1610  0.3553
  912MPD2    C313406   2.667   1.450  15.928 -0.6825 -0.1954  0.0049
  912MPD2    C413407   2.654   1.430  15.788 -0.0185  0.6702  0.9770
  912MPD2    C513408   2.685   1.539  15.710  0.4461 -0.1128  0.1464
  912MPD2     H13409   2.725   1.574  16.085 -1.9251  2.9645  0.8580
  912MPD2    H113410   2.619   1.338  15.744  2.8877  0.5706 -1.1021
  912MPD2    H213411   2.760   1.745  15.699 -1.6463  1.4672  1.4604
  912MPD2    H313412   2.678   1.522  15.603  0.0267  0.5315  0.0715
  912MPD2     N13413   2.629   1.353  16.020 -0.0544  0.1633  0.1404
  912MPD2    H513414   2.653   1.380  16.115  1.5323 -0.2487 -0.1357
  912MPD2    N113415   2.785   1.800  15.956 -0.3796 -0.2346  0.2213
  912MPD2    H713416   2.784   1.883  15.898  1.0037  0.1919  0.8017
  913MPD2     C13417   3.370   3.437  10.539  0.3117  0.2302  0.0704
  913MPD2    C113418   3.429   3.539  10.599 -0.2874 -0.0016 -1.1403
  913MPD2    C213419   3.473   3.646  10.519  0.3173 -0.0555 -0.0845
  913MPD2    C313420   3.426   3.658  10.393 -1.0893 -0.4509 -0.2584
  913MPD2    C413421   3.353   3.555  10.340 -0.2072 -0.1600  0.4464
  913MPD2    C513422   3.339   3.442  10.409  0.5043  0.1424  0.0559
  913MPD2     H13423   3.530   3.724  10.567  0.9938 -0.2187 -0.6090
  913MPD2    H113424   3.330   3.551  10.235 -2.5244 -1.2181  0.9997
  913MPD2    H213425   3.342   3.343  10.583 -0.1410 -0.2244 -1.1760
  913MPD2    H313426   3.307   3.351  10.359 -0.3342  0.1845  0.5124
  913MPD2     N13427   3.469   3.765  10.302 -0.0623  0.1035  0.2366
  913MPD2    H513428   3.461   3.750  10.202  0.4831 -0.7975  0.3272
  913MPD2    N113429   3.465   3.532  10.739  0.3472  0.5835 -0.3850
  913MPD2    H713430   3.451   3.442  10.784  1.7904  1.3706  1.6413
  914MPD2     C13431   1.338   3.133  11.716  0.3897 -0.4898 -0.5423
  914MPD2    C113432   1.337   3.235  11.804 -0.0288  0.3682  0.1305
  914MPD2    C213433   1.322   3.203  11.935 -0.1641  0.0859  0.4618
  914MPD2    C313434   1.314   3.076  11.982  0.2885  0.6855 -0.9465
  914MPD2    C413435   1.308   2.976  11.892  0.7066  0.2470  0.4226
  914MPD2    C513436   1.308   3.008  11.758  0.0124  0.1387 -0.4216
  914MPD2     H13437   1.323   3.285  12.006 -0.4874  2.9132 -2.8008
  914MPD2    H113438   1.291   2.876  11.928  1.6317  1.0648  3.1367
  914MPD2    H213439   1.331   3.159  11.611  0.3448  1.4046 -0.0659
  914MPD2    H313440   1.304   2.931  11.683 -0.5454 -0.2808  0.0397
  914MPD2     N13441   1.316   3.056  12.124 -0.1473 -0.0865  0.4445
  914MPD2    H513442   1.316   3.140  12.182  1.0702  0.5936 -0.5436
  914MPD2    N113443   1.357   3.368  11.774  0.8600  0.1145 -0.1051
  914MPD2    H713444   1.368   3.434  11.851 -2.9260  0.9933 -0.3349
  915MPD2     C13445   4.573   2.879  15.790  0.2992  0.2198 -0.2849
  915MPD2    C113446   4.437   2.879  15.791  0.0424 -0.4589  0.2669
  915MPD2    C213447   4.365   2.936  15.891 -0.4650  0.0014 -0.2086
  915MPD2    C313448   4.435   2.994  15.998 -0.4787  0.0034 -0.4991
  915MPD2    C413449   4.567   2.984  16.006  0.1113 -0.5478 -0.2586
  915MPD2    C513450   4.632   2.935  15.898  0.3028  0.3244  0.9885
  915MPD2     H13451   4.258   2.947  15.879 -0.2071  1.1886 -1.4621
  915MPD2    H113452   4.617   3.037  16.087 -1.1920 -1.2184  0.9828
  915MPD2    H213453   4.628   2.846  15.703 -1.5736 -0.2889 -1.2763
  915MPD2    H313454   0.005   2.938  15.901  0.3620 -0.9587  0.2730
  915MPD2     N13455   4.351   3.055  16.096 -0.1451 -0.3015  0.4862
  915MPD2    H513456   4.253   3.054  16.071 -0.3156 -2.4517  1.1924
  915MPD2    N113457   4.374   2.817  15.674  0.2526  0.1740 -0.8528
  915MPD2    H713458   4.437   2.778  15.605 -1.8937 -1.7455 -1.7232
  916MPD2     C13459   2.343   1.619  15.589 -0.3122  0.8581  0.5883
  916MPD2    C113460   2.337   1.543  15.699  0.3290  0.4018  0.4374
  916MPD2    C213461   2.355   1.408  15.682 -0.0634 -0.3515 -0.1101
  916MPD2    C313462   2.367   1.353  15.556  0.0683  0.0761 -0.4590
  916MPD2    C413463   2.358   1.434  15.444  0.1233 -0.1180  0.0723
  916MPD2    C513464   2.347   1.565  15.464 -0.7683 -0.2568 -0.1410
  916MPD2     H13465   2.369   1.343  15.768  0.0282 -1.5000 -0.9910
  916MPD2    H113466   2.355   1.407  15.339 -0.6942 -0.7472  0.2578
  916MPD2    H213467   2.328   1.726  15.588 -1.6279  0.6736 -1.5562
  916MPD2    H313468   2.354   1.631  15.378  1.9206 -1.1277 -0.5660
  916MPD2     N13469   2.389   1.213  15.546 -0.3275 -0.1096  0.3987
  916MPD2    H513470   2.416   1.167  15.632 -0.9181  1.7973  1.6051
  916MPD2    N113471   2.334   1.609  15.827  0.3875 -0.0660  0.5162
  916MPD2    H713472   2.364   1.706  15.829 -1.1432  0.4384 -1.3869
  917MPD2     C13473   2.587   3.790  11.468 -0.2596  0.3829 -0.6215
  917MPD2    C113474   2.648   3.762  11.590 -0.0463  0.1291 -0.0339
  917MPD2    C213475   2.753   3.839  11.637  0.1024 -0.0475  0.3285
  917MPD2    C313476   2.790   3.954  11.571  0.4050 -0.0597  0.2250
  917MPD2    C413477   2.725   3.982  11.452  0.1011 -0.5702 -0.1521
  917MPD2    C513478   2.630   3.904  11.394 -0.0938  0.0780  0.0755
  917MPD2     H13479   2.802   3.822  11.732 -0.2816  0.3775  0.6063
  917MPD2    H113480   2.748   4.071  11.394 -0.6978  1.3696  2.4728
  917MPD2    H213481   2.499   3.734  11.440 -0.2751 -1.0280  2.1751
  917MPD2    H313482   2.596   3.934  11.296 -0.0022  0.5925  0.2005
  917MPD2     N13483   2.896   4.037  11.614 -0.1301  0.4678 -0.5234
  917MPD2    H513484   2.916   4.111  11.548  0.8864  2.8144  2.4216
  917MPD2    N113485   2.581   3.659  11.662  0.2742  0.0477 -0.6139
  917MPD2    H713486   2.492   3.619  11.633  0.0197  0.1416  0.0371
  918MPD2     C13487   2.381   4.105  12.469 -0.3920  0.6904  0.9776
  918MPD2    C113488   2.501   4.085  12.399  0.2719 -0.1546 -0.0366
  918MPD2    C213489   2.501   3.992  12.295 -0.4120 -0.1770  0.2387
  918MPD2    C313490   2.387   3.914  12.266 -0.1885 -0.0598 -0.3477
  918MPD2    C413491   2.269   3.934  12.337  0.0376 -0.0754  0.4317
  918MPD2    C513492   2.265   4.041  12.423  0.2901  0.3945 -0.0283
  918MPD2     H13493   2.586   3.978  12.229  0.1696 -0.0062  0.9553
  918MPD2    H113494   2.179   3.877  12.317 -1.9229  1.9996  3.2320
  918MPD2    H213495   2.370   4.173  12.553  0.0512  0.2963  1.3587
  918MPD2    H313496   2.177   4.064  12.482 -0.9390 -3.5843 -0.2927
  918MPD2     N13497   2.409   3.812  12.171 -0.0635 -0.2437 -0.7141
  918MPD2    H513498   2.496   3.828  12.122 -0.2820 -0.1621 -1.0803
  918MPD2    N113499   2.622   4.156  12.436  0.1597  0.8542  0.4224
  918MPD2    H713500   2.697   4.147  12.368 -0.6493  0.5805 -0.4360
  919MPD2     C13501   3.291   3.078  12.286  0.0151 -0.2900 -0.1596
  919MPD2    C113502   3.265   2.968  12.204 -0.3969  0.1915  0.3466
  919MPD2    C213503   3.255   2.989  12.069  0.0989  0.4179 -0.0134
  919MPD2    C313504   3.272   3.118  12.015  0.0107  0.4457  0.4108
  919MPD2    C413505   3.287   3.221  12.102  0.0176  0.2717 -0.5355
  919MPD2    C513506   3.308   3.202  12.230  0.1988 -0.0813 -0.4997
  919MPD2     H13507   3.233   2.902  12.008  0.3721  1.9222 -2.2639
  919MPD2    H113508   3.283   3.323  12.066  0.0836 -0.1101 -1.6295
  919MPD2    H213509   3.280   3.068  12.394 -2.8894  0.3618 -0.3911
  919MPD2    H313510   3.303   3.290  12.293 -1.3661  0.2044 -1.0038
  919MPD2     N13511   3.245   3.147  11.881 -0.2470 -0.4755 -0.0595
  919MPD2    H513512   3.238   3.245  11.855  0.4741 -0.2040  0.7460
  919MPD2    N113513   3.233   2.839  12.252 -0.2322 -0.5906 -0.6544
  919MPD2    H713514   3.203   2.769  12.186 -1.3301  0.4552 -1.2551
  920MPD2     C13515   3.251   3.694  11.033 -0.5577  0.1680  0.2918
  920MPD2    C113516   3.160   3.597  11.000  0.2483 -0.0955  0.6180
  920MPD2    C213517   3.122   3.509  11.097 -0.1733  0.3787 -0.1806
  920MPD2    C313518   3.187   3.502  11.218  0.0882 -0.1105  0.4625
  920MPD2    C413519   3.285   3.598  11.247 -0.5805  0.3206  0.5008
  920MPD2    C513520   3.309   3.692  11.153 -0.2844  0.6765  0.9486
  920MPD2     H13521   3.049   3.432  11.074 -1.7203  2.2301 -1.5106
  920MPD2    H113522   3.334   3.596  11.344  1.1821 -2.3418 -0.4482
  920MPD2    H213523   3.286   3.774  10.969 -1.0745  1.4023  1.5724
  920MPD2    H313524   3.385   3.766  11.174  1.1767 -0.5804  0.1022
  920MPD2     N13525   3.156   3.401  11.313  0.3183 -0.2156 -0.2868
  920MPD2    H513526   3.084   3.339  11.278 -0.8544  0.3862  1.0567
  920MPD2    N113527   3.097   3.581  10.879 -0.4926  0.1197  0.5779
  920MPD2    H713528   3.046   3.495  10.864  0.9758 -0.8451  1.0805
  921MPD2     C13529   4.231   2.074  16.931  0.3784 -0.3016 -1.1128
  921MPD2    C113530   4.278   1.946  16.918 -0.0619  0.1895 -0.0077
  921MPD2    C213531   4.184   1.846  16.921 -0.0350 -0.2846  0.1210
  921MPD2    C313532   4.044   1.870  16.922  0.0104  0.3478 -0.4986
  921MPD2    C413533   4.000   1.997  16.928  0.0359  0.0214  0.4536
  921MPD2    C513534   4.095   2.096  16.938 -0.3437 -0.1472  0.3823
  921MPD2     H13535   4.222   1.744  16.920  0.2480 -0.1848  0.9611
  921MPD2    H113536   3.899   2.031  16.907  0.7240  0.9793 -1.3414
  921MPD2    H213537   4.302   2.156  16.937  0.5799 -0.7199  2.3413
  921MPD2    H313538   4.055   2.197  16.929  1.4887  0.6679  1.3045
  921MPD2     N13539   3.943   1.777  16.889 -0.6075 -0.1922 -0.2905
  921MPD2    H513540   3.847   1.806  16.872  0.1987  2.0282 -0.9998
  921MPD2    N113541   4.416   1.928  16.925  0.3661 -0.5058 -0.0265
  921MPD2    H713542   4.474   2.011  16.925 -1.5846  0.8678 -0.0634
  922MPD2     C13543   0.048   0.173  17.575  0.6607 -0.4783  0.9995
  922MPD2    C113544   0.016   0.099  17.685  0.6698  0.0340  0.5581
  922MPD2    C213545   4.706   4.707  17.672 -0.6237  0.0874  0.1026
  922MPD2    C313546   4.690   4.652  17.547  0.6566 -0.2212  0.0861
  922MPD2    C413547   4.713   4.726  17.431  0.1999 -0.2575  0.3737
  922MPD2    C513548   0.018   0.118  17.454  0.4238 -0.3927 -0.8343
  922MPD2     H13549   4.678   4.654   0.021 -1.9365  0.0704 -0.3195
  922MPD2    H113550   4.681   4.692  17.334 -0.5002 -1.4229  1.0206
  922MPD2    H213551   0.066   0.280  17.580  0.8656 -0.4425 -0.3719
  922MPD2    H313552   0.027   0.183  17.368  0.6936  1.7753  0.8418
  922MPD2     N13553   4.637   4.515  17.536  0.6497  0.4215  0.6956
  922MPD2    H513554   4.588   4.473  17.615 -1.8102 -0.4469 -1.3139
  922MPD2    N113555   0.033   0.152   0.073 -0.3878 -0.6905  0.3011
  922MPD2    H713556   0.025   0.079   0.142  1.8968 -1.6316 -0.4334
  923MPD2     C13557   2.151   1.487   9.378  0.0695 -0.7396 -0.2025
  923MPD2    C113558   2.051   1.553   9.436 -0.1093  0.0484 -0.1334
  923MPD2    C213559   2.064   1.618   9.563  0.2540 -0.2239 -0.5139
  923MPD2    C313560   2.184   1.605   9.631 -0.0953  0.1178  0.5932
  923MPD2    C413561   2.291   1.542   9.572  0.0021 -0.9652 -0.2216
  923MPD2    C513562   2.273   1.486   9.448 -0.5799  0.4089  0.0683
  923MPD2     H13563   1.980   1.676   9.599  0.1921 -0.1154 -0.8391
  923MPD2    H113564   2.390   1.544   9.617  1.0146 -1.6275 -2.4339
  923MPD2    H213565   2.148   1.431   9.285  2.7637 -0.5633 -0.3948
  923MPD2    H313566   2.353   1.443   9.388 -2.1136 -1.3718 -0.6823
  923MPD2     N13567   2.195   1.650   9.770 -0.1850 -0.4076 -0.2460
  923MPD2    H513568   2.288   1.646   9.810 -0.5257 -2.1377  0.3828
  923MPD2    N113569   1.930   1.554   9.361  0.3243  0.4726  0.0237
  923MPD2    H713570   1.928   1.493   9.280 -1.4652  1.8996 -1.0244
  924MPD2     C13571   1.632   0.009  16.482 -0.5834  0.1873  0.0699
  924MPD2    C113572   1.586   0.073  16.593 -0.0695 -0.0104  0.1120
  924MPD2    C213573   1.603   0.213  16.609 -0.9147  0.1774 -0.9789
  924MPD2    C313574   1.667   0.285  16.509  0.0309  0.1508  0.3568
  924MPD2    C413575   1.718   0.220  16.399 -0.3951  0.7462  0.4923
  924MPD2    C513576   1.695   0.084  16.387  0.3325  0.7788 -0.1518
  924MPD2     H13577   1.555   0.255  16.697  1.2785  0.6542 -0.0189
  924MPD2    H113578   1.771   0.279  16.325  0.5714 -2.2124 -1.1965
  924MPD2    H213579   1.618   4.640  16.460  1.7541 -0.1281  0.1033
  924MPD2    H313580   1.717   0.033  16.294  0.6693  1.1119 -0.2559
  924MPD2     N13581   1.667   0.428  16.516 -0.3241  0.1656  0.1834
  924MPD2    H513582   1.715   0.476  16.441 -1.3085  1.0841  0.1446
  924MPD2    N113583   1.518   0.004  16.696 -0.0101 -0.0635 -0.1014
  924MPD2    H713584   1.479   0.068  16.765 -0.6711 -0.3353 -0.2200
  925MPD2     C13585   0.394   2.205  14.770 -0.4096  0.5691  0.0194
  925MPD2    C113586   0.260   2.221  14.752 -0.5387 -0.0470  0.4285
  925MPD2    C213587   0.180   2.163  14.844  0.1427  0.3190 -0.6553
  925MPD2    C313588   0.233   2.105  14.963 -0.5715 -0.3153  0.1867
  925MPD2    C413589   0.374   2.095  14.978 -0.0267 -0.2790 -0.7406
  925MPD2    C513590   0.449   2.149  14.880 -0.3175 -0.1229  0.1548
  925MPD2     H13591   0.073   2.151  14.833 -0.0754  1.2573  0.3922
  925MPD2    H113592   0.428   2.043  15.056 -2.8932 -1.0102  0.7481
  925MPD2    H213593   0.471   2.225  14.697 -0.2629  1.8923  0.5384
  925MPD2    H313594   0.556   2.129  14.884 -0.2764  0.0941  0.1343
  925MPD2     N13595   0.150   2.053  15.067 -0.0820 -0.4727 -0.3208
  925MPD2    H513596   0.196   1.991  15.133 -0.5398 -0.2731  0.1851
  925MPD2    N113597   0.199   2.287  14.638  0.2305  0.1887  0.5499
  925MPD2    H713598   0.099   2.281  14.618 -0.0978 -0.8215  2.5636
  926MPD2     C13599   4.029   0.977  13.556  0.2313  0.3536  0.2888
  926MPD2    C113600   3.902   1.025  13.523  0.5796  0.8751 -1.0290
  926MPD2    C213601   3.902   1.137  13.433  0.8355 -0.0067  0.9188
  926MPD2    C313602   4.027   1.189  13.385 -0.4080  0.4896 -0.0459
  926MPD2    C413603   4.144   1.130  13.420 -0.1432 -0.2690  0.2296
  926MPD2    C513604   4.142   1.026  13.505  0.4995  0.2744 -0.1387
  926MPD2     H13605   3.805   1.175  13.404  0.1820 -1.2246  1.4778
  926MPD2    H113606   4.237   1.178  13.390  0.8713 -1.9976  0.6350
  926MPD2    H213607   4.040   0.911  13.642 -0.8378  1.4089  1.2456
  926MPD2    H313608   4.235   0.987  13.545 -0.7364  0.7548  3.1521
  926MPD2     N13609   4.034   1.302  13.296  0.0786  0.1169  0.0745
  926MPD2    H513610   4.121   1.346  13.269  1.0127 -1.8392 -0.0810
  926MPD2    N113611   3.783   0.971  13.580 -0.2218  0.4949  0.7150
  926MPD2    H713612   3.697   1.022  13.560 -1.8126 -2.3282  0.2893
  927MPD2     C13613   4.184   3.079  17.543 -0.5066 -0.2033 -0.0984
  927MPD2    C113614   4.071   3.007  17.564 -0.0718 -0.3249 -0.2425
  927MPD2    C213615   4.013   2.941  17.454  0.6198  0.1881 -0.1087
  927MPD2    C313616   4.068   2.965  17.330 -0.7952 -0.7475 -0.2390
  927MPD2    C413617   4.181   3.032  17.311  0.1426  0.1394 -0.4705
  927MPD2    C513618   4.239   3.098  17.420 -0.7740 -0.5727  0.0133
  927MPD2     H13619   3.922   2.882  17.457  1.1743 -0.6146  0.7429
  927MPD2    H113620   4.221   3.046  17.211  0.0062  0.1431 -0.5251
  927MPD2    H213621   4.243   3.107  17.630 -0.7064 -0.0915  0.0006
  927MPD2    H313622   4.336   3.144  17.403  0.0776 -2.4312 -0.1503
  927MPD2     N13623   3.997   2.904  17.225 -0.1596  0.6130 -0.5778
  927MPD2    H513624   3.911   2.861  17.256 -0.0432  1.0154  0.3131
  927MPD2    N113625   4.026   2.992  17.698  0.5811 -0.0293  0.0590
  927MPD2    H713626   4.066   3.051   0.028  2.4525  1.7116 -2.4080
  928MPD2     C13627   2.211   1.462   1.108  0.3044 -0.0756 -0.1098
  928MPD2    C113628   2.113   1.518   1.028 -0.4804  0.4133 -0.0829
  928MPD2    C213629   2.130   1.503   0.888 -0.0984  0.1113  0.3085
  928MPD2    C313630   2.245   1.450   0.833 -0.0791  0.0207 -0.3529
  928MPD2    C413631   2.341   1.400   0.918  0.3265  0.2326  0.3541
  928MPD2    C513632   2.314   1.398   1.056  0.1598 -0.3530 -0.1037
  928MPD2     H13633   2.056   1.542   0.819 -1.3938  0.0399  1.6657
  928MPD2    H113634   2.432   1.357   0.878 -0.7060 -1.3089 -0.3587
  928MPD2    H213635   2.201   1.457   1.216  0.7553  1.3299 -0.0124
  928MPD2    H313636   2.389   1.352   1.119  0.0002  0.0081  0.3548
  928MPD2     N13637   2.273   1.449   0.698  0.0105 -0.0395  0.5024
  928MPD2    H513638   2.372   1.443   0.673 -0.0887 -2.7258  0.7266
  928MPD2    N113639   1.992   1.561   1.089  0.1059 -0.1267 -0.2972
  928MPD2    H713640   1.991   1.566   1.190  0.3858 -0.3455 -0.2837
  929MPD2     C13641   1.029   1.766   9.906 -0.5035 -0.2009  0.0746
  929MPD2    C113642   1.160   1.726   9.921  0.1864  0.7496  0.4178
  929MPD2    C213643   1.248   1.823   9.966  0.3368 -0.0232 -0.1659
  929MPD2    C313644   1.207   1.927  10.039  0.2406  1.0458  0.3659
  929MPD2    C413645   1.073   1.967  10.032 -0.6665  0.0092 -0.2354
  929MPD2    C513646   0.992   1.893   9.951 -0.3426  0.0404 -0.1171
  929MPD2     H13647   1.349   1.786   9.981 -0.2121 -1.1493  0.7514
  929MPD2    H113648   1.030   2.057  10.073 -1.3360  0.6371 -2.3197
  929MPD2    H213649   0.945   1.709   9.868 -0.3118 -1.3769  1.4161
  929MPD2    H313650   0.889   1.926   9.947  1.0018  4.3882  1.0539
  929MPD2     N13651   1.292   1.994  10.131  0.1406  0.2054 -0.0285
  929MPD2    H513652   1.253   2.064  10.193  0.1719  0.2677 -0.0800
  929MPD2    N113653   1.206   1.592   9.899  0.0180 -0.2389  0.4437
  929MPD2    H713654   1.303   1.577   9.925 -0.3614  0.6266  2.3554
  930MPD2     C13655   3.611   3.671  14.251  0.0485  0.2740 -0.0416
  930MPD2    C113656   3.503   3.754  14.223  0.2593  0.1814  0.1240
  930MPD2    C213657   3.385   3.703  14.161 -0.1800  1.3589 -0.4566
  930MPD2    C313658   3.387   3.574  14.107 -0.8553  0.1916  0.1818
  930MPD2    C413659   3.493   3.493  14.140 -0.2645 -0.1282 -0.3640
  930MPD2    C513660   3.602   3.537  14.215 -0.1340 -0.3059  0.5242
  930MPD2     H13661   3.302   3.771  14.153 -1.7882 -0.4859  0.4380
  930MPD2    H113662   3.503   3.398  14.088  0.7948 -0.1002 -0.2110
  930MPD2    H213663   3.698   3.723  14.287  0.9806 -1.4593  0.2156
  930MPD2    H313664   3.687   3.472  14.231 -0.6800 -0.9670  0.7173
  930MPD2     N13665   3.281   3.529  14.019  0.3034 -0.0112 -0.3839
  930MPD2    H513666   3.264   3.430  14.009  1.4371 -0.1329 -1.1511
  930MPD2    N113667   3.513   3.887  14.261 -0.0707  0.6872  0.4629
  930MPD2    H713668   3.595   3.905  14.318  0.4000 -2.6267  0.8381
  931MPD2     C13669   4.158   3.287   0.610 -0.3322  0.5526  0.0616
  931MPD2    C113670   4.087   3.174   0.645 -0.1522 -0.2202  0.7290
  931MPD2    C213671   4.039   3.161   0.780  0.0010  0.2794 -0.5370
  931MPD2    C313672   4.075   3.252   0.873 -0.0335  0.1457  0.2786
  931MPD2    C413673   4.152   3.365   0.831 -0.5339  0.6465 -1.3540
  931MPD2    C513674   4.192   3.379   0.702 -0.3835  0.1095 -0.2657
  931MPD2     H13675   3.980   3.074   0.805 -3.1338  1.8720 -2.4470
  931MPD2    H113676   4.182   3.443   0.899  4.3575 -2.0504 -0.4320
  931MPD2    H213677   4.187   3.304   0.507 -0.8502 -1.4832 -0.4331
  931MPD2    H313678   4.247   3.464   0.665 -0.9499 -0.8687 -3.3241
  931MPD2     N13679   4.032   3.250   1.004 -0.3391  0.3396  0.0908
  931MPD2    H513680   4.070   3.326   1.060  0.0849 -0.4807  0.9366
  931MPD2    N113681   4.041   3.080   0.559 -0.1122 -0.0822  0.0642
  931MPD2    H713682   3.978   3.010   0.598 -0.3167  0.1670  0.1812
  932MPD2     C13683   0.082   2.480  11.752 -0.5957 -0.3459 -0.3597
  932MPD2    C113684   0.203   2.476  11.692  0.3798 -0.0099 -0.6284
  932MPD2    C213685   0.260   2.360  11.637  0.2195  0.2249  0.9129
  932MPD2    C313686   0.198   2.238  11.649 -0.1079  0.0394  0.4509
  932MPD2    C413687   0.073   2.237  11.714 -0.4965 -0.4191 -0.2784
  932MPD2    C513688   0.019   2.355  11.759 -0.3534 -0.1681 -0.4709
  932MPD2     H13689   0.358   2.353  11.592 -0.1309 -0.9771  0.3451
  932MPD2    H113690   0.036   2.139  11.744 -0.0045  0.8260  4.4352
  932MPD2    H213691   0.033   2.567  11.794  2.1862  1.5913 -1.1524
  932MPD2    H313692   4.666   2.338  11.819  0.3256  1.7325  1.0602
  932MPD2     N13693   0.251   2.108  11.619  0.0697 -0.2495  0.4815
  932MPD2    H513694   0.205   2.033  11.669 -0.2152 -1.6079 -1.8461
  932MPD2    N113695   0.286   2.590  11.697 -0.0893  0.1923 -0.4906
  932MPD2    H713696   0.381   2.590  11.661  0.7932 -1.8485  1.7260
  933MPD2     C13697   1.233   1.470   1.024 -0.0877 -0.4011  0.1191
  933MPD2    C113698   1.254   1.600   0.996  0.6747 -0.3175 -0.2591
  933MPD2    C213699   1.149   1.689   0.962 -0.0101 -0.1757  0.1748
  933MPD2    C313700   1.025   1.632   0.934 -0.1697 -0.2009 -0.5633
  933MPD2    C413701   1.008   1.497   0.972 -0.1127  0.1473  0.1189
  933MPD2    C513702   1.107   1.419   1.017 -0.5811  0.6419 -0.0558
  933MPD2     H13703   1.170   1.792   0.937  1.7519 -0.1404  1.7171
  933MPD2    H113704   0.912   1.447   0.971  0.6385 -1.2809 -1.1698
  933MPD2    H213705   1.303   1.396   1.058  0.6317  0.2648  0.0897
  933MPD2    H313706   1.088   1.319   1.054 -0.7583  0.1882 -1.3571
  933MPD2     N13707   0.937   1.709   0.860 -0.6380 -0.5698  0.2705
  933MPD2    H513708   0.950   1.810   0.854 -0.3008 -0.5925  0.6473
  933MPD2    N113709   1.384   1.639   1.013  0.2494 -0.3245 -0.7747
  933MPD2    H713710   1.458   1.570   1.009 -1.9160 -2.7850  1.4763
  934MPD2     C13711   2.669   4.090   1.835  0.1718  0.3446  0.7203
  934MPD2    C113712   2.722   4.072   1.708 -0.3465  1.0130  0.2383
  934MPD2    C213713   2.662   3.981   1.625  0.0097  0.3680 -0.2242
  934MPD2    C313714   2.562   3.900   1.681 -0.3325  0.0607  0.1386
  934MPD2    C413715   2.518   3.916   1.810  0.5782 -0.3754  0.9329
  934MPD2    C513716   2.562   4.019   1.881  0.0298 -0.4682 -0.0515
  934MPD2     H13717   2.704   3.972   1.525 -0.5837 -0.9180 -0.3564
  934MPD2    H113718   2.431   3.858   1.840 -0.5160  0.4203 -0.7365
  934MPD2    H213719   2.702   4.167   1.904  2.5269 -0.6821  0.7122
  934MPD2    H313720   2.513   4.038   1.976  2.5850  0.3798  1.1109
  934MPD2     N13721   2.516   3.793   1.608  0.8459 -0.1326 -0.2298
  934MPD2    H513722   2.443   3.732   1.645  0.1912  0.8620  0.1206
  934MPD2    N113723   2.833   4.150   1.662  0.3018 -0.4221 -0.2256
  934MPD2    H713724   2.862   4.125   1.568 -0.3339  1.6230 -0.9870
  935MPD2     C13725   2.886   3.066   1.062  0.0677  0.3059  0.3750
  935MPD2    C113726   2.759   3.083   1.008  0.7302 -0.8829  0.1220
  935MPD2    C213727   2.661   3.159   1.063 -0.2273 -0.2344  0.4670
  935MPD2    C313728   2.696   3.221   1.188  0.1482 -0.5586  0.1782
  935MPD2    C413729   2.820   3.201   1.249  0.4350 -0.5989 -0.1991
  935MPD2    C513730   2.917   3.133   1.182  1.2932  0.0032 -0.3592
  935MPD2     H13731   2.561   3.163   1.020 -0.0490 -1.9143 -0.0864
  935MPD2    H113732   2.854   3.259   1.334  0.4791  0.6748 -1.0881
  935MPD2    H213733   2.963   3.007   1.014 -0.0564 -0.9193  1.6633
  935MPD2    H313734   3.016   3.139   1.227  1.6746  0.4388 -1.2385
  935MPD2     N13735   2.609   3.306   1.253 -0.7753 -0.5432 -0.0884
  935MPD2    H513736   2.637   3.322   1.350 -1.8013 -0.3068  0.1627
  935MPD2    N113737   2.720   3.015   0.887  0.3225  0.5271 -0.0034
  935MPD2    H713738   2.621   3.010   0.867  0.4011 -2.0040  0.1823
  936MPD2     C13739   1.266   1.208  13.403 -0.3213  0.4042  0.8607
  936MPD2    C113740   1.293   1.165  13.528  0.4050  0.1063 -0.2318
  936MPD2    C213741   1.429   1.170  13.562  0.6128 -0.3992 -0.5126
  936MPD2    C313742   1.529   1.207  13.471 -0.2717  0.2114 -0.0018
  936MPD2    C413743   1.496   1.254  13.347 -0.6072 -0.6885 -0.2476
  936MPD2    C513744   1.357   1.263  13.316 -0.9102  0.8115 -0.4205
  936MPD2     H13745   1.456   1.132  13.660 -3.4466 -0.9537  0.3786
  936MPD2    H113746   1.568   1.283  13.272  0.1470 -1.7654  0.0695
  936MPD2    H213747   1.165   1.189  13.368  0.8574 -0.0073 -2.3227
  936MPD2    H313748   1.329   1.306  13.221 -1.0601  0.7369 -0.4103
  936MPD2     N13749   1.662   1.179  13.498  0.8967 -0.0985 -0.0280
  936MPD2    H513750   1.727   1.209  13.426 -0.8449  2.9039 -0.3514
  936MPD2    N113751   1.200   1.104  13.614 -0.0562 -0.2304 -0.3591
  936MPD2    H713752   1.239   1.047  13.688  2.0601 -0.4410 -1.6524
  937MPD2     C13753   3.394   2.253  11.954 -0.2414  0.0223  0.1752
  937MPD2    C113754   3.348   2.382  11.950 -0.3036 -0.3512  0.0872
  937MPD2    C213755   3.416   2.471  11.872  0.0204  0.1493  0.2185
  937MPD2    C313756   3.507   2.431  11.773  0.6516  0.6173 -0.2746
  937MPD2    C413757   3.529   2.299  11.756 -0.5928 -0.2421  0.6964
  937MPD2    C513758   3.466   2.212  11.845  1.2371  0.2010 -0.1784
  937MPD2     H13759   3.393   2.577  11.886  0.3707  0.1481  0.7580
  937MPD2    H113760   3.591   2.257  11.678  0.4279  2.5027  0.0558
  937MPD2    H213761   3.369   2.179  12.028  1.6642 -0.3970  0.3927
  937MPD2    H313762   3.476   2.104  11.844  1.3081  0.2038  0.2612
  937MPD2     N13763   3.544   2.535  11.678 -0.4243 -0.2258 -0.3031
  937MPD2    H513764   3.547   2.632  11.707  1.4356  0.0740 -1.4895
  937MPD2    N113765   3.275   2.436  12.059  0.1483  0.7578  0.0204
  937MPD2    H713766   3.241   2.531  12.051 -0.3680  0.6108  0.4720
  938MPD2     C13767   1.696   3.163   0.490  0.3851 -0.2306 -0.7309
  938MPD2    C113768   1.747   3.209   0.616  0.3521 -0.3911  0.1124
  938MPD2    C213769   1.726   3.123   0.724  1.3257 -0.3698  0.4124
  938MPD2    C313770   1.671   3.001   0.714  0.7904 -0.9190 -0.3439
  938MPD2    C413771   1.609   2.964   0.598 -0.7260  0.1149  0.1944
  938MPD2    C513772   1.623   3.049   0.490  0.1187  0.3280 -0.3829
  938MPD2     H13773   1.768   3.159   0.817 -2.5018  1.0594  1.5882
  938MPD2    H113774   1.553   2.872   0.587 -2.2720  1.3491 -2.3015
  938MPD2    H213775   1.712   3.215   0.396 -0.2315 -0.1848 -0.8099
  938MPD2    H313776   1.601   3.017   0.389 -1.9925 -1.7583  0.7307
  938MPD2     N13777   1.640   2.917   0.819  0.7107 -0.0256  0.4643
  938MPD2    H513778   1.581   2.840   0.789  0.5796  1.0055 -1.9425
  938MPD2    N113779   1.803   3.334   0.623 -0.2070 -0.1694  0.2859
  938MPD2    H713780   1.814   3.374   0.716  0.0637  1.7644 -0.5831
  939MPD2     C13781   3.082   4.333   0.990 -1.1376  0.2069  0.2668
  939MPD2    C113782   2.984   4.328   0.897  0.1438 -0.7223 -0.0204
  939MPD2    C213783   3.000   4.256   0.779 -0.1967 -0.1861 -0.3696
  939MPD2    C313784   3.116   4.177   0.769  0.2226  1.2138  0.3264
  939MPD2    C413785   3.208   4.178   0.866  0.2567  0.0686  0.0436
  939MPD2    C513786   3.195   4.262   0.974 -0.1832  0.4782  0.0791
  939MPD2     H13787   2.929   4.262   0.698 -0.2161 -2.0031 -0.4961
  939MPD2    H113788   3.289   4.106   0.864 -0.6161 -0.9427  1.5964
  939MPD2    H213789   3.082   4.384   1.086  0.8449  0.2206  0.2563
  939MPD2    H313790   3.269   4.263   1.054 -0.3764  0.4374  0.2592
  939MPD2     N13791   3.119   4.084   0.662  0.7250  0.4591 -0.0888
  939MPD2    H513792   3.042   4.083   0.596  0.3260  1.4713  0.3634
  939MPD2    N113793   2.879   4.419   0.927 -0.0755 -0.2353  0.2153
  939MPD2    H713794   2.887   4.491   0.998  1.1405  0.1767 -0.3352
  940MPD2     C13795   2.328   4.697  13.971 -0.5679 -0.2125  0.4031
  940MPD2    C113796   2.278   0.088  13.941  0.4314 -0.2114 -0.6045
  940MPD2    C213797   2.231   0.121  13.814  0.1515 -0.0377  0.3513
  940MPD2    C313798   2.231   0.021  13.717 -0.1493 -0.6230  0.1829
  940MPD2    C413799   2.284   4.635  13.743 -0.3883 -0.2023 -0.3506
  940MPD2    C513800   2.328   4.605  13.868 -0.2544  1.0624  0.1472
  940MPD2     H13801   2.181   0.216  13.806  0.7489  0.3115  0.7942
  940MPD2    H113802   2.283   4.550  13.676 -1.6608  0.1890 -0.8203
  940MPD2    H213803   2.364   4.662  14.067 -0.1798 -1.2686 -0.1271
  940MPD2    H313804   2.360   4.506  13.901 -0.8488  0.3259 -1.4860
  940MPD2     N13805   2.185   0.045  13.586 -0.0450  0.3315  0.0283
  940MPD2    H513806   2.184   4.699  13.525  1.0325  0.5163 -0.2446
  940MPD2    N113807   2.243   0.175  14.049 -0.4883 -0.0287 -0.7074
  940MPD2    H713808   2.191   0.259  14.025 -0.8284  0.5636  2.1689
  941MPD2     C13809   0.585   4.293  10.023 -0.6061 -0.1277 -0.2300
  941MPD2    C113810   0.660   4.311  10.130  0.2142 -0.0637  0.2199
  941MPD2    C213811   0.624   4.252  10.247 -0.2969  0.8797 -0.0871
  941MPD2    C313812   0.500   4.188  10.250  0.0723 -0.4951 -0.1551
  941MPD2    C413813   0.415   4.185  10.140  0.7738  0.4404  0.2033
  941MPD2    C513814   0.461   4.236  10.023 -0.1834 -0.1301  0.2645
  941MPD2     H13815   0.697   4.258  10.327 -0.6257  1.1802  0.1920
  941MPD2    H113816   0.321   4.134  10.157  1.1869 -1.5041 -3.4344
  941MPD2    H213817   0.616   4.342   9.932 -1.5135  1.3004  0.2270
  941MPD2    H313818   0.405   4.219   9.932  0.0986 -0.6801  0.1945
  941MPD2     N13819   0.451   4.125  10.371 -0.0744  0.2043 -0.1382
  941MPD2    H513820   0.359   4.083  10.368 -0.5526  1.3634 -1.5499
  941MPD2    N113821   0.782   4.390  10.131  0.3999 -0.3519  0.0586
  941MPD2    H713822   0.849   4.386  10.207 -1.0222  1.4096  1.4077
  942MPD2     C13823   0.521   0.968   9.367 -0.1284  0.0019  0.2467
  942MPD2    C113824   0.452   1.076   9.308 -0.4380  0.9600  0.3977
  942MPD2    C213825   0.504   1.200   9.296 -0.9078 -0.5564  0.0615
  942MPD2    C313826   0.628   1.223   9.355  0.0238 -0.3654  0.1839
  942MPD2    C413827   0.689   1.121   9.415  0.2843  0.8205 -0.1961
  942MPD2    C513828   0.644   0.993   9.426  1.0231 -0.3795  0.2728
  942MPD2     H13829   0.443   1.272   9.243  0.5963  0.9781  0.4174
  942MPD2    H113830   0.788   1.142   9.454 -0.3259  0.5138  1.4876
  942MPD2    H213831   0.484   0.867   9.382  0.0191 -0.0858  0.0251
  942MPD2    H313832   0.696   0.919   9.487  0.1108 -0.3800  1.0472
  942MPD2     N13833   0.691   1.352   9.353  0.2050 -0.1334  0.4661
  942MPD2    H513834   0.783   1.359   9.396  0.0675  0.9320  0.5751
  942MPD2    N113835   0.327   1.038   9.256  0.2130 -0.0025 -0.4656
  942MPD2    H713836   0.294   0.946   9.281 -2.3540  0.4630 -2.1675
  943MPD2     C13837   4.424   0.713  10.261 -0.1355  0.1783  0.4635
  943MPD2    C113838   4.445   0.575  10.272  0.1485  0.0216 -0.3049
  943MPD2    C213839   4.565   0.534  10.327  0.0839  0.3017 -0.4436
  943MPD2    C313840   4.655   0.619  10.383 -0.4214 -0.1114  0.4138
  943MPD2    C413841   4.624   0.753  10.377 -0.4951  0.0475 -0.1279
  943MPD2    C513842   4.513   0.803  10.315 -0.0790  0.4897 -0.4367
  943MPD2     H13843   4.584   0.429  10.343 -0.4610 -0.2394 -3.4199
  943MPD2    H113844   4.706   0.812  10.417  1.0204 -1.3961 -1.0942
  943MPD2    H213845   4.338   0.755  10.210  1.6600  2.7911 -0.3386
  943MPD2    H313846   4.508   0.911  10.316 -0.9507  0.4424 -0.0558
  943MPD2     N13847   0.044   0.571  10.441 -0.3099 -0.4324 -0.4649
  943MPD2    H513848   0.087   0.636  10.505  1.5401 -1.7517 -0.3795
  943MPD2    N113849   4.347   0.485  10.224  0.1530  0.6487  0.4339
  943MPD2    H713850   4.266   0.535  10.188 -0.0934 -1.2954 -1.7037
  944MPD2     C13851   3.794   4.605  11.490 -0.8665  0.1001 -0.5494
  944MPD2    C113852   3.676   4.560  11.536 -0.2291 -0.4943 -0.1125
  944MPD2    C213853   3.628   4.635  11.641 -0.0579 -0.1464  0.0271
  944MPD2    C313854   3.690   0.012  11.695 -0.8549 -0.3222 -0.1602
  944MPD2    C413855   3.816   0.051  11.646 -0.0935 -0.4950 -0.4446
  944MPD2    C513856   3.860   4.710  11.542 -0.8957 -0.7163 -0.0133
  944MPD2     H13857   3.527   4.611  11.674  0.0155 -3.4603 -2.1790
  944MPD2    H113858   3.872   0.138  11.677 -0.9631 -0.5778  1.4061
  944MPD2    H213859   3.841   4.554  11.407 -0.9631 -0.7029 -0.1187
  944MPD2    H313860   3.953   0.001  11.494 -0.1362  1.5359  2.7532
  944MPD2     N13861   3.612   0.085  11.790 -0.2298 -0.5214  0.6797
  944MPD2    H513862   3.528   0.036  11.818 -2.2247  3.3405  1.4184
  944MPD2    N113863   3.611   4.448  11.480  0.4507  0.4498 -0.0358
  944MPD2    H713864   3.662   4.403  11.405 -0.9657  1.3668 -1.5357
    1TMC1    C113865   1.903   4.518  14.830 -0.0989  0.4851  0.1239
    1TMC1    C213866   2.036   4.544  14.785 -0.5989 -0.2229  0.0700
    1TMC1    C313867   2.091   4.443  14.717 -0.0743 -0.3310 -0.2303
    1TMC1    C413868   1.838   4.408  14.800  0.6886  0.0057 -0.3754
    1TMC1    C513869   1.899   4.311  14.726  0.3845  0.3208  0.0881
    1TMC1    C613870   2.031   4.328  14.693  0.2066 -0.6061  0.2750
    1TMC1     C13871   1.838   4.629  14.907 -0.1069 -0.5402  0.6882
    1TMC1     O13872   1.732   4.608  14.960 -0.0588 -0.0874  0.2011
    1TMC1     H13873   2.096   4.626  14.822 -0.4634 -0.7669  1.0603
    1TMC1    H113874   1.730   4.409  14.814  0.8436 -3.1590  1.0848
    1TMC1    H213875   2.087   4.254  14.637  0.8172  0.4462 -0.4948
    1TMC1    C713876   1.816   4.233  14.632 -0.2350 -1.1712 -0.1308
    1TMC1    C813877   2.233   4.443  14.697 -0.7605 -0.0227 -0.0784
    1TMC1    O113878   1.706   4.270  14.607  0.2325  0.9341  0.2088
    1TMC1    O213879   2.293   4.340  14.669 -0.3804 -0.2488 -0.3685
    1TMC1    O313880   1.867   4.110  14.639 -0.2354  0.1376  0.3860
    1TMC1    H313881   1.958   4.113  14.676  1.3704 -0.6204 -3.5168
    1TMC1    O513882   2.255   4.566  14.634  0.1087  0.2106 -0.0842
    1TMC1    H513883   2.197   4.639  14.662 -1.7660 -0.5305 -2.0536
    2MPD2     C13884   1.772   0.386  15.058  0.4806 -0.2763  0.3007
    2MPD2    C113885   1.856   0.397  14.951 -0.4730  0.0075  0.2176
    2MPD2    C213886   1.903   0.279  14.895 -0.3668 -0.1616 -0.4935
    2MPD2    C313887   1.857   0.146  14.942  0.1794 -0.1240  0.5727
    2MPD2    C413888   1.772   0.146  15.048 -1.2404 -0.4288 -0.2516
    2MPD2    C513889   1.733   0.268  15.102 -0.4372 -0.3487 -0.1628
    2MPD2     H13890   1.949   0.283  14.797 -0.9451 -1.3809 -0.8218
    2MPD2    H113891   1.740   0.054  15.095 -0.7126 -0.1422  0.6645
    2MPD2    H213892   1.740   0.478  15.107  0.2490  0.0079 -0.3761
    2MPD2    H313893   1.686   0.265  15.199  0.6445 -1.0610  0.3456
    2MPD2     N13894   1.895   0.020  14.880 -0.5424 -0.3086 -0.5496
    2MPD2    H513895   1.947   0.037  14.795  0.4796  1.0765  0.3316
    2MPD2    N113896   1.885   0.532  14.916 -0.3613 -0.3473  0.0758
    2MPD2    H713897   1.838   0.605  14.970 -2.6315 -2.1938  0.6326
    3TMC2    C113898   1.945   0.708  14.760  0.3126 -0.3612 -0.7166
    3TMC2    C213899   1.832   0.774  14.802 -0.5181 -0.6123  1.0291
    3TMC2    C313900   1.778   0.870  14.728 -0.3138 -0.3034 -0.0309
    3TMC2    C413901   2.000   0.736  14.640 -0.1427  0.2529  0.1376
    3TMC2    C513902   1.937   0.834  14.565  0.4580 -0.7851 -0.2546
    3TMC2    C613903   1.819   0.899  14.602 -0.0409  0.4638 -0.4811
    3TMC2     C13904   1.957   0.574  14.809 -0.1326  0.8830  0.6183
    3TMC2     O13905   2.029   0.508  14.738  0.3218  0.3023  0.4574
    3TMC2     H13906   1.789   0.763  14.901 -2.2701 -1.1557  0.2078
    3TMC2    H113907   2.091   0.690  14.605 -0.1557  0.5541 -0.2911
    3TMC2    H213908   1.773   0.983  14.554  3.7485  3.0435  0.3671
    3TMC2    C713909   1.986   0.838  14.428  0.1434  0.7566 -0.3591
    3TMC2    C813910   1.675   0.947  14.786  0.4201 -0.0988  0.0721
    3TMC2    O113911   2.094   0.793  14.406  1.0020 -0.1102 -0.4649
    3TMC2    O213912   1.656   1.063  14.762 -0.2915  0.1428  0.2408
    3TMC2    O513913   1.577   0.862  14.829 -0.0804 -0.5341  0.1223
    3TMC2    H513914   1.590   0.765  14.819 -2.2097 -0.8984  0.7191
    4TMC2    C113915   1.267   1.324  13.927 -0.0781  0.2646  0.0109
    4TMC2    C213916   1.326   1.430  13.864 -0.2680 -0.2598  0.5685
    4TMC2    C313917   1.464   1.427  13.838 -0.7215 -0.2985 -0.2111
    4TMC2    C413918   1.336   1.217  13.973  0.0845 -0.5123 -0.2301
    4TMC2    C513919   1.469   1.208  13.946 -0.7925 -0.3854  0.2914
    4TMC2    C613920   1.536   1.309  13.876  0.1058 -0.1274  0.1289
    4TMC2     C13921   1.117   1.306  13.912 -0.1306 -0.7294 -0.5149
    4TMC2     O13922   1.070   1.214  13.982  0.0856  0.5515 -0.1210
    4TMC2     H13923   1.267   1.516  13.836  1.7273  1.0330  0.3029
    4TMC2    H113924   1.287   1.140  14.031 -1.7720  0.8479  0.0256
    4TMC2    H213925   1.644   1.315  13.877  0.1549 -0.7131 -2.3244
    4TMC2    C713926   1.548   1.139  14.039  0.8418  0.2765  0.2870
    4TMC2    C813927   1.528   1.544  13.782  0.3474  0.5412  0.2151
    4TMC2    O113928   1.508   1.116  14.157 -0.7211  0.8365  0.0814
    4TMC2    O213929   1.474   1.642  13.728  0.0766  0.2054  0.0054
    4TMC2    O513930   1.655   1.552  13.823 -0.3192  0.1121 -0.0047
    4TMC2    H513931   1.651   1.506  13.909  0.0292  2.1435  1.1094
    5MPD2     C13932   0.672   1.359  13.680  0.3495  0.7408  0.1877
    5MPD2    C113933   0.767   1.417  13.598  1.0488 -0.5166 -0.1799
    5MPD2    C213934   0.894   1.425  13.646  0.3248  0.1261  0.0237
    5MPD2    C313935   0.925   1.360  13.767 -0.3450  0.2183  0.2072
    5MPD2    C413936   0.833   1.283  13.836 -0.6871  0.2079 -0.2868
    5MPD2    C513937   0.707   1.280  13.787 -0.2457  0.2898  0.5616
    5MPD2     H13938   0.983   1.470  13.604 -0.2477  1.1635 -0.0803
    5MPD2    H113939   0.854   1.234  13.930 -1.7132  0.4195  0.0447
    5MPD2    H213940   0.568   1.349  13.653  0.6007 -2.0552  0.2699
    5MPD2    H313941   0.621   1.219  13.813  1.9721 -2.7809  0.6538
    5MPD2     N13942   1.059   1.368  13.800 -0.7211 -0.3546 -0.5385
    5MPD2    H513943   1.117   1.428  13.742  0.3518 -1.4569 -0.5942
    5MPD2    N113944   0.734   1.466  13.469 -0.3135 -0.5951 -0.8293
    5MPD2    H713945   0.635   1.464  13.445 -0.2310 -1.1638 -1.1251
    6MPD1     C13946   0.273   3.056  13.704 -0.8878 -0.1193  0.0239
    6MPD1    C113947   0.249   3.085  13.574  0.5777 -0.2369  0.4356
    6MPD1    C213948   0.316   3.009  13.477 -0.8416 -0.2170  0.4633
    6MPD1    C313949   0.405   2.903  13.515 -0.7560  0.6396 -0.1882
    6MPD1    C413950   0.436   2.891  13.648  0.0983 -0.5569 -0.4254
    6MPD1    C513951   0.363   2.961  13.738  0.0221 -0.5445  0.3861
    6MPD1     H13952   0.302   3.037  13.373  1.4989  1.5415  0.6156
    6MPD1    H113953   0.494   2.810  13.691  0.7814 -0.3952 -1.0372
    6MPD1    H213954   0.219   3.110  13.780  0.0504 -0.1896  0.7454
    6MPD1    H313955   0.374   2.942  13.844 -2.5575 -0.2309  0.7142
    6MPD1     N13956   0.456   2.801  13.430  0.5061  0.0103 -0.2968
    6MPD1    H513957   0.528   2.745  13.473  0.4559  1.2665  1.4213
    6MPD1    N113958   0.182   3.205  13.547  0.1518  0.2218 -0.5095
    6MPD1    H613959   0.161   3.217  13.449 -0.1043  0.4696 -0.4254
    6MPD1    H713960   0.093   3.197  13.597  1.2951 -1.7880  1.2302
    7MPD2     C13961   0.175   2.115  13.006  0.0228 -0.2322 -0.2675
    7MPD2    C113962   0.285   2.112  13.086  0.0172  0.2117  0.0375
    7MPD2    C213963   0.367   2.004  13.091 -0.5873 -0.1574 -0.1391
    7MPD2    C313964   0.332   1.883  13.031 -0.3487  0.2845  0.0119
    7MPD2    C413965   0.216   1.874  12.955 -0.0454  0.1812  1.2368
    7MPD2    C513966   0.144   1.993  12.943  0.4054  0.4648 -0.3998
    7MPD2     H13967   0.454   1.999  13.155 -1.8594 -0.5774  1.5390
    7MPD2    H113968   0.180   1.791  12.896 -0.7377 -0.4143  2.5147
    7MPD2    H213969   0.115   2.204  12.994  0.7960  0.4380  0.8533
    7MPD2    H313970   0.054   1.984  12.882  0.2377  0.1552 -0.1042
    7MPD2     N13971   0.416   1.770  13.040  0.1430 -0.7931  0.3322
    7MPD2    H513972   0.418   1.700  12.967 -1.1461  0.1342 -0.5988
    7MPD2    N113973   0.346   2.230  13.133  0.0318  0.6136 -0.2110
    7MPD2    H713974   0.441   2.225  13.168  0.3854 -0.5546 -1.3427
    8TMC3    C113975   0.588   1.633  13.119  0.0070 -0.0396  0.5505
    8TMC3    C213976   0.630   1.570  13.229 -0.3528  0.6739 -0.0432
    8TMC3    C313977   0.768   1.556  13.253 -0.4162 -0.8656 -0.1418
    8TMC3    C413978   0.677   1.666  13.017  0.4778  0.6441  0.5118
    8TMC3    C513979   0.809   1.686  13.054 -0.3204  0.3159 -0.3398
    8TMC3    C613980   0.850   1.619  13.166 -0.6517  0.6143 -0.3119
    8TMC3     C13981   0.504   1.745  13.141 -0.2660 -0.5706  0.5083
    8TMC3     O13982   0.521   1.809  13.245  0.8349 -0.4081  0.3025
    8TMC3     H13983   0.561   1.541  13.308 -0.2957  1.4421  0.2881
    8TMC3    H113984   0.640   1.719  12.930  0.3082  0.9057  0.7444
    8TMC3    H213985   0.958   1.608  13.178 -0.3057  2.7534 -1.4652
    8TMC3    C713986   0.835   1.827  13.051 -0.0212 -0.2057  0.3358
    8TMC3    C813987   0.829   1.507  13.378 -0.1765 -0.4773 -0.1421
    8TMC3    O113988   0.759   1.889  12.976 -0.1428 -0.2359 -0.5611
    8TMC3    O213989   0.950   1.530  13.394 -0.1650  0.2139  1.1178
    9TMC3    C113990   0.452   2.643  13.268 -0.5396  0.3610 -0.1292
    9TMC3    C213991   0.585   2.606  13.292 -0.0274 -0.0926 -0.5921
    9TMC3    C313992   0.624   2.494  13.231 -0.5615 -0.3942  0.2142
    9TMC3    C413993   0.362   2.574  13.200  0.1362 -0.1829  0.6665
    9TMC3    C513994   0.399   2.457  13.151 -0.1013 -0.4955  0.3243
    9TMC3    C613995   0.532   2.419  13.155 -0.1020 -0.1955 -0.2186
    9TMC3     C13996   0.400   2.772  13.311 -0.6760 -0.0773 -0.2262
    9TMC3     O13997   0.300   2.811  13.250  0.1600 -0.3847  0.4998
    9TMC3     H13998   0.654   2.680  13.329  1.7779 -1.6136 -0.8951
    9TMC3    H113999   0.256   2.599  13.205 -0.2987 -1.1827 -3.1705
    9TMC3    H214000   0.562   2.323  13.118  1.3166  0.2512 -0.2171
    9TMC3    C714001   0.294   2.358  13.118 -0.4059  0.1932  0.1352
    9TMC3    C814002   0.743   2.428  13.277 -0.1954 -0.3622  0.1203
    9TMC3    O114003   0.181   2.396  13.133 -0.1261  0.2594 -0.5452
    9TMC3    O214004   0.777   2.460  13.388  0.1137 -0.1250  0.5630
   10MPD2     C14005   1.004   1.994  13.334 -0.0334  0.5167 -0.1079
   10MPD2    C114006   0.919   1.987  13.219 -0.5193  1.0433  0.9187
   10MPD2    C214007   0.845   2.091  13.175  0.3116  0.2701  0.2783
   10MPD2    C314008   0.856   2.213  13.246 -0.6755 -0.6247  0.4306
   10MPD2    C414009   0.933   2.226  13.359  0.6338  0.0924  0.7991
   10MPD2    C514010   1.013   2.113  13.399 -0.6887  0.1360 -0.1049
   10MPD2     H14011   0.781   2.086  13.088 -0.5322  2.7977  0.7553
   10MPD2    H114012   0.932   2.307  13.431 -0.4079  0.1259  0.7475
   10MPD2    H214013   1.051   1.902  13.366  1.4713  1.8176  1.4771
   10MPD2    H314014   1.062   2.116  13.496  0.1466  0.8648 -0.5594
   10MPD2     N14015   0.775   2.322  13.203  0.0654  0.0140  0.6067
   10MPD2    H514016   0.729   2.310  13.113  1.5444  1.0271 -0.2792
   10MPD2    N114017   0.900   1.859  13.167  0.7047  0.4075 -0.3979
   10MPD2    H714018   0.944   1.780  13.212  1.8679  0.8276 -0.7765
   11MPD2     C14019   2.004   0.910  14.141 -0.3867  0.5920  0.2822
   11MPD2    C114020   1.891   0.925  14.214 -0.3180  0.2813 -0.7841
   11MPD2    C214021   1.773   0.978  14.161  0.0232 -0.1966 -1.2475
   11MPD2    C314022   1.770   1.028  14.034 -0.1878 -0.0385  1.0705
   11MPD2    C414023   1.888   1.014  13.960  0.2429  0.3381  0.3460
   11MPD2    C514024   2.000   0.954  14.013 -0.2970  0.0732  0.1632
   11MPD2     H14025   1.697   0.996  14.236 -0.3761 -0.6655 -1.5372
   11MPD2    H114026   1.884   1.056  13.861 -1.5011 -0.0538  0.2420
   11MPD2    H214027   2.094   0.867  14.183 -0.2360 -1.1417 -1.8608
   11MPD2    H314028   2.088   0.949  13.950  0.4887  0.2083  1.2302
   11MPD2     N14029   1.657   1.090  13.979  0.3011 -0.0369  0.1991
   11MPD2    H514030   1.667   1.101  13.878 -2.7946  1.6730  0.0903
   11MPD2    N114031   1.883   0.888  14.350 -0.7408  0.3052 -0.7883
   11MPD2    H714032   1.792   0.908  14.392 -1.3130 -1.5825 -1.0990
    1MPD1     C14033   0.478   2.785  17.394 -0.9320  0.1930  0.1790
    1MPD1    C114034   0.427   2.678  17.458  0.1135  0.1479  0.4859
    1MPD1    C214035   0.408   2.553  17.398 -1.4978 -0.0273 -0.7518
    1MPD1    C314036   0.484   2.537  17.279  0.0306  0.2229 -0.3364
    1MPD1    C414037   0.548   2.647  17.220 -0.8697 -0.3582 -0.3348
    1MPD1    C514038   0.545   2.766  17.281 -0.4675  0.1198  0.0052
    1MPD1     H14039   0.363   2.466  17.445 -1.6050  0.5310  0.1708
    1MPD1    H114040   0.587   2.650  17.119  0.7585 -1.0974  0.2663
    1MPD1    H214041   0.475   2.879  17.448 -0.4108 -0.4267  1.2764
    1MPD1    H314042   0.601   2.848  17.239 -1.3401  0.5710 -0.2822
    1MPD1     N14043   0.483   2.416  17.207 -1.2488  0.4056  0.2359
    1MPD1    H514044   0.536   2.409  17.121 -1.7217  4.0143 -0.3183
    1MPD1    N114045   0.349   2.697  17.573  0.0253 -0.1634 -0.5047
    1MPD1    H614046   0.378   2.624  17.638  1.6470  2.1343  1.3349
    1MPD1    H714047   0.370   2.789  17.611  1.7750 -0.7515 -0.0504
    2MPD1     C14048   4.683   1.577  17.297 -1.0993  0.7058 -0.7038
    2MPD1    C114049   4.656   1.712  17.296  0.0320 -0.7617  0.5017
    2MPD1    C214050   0.029   1.793  17.303 -0.0127  0.7305  0.6685
    2MPD1    C314051   0.160   1.746  17.299 -0.3396  0.1459 -0.0669
    2MPD1    C414052   0.185   1.611  17.287 -0.1304 -0.1059  0.8324
    2MPD1    C514053   0.074   1.527  17.283  0.6575  0.8126 -0.0409
    2MPD1     H14054   0.013   1.900  17.307  0.4437  0.8830 -1.4138
    2MPD1    H114055   0.288   1.576  17.287 -0.3540 -0.7122 -2.2158
    2MPD1    H214056   4.595   1.513  17.304  0.2386 -0.9122  1.3823
    2MPD1    H314057   0.085   1.420  17.273  0.1616  0.7920 -0.3818
    2MPD1     N14058   0.261   1.839  17.276  0.6862 -0.5412  0.3281
    2MPD1    H514059   0.243   1.935  17.305  0.7871 -0.4122 -0.0380
    2MPD1    N114060   4.520   1.758  17.304  0.3094 -0.0046  0.2914
    2MPD1    H614061   4.442   1.703  17.268  1.6431 -2.6244  1.4627
    2MPD1    H714062   4.528   1.853  17.268 -1.9482  1.1810  2.9718
    3TMC3    C114063   0.476   1.938  17.232  0.1148 -0.3867  0.3018
    3TMC3    C214064   0.612   1.932  17.227 -0.3537  0.3744 -1.0080
    3TMC3    C314065   0.683   2.049  17.208  0.2535  0.0194  0.3075
    3TMC3    C414066   0.414   2.062  17.222  0.6422  0.2183 -0.0795
    3TMC3    C514067   0.485   2.180  17.202 -0.1625  0.4339 -0.3700
    3TMC3    C614068   0.621   2.173  17.197  0.3337 -0.1470 -0.1595
    3TMC3     C14069   0.397   1.816  17.248  0.0135 -0.4056  0.4437
    3TMC3     O14070   0.455   1.711  17.225  0.2759 -0.1539  0.1167
    3TMC3     H14071   0.659   1.839  17.257 -1.0254  0.0174 -1.0632
    3TMC3    H114072   0.306   2.066  17.228  0.5676 -1.2575 -0.4177
    3TMC3    H214073   0.689   2.253  17.171  0.1935  0.3832  1.1019
    3TMC3    C714074   0.418   2.304  17.247 -0.3853  0.0950  0.9194
    3TMC3    C814075   0.826   2.045  17.220 -0.1117 -0.4398 -0.1014
    3TMC3    O114076   0.305   2.295  17.294 -0.2217  0.0992 -0.2963
    3TMC3    O214077   0.887   2.142  17.249  0.2787  0.4934  0.0262
    4MPD1     C14078   1.292   1.809  17.148  0.0155 -0.6317  0.3836
    4MPD1    C114079   1.189   1.731  17.094  0.6093 -0.3681 -0.2141
    4MPD1    C214080   1.059   1.779  17.104  0.5580  0.5998 -0.0485
    4MPD1    C314081   1.027   1.898  17.166 -0.1516  0.5606 -0.2914
    4MPD1    C414082   1.129   1.980  17.215 -0.6818 -0.6331 -0.2486
    4MPD1    C514083   1.262   1.931  17.201 -0.8891 -0.7434 -0.6070
    4MPD1     H14084   0.972   1.719  17.077  0.9264 -0.3974  0.9314
    4MPD1    H114085   1.106   2.077  17.258  0.8205 -1.5496  2.5832
    4MPD1    H214086   1.395   1.777  17.139  0.3659 -0.1080  2.3550
    4MPD1    H314087   1.344   1.994  17.233 -0.7366 -0.7326 -1.0087
    4MPD1     N14088   0.884   1.930  17.166 -0.6883  0.1068  0.0040
    4MPD1    H514089   0.824   1.871  17.110 -1.2911 -0.0571  0.8141
    4MPD1    N114090   1.214   1.602  17.049  0.3271 -0.4987  0.1781
    4MPD1    H614091   1.311   1.578  17.029  0.8566  1.7030  0.0435
    4MPD1    H714092   1.162   1.579  16.965 -0.4022  3.2141 -0.4074
    1TCq1    O114093   0.736   0.656  11.921 -0.2790 -0.2236 -0.3070
    1TCq1    C114094   0.836   0.619  11.839  0.0982  0.3385 -0.0646
    1TCq1    O214095   0.841   0.519  11.774  0.2179 -0.1132  0.0557
    1TCq1    C214096   0.959   0.690  11.870 -0.2526 -0.2963  0.6839
    1TCq1    C314097   1.051   0.610  11.934  0.8991  0.5849  0.2769
    1TCq1    C414098   1.133   0.658  12.025 -0.5329 -0.3609 -0.2992
    1TCq1    C514099   1.125   0.788  12.063  0.7300 -0.2152  0.0663
    1TCq1    C614100   1.024   0.872  12.013 -0.4909 -0.0156  0.1655
    1TCq1    C714101   0.941   0.826  11.911 -0.2034 -0.1699 -0.4085
    1TCq1    C814102   1.030   1.016  12.033 -0.1154  0.0860  0.3817
    1TCq1    O414103   0.964   1.081  11.953  0.3753 -0.2132  0.2051
    1TCq1    C914104   1.262   0.590  12.045  0.3640 -0.5922 -0.6810
    1TCq1    O514105   1.334   0.614  12.147  0.3857  0.0054 -0.0291
    1TCq1    O614106   1.291   0.499  11.970  0.1547  0.1689 -0.2890
    1TCq1    H114107   0.755   0.735  11.976 -0.3415  1.3585 -2.5244
    1TCq1    H214108   1.081   0.519  11.884  0.7073 -0.0088  1.2557
    1TCq1    H314109   1.209   0.839  12.108  3.0496 -2.7043 -1.4394
    1TCq1    H414110   0.858   0.883  11.872  2.3694  2.7656 -1.6208
    2MPD1     C14111   1.182   1.439  12.297 -0.0210  0.3638 -0.2245
    2MPD1    C114112   1.239   1.335  12.363 -0.1861 -0.0466  0.4334
    2MPD1    C214113   1.216   1.207  12.318 -0.4137  0.5262 -0.2089
    2MPD1    C314114   1.136   1.180  12.201  0.2328  0.6375  0.2040
    2MPD1    C414115   1.080   1.290  12.141 -0.4880 -0.2069 -0.1963
    2MPD1    C514116   1.102   1.418  12.188  0.2963 -0.0583 -0.1932
    2MPD1     H14117   1.267   1.125  12.367 -0.6814  0.6168  0.2147
    2MPD1    H114118   1.021   1.286  12.050  1.0705 -2.0462 -1.1144
    2MPD1    H214119   1.204   1.543  12.318 -0.9543  0.2936  1.1365
    2MPD1    H314120   1.047   1.499  12.141  2.6306  1.3894 -0.4033
    2MPD1     N14121   1.105   1.051  12.146  0.3271 -0.2724 -0.1101
    2MPD1    H514122   1.145   0.972  12.195  1.5294 -1.8562 -3.6300
    2MPD1    N114123   1.313   1.376  12.480  0.4632 -0.1978 -0.1376
    2MPD1    H614124   1.347   1.290  12.524  0.5716  0.6238  1.3886
    2MPD1    H714125   1.387   1.439  12.450  1.7104 -1.2808  0.6311
    1TMC1    C114126   0.014   3.046   1.216  0.3161  0.2838 -0.1970
    1TMC1    C214127   0.047   3.176   1.246 -0.0972  0.1841 -0.1564
    1TMC1    C314128   4.681   3.269   1.254  0.0263 -0.4859 -0.3823
    1TMC1    C414129   4.617   3.004   1.211  0.8513  0.0856 -0.3575
    1TMC1    C514130   4.522   3.101   1.217  0.1434 -0.0067  0.0745
    1TMC1    C614131   4.553   3.231   1.231  0.9065 -0.4985 -0.2711
    1TMC1     C14132   0.127   2.953   1.221  0.1943 -0.2101 -0.3689
    1TMC1     O14133   0.221   2.984   1.286 -0.4153  0.2464  0.3327
    1TMC1     H14134   0.144   3.213   1.214 -0.5489 -0.1229 -1.8409
    1TMC1    H114135   4.585   2.901   1.196 -2.0355  1.0313 -0.5391
    1TMC1    H214136   4.481   3.311   1.231  1.3941 -0.0537  0.0901
    1TMC1    C714137   4.381   3.058   1.201 -0.0516 -0.2678 -0.7537
    1TMC1    C814138   4.703   3.405   1.265 -0.1590  0.1725  0.3493
    1TMC1    O114139   4.340   2.949   1.239 -0.6369  0.3458  0.0956
    1TMC1    O214140   4.627   3.491   1.221 -0.4176 -0.3581 -0.0561
    1TMC1    O314141   4.332   3.139   1.109 -0.1997  0.1255 -0.1444
    1TMC1    H314142   4.399   3.196   1.065  0.8730 -1.6264 -0.7802
    1TMC1    O514143   0.062   3.426   1.354  0.4666  0.0847  0.3953
    1TMC1    H514144   0.108   3.347   1.389 -0.2795 -0.4924  0.0828
    2MPD1     C14145   0.363   2.548   1.066  0.4214  0.2195 -0.3412
    2MPD1    C114146   0.240   2.535   1.013 -0.1914  0.0929 -0.0535
    2MPD1    C214147   0.161   2.641   1.042  0.5794 -0.1042  0.7065
    2MPD1    C314148   0.197   2.734   1.136 -0.0189 -0.3392  0.6708
    2MPD1    C414149   0.313   2.721   1.206 -0.0926  0.0162 -0.4358
    2MPD1    C514150   0.400   2.628   1.166 -0.0825 -0.5566 -0.0576
    2MPD1     H14151   0.064   2.654   0.996 -0.4284  1.4447  3.2507
    2MPD1    H114152   0.344   2.784   1.289 -0.3456 -0.1130 -0.2445
    2MPD1    H214153   0.428   2.468   1.032 -0.3801 -0.4413 -0.3278
    2MPD1    H314154   0.500   2.628   1.208  0.4133 -0.3561 -1.2341
    2MPD1     N14155   0.105   2.841   1.146 -0.2910  0.1111 -0.8075
    2MPD1    H514156   0.022   2.833   1.089  0.1158  0.4203 -1.4364
    2MPD1    N114157   0.222   2.463   0.895 -0.0199 -0.6581 -0.0609
    2MPD1    H614158   0.267   2.373   0.886  1.7457  0.3840 -1.5521
    2MPD1    H714159   0.123   2.448   0.874  0.2116  0.9086 -2.3841
    1MPD1     C14160   2.388   1.431  12.221 -0.8136  0.4742  0.1207
    1MPD1    C114161   2.285   1.518  12.236 -0.4012 -0.0370 -0.0711
    1MPD1    C214162   2.310   1.649  12.192 -0.3278 -0.5523  0.3826
    1MPD1    C314163   2.440   1.687  12.156  1.0485  0.4282  0.2905
    1MPD1    C414164   2.539   1.592  12.134  0.5507 -0.1150 -0.2592
    1MPD1    C514165   2.512   1.470  12.182  0.2729 -0.3770  0.2581
    1MPD1     H14166   2.232   1.724  12.189 -0.7875 -1.0613 -0.4463
    1MPD1    H114167   2.642   1.617  12.112 -0.1234  1.2784 -1.8806
    1MPD1    H214168   2.394   1.327  12.250  1.2656  1.6309  3.8534
    1MPD1    H314169   2.593   1.399  12.179  1.1572  0.6807 -0.5985
    1MPD1     N14170   2.456   1.816  12.116 -0.6011  0.6960 -0.3702
    1MPD1    H514171   2.377   1.875  12.141 -0.3912  0.3060  1.1777
    1MPD1    N114172   2.164   1.477  12.292  0.2987  0.0952 -0.3180
    1MPD1    H614173   2.165   1.413  12.371 -0.2651 -1.4261 -1.5506
    1MPD1    H714174   2.110   1.561  12.312  0.4776 -0.0272  0.6639
    2MPD1     C14175   1.439   1.462  11.490 -0.1627 -0.2409 -0.5670
    2MPD1    C114176   1.542   1.543  11.531 -0.2198 -0.1363  0.0368
    2MPD1    C214177   1.635   1.575  11.439 -0.0019  0.6720 -0.6550
    2MPD1    C314178   1.646   1.514  11.314  1.3416 -0.1718 -0.4332
    2MPD1    C414179   1.564   1.413  11.287 -0.0980  0.2662  0.5930
    2MPD1    C514180   1.454   1.397  11.375 -0.3327 -0.8128  0.0112
    2MPD1     H14181   1.701   1.658  11.460  0.6206  0.2767 -1.0481
    2MPD1    H114182   1.571   1.360  11.193 -0.8903  2.0354 -0.4678
    2MPD1    H214183   1.349   1.444  11.548  0.6502 -0.5568  0.5979
    2MPD1    H314184   1.379   1.322  11.351  0.1774 -2.1818  2.7600
    2MPD1     N14185   1.750   1.556  11.227  0.4726 -0.1677  0.4375
    2MPD1    H514186   1.800   1.637  11.263  1.8217 -0.5639 -0.5414
    2MPD1    N114187   1.523   1.627  11.641 -0.9301 -0.0392 -0.4712
    2MPD1    H614188   1.486   1.583  11.725 -1.1277  0.1114 -0.4776
    2MPD1    H714189   1.606   1.678  11.672 -1.0687 -0.7016  0.9733
    3MPD1     C14190   1.707   1.508  10.219  0.7097 -0.3604  0.3629
    3MPD1    C114191   1.639   1.437  10.317 -0.1739  0.0601 -0.5946
    3MPD1    C214192   1.669   1.477  10.448  0.2012 -0.1165 -0.3369
    3MPD1    C314193   1.741   1.591  10.476  0.5888  0.0562 -0.5635
    3MPD1    C414194   1.801   1.664  10.378  0.4726 -0.4303 -0.6836
    3MPD1    C514195   1.780   1.624  10.251 -0.2971 -0.2149  0.1245
    3MPD1     H14196   1.638   1.408  10.525 -0.1695  1.3517  0.8451
    3MPD1    H114197   1.860   1.753  10.395  1.2867 -1.2098  0.6334
    3MPD1    H214198   1.704   1.468  10.118  0.9027  0.2315  0.1248
    3MPD1    H314199   1.828   1.667  10.164  0.4421 -1.5166 -0.1086
    3MPD1     N14200   1.765   1.629  10.616 -0.0916 -0.9512  0.4948
    3MPD1    H514201   1.714   1.563  10.674 -0.1816  0.5484  2.1208
    3MPD1    N114202   1.585   1.315  10.292  0.3077  0.4454 -0.4189
    3MPD1    H614203   1.526   1.285  10.370 -0.5129 -0.7191 -1.4807
    3MPD1    H714204   1.530   1.310  10.206 -1.2718  0.5701  0.5906
    4MPD2     C14205   2.165   2.222  11.553  0.6149  0.3134 -0.6292
    4MPD2    C114206   2.293   2.263  11.596 -0.2954  0.1335  0.4140
    4MPD2    C214207   2.362   2.338  11.511  0.7394  0.0979 -1.1348
    4MPD2    C314208   2.310   2.388  11.393  0.1227  0.5722  0.7930
    4MPD2    C414209   2.182   2.355  11.356  0.4053 -0.3489 -0.5047
    4MPD2    C514210   2.114   2.265  11.433  0.2845  0.2947  0.0238
    4MPD2     H14211   2.457   2.370  11.551 -0.4696  1.0968  0.9974
    4MPD2    H114212   2.131   2.406  11.275  0.2513  2.2452  1.2373
    4MPD2    H214213   2.109   2.146  11.606  2.6388 -0.6174  0.2007
    4MPD2    H314214   2.018   2.227  11.400  0.5777  0.6191 -1.2078
    4MPD2     N14215   2.386   2.466  11.299  0.6191  0.4293  0.4109
    4MPD2    H514216   2.350   2.474  11.204 -0.5902 -0.9562  0.7420
    4MPD2    N114217   2.353   2.228  11.724  0.1660 -0.3525  0.3010
    4MPD2    H714218   2.449   2.258  11.735  0.4578 -0.4024 -2.0755
    5TMC3    C114219   2.387   2.163  11.932  0.2353 -0.8630 -0.0553
    5TMC3    C214220   2.403   2.044  11.994 -0.4520  0.1019 -0.8133
    5TMC3    C314221   2.532   2.014  12.022  0.7325 -0.1399  0.0270
    5TMC3    C414222   2.484   2.265  11.925  0.0138  0.0707  0.1650
    5TMC3    C514223   2.610   2.224  11.955  0.2816 -0.1776 -0.0048
    5TMC3    C614224   2.634   2.097  12.001  0.4354 -0.2692  0.4037
    5TMC3     C14225   2.292   2.162  11.826 -0.0600 -0.8627 -0.0023
    5TMC3     O14226   2.205   2.085  11.834  0.2923  0.1365  0.1639
    5TMC3     H14227   2.323   1.971  11.995 -0.5046  0.1641  0.0604
    5TMC3    H114228   2.463   2.360  11.877  1.2378 -0.2205 -0.9461
    5TMC3    H214229   2.730   2.050  12.020  1.2307  0.6570 -1.3859
    5TMC3    C714230   2.694   2.279  11.858 -0.2075  0.2780 -0.1903
    5TMC3    C814231   2.557   1.877  12.049 -0.1592  0.0921  0.2877
    5TMC3    O114232   2.641   2.325  11.759  0.2412  0.1375 -0.0467
    5TMC3    O214233   2.667   1.826  12.017  0.2087 -0.0044  0.3115
    6TMC3    C114234   1.850   1.603  11.012 -1.1880 -0.0096 -0.6067
    6TMC3    C214235   1.826   1.608  10.880  0.0842  0.0443 -0.1917
    6TMC3    C314236   1.885   1.707  10.805 -0.2132  0.2769  0.2690
    6TMC3    C414237   1.937   1.692  11.067  0.3743  0.3087 -0.0382
    6TMC3    C514238   2.000   1.777  10.986  0.3543 -0.4284 -0.2926
    6TMC3    C614239   1.984   1.788  10.854 -0.3846  0.1437 -0.2487
    6TMC3     C14240   1.742   1.550  11.093 -0.2580 -0.3088 -0.3526
    6TMC3     O14241   1.654   1.490  11.029 -0.3688  0.2931 -0.0229
    6TMC3     H14242   1.752   1.539  10.840 -0.5990  1.0208 -0.5903
    6TMC3    H114243   1.976   1.677  11.166 -2.8360 -0.5793  1.1041
    6TMC3    H214244   2.020   1.869  10.792  0.8872  0.0355  0.3508
    6TMC3    C714245   2.105   1.858  11.040  0.1489  0.6052 -0.0682
    6TMC3    C814246   1.870   1.705  10.663  0.2424 -0.2488  0.0686
    6TMC3    O114247   2.177   1.912  10.958 -0.2297 -0.2390 -0.4339
    6TMC3    O214248   1.940   1.780  10.598 -0.4918 -0.6976  0.1477
    7MPD2     C14249   3.093   2.373  11.581  0.1324  0.2708 -0.1236
    7MPD2    C114250   2.966   2.335  11.552  0.1903  0.3188  0.0652
    7MPD2    C214251   2.887   2.288  11.648  0.0685  0.6649  0.5616
    7MPD2    C314252   2.918   2.286  11.783  0.4504 -0.8761 -0.8267
    7MPD2    C414253   3.055   2.287  11.809  0.4012  0.0022 -0.7051
    7MPD2    C514254   3.133   2.337  11.708 -0.3372  0.6915  0.9341
    7MPD2     H14255   2.785   2.265  11.619  0.1313  0.5569  0.4253
    7MPD2    H114256   3.095   2.272  11.909  1.1013 -2.5997 -1.3799
    7MPD2    H214257   3.170   2.398  11.509 -1.3257  1.5701 -1.2030
    7MPD2    H314258   3.241   2.325  11.715 -0.2727  0.0023 -1.2251
    7MPD2     N14259   2.828   2.263  11.882 -0.1447 -1.1065  0.1646
    7MPD2    H514260   2.862   2.249  11.977  0.3561  1.3709  0.3500
    7MPD2    N114261   2.926   2.351  11.419  0.5384 -0.0254  0.7197
    7MPD2    H714262   2.986   2.406  11.359  0.0770 -1.4283 -1.0010
    8TMC3    C114263   2.788   2.367  11.240 -0.0889 -0.0687 -0.2871
    8TMC3    C214264   2.717   2.272  11.172 -0.5138  0.6513  0.5838
    8TMC3    C314265   2.606   2.314  11.101  0.6017  0.8853 -0.5970
    8TMC3    C414266   2.731   2.490  11.260 -0.5191  0.4522  0.3870
    8TMC3    C514267   2.604   2.512  11.210 -0.7348  0.2317 -0.0068
    8TMC3    C614268   2.549   2.436  11.114  0.0897  1.0331  0.6665
    8TMC3     C14269   2.811   2.304  11.369  0.3119  0.3101 -0.4560
    8TMC3     O14270   2.718   2.233  11.414 -0.1591  0.5820  0.2365
    8TMC3     H14271   2.766   2.176  11.165  0.6140  1.3749 -1.4960
    8TMC3    H114272   2.773   2.544  11.344 -2.4085  0.8364  1.0709
    8TMC3    H214273   2.463   2.462  11.054 -1.4555 -0.7498  2.1247
    8TMC3    C714274   2.514   2.506  11.329  0.0179  0.1446  0.6643
    8TMC3    C814275   2.510   2.214  11.091  0.9882 -0.8918 -0.2334
    8TMC3    O114276   2.570   2.518  11.439 -0.3876  0.4344 -0.1260
    8TMC3    O214277   2.418   2.222  11.010  0.3367 -0.1397 -0.1956
    9MPD2     C14278   2.443   2.014  11.390 -0.0036  0.0792  0.4146
    9MPD2    C114279   2.428   2.059  11.264  0.2095 -0.1164  0.5451
    9MPD2    C214280   2.325   2.010  11.191  0.1612  0.9055  0.5546
    9MPD2    C314281   2.223   1.931  11.251  0.4465 -0.4338 -0.0678
    9MPD2    C414282   2.226   1.906  11.384  0.1412  0.0523  0.4382
    9MPD2    C514283   2.345   1.933  11.448 -0.2859  0.2334 -0.7537
    9MPD2     H14284   2.322   2.021  11.083  1.7076 -2.0474  0.2141
    9MPD2    H114285   2.157   1.846  11.441  0.7138 -1.8220 -0.8213
    9MPD2    H214286   2.535   2.030  11.444 -0.1484  0.4363  0.5621
    9MPD2    H314287   2.347   1.902  11.552 -2.2146  1.0140 -0.4743
    9MPD2     N14288   2.120   1.858  11.177  0.4192 -0.2228 -0.2635
    9MPD2    H514289   2.062   1.801  11.238 -1.0374  1.4935 -0.0461
    9MPD2    N114290   2.519   2.149  11.214 -0.4357  0.3717 -0.2686
    9MPD2    H714291   2.588   2.180  11.282  0.8449 -3.1016 -0.0283
    1MPD1     C14292   2.905   0.818  16.272  0.1933 -0.7488  0.5411
    1MPD1    C114293   2.991   0.921  16.297 -0.8925  0.2149 -0.4275
    1MPD1    C214294   2.986   0.964  16.428  0.0455  0.4626  0.3321
    1MPD1    C314295   2.907   0.906  16.524  0.5676  0.5670  0.2118
    1MPD1    C414296   2.850   0.785  16.497 -0.0930  0.3426 -1.0854
    1MPD1    C514297   2.841   0.749  16.370  0.8393  0.2920  0.8287
    1MPD1     H14298   3.034   1.058  16.452 -1.0780  0.8794  0.9528
    1MPD1    H114299   2.791   0.735  16.573  1.6843 -2.0966 -1.3024
    1MPD1    H214300   2.897   0.788  16.168 -1.2093 -0.2300  0.4884
    1MPD1    H314301   2.774   0.666  16.348 -0.0442  0.3779  3.2811
    1MPD1     N14302   2.886   0.959  16.650 -0.2211  0.1514 -0.7900
    1MPD1    H514303   2.803   0.927  16.699 -1.4254  1.7908 -1.7782
    1MPD1    N114304   3.024   1.007  16.191  0.9538 -0.1503 -0.4029
    1MPD1    H614305   3.108   1.061  16.211 -0.7724  2.3219  0.2406
    1MPD1    H714306   3.037   0.956  16.104 -1.4144  0.0626 -0.8653
    2TMC2    C114307   2.698   1.192  16.935  0.2983  0.2300 -0.6951
    2TMC2    C214308   2.773   1.272  17.017 -0.3787  0.1117 -1.1093
    2TMC2    C314309   2.900   1.287  16.991 -0.3907  0.3986 -0.4175
    2TMC2    C414310   2.753   1.103  16.847 -0.1672  0.7410  0.1070
    2TMC2    C514311   2.891   1.122  16.823  0.0730 -0.4814 -0.0295
    2TMC2    C614312   2.966   1.204  16.903  0.3481 -0.1537  0.3711
    2TMC2     C14313   2.563   1.170  16.982  0.0800  0.2990 -0.6899
    2TMC2     O14314   2.512   1.260  17.047 -0.0077 -0.4176 -0.1619
    2TMC2     H14315   2.729   1.339  17.090  1.4134 -0.0490  0.1227
    2TMC2    H114316   2.694   1.060  16.767  0.0660 -1.1906  0.9711
    2TMC2    H214317   3.073   1.216  16.892  0.5670 -2.4598 -0.0572
    2TMC2    C714318   2.961   1.059  16.711  0.7182  0.1341 -0.6813
    2TMC2    C814319   2.988   1.369  17.077 -0.8167  0.1426 -0.1862
    2TMC2    O114320   3.075   1.087  16.688  0.0936 -0.6779  0.1698
    2TMC2    O214321   3.105   1.351  17.093 -0.5654  0.0730 -0.1695
    2TMC2    O514322   2.922   1.487  17.104  0.2795 -0.7849 -0.2559
    2TMC2    H514323   2.831   1.467  17.074 -0.1308  0.6191  0.0820
    3MPD1     C14324   2.160   0.858  17.046 -0.8385  0.0074 -1.0634
    3MPD1    C114325   2.262   0.781  16.991  0.0732 -0.3917 -0.4617
    3MPD1    C214326   2.384   0.845  16.976  0.4463  0.4145 -0.1317
    3MPD1    C314327   2.404   0.980  16.996  0.7775  0.2500 -0.3854
    3MPD1    C414328   2.303   1.061  17.035  0.2266  0.3131  0.0434
    3MPD1    C514329   2.183   0.996  17.057  0.0787 -0.1327 -0.3498
    3MPD1     H14330   2.465   0.789  16.931 -1.3059 -1.0866 -1.4252
    3MPD1    H114331   2.302   1.168  17.055 -3.2538  0.0437  1.3802
    3MPD1    H214332   2.064   0.820  17.078 -0.5523  1.4188  1.4709
    3MPD1    H314333   2.110   1.057  17.110  1.5743  1.2178  0.1407
    3MPD1     N14334   2.533   1.036  16.970  0.0810 -0.5801 -0.7437
    3MPD1    H514335   2.597   0.971  16.926  0.9666  0.3467 -0.8199
    3MPD1    N114336   2.254   0.641  16.975 -0.0816  0.0660  0.4184
    3MPD1    H614337   2.315   0.600  16.906 -2.1341 -0.4990 -1.0544
    3MPD1    H714338   2.160   0.614  16.947  0.8812 -1.0645 -1.7094
    1TMC1    C114339   0.198   0.495  13.698 -0.4523 -1.0441  0.0444
    1TMC1    C214340   0.205   0.452  13.827  0.5589 -0.1101  0.0411
    1TMC1    C314341   0.095   0.384  13.880 -0.8334  0.1686 -0.0169
    1TMC1    C414342   0.081   0.485  13.629 -0.0651  0.0780  0.0237
    1TMC1    C514343   4.707   0.435  13.690 -0.0718 -0.3568 -0.0942
    1TMC1    C614344   4.710   0.372  13.813  0.3423 -0.7057 -0.0738
    1TMC1     C14345   0.318   0.540  13.621 -0.0777 -0.5073 -0.8360
    1TMC1     O14346   0.304   0.610  13.521  0.1893 -0.5856 -0.8920
    1TMC1     H14347   0.300   0.464  13.877 -0.1908  3.5975  0.5698
    1TMC1    H114348   0.067   0.537  13.536  0.4521  2.1917  1.1255
    1TMC1    H214349   4.623   0.324  13.856  1.1645  0.9397  3.4163
    1TMC1    C714350   4.600   0.383  13.604 -0.3550 -0.3826 -0.4343
    1TMC1    C814351   0.092   0.351  14.020 -0.4536 -0.4119  0.1736
    1TMC1    O114352   4.505   0.319  13.646 -0.3976 -0.4109  0.0312
    1TMC1    O214353   0.169   0.392  14.103  0.5436 -0.1808  0.3606
    1TMC1    O314354   4.658   0.358  13.484  0.3528  0.6552 -0.1695
    1TMC1    H314355   0.018   0.380  13.484  0.3607  0.6226 -0.0004
    1TMC1    O514356   0.056   0.227  14.015 -0.1501 -0.3162 -0.4254
    1TMC1    H514357   0.016   0.195  13.931  1.6959 -0.4669 -1.2427
    2MPD2     C14358   0.594   0.555  13.492 -0.1448  0.2753  0.0094
    2MPD2    C114359   0.569   0.485  13.607 -0.0352 -0.2449 -0.3054
    2MPD2    C214360   0.675   0.413  13.666 -0.4925  0.4950  0.0085
    2MPD2    C314361   0.790   0.400  13.594  0.6104  0.5633 -0.0620
    2MPD2    C414362   0.806   0.455  13.468  0.0698  1.0623 -0.2118
    2MPD2    C514363   0.707   0.534  13.425  0.5595  0.1744  0.1022
    2MPD2     H14364   0.645   0.365  13.758 -2.2940  0.1066 -0.7866
    2MPD2    H114365   0.897   0.446  13.410 -0.6291  0.9839 -1.2946
    2MPD2    H214366   0.527   0.628  13.446  0.1583  0.5241 -0.0349
    2MPD2    H314367   0.713   0.599  13.338 -1.3329  0.5306  0.2369
    2MPD2     N14368   0.892   0.325  13.651 -0.1282 -0.1584  0.3720
    2MPD2    H514369   0.874   0.278  13.740 -1.7391  0.4570  0.3666
    2MPD2    N114370   0.435   0.477  13.668  0.0562  0.0663 -0.8039
    2MPD2    H714371   0.429   0.407  13.742  3.7583 -1.2378 -1.6958
    3TCq1    O114372   1.172   0.108  14.141  0.0925 -0.1199  0.1251
    3TCq1    C114373   1.096   0.186  14.061 -0.7029 -0.8563 -0.1273
    3TCq1    O214374   1.053   0.297  14.091 -0.4794 -0.0136  0.2609
    3TCq1    C214375   1.109   0.144  13.922  0.3517  0.8028  0.2783
    3TCq1    C314376   1.193   0.046  13.882  0.1225  0.0201  0.3956
    3TCq1    C414377   1.226   0.037  13.749 -0.1722  0.0931  0.0229
    3TCq1    C514378   1.176   0.125  13.660 -0.4562  0.5704  0.0668
    3TCq1    C614379   1.082   0.216  13.700 -0.7455  0.9475 -0.1723
    3TCq1    C714380   1.057   0.236  13.827  0.3956  0.0517 -0.0018
    3TCq1    C814381   1.012   0.288  13.600 -0.2586 -0.2177  0.0795
    3TCq1    O414382   1.054   0.297  13.486  0.0735  0.2824  0.0321
    3TCq1    C914383   1.318   4.673  13.704  0.1032  0.6583 -0.0331
    3TCq1    O514384   1.336   4.664  13.586 -0.3267  0.2896 -0.0912
    3TCq1    O614385   1.390   4.619  13.797 -0.1709  0.6531  0.0318
    3TCq1    H114386   1.191   0.022  14.099  3.6369  1.3450 -1.2674
    3TCq1    H214387   1.243   4.713  13.949  0.9471  0.6152  0.3834
    3TCq1    H314388   1.204   0.115  13.556 -0.6357 -2.2671  0.2871
    3TCq1    H414389   1.004   0.321  13.867  0.6879  0.6690 -0.9491
    1MPD2     C14390   0.693   0.942  14.806  0.3630  0.3766  0.0247
    1MPD2    C114391   0.580   0.910  14.873 -0.2425  0.4357  0.0648
    1MPD2    C214392   0.590   0.831  14.988 -0.1795 -0.1418  0.2780
    1MPD2    C314393   0.711   0.780  15.041 -0.6185  1.2208  0.4705
    1MPD2    C414394   0.821   0.811  14.968  0.1824  0.1400 -0.0566
    1MPD2    C514395   0.816   0.890  14.853  0.3694  0.4716 -0.2725
    1MPD2     H14396   0.502   0.806  15.046 -0.2971  1.5994  0.8433
    1MPD2    H114397   0.919   0.774  14.996  0.3567 -1.7592 -3.1543
    1MPD2    H214398   0.693   0.995  14.711  1.8878 -0.5697 -0.5112
    1MPD2    H314399   0.904   0.910  14.794  0.3290  1.2427 -0.0655
    1MPD2     N14400   0.709   0.705  15.161 -0.1895 -0.7188 -0.5186
    1MPD2    H514401   0.618   0.688  15.201 -0.3300  0.8767 -0.1594
    1MPD2    N114402   0.464   0.958  14.822  0.5465  0.5001 -0.1983
    1MPD2    H714403   0.462   1.019  14.741  2.6090 -0.8275 -1.2453
    2TMC3    C114404   0.226   0.989  14.810 -0.3721  0.4727  0.3716
    2TMC3    C214405   0.115   0.926  14.857  0.0997  0.8656 -0.1160
    2TMC3    C314406   0.014   0.991  14.915 -0.7354 -0.4474 -0.2940
    2TMC3    C414407   0.243   1.126  14.812 -0.5673 -0.4157 -0.9746
    2TMC3    C514408   0.138   1.194  14.881 -0.3870 -0.2910  0.3520
    2TMC3    C614409   0.029   1.125  14.933  0.0209 -0.2247 -0.2028
    2TMC3     C14410   0.338   0.923  14.871 -1.0146 -0.2520 -0.4195
    2TMC3     O14411   0.309   0.858  14.972 -0.2801 -0.9906  0.1563
    2TMC3     H14412   0.110   0.818  14.851 -2.5033  0.8918  1.2915
    2TMC3    H114413   0.331   1.178  14.776 -1.5193  0.4891 -1.9726
    2TMC3    H214414   4.683   1.163  14.993  1.6991  2.8315  0.1741
    2TMC3    C714415   0.120   1.340  14.858 -0.2599  1.0274 -0.0018
    2TMC3    C814416   4.692   0.927  15.025 -0.8482  0.0356 -0.7010
    2TMC3    O114417   0.007   1.379  14.871 -0.0933 -0.6220  0.2574
    2TMC3    O214418   4.577   0.941  15.054  0.0587 -0.0844  0.3263
    3TCq1    O114419   1.023   1.983  14.423 -0.1255  0.2734  0.0251
    3TCq1    C114420   1.016   2.056  14.536  0.0715 -0.0915  0.5566
    3TCq1    O214421   1.111   2.116  14.581 -0.1438  0.2600 -0.1979
    3TCq1    C214422   0.957   1.963  14.628  0.3826 -0.0463 -0.2257
    3TCq1    C314423   1.030   1.874  14.702 -0.0515 -0.1446  0.5108
    3TCq1    C414424   0.971   1.769  14.769  0.8474 -0.1601 -0.0907
    3TCq1    C514425   0.836   1.751  14.755 -0.1324 -0.2229  0.3031
    3TCq1    C614426   0.762   1.841  14.681 -0.3797  0.4302  1.0008
    3TCq1    C714427   0.824   1.947  14.615 -0.1582 -0.2689  0.3278
    3TCq1    C814428   0.618   1.838  14.677 -0.5303 -0.2892  1.1717
    3TCq1    O414429   0.558   1.931  14.618  0.6271 -0.4843 -0.2599
    3TCq1    C914430   1.049   1.706  14.875  0.6662  0.1078 -0.0008
    3TCq1    O514431   0.982   1.638  14.958 -0.3201 -0.2429  0.4798
    3TCq1    O614432   1.169   1.744  14.881 -0.5982 -0.0269  0.2253
    3TCq1    H114433   0.941   1.933  14.403  0.7334 -1.3406  0.5346
    3TCq1    H214434   1.137   1.892  14.711 -0.3721  1.3830  1.3409
    3TCq1    H314435   0.786   1.686  14.826  1.2094 -0.0577  1.3899
    3TCq1    H414436   0.765   2.019  14.560 -0.2395  0.6025  1.5759
    4MPD2     C14437   0.333   1.801  14.762  0.4758 -0.1123 -0.0724
    4MPD2    C114438   0.431   1.704  14.759 -0.0827  0.0925  0.0461
    4MPD2    C214439   0.395   1.574  14.784 -0.2547 -0.0611  0.3680
    4MPD2    C314440   0.263   1.534  14.803 -0.7826  0.4083  0.0728
    4MPD2    C414441   0.166   1.628  14.809 -0.3072  0.0775 -0.4663
    4MPD2    C514442   0.202   1.759  14.782  0.4818 -0.4838 -0.1938
    4MPD2     H14443   0.464   1.492  14.765  0.9000  0.1689  3.5830
    4MPD2    H114444   0.065   1.599  14.833  0.9472 -2.1807  1.9610
    4MPD2    H214445   0.360   1.905  14.750 -1.2503  0.1802 -1.5056
    4MPD2    H314446   0.118   1.826  14.795  1.1155  0.4003 -0.6232
    4MPD2     N14447   0.242   1.398  14.823 -0.2146 -0.2176  0.1373
    4MPD2    H514448   0.322   1.336  14.813 -0.6570 -0.9366  1.0839
    4MPD2    N114449   0.567   1.726  14.733  0.3751 -0.1360  0.1465
    4MPD2    H714450   0.633   1.650  14.746  0.4243 -0.4533 -1.8858
    5TMC2    C114451   0.534   0.518  15.389 -0.0901  0.3980  0.1261
    5TMC2    C214452   0.564   0.548  15.522  0.0586  0.5139  0.3677
    5TMC2    C314453   0.695   0.590  15.551 -0.4890 -0.4263  0.2964
    5TMC2    C414454   0.640   0.510  15.292 -0.6364  0.4347 -0.1280
    5TMC2    C514455   0.758   0.562  15.327  0.1827 -0.4466 -0.3520
    5TMC2    C614456   0.798   0.584  15.462  0.6999  0.2825 -0.3994
    5TMC2     C14457   0.426   0.589  15.324 -0.1096  0.5480 -0.3262
    5TMC2     O14458   0.447   0.625  15.210  0.0383 -0.1468  0.3652
    5TMC2     H14459   0.489   0.543  15.599 -0.6735  1.1472 -0.2999
    5TMC2    H114460   0.614   0.469  15.195  0.5664  1.4185 -0.8578
    5TMC2    H214461   0.898   0.618  15.485  0.6416  0.6925 -0.7611
    5TMC2    C714462   0.810   0.649  15.230  0.4924 -0.3404 -0.6063
    5TMC2    C814463   0.736   0.566  15.688  0.0059 -0.2529 -1.0804
    5TMC2    O114464   0.934   0.640  15.209  0.1013  0.3058  0.6513
    5TMC2    O214465   0.840   0.500  15.701  0.1850 -0.7751 -0.4147
    5TMC2    O514466   0.700   0.669  15.769 -1.0677 -0.2807  0.5481
    5TMC2    H514467   0.638   0.725  15.717 -1.1724 -0.9144 -0.0089
    6MPD2     C14468   4.692   0.766  15.296 -0.4409 -0.2090  0.0165
    6MPD2    C114469   0.064   0.794  15.219 -0.4198  0.4466  0.5334
    6MPD2    C214470   0.190   0.747  15.255  0.0671 -0.2470 -1.0442
    6MPD2    C314471   0.198   0.669  15.366  0.3284 -0.1504 -0.0622
    6MPD2    C414472   0.090   0.649  15.447  0.5180  0.4885  0.7363
    6MPD2    C514473   4.704   0.693  15.410  0.3010  0.7993  0.8413
    6MPD2     H14474   0.272   0.769  15.187  0.4082 -1.2769 -0.9610
    6MPD2    H114475   0.089   0.601  15.544 -2.6372 -0.1672  0.3873
    6MPD2    H214476   4.593   0.803  15.269 -1.2903 -0.3469  2.9393
    6MPD2    H314477   4.614   0.677  15.468 -1.2915 -1.4976 -2.2443
    6MPD2     N14478   0.312   0.596  15.405 -0.6485  0.8707  0.4699
    6MPD2    H514479   0.303   0.550  15.495 -0.6687 -0.0884 -0.0273
    6MPD2    N114480   0.065   0.878  15.099  0.0868  0.1154 -0.4997
    6MPD2    H714481   0.154   0.893  15.053  0.5021  0.4069  0.3854
  945NH3     N114482   3.575   3.681  11.918 -0.2884  0.7760 -0.0545
  945NH3     H214483   3.559   3.766  11.971 -0.0236  0.1945  0.9532
  945NH3     H314484   3.512   3.696  11.840  0.4551 -1.6360 -1.1154
  945NH3     H414485   3.665   3.697  11.874  1.0825 -3.0826  1.2756
  946SOD     NA14486   2.510   0.739  14.125 -0.1053  0.4253  0.0817
  947SOD     NA14487   0.158   0.561   5.689 -0.0173 -0.3261  0.1845
  948SOD     NA14488   3.994   4.003  13.234  0.2844 -0.5101  0.7206
  949SOD     NA14489   1.484   2.869  14.318 -0.0377  0.3931 -0.3617
  950SOD     NA14490   3.079   1.035   5.090  0.2593  0.4469 -0.0709
  951SOD     NA14491   2.292   4.147   2.600 -0.1358  0.1588 -0.7187
  952SOD     NA14492   4.342   0.940  15.077 -0.0556 -0.3150  0.2260
  953SOD     NA14493   0.526   3.266  16.833 -0.1709 -0.6273  0.0087
  954SOL     OW14494   2.059   4.598  15.781  1.0665  0.3613 -0.8560
  954SOL    HW114495   1.967   4.593  15.758  1.2113 -1.5717 -1.0663
  954SOL    HW214496   2.064   4.557  15.867 -1.3100 -0.1878 -0.9782
  955SOL     OW14497   2.668   0.367   7.604 -0.7857 -0.2707  0.0240
  955SOL    HW114498   2.722   0.290   7.588 -0.8088  0.0063 -1.4036
  955SOL    HW214499   2.606   0.330   7.667 -0.2819 -2.1314 -0.5988
  956SOL     OW14500   0.725   1.411   2.781  0.1446 -0.1913  0.5090
  956SOL    HW114501   0.630   1.401   2.770  0.1152  0.1530  0.4715
  956SOL    HW214502   0.763   1.339   2.730 -1.5067  0.0451 -1.0679
  957SOL     OW14503   3.772   0.316   2.767  0.0504  0.5442 -0.1243
  957SOL    HW114504   3.795   0.313   2.675  0.3923 -0.4824  0.0002
  957SOL    HW214505   3.702   0.257   2.792  1.5067 -1.5482 -1.0250
  958SOL     OW14506   3.114   3.530   0.119  0.3064  0.3134  0.0291
  958SOL    HW114507   3.068   3.533   0.203  0.4332 -1.4251  0.1674
  958SOL    HW214508   3.053   3.479   0.066 -0.1705  0.8901  0.0232
  959SOL     OW14509   4.379   3.577   1.815  0.4338  0.1105  0.0554
  959SOL    HW114510   4.469   3.578   1.782  0.0396 -0.5533 -1.0423
  959SOL    HW214511   4.386   3.650   1.877 -1.4628 -0.2618  0.7095
  960SOL     OW14512   0.657   2.353  11.308 -0.2318  0.1959  0.0499
  960SOL    HW114513   0.634   2.442  11.333  3.1648  0.2617  3.0452
  960SOL    HW214514   0.731   2.380  11.255 -0.9774  0.1828 -0.9961
  961SOL     OW14515   3.160   3.921   6.652  0.6518 -0.0053 -0.3182
  961SOL    HW114516   3.204   3.842   6.618 -0.7154 -0.4838 -0.9534
  961SOL    HW214517   3.079   3.926   6.602  2.0493  2.4934 -2.3272
  962SOL     OW14518   1.140   3.381   4.366 -0.0114  0.2706 -0.3959
  962SOL    HW114519   1.123   3.474   4.383 -0.7812  0.1767 -0.6868
  962SOL    HW214520   1.233   3.384   4.388 -0.1537  0.8495  0.1120
  963SOL     OW14521   2.613   3.783   2.819  0.4457 -0.0879 -0.5383
  963SOL    HW114522   2.703   3.804   2.794  0.5762  1.0985  0.9162
  963SOL    HW214523   2.567   3.765   2.737  0.2077 -2.9150  0.2184
  964SOL     OW14524   0.420   3.673   9.284  0.1604  1.0039 -0.1189
  964SOL    HW114525   0.482   3.743   9.266  0.5913  0.2913 -1.4387
  964SOL    HW214526   0.431   3.659   9.378  0.9629 -0.2370 -0.3967
  965SOL     OW14527   2.668   1.420   8.543  0.0876 -0.1796 -0.8891
  965SOL    HW114528   2.739   1.369   8.582  0.3744  1.3111  0.5511
  965SOL    HW214529   2.672   1.386   8.454  1.0398 -0.7237 -0.6355
  966SOL     OW14530   2.157   1.782   6.654  0.0536  0.6275 -0.6743
  966SOL    HW114531   2.111   1.807   6.734 -0.1994 -1.1648 -0.2784
  966SOL    HW214532   2.116   1.698   6.633  0.9122  0.5220 -1.9286
  967SOL     OW14533   1.417   1.426  16.434  0.0546 -0.5745  0.4610
  967SOL    HW114534   1.421   1.474  16.351 -0.6869 -0.8928  0.2426
  967SOL    HW214535   1.354   1.358  16.411 -1.3690  0.7523  0.4197
  968SOL     OW14536   0.441   3.502   5.550  0.2768 -0.0029 -0.6424
  968SOL    HW114537   0.415   3.412   5.572 -1.1163  0.3745 -0.7216
  968SOL    HW214538   0.532   3.494   5.521  0.7810 -0.3558  1.0405
  969SOL     OW14539   3.736   1.794   0.044 -0.4458 -0.0656 -0.0634
  969SOL    HW114540   3.786   1.846  17.722 -0.6220  0.6430  0.3683
  969SOL    HW214541   3.764   1.847   0.119  0.6354  0.6947 -1.0063
  970SOL     OW14542   2.858   3.477   0.008 -0.3065 -0.2085  0.8612
  970SOL    HW114543   2.834   3.565   0.040 -2.6376  0.2234 -2.0283
  970SOL    HW214544   2.793   3.427   0.057 -1.4374  0.2472 -0.1685
  971SOL     OW14545   0.966   2.739  14.499  0.1414  0.0011 -0.1718
  971SOL    HW114546   0.947   2.806  14.434 -1.5485 -0.4525 -0.1475
  971SOL    HW214547   0.937   2.671  14.438 -0.5407 -0.0381  0.1928
  972SOL     OW14548   2.129   1.263   2.144  0.0994 -0.4471 -0.1630
  972SOL    HW114549   2.161   1.251   2.054 -2.4299 -1.2010 -0.9778
  972SOL    HW214550   2.049   1.214   2.122 -0.8890  0.1756  2.0562
  973SOL     OW14551   2.564   0.352   4.387 -0.4302 -0.7134  0.0145
  973SOL    HW114552   2.493   0.399   4.343 -1.2973 -2.1479 -0.1317
  973SOL    HW214553   2.606   0.300   4.318 -1.4784  0.2631 -1.3632
  974SOL     OW14554   2.785   3.067  13.949  0.0767  0.2606  0.2917
  974SOL    HW114555   2.708   3.060  14.004  0.3371  0.3993  0.6755
  974SOL    HW214556   2.844   3.005  13.992  0.4444  0.7653  0.5322
  975SOL     OW14557   2.454   4.244   6.210 -0.4477  0.3338 -0.4569
  975SOL    HW114558   2.545   4.230   6.234 -0.3719  0.0627 -0.8952
  975SOL    HW214559   2.413   4.158   6.222  1.1215 -0.2604  0.5603
  976SOL     OW14560   1.684   1.896   3.154 -0.7640  1.0465 -0.3262
  976SOL    HW114561   1.768   1.942   3.147 -0.1165 -0.1848 -0.7393
  976SOL    HW214562   1.617   1.964   3.157 -1.1571  0.8950 -4.7568
  977SOL     OW14563   0.517   3.362   8.714 -0.2108 -0.7942 -0.0545
  977SOL    HW114564   0.592   3.357   8.773  2.6499 -2.6066 -3.8576
  977SOL    HW214565   0.539   3.306   8.639 -2.9102 -1.5648 -0.2580
  978SOL     OW14566   0.083   1.874   4.538 -0.2322 -0.1203 -0.2578
  978SOL    HW114567   0.115   1.790   4.570  0.1116  0.3343  0.6039
  978SOL    HW214568   0.156   1.913   4.490 -0.2179  1.7930  1.3025
  979SOL     OW14569   0.934   1.673  15.751  0.2436  0.0850  0.1669
  979SOL    HW114570   0.849   1.679  15.706  0.7300 -2.2889 -1.0565
  979SOL    HW214571   0.984   1.669  15.669  0.3628  1.1205  0.1830
  980SOL     OW14572   1.329   0.529   5.487 -0.2909 -0.0562 -0.6105
  980SOL    HW114573   1.321   0.610   5.438  0.5151  1.5217  1.8425
  980SOL    HW214574   1.266   0.473   5.442  0.2784 -2.0758  1.0468
  981SOL     OW14575   0.245   4.728  13.456 -0.3950  0.4067  0.5414
  981SOL    HW114576   0.170   4.705  13.401  0.4941  0.9794 -0.9079
  981SOL    HW214577   0.319   4.720  13.396 -0.1511 -1.5654  1.1099
  982SOL     OW14578   2.641   2.809   2.639  0.1591  0.3066 -0.3259
  982SOL    HW114579   2.674   2.738   2.584 -0.1440 -2.3445  2.9190
  982SOL    HW214580   2.564   2.769   2.679  0.3557  1.6555  1.4287
  983SOL     OW14581   4.475   3.772  14.341 -0.3310  0.3861 -0.0692
  983SOL    HW114582   4.522   3.841  14.388  0.8249 -0.5192  0.0988
  983SOL    HW214583   4.473   3.704  14.409  2.0745  0.3108 -0.0960
  984SOL     OW14584   4.247   3.554  10.700  0.6411 -0.1105  0.1128
  984SOL    HW114585   4.321   3.614  10.687  0.6362 -0.2245 -0.4199
  984SOL    HW214586   4.202   3.560  10.616  0.9525  0.3791 -0.0226
  985SOL     OW14587   1.360   2.543   1.826 -0.1867  0.6147  0.5879
  985SOL    HW114588   1.280   2.572   1.871 -1.8128 -1.1999 -1.1554
  985SOL    HW214589   1.399   2.499   1.902 -1.0845 -1.8116 -0.3659
  986SOL     OW14590   3.607   3.336  10.271 -0.1990  0.3044  0.5143
  986SOL    HW114591   3.601   3.267  10.338 -1.2252 -0.4126 -0.3187
  986SOL    HW214592   3.516   3.363  10.284  0.0554  0.6382  1.5825
  987SOL     OW14593   3.946   4.218   9.528  0.0479 -0.1347 -0.5444
  987SOL    HW114594   3.981   4.169   9.453  1.8342  1.5230 -0.7789
  987SOL    HW214595   3.918   4.160   9.599 -2.5866  0.4193 -1.1351
  988SOL     OW14596   0.693   1.363   5.273  0.0935 -0.2960 -0.6973
  988SOL    HW114597   0.690   1.318   5.189 -0.2407  0.2559 -0.9750
  988SOL    HW214598   0.624   1.317   5.321  0.2311 -1.4392 -1.5901
  989SOL     OW14599   3.640   3.999   3.635 -0.4171  0.7365 -0.1340
  989SOL    HW114600   3.583   3.974   3.708 -0.2008  0.3018 -0.1108
  989SOL    HW214601   3.608   4.085   3.609 -0.6550  1.0018  1.0093
  990SOL     OW14602   0.722   0.978  14.141 -0.0591  0.3899  0.0081
  990SOL    HW114603   0.707   0.961  14.234  2.9052  0.7107  0.5581
  990SOL    HW214604   0.754   0.892  14.116  1.3572  0.7845  0.4788
  991SOL     OW14605   0.179   4.222  11.518 -0.2150 -0.3522 -0.0892
  991SOL    HW114606   0.236   4.157  11.476 -0.5624 -0.8863  0.2665
  991SOL    HW214607   0.235   4.287  11.560  0.5827 -0.7409 -0.5539
  992SOL     OW14608   1.333   3.997  14.264  0.0493 -0.6199 -0.0559
  992SOL    HW114609   1.421   3.961  14.278  0.6139  0.1263 -1.7547
  992SOL    HW214610   1.330   4.011  14.170 -1.7280 -0.2212  0.0582
  993SOL     OW14611   0.174   4.733  17.125  0.0394 -0.1749 -0.1996
  993SOL    HW114612   0.175   0.089  17.100  0.2314 -0.4031 -1.0092
  993SOL    HW214613   0.252   4.722  17.180  0.0786 -0.7383 -0.3658
  994SOL     OW14614   4.295   3.762   2.558 -0.3683  0.2640  0.4250
  994SOL    HW114615   4.292   3.848   2.601  2.1043  0.0466  1.0576
  994SOL    HW214616   4.386   3.760   2.528 -0.1971  0.8680  0.8924
  995SOL     OW14617   0.775   1.093   9.731  0.3310  0.6132 -0.1824
  995SOL    HW114618   0.820   1.010   9.714  1.3293  1.6138 -2.3973
  995SOL    HW214619   0.690   1.060   9.760 -0.1103  0.4044 -1.7171
  996SOL     OW14620   0.019   0.996   0.797 -0.4366 -0.4135  0.7056
  996SOL    HW114621   4.694   0.922   0.788  0.2200 -0.8717  0.0244
  996SOL    HW214622   4.695   1.062   0.830 -2.4788 -1.1829 -1.4291
  997SOL     OW14623   0.335   3.280   8.104 -0.8943  0.0431  0.0955
  997SOL    HW114624   0.411   3.233   8.072 -1.4316 -0.2354 -0.7588
  997SOL    HW214625   0.267   3.219   8.074  0.0558 -0.8542 -0.2252
  998SOL     OW14626   1.033   0.976   2.572  0.7670 -0.0735 -0.5493
  998SOL    HW114627   1.039   0.911   2.503  0.8126 -0.6318 -0.0178
  998SOL    HW214628   1.118   0.985   2.616 -0.2227  1.0219  1.1410
  999SOL     OW14629   1.051   3.711   7.911  0.7131  0.6262  0.3289
  999SOL    HW114630   1.001   3.636   7.943  1.3570  0.2378  0.4310
  999SOL    HW214631   0.986   3.769   7.871 -1.1064 -0.1845  2.0943
 1000SOL     OW14632   1.790   1.760   8.957  0.3439 -0.2039 -0.1677
 1000SOL    HW114633   1.696   1.768   8.971  0.2473  0.4059 -1.1705
 1000SOL    HW214634   1.797   1.828   8.890  0.3349  0.7753  0.8197
 1001SOL     OW14635   0.215   3.532   7.979 -0.6280 -0.1878  0.3737
 1001SOL    HW114636   0.273   3.458   7.999 -2.4334 -1.4208  0.9840
 1001SOL    HW214637   0.166   3.536   8.060  0.0034 -1.9575  0.8469
 1002SOL     OW14638   0.038   3.349   3.659  0.1031 -0.0078 -0.2775
 1002SOL    HW114639   4.703   3.411   3.641  0.6412  0.5013 -0.6306
 1002SOL    HW214640   0.013   3.283   3.594 -2.3346 -1.7681  2.4492
 1003SOL     OW14641   0.869   1.010   5.872 -0.2057 -0.1805 -0.1367
 1003SOL    HW114642   0.782   1.038   5.899  0.1308  0.0164  0.7588
 1003SOL    HW214643   0.897   0.969   5.954  0.3641  2.5490  1.0695
 1004SOL     OW14644   3.301   3.788   8.234  0.1444  0.3359 -0.1765
 1004SOL    HW114645   3.288   3.727   8.305 -1.4105  0.6306 -0.2011
 1004SOL    HW214646   3.319   3.872   8.277  0.0744 -0.9590  2.3151
 1005SOL     OW14647   4.138   2.824   6.285  0.3540  0.6757 -0.4433
 1005SOL    HW114648   4.222   2.850   6.324  0.8449  0.0849 -1.1306
 1005SOL    HW214649   4.071   2.891   6.303 -0.0876 -0.3047  1.5184
 1006SOL     OW14650   2.728   1.284   4.009 -1.1019  0.3877  0.2966
 1006SOL    HW114651   2.758   1.193   4.002 -0.3117  0.6742 -0.0273
 1006SOL    HW214652   2.753   1.307   4.099 -0.5519  0.2155  0.1926
 1007SOL     OW14653   2.744   3.799  15.076 -0.4240 -0.3034  0.2841
 1007SOL    HW114654   2.770   3.768  14.990  1.6663  2.0467  0.0437
 1007SOL    HW214655   2.732   3.894  15.065 -0.7061 -0.1853  1.5786
 1008SOL     OW14656   0.344   4.513   6.802  0.7220 -0.4623  0.6726
 1008SOL    HW114657   0.296   4.442   6.845  0.0553 -0.9768 -0.9388
 1008SOL    HW214658   0.410   4.469   6.748 -1.3582 -3.2866  0.4676
 1009SOL     OW14659   2.412   3.107   8.448  0.0740  0.3355 -0.2095
 1009SOL    HW114660   2.444   3.139   8.364  1.3249  1.4011  0.6689
 1009SOL    HW214661   2.469   3.160   8.504 -1.3002  0.3398  1.2142
 1010SOL     OW14662   1.267   3.821   4.329 -0.5561 -0.1155 -0.1354
 1010SOL    HW114663   1.344   3.840   4.382 -0.9650 -0.1542  0.4620
 1010SOL    HW214664   1.293   3.747   4.274  1.0301  0.7910 -0.6308
 1011SOL     OW14665   1.930   4.329   3.548  0.2551 -0.4700  0.1152
 1011SOL    HW114666   1.925   4.280   3.466  1.3028 -1.2947  0.5422
 1011SOL    HW214667   1.886   4.264   3.602 -1.0321  2.9851  3.2015
 1012SOL     OW14668   3.096   0.089  14.904  0.0422 -0.1154  0.0710
 1012SOL    HW114669   3.077   0.007  14.949 -0.7193  0.0277  0.0114
 1012SOL    HW214670   3.103   0.155  14.973 -2.1553  0.1337  0.0687
 1013SOL     OW14671   1.049   3.884  10.227 -0.3346 -0.0861  0.0735
 1013SOL    HW114672   1.038   3.790  10.236 -0.9784 -0.0326 -0.1337
 1013SOL    HW214673   1.089   3.908  10.310  2.4993  2.8023 -2.1106
 1014SOL     OW14674   0.505   1.873   6.086 -0.0714 -0.2239 -0.3151
 1014SOL    HW114675   0.551   1.789   6.075 -0.1306 -0.2725 -0.1954
 1014SOL    HW214676   0.526   1.900   6.176  0.1774 -1.6059  0.0489
 1015SOL     OW14677   4.100   2.685   9.241 -0.4294 -0.5341  0.1781
 1015SOL    HW114678   4.151   2.762   9.265 -0.7710 -0.5489  0.9395
 1015SOL    HW214679   4.036   2.675   9.311  0.7548 -1.4100  1.1294
 1016SOL     OW14680   3.104   4.374  10.811 -0.2974 -0.2556 -0.4972
 1016SOL    HW114681   3.179   4.420  10.848 -0.0590 -0.2690 -0.9644
 1016SOL    HW214682   3.069   4.446  10.759 -1.2625  0.7352  1.5411
 1017SOL     OW14683   1.246   0.172   3.117 -0.1146 -0.8576  0.0712
 1017SOL    HW114684   1.196   0.254   3.119  2.9299  0.9687  0.8650
 1017SOL    HW214685   1.223   0.137   3.203 -0.2761  1.7826  1.0968
 1018SOL     OW14686   2.118   1.924   1.480 -0.3170  0.0672  0.3537
 1018SOL    HW114687   2.138   1.862   1.550  2.3049  1.0348  0.4525
 1018SOL    HW214688   2.022   1.918   1.478 -0.4984  2.8190  0.7133
 1019SOL     OW14689   2.329   1.215  10.409  0.5153 -0.0345  0.1396
 1019SOL    HW114690   2.306   1.253  10.494  1.4502  0.3073  0.2354
 1019SOL    HW214691   2.424   1.207  10.411  0.5122 -0.5006 -1.7060
 1020SOL     OW14692   1.684   4.588  10.020 -0.2064  0.0928 -0.1193
 1020SOL    HW114693   1.756   4.559   9.964 -1.2169 -2.9685  0.1783
 1020SOL    HW214694   1.610   4.576   9.961  1.4199 -1.9956 -1.7516
 1021SOL     OW14695   0.802   1.239   6.293 -0.4488 -0.3827  0.1735
 1021SOL    HW114696   0.878   1.239   6.351  0.4712 -0.5353 -1.0442
 1021SOL    HW214697   0.817   1.311   6.232  2.1012  1.5347  3.0479
 1022SOL     OW14698   1.582   4.092   5.884 -0.3373  0.5223 -1.0825
 1022SOL    HW114699   1.661   4.094   5.937 -0.4802  2.3847 -0.9244
 1022SOL    HW214700   1.545   4.180   5.894 -0.3454  0.1808  1.9494
 1023SOL     OW14701   1.526   2.062   4.151 -0.6075 -0.4896  0.2620
 1023SOL    HW114702   1.490   2.123   4.215  0.1831 -0.3728  0.5889
 1023SOL    HW214703   1.611   2.103   4.138  0.7793 -3.2995  0.3821
 1024SOL     OW14704   3.998   2.564   0.347 -0.2418 -0.5256  0.2406
 1024SOL    HW114705   3.930   2.544   0.283 -1.6745  0.4909  1.4696
 1024SOL    HW214706   3.959   2.624   0.410 -1.4654 -1.0336 -0.0395
 1025SOL     OW14707   2.432   3.750  15.066  0.1964 -0.3602 -0.2074
 1025SOL    HW114708   2.521   3.736  15.097  0.1129 -0.7917 -0.1675
 1025SOL    HW214709   2.402   3.673  15.018  0.2313 -1.3492  1.3500
 1026SOL     OW14710   2.217   1.173   9.209  0.2737  0.2873 -0.2651
 1026SOL    HW114711   2.211   1.116   9.132 -0.7543 -0.6848  0.5342
 1026SOL    HW214712   2.124   1.183   9.225  0.3052  2.6676 -1.5115
 1027SOL     OW14713   1.237   0.730  11.505 -0.3948  0.4343  0.3504
 1027SOL    HW114714   1.259   0.705  11.416  0.0965  0.4037  0.4818
 1027SOL    HW214715   1.241   0.646  11.550  0.7604  0.4739  0.3148
 1028SOL     OW14716   3.345   1.980   6.259 -0.2261 -0.2537  0.0478
 1028SOL    HW114717   3.286   1.915   6.221 -1.0257 -0.6371  1.9476
 1028SOL    HW214718   3.425   1.929   6.255 -0.2654 -0.3121 -0.0018
 1029SOL     OW14719   4.389   0.907  15.337  0.1424 -0.3401 -0.0768
 1029SOL    HW114720   4.400   0.990  15.384 -0.8960 -0.5781  0.5750
 1029SOL    HW214721   4.367   0.846  15.407 -0.3884 -1.0883 -0.9033
 1030SOL     OW14722   4.454   3.432   2.056  0.2423 -0.7823  0.1284
 1030SOL    HW114723   4.368   3.421   2.016  0.1694  2.1740 -0.4871
 1030SOL    HW214724   4.496   3.503   2.008  1.4081 -0.3099  1.8456
 1031SOL     OW14725   1.630   3.092  13.496 -0.1016  0.2681 -0.4005
 1031SOL    HW114726   1.646   3.104  13.403 -0.8174 -2.6147 -0.8739
 1031SOL    HW214727   1.542   3.054  13.501  1.3573 -2.9418  0.4780
 1032SOL     OW14728   4.579   1.187   5.731  0.4255  0.1357 -0.0056
 1032SOL    HW114729   4.613   1.261   5.781 -1.1903 -1.6771  3.7599
 1032SOL    HW214730   4.643   1.122   5.761  0.8829  0.0210 -1.2172
 1033SOL     OW14731   0.204   2.254   2.599 -0.4042  0.2876 -0.0699
 1033SOL    HW114732   0.172   2.252   2.689 -2.6648 -0.0237 -0.8797
 1033SOL    HW214733   0.220   2.343   2.569  0.4521 -0.1894 -1.0315
 1034SOL     OW14734   0.252   3.440   2.099  0.1190 -0.3221 -0.2063
 1034SOL    HW114735   0.196   3.368   2.129  0.1720  0.8115  2.6157
 1034SOL    HW214736   0.324   3.429   2.161 -0.3751 -0.2831  0.3692
 1035SOL     OW14737   0.133   2.768   2.177  0.2673 -0.3919  0.7666
 1035SOL    HW114738   0.199   2.818   2.223 -0.5139  0.4524  0.9726
 1035SOL    HW214739   0.052   2.817   2.188 -0.2017 -0.7753 -0.8593
 1036SOL     OW14740   1.289   2.502   6.548 -0.3631  0.4456  0.4019
 1036SOL    HW114741   1.201   2.491   6.511  0.0092  0.9688 -0.6247
 1036SOL    HW214742   1.319   2.586   6.514 -0.8878  0.2308 -0.5819
 1037SOL     OW14743   3.641   3.588   5.832  0.2001 -0.1291  0.8952
 1037SOL    HW114744   3.565   3.607   5.778 -1.1566 -0.3894  2.7188
 1037SOL    HW214745   3.701   3.564   5.761  0.8608  0.8907  1.1113
 1038SOL     OW14746   1.181   1.854  10.380 -0.3169  0.0676 -0.1000
 1038SOL    HW114747   1.103   1.802  10.401 -0.3482  0.0297 -0.3044
 1038SOL    HW214748   1.157   1.934  10.427 -1.4999  0.1357 -0.8218
 1039SOL     OW14749   3.740   1.129   3.348 -0.6538 -0.0442  0.4505
 1039SOL    HW114750   3.707   1.040   3.364 -0.2473 -0.6754 -2.2676
 1039SOL    HW214751   3.834   1.111   3.354 -0.8509 -0.8705  1.1128
 1040SOL     OW14752   1.890   3.789  15.989  0.3602  0.1090 -0.4339
 1040SOL    HW114753   1.823   3.770  15.924  0.2240  0.8727 -0.5112
 1040SOL    HW214754   1.944   3.856  15.947 -1.7051  1.0270 -1.6158
 1041SOL     OW14755   0.902   4.081   5.464 -0.2587  0.1134  0.1796
 1041SOL    HW114756   0.883   4.118   5.378  2.8628  1.6715  0.1670
 1041SOL    HW214757   0.880   3.994   5.431 -1.4691  0.0680  1.1048
 1042SOL     OW14758   0.245   2.412  15.360  0.0811  0.6985  0.0335
 1042SOL    HW114759   0.324   2.388  15.409  0.3358 -1.2407 -1.3466
 1042SOL    HW214760   0.181   2.350  15.397  1.4440 -0.1197  1.0371
 1043SOL     OW14761   0.597   1.087   4.120  0.0883  0.1164 -0.6882
 1043SOL    HW114762   0.539   1.012   4.110  0.4289 -0.6294  2.8256
 1043SOL    HW214763   0.575   1.149   4.051 -1.1629  0.7713  0.2976
 1044SOL     OW14764   4.344   4.477   0.952  0.1863  0.2609 -0.5178
 1044SOL    HW114765   4.387   4.494   1.036  1.6360 -0.5014 -1.1102
 1044SOL    HW214766   4.398   4.519   0.885 -0.9190 -1.4985 -2.4781
 1045SOL     OW14767   0.192   0.981   2.845  0.4312  0.0839 -0.6613
 1045SOL    HW114768   0.142   0.954   2.768  0.3599 -2.3722  0.2449
 1045SOL    HW214769   0.188   0.895   2.888  0.2905  1.2162  1.5816
 1046SOL     OW14770   2.471   2.931   6.944  0.1616 -0.0264 -0.0632
 1046SOL    HW114771   2.562   2.957   6.956  0.1533 -1.0308  2.0529
 1046SOL    HW214772   2.471   2.883   6.860 -1.6240 -0.0238 -0.0780
 1047SOL     OW14773   3.317   2.740  10.337 -0.1424  0.4147  0.1216
 1047SOL    HW114774   3.230   2.720  10.371  0.1195  2.0476  1.7222
 1047SOL    HW214775   3.331   2.652  10.300  0.6036  0.2116  0.8948
 1048SOL     OW14776   0.846   2.446   8.664 -0.0931 -0.1097 -0.4727
 1048SOL    HW114777   0.838   2.493   8.582 -1.9371 -1.4556 -1.0582
 1048SOL    HW214778   0.902   2.372   8.638  0.7870  0.8077 -1.1584
 1049SOL     OW14779   2.325   0.025  11.484  0.1533 -0.8804 -0.1510
 1049SOL    HW114780   2.330   0.006  11.391  0.1789 -0.4824 -0.2339
 1049SOL    HW214781   2.349   4.683  11.533 -0.2758 -2.2440 -2.1057
 1050SOL     OW14782   0.172   2.361   9.295 -0.2704 -0.6782 -0.3678
 1050SOL    HW114783   0.144   2.346   9.385 -0.9692  1.3023 -0.2594
 1050SOL    HW214784   0.254   2.408   9.311 -0.6318 -0.2474  0.2388
 1051SOL     OW14785   2.474   0.912   8.516 -0.1166 -0.5472 -0.0533
 1051SOL    HW114786   2.418   0.836   8.502 -0.2554 -0.4994  0.2463
 1051SOL    HW214787   2.411   0.984   8.510  2.1081  1.3901 -0.0694
 1052SOL     OW14788   0.012   0.112   5.727  0.1187 -0.4606  0.1774
 1052SOL    HW114789   0.006   0.085   5.636 -0.4695  3.3827 -0.9143
 1052SOL    HW214790   4.713   0.036   5.775 -1.8934 -0.0333 -0.6134
 1053SOL     OW14791   4.209   2.744  10.597 -0.2430  0.4010  0.1011
 1053SOL    HW114792   4.246   2.803  10.532 -1.4895 -0.9919 -1.8722
 1053SOL    HW214793   4.273   2.746  10.668 -0.6815  0.6566  0.4844
 1054SOL     OW14794   1.404   3.137   7.306 -0.3986  0.0880  0.1284
 1054SOL    HW114795   1.314   3.170   7.303  0.3330  2.0749 -0.0059
 1054SOL    HW214796   1.447   3.190   7.373 -0.2582 -0.5781  0.5546
 1055SOL     OW14797   4.719   4.416   1.380  0.0639 -0.4269 -0.0538
 1055SOL    HW114798   4.725   4.511   1.373 -0.0111 -0.2981  1.6066
 1055SOL    HW214799   0.061   4.393   1.329 -0.4724  2.1729 -2.0767
 1056SOL     OW14800   2.952   3.951  14.347  0.0264 -0.4121 -0.9023
 1056SOL    HW114801   3.036   3.957  14.393 -0.8699  1.0504  0.5674
 1056SOL    HW214802   2.950   4.041  14.315  1.1334 -0.3098 -0.6909
 1057SOL     OW14803   0.547   4.382  17.029  0.7561 -0.0450 -0.4101
 1057SOL    HW114804   0.586   4.407  16.945 -0.7795 -1.9902 -1.7015
 1057SOL    HW214805   0.461   4.410  17.000  1.6573  2.0423 -1.0217
 1058SOL     OW14806   0.597   3.830   9.189 -0.0493 -0.0025  0.3204
 1058SOL    HW114807   0.677   3.780   9.176  0.0069  0.0878  0.3203
 1058SOL    HW214808   0.603   3.897   9.121  1.5432 -0.9271 -0.4552
 1059SOL     OW14809   1.808   1.884   8.722  0.0557  0.1272 -0.1578
 1059SOL    HW114810   1.723   1.878   8.678  0.3282 -1.2223 -0.4859
 1059SOL    HW214811   1.869   1.849   8.658  1.2605  0.7285  0.6684
 1060SOL     OW14812   2.773   3.325   6.865  0.0261  0.2674 -0.2843
 1060SOL    HW114813   2.737   3.340   6.778  1.9263  3.3795 -0.5569
 1060SOL    HW214814   2.697   3.296   6.915  1.8122 -0.8421  1.7883
 1061SOL     OW14815   0.361   1.212   5.996  0.5607  0.1666  0.4979
 1061SOL    HW114816   0.409   1.290   6.023  0.0281  0.3964  0.7595
 1061SOL    HW214817   0.282   1.204   6.050  0.3250  1.0281  0.2674
 1062SOL     OW14818   3.120   1.241   8.092 -0.2176 -0.2907  0.7690
 1062SOL    HW114819   3.042   1.185   8.099  0.2242 -0.8951  0.8769
 1062SOL    HW214820   3.141   1.226   8.000 -2.3848  0.9435  0.0749
 1063SOL     OW14821   1.307   2.753   7.154  0.5407  0.6857  0.3785
 1063SOL    HW114822   1.246   2.783   7.087  0.8336 -0.3485 -0.3458
 1063SOL    HW214823   1.364   2.830   7.152 -0.1585  1.2196  0.8214
 1064SOL     OW14824   0.877   4.697   4.552  0.1687 -0.5875 -0.3100
 1064SOL    HW114825   0.935   4.674   4.480 -0.3095 -0.3779 -0.7568
 1064SOL    HW214826   0.811   0.011   4.504 -2.1543 -1.7669  1.6148
 1065SOL     OW14827   3.726   4.332  16.681  0.3258 -0.3794 -0.3164
 1065SOL    HW114828   3.758   4.399  16.742 -1.0518  1.4575 -1.6120
 1065SOL    HW214829   3.693   4.265  16.740 -1.5266  1.7562  1.0510
 1066SOL     OW14830   0.375   3.312  11.643 -0.9912 -0.3708  0.0432
 1066SOL    HW114831   0.432   3.379  11.682 -1.8532  0.0971  0.4986
 1066SOL    HW214832   0.335   3.346  11.563  0.1030 -1.7172 -1.0653
 1067SOL     OW14833   1.318   3.241   8.685  0.2633 -0.0174  0.0416
 1067SOL    HW114834   1.361   3.161   8.714 -1.1366 -1.0421 -0.6811
 1067SOL    HW214835   1.262   3.200   8.619 -0.7980  0.6584  0.5263
 1068SOL     OW14836   3.486   4.467  15.647  0.2362 -0.2304  0.0290
 1068SOL    HW114837   3.463   4.512  15.728 -0.0964  1.7242 -1.1421
 1068SOL    HW214838   3.440   4.517  15.579  0.0959 -2.1001 -1.2589
 1069SOL     OW14839   3.174   0.515   4.023 -0.1563  0.3464  0.1820
 1069SOL    HW114840   3.099   0.547   4.073 -1.5974 -0.8668 -1.1943
 1069SOL    HW214841   3.234   0.539   4.094 -0.8474  0.1435  0.8340
 1070SOL     OW14842   2.734   1.984   2.708  0.1628 -0.2254 -0.4038
 1070SOL    HW114843   2.810   1.931   2.684 -0.0572 -0.0015 -1.5673
 1070SOL    HW214844   2.700   1.938   2.785  1.0044  2.6425  1.6987
 1071SOL     OW14845   3.545   2.070   1.851 -0.0587  0.0203 -0.1582
 1071SOL    HW114846   3.569   1.978   1.861  0.8437  0.2821  0.0692
 1071SOL    HW214847   3.590   2.116   1.922 -1.3497 -0.2894  0.8539
 1072SOL     OW14848   1.175   3.460   6.851 -0.0287  0.2089 -0.4367
 1072SOL    HW114849   1.181   3.478   6.945 -0.1466  2.0750 -0.7975
 1072SOL    HW214850   1.205   3.544   6.818  1.1562 -0.9803 -2.3629
 1073SOL     OW14851   3.008   1.120   2.546  0.7556 -0.1990  0.0851
 1073SOL    HW114852   3.076   1.149   2.606 -0.5197  1.0910  0.9104
 1073SOL    HW214853   3.066   1.108   2.470  0.9600  0.4329  0.1426
 1074SOL     OW14854   2.901   0.251   7.813  0.5063  0.1336 -0.3299
 1074SOL    HW114855   2.869   0.187   7.877 -1.6551 -0.0082 -1.5276
 1074SOL    HW214856   2.896   0.325   7.875  1.0355 -0.2713  0.1910
 1075SOL     OW14857   3.949   4.728   3.570  0.8976  0.3537 -0.0582
 1075SOL    HW114858   3.999   0.056   3.620 -0.0548 -0.8764  2.4627
 1075SOL    HW214859   3.878   0.047   3.535  1.0281  1.2442  1.0902
 1076SOL     OW14860   2.473   3.611  17.043  0.1429 -0.3714 -0.3249
 1076SOL    HW114861   2.452   3.627  17.135 -0.2981  0.6844 -0.6113
 1076SOL    HW214862   2.428   3.528  17.029 -2.8856  1.2682 -0.3161
 1077SOL     OW14863   1.024   0.645   7.769  0.1536  0.1989  0.1578
 1077SOL    HW114864   1.077   0.622   7.846  0.5991  2.0510  0.4001
 1077SOL    HW214865   1.024   0.565   7.716  0.1344  2.2686 -2.9701
 1078SOL     OW14866   3.366   0.242  12.399  0.7450  0.4233  0.0725
 1078SOL    HW114867   3.279   0.207  12.378  0.4742  0.0212  1.9124
 1078SOL    HW214868   3.351   0.318  12.455  0.0369 -0.4293  1.0203
 1079SOL     OW14869   0.501   1.332  12.940  0.1401 -0.3917 -0.1165
 1079SOL    HW114870   0.514   1.325  13.034  0.2480 -1.4454 -0.2009
 1079SOL    HW214871   0.593   1.313  12.920  0.0277 -2.4240  1.3453
 1080SOL     OW14872   3.412   2.950   3.962  0.1615 -0.2002 -0.7871
 1080SOL    HW114873   3.393   2.856   3.958  0.1063 -0.2022 -0.5065
 1080SOL    HW214874   3.500   2.950   4.002  1.2887  0.3743 -3.2650
 1081SOL     OW14875   1.470   3.251   5.599 -0.4889  0.3998  0.1593
 1081SOL    HW114876   1.430   3.307   5.665  0.9882  2.8166 -0.9740
 1081SOL    HW214877   1.433   3.166   5.624 -2.2315  0.8752 -0.8806
 1082SOL     OW14878   0.863   2.229   5.038  0.1167  0.7073  0.0483
 1082SOL    HW114879   0.878   2.171   5.113  1.4995 -1.6781 -2.0413
 1082SOL    HW214880   0.940   2.285   5.041  0.2428  0.4010  2.2549
 1083SOL     OW14881   3.238   2.909   8.716  0.3558 -0.0382  0.0410
 1083SOL    HW114882   3.174   2.957   8.665 -0.3644 -0.8897  0.1334
 1083SOL    HW214883   3.318   2.959   8.705 -0.2390  0.4263 -2.2324
 1084SOL     OW14884   2.821   2.133   7.022 -0.1527 -0.0759  0.1194
 1084SOL    HW114885   2.786   2.138   7.111  0.6073  1.0118  0.3419
 1084SOL    HW214886   2.864   2.218   7.017 -1.0372  0.3481 -0.4010
 1085SOL     OW14887   4.109   0.781  17.278  0.4015  0.2453  0.0144
 1085SOL    HW114888   4.190   0.784  17.329  1.4314 -2.4779 -1.4792
 1085SOL    HW214889   4.047   0.759  17.347  0.0051 -0.1457 -0.4737
 1086SOL     OW14890   0.362   3.922   7.730  0.0687 -0.7778  0.0380
 1086SOL    HW114891   0.432   3.857   7.727 -3.3852 -4.5510  1.4390
 1086SOL    HW214892   0.347   3.928   7.824 -0.3538  0.0624 -0.0753
 1087SOL     OW14893   2.225   2.969   7.657 -0.5150 -0.3746 -0.1098
 1087SOL    HW114894   2.236   2.903   7.588 -0.3984  0.9510 -1.3460
 1087SOL    HW214895   2.291   3.035   7.637 -0.3619 -1.1741 -2.2579
 1088SOL     OW14896   1.932   3.035   6.189 -0.4652 -0.3287 -0.0630
 1088SOL    HW114897   1.994   3.107   6.200 -2.2309  1.4567 -2.0052
 1088SOL    HW214898   1.858   3.085   6.155  1.0629  0.7274 -1.8178
 1089SOL     OW14899   0.581   1.619   8.871  0.7966 -0.2914  0.7182
 1089SOL    HW114900   0.610   1.704   8.836 -2.0158 -0.1469 -1.3237
 1089SOL    HW214901   0.522   1.593   8.800 -0.0282  1.1181  0.8870
 1090SOL     OW14902   3.158   2.210   4.892  0.2889 -0.1909  0.3161
 1090SOL    HW114903   3.107   2.257   4.826  1.7602 -0.5011 -1.0491
 1090SOL    HW214904   3.171   2.288   4.946 -0.8450 -2.4185  3.8523
 1091SOL     OW14905   1.701   3.698   6.961  0.1143  0.1782 -0.2941
 1091SOL    HW114906   1.652   3.720   7.040  4.0025  0.8443  1.8945
 1091SOL    HW214907   1.730   3.612   6.991  0.7207 -0.0349 -1.4482
 1092SOL     OW14908   1.219   1.471   3.420 -0.6180  0.0957 -0.2364
 1092SOL    HW114909   1.283   1.475   3.490 -2.1723 -4.2994  1.4234
 1092SOL    HW214910   1.232   1.379   3.398  0.4382  0.3529 -0.6636
 1093SOL     OW14911   2.848   0.179  16.295 -0.5465  0.4046 -0.1941
 1093SOL    HW114912   2.826   0.270  16.316  1.1441  0.6748  0.4439
 1093SOL    HW214913   2.794   0.131  16.358  1.3688 -0.3843  0.8484
 1094SOL     OW14914   1.390   1.357   5.937  0.6393  0.0965  0.4410
 1094SOL    HW114915   1.440   1.421   5.886 -0.5954 -1.0177 -2.1682
 1094SOL    HW214916   1.412   1.374   6.029 -0.4434 -0.1211  0.7355
 1095SOL     OW14917   3.649   0.808   3.765 -0.3532 -0.1203 -0.6195
 1095SOL    HW114918   3.607   0.817   3.851  0.1779  1.4963 -0.5324
 1095SOL    HW214919   3.693   0.891   3.748 -0.5353  0.5843  2.2778
 1096SOL     OW14920   1.103   2.949   7.666 -0.4457 -0.6386 -0.2790
 1096SOL    HW114921   1.028   2.955   7.606 -1.0483  0.9715  0.6273
 1096SOL    HW214922   1.108   2.854   7.656  0.9020 -0.6374  0.4728
 1097SOL     OW14923   1.539   4.472   8.380  0.3038  0.5379  0.0170
 1097SOL    HW114924   1.604   4.504   8.442  0.8347  0.5521 -0.5497
 1097SOL    HW214925   1.455   4.474   8.427 -0.7344  1.0730 -1.8757
 1098SOL     OW14926   4.165   3.116  10.027 -0.0712 -0.1370 -0.4447
 1098SOL    HW114927   4.070   3.117  10.016 -0.1759  0.0007  0.4737
 1098SOL    HW214928   4.178   3.209  10.050 -1.1873 -0.0593 -0.0912
 1099SOL     OW14929   0.651   3.096   5.299  0.1752 -0.5145  0.4456
 1099SOL    HW114930   0.564   3.133   5.285  0.4276 -0.1217 -0.0413
 1099SOL    HW214931   0.642   3.068   5.391  1.0079 -0.0292  0.6681
 1100SOL     OW14932   1.701   2.986  10.842  0.0147 -0.6282  0.3456
 1100SOL    HW114933   1.721   2.913  10.900 -0.1743 -0.1211  1.0517
 1100SOL    HW214934   1.773   2.983  10.779 -1.5465  1.9376 -1.5873
 1101SOL     OW14935   2.162   3.443   5.214 -0.1995 -0.1163 -0.0358
 1101SOL    HW114936   2.233   3.477   5.158 -1.1657 -1.7785 -2.2849
 1101SOL    HW214937   2.213   3.404   5.284  0.4566  0.1451 -0.3683
 1102SOL     OW14938   4.456   0.836   8.847 -0.1597 -0.0572 -0.1535
 1102SOL    HW114939   4.451   0.906   8.912 -2.2702  1.2289 -1.7094
 1102SOL    HW214940   4.430   0.761   8.901  1.5685  0.0026  0.7716
 1103SOL     OW14941   4.519   1.479   8.349  0.1953  0.0886 -0.1577
 1103SOL    HW114942   4.600   1.493   8.300 -0.4008 -0.7625 -1.3593
 1103SOL    HW214943   4.494   1.390   8.328  0.5268  0.2459 -1.1870
 1104SOL     OW14944   2.346   2.558   6.768  0.4495 -0.5975  0.3957
 1104SOL    HW114945   2.293   2.600   6.701 -0.5902 -0.1750  1.4822
 1104SOL    HW214946   2.405   2.631   6.786 -0.2111 -0.1256  0.6657
 1105SOL     OW14947   4.107   1.043  11.386  0.8261 -0.3977 -0.3016
 1105SOL    HW114948   4.112   1.138  11.378  1.5347 -0.4574 -0.5019
 1105SOL    HW214949   4.043   1.035  11.315  0.9381 -0.0800 -0.4387
 1106SOL     OW14950   3.105   1.607   9.203 -0.4218 -0.3331  0.6846
 1106SOL    HW114951   3.130   1.694   9.234  0.6963 -0.5914  0.5232
 1106SOL    HW214952   3.122   1.609   9.108 -0.7030  0.9525  0.6559
 1107SOL     OW14953   1.695   4.232   4.310 -0.0415  0.0940  0.4816
 1107SOL    HW114954   1.643   4.300   4.354  0.2425  0.4747  0.2371
 1107SOL    HW214955   1.639   4.202   4.239 -0.6979  2.1593  0.1330
 1108SOL     OW14956   1.133   0.608   4.685 -0.7821  0.3266 -0.4432
 1108SOL    HW114957   1.203   0.670   4.666  0.0029 -0.3486  0.2760
 1108SOL    HW214958   1.058   0.668   4.692 -0.5128  0.4750  1.0442
 1109SOL     OW14959   0.470   4.438   8.965  0.0481 -0.0258  0.0281
 1109SOL    HW114960   0.465   4.411   9.057  3.0608 -2.4945 -0.5235
 1109SOL    HW214961   0.497   4.356   8.923  0.0707  0.0700 -0.1418
 1110SOL     OW14962   1.666   2.001   7.924 -0.3628  0.0826  0.1598
 1110SOL    HW114963   1.622   2.084   7.905 -2.2621 -0.5103  1.9089
 1110SOL    HW214964   1.630   1.971   8.008 -0.9635 -1.7835 -0.7604
 1111SOL     OW14965   3.778   0.037   5.706  0.1009 -0.2023  0.3247
 1111SOL    HW114966   3.739   0.000   5.785 -0.9130 -1.0798 -0.5934
 1111SOL    HW214967   3.746   0.127   5.711 -1.4629 -0.8522  1.8600
 1112SOL     OW14968   3.637   4.309   7.813  0.6588 -0.2458  0.0628
 1112SOL    HW114969   3.726   4.276   7.825  0.4082 -1.8563 -2.3823
 1112SOL    HW214970   3.644   4.384   7.872 -1.0306 -0.1505  0.1585
 1113SOL     OW14971   4.537   4.162   4.385  0.3513  0.0211 -0.2412
 1113SOL    HW114972   4.631   4.166   4.369 -0.0706  0.2927 -2.6925
 1113SOL    HW214973   4.542   4.144   4.478 -0.5901  0.4789 -0.0992
 1114SOL     OW14974   0.528   3.025  16.746  0.2988  0.1062 -0.4472
 1114SOL    HW114975   0.474   2.954  16.781 -0.6078  0.0534 -1.9169
 1114SOL    HW214976   0.615   2.988  16.752  0.8408  1.6088  1.0008
 1115SOL     OW14977   2.410   4.506   7.277  0.3378 -0.0280 -0.5859
 1115SOL    HW114978   2.491   4.555   7.264 -1.0543  2.8868  1.6976
 1115SOL    HW214979   2.424   4.483   7.368 -1.4812  1.0892 -0.0120
 1116SOL     OW14980   1.233   0.569   2.806 -0.1869 -0.0114  0.2666
 1116SOL    HW114981   1.273   0.630   2.744  3.2408 -0.8804  1.6408
 1116SOL    HW214982   1.249   0.483   2.769 -1.4044  0.3030 -1.0022
 1117SOL     OW14983   0.111   3.220  15.928  0.7003  0.2154  0.2973
 1117SOL    HW114984   0.129   3.292  15.868 -3.1723  0.2398 -0.8421
 1117SOL    HW214985   0.022   3.248  15.948  0.9486  1.6503 -0.6507
 1118SOL     OW14986   2.137   3.497   7.354  0.0042  0.4054 -0.2759
 1118SOL    HW114987   2.181   3.523   7.273 -0.5831 -0.4515 -0.8710
 1118SOL    HW214988   2.217   3.500   7.405 -0.9406  0.3551  1.1971
 1119SOL     OW14989   3.673   4.402   4.512 -0.2173  0.3907 -0.6035
 1119SOL    HW114990   3.630   4.467   4.457 -0.0053  1.3361  0.3341
 1119SOL    HW214991   3.637   4.414   4.600 -0.1911  1.0402 -0.6773
 1120SOL     OW14992   2.861   2.416  17.213  0.9572  0.4413 -0.0751
 1120SOL    HW114993   2.869   2.488  17.151  2.1631 -0.9286 -1.5041
 1120SOL    HW214994   2.766   2.404  17.220  0.9372  1.0149  0.5683
 1121SOL     OW14995   0.262   4.580   1.742  0.3765 -0.1754 -0.1721
 1121SOL    HW114996   0.275   4.511   1.676  1.0756  0.6872 -0.9439
 1121SOL    HW214997   0.345   4.577   1.790 -1.0014  0.1537  2.1820
 1122SOL     OW14998   0.467   0.251   8.967  0.0725  0.3060 -0.6640
 1122SOL    HW114999   0.394   0.293   9.012 -0.5396 -0.4809 -0.9241
 1122SOL    HW215000   0.494   0.174   9.018  0.6625  0.3223 -0.9514
 1123SOL     OW15001   1.372   1.366  17.141  0.2137 -0.0066  0.1313
 1123SOL    HW115002   1.335   1.449  17.170 -1.2311  0.0005 -1.7231
 1123SOL    HW215003   1.404   1.330  17.224 -0.0125  1.4259  0.8382
 1124SOL     OW15004   3.958   3.301  17.555  0.1385 -0.5153 -0.1148
 1124SOL    HW115005   3.921   3.273  17.472 -2.3482  2.4858 -0.0527
 1124SOL    HW215006   4.017   3.230  17.581 -0.9135 -1.1735  0.4851
 1125SOL     OW15007   3.097   1.304   5.415 -0.8272 -0.0264 -0.3720
 1125SOL    HW115008   3.015   1.333   5.376 -2.2432 -2.2422  0.9488
 1125SOL    HW215009   3.113   1.387   5.460  2.4736 -1.4371  1.0703
 1126SOL     OW15010   2.391   4.599  10.447 -0.6216  0.0133 -0.0418
 1126SOL    HW115011   2.318   4.659  10.429 -0.5200  0.1039 -0.1489
 1126SOL    HW215012   2.462   4.651  10.485  0.6448  0.1383 -2.5581
 1127SOL     OW15013   0.669   2.542   7.731 -0.8298 -0.1645 -0.3152
 1127SOL    HW115014   0.725   2.476   7.690 -1.1204 -0.9382  0.5392
 1127SOL    HW215015   0.702   2.545   7.821 -0.6361 -0.6698 -0.3729
 1128SOL     OW15016   0.044   2.251  12.742  0.3723 -0.2356  0.1188
 1128SOL    HW115017   0.111   2.313  12.770  0.6737 -0.7234  0.4587
 1128SOL    HW215018   0.099   2.213  12.674 -1.0677 -0.4649 -0.9241
 1129SOL     OW15019   0.683   2.120   2.228 -0.0208  0.2965 -0.0901
 1129SOL    HW115020   0.624   2.148   2.299  0.9640  3.4725 -0.5147
 1129SOL    HW215021   0.637   2.172   2.162  0.0439  0.3741 -0.0749
 1130SOL     OW15022   3.157   0.214   1.501  0.0734  0.0667 -0.4811
 1130SOL    HW115023   3.165   0.198   1.595 -1.0692  1.6476 -0.1021
 1130SOL    HW215024   3.233   0.273   1.493  1.8105 -2.2504 -0.9967
 1131SOL     OW15025   3.011   2.562   7.547  0.0851 -0.0033 -0.2382
 1131SOL    HW115026   2.928   2.606   7.532 -0.2730 -1.0195 -1.1890
 1131SOL    HW215027   3.064   2.641   7.532  2.1248 -1.3386 -0.0931
 1132SOL     OW15028   3.265   1.390   9.279 -0.2943 -0.2188  0.0410
 1132SOL    HW115029   3.189   1.444   9.258 -0.3953  0.9250  3.2697
 1132SOL    HW215030   3.235   1.338   9.354 -2.4303  0.2769 -0.4629
 1133SOL     OW15031   0.809   0.778  17.190  0.2629 -0.1573  0.0536
 1133SOL    HW115032   0.870   0.803  17.121 -0.2223 -1.4583 -0.8561
 1133SOL    HW215033   0.815   0.682  17.194  0.6369 -0.0823  1.2271
 1134SOL     OW15034   1.336   3.039   5.673  0.7004 -0.0893  0.3629
 1134SOL    HW115035   1.259   3.006   5.626  0.9268  1.7983 -1.3412
 1134SOL    HW215036   1.301   3.059   5.760 -0.8015  0.1515 -0.2924
 1135SOL     OW15037   2.787   4.160  12.191  0.1979 -0.3808  1.0218
 1135SOL    HW115038   2.742   4.162  12.106  1.0324  3.9267  0.6630
 1135SOL    HW215039   2.828   4.074  12.192  2.2524  0.5646 -0.3442
 1136SOL     OW15040   4.460   2.824  10.483 -0.2817 -1.0913  0.6470
 1136SOL    HW115041   4.470   2.910  10.524 -2.8226 -0.2290 -0.5261
 1136SOL    HW215042   4.431   2.852  10.396 -1.1256 -1.0661  0.9356
 1137SOL     OW15043   4.545   3.923   5.059 -0.0063 -0.4654  0.1359
 1137SOL    HW115044   4.533   3.967   4.975  1.0559  0.4455  0.4609
 1137SOL    HW215045   4.482   3.851   5.054 -0.5899 -0.0173  0.9184
 1138SOL     OW15046   1.819   1.444  16.583 -0.1304  0.5698 -0.1167
 1138SOL    HW115047   1.768   1.525  16.580  3.3730  2.7409 -0.8574
 1138SOL    HW215048   1.832   1.430  16.489 -1.8860  0.4031 -0.3314
 1139SOL     OW15049   0.496   2.510   5.047  0.2648 -0.4058 -0.2296
 1139SOL    HW115050   0.591   2.521   5.045  0.2482  0.3659  3.4914
 1139SOL    HW215051   0.493   2.425   5.004 -0.1049 -0.2756 -0.4609
 1140SOL     OW15052   3.860   4.335   3.160 -0.0035 -0.3133 -0.4253
 1140SOL    HW115053   3.818   4.305   3.240 -0.1716  0.3116 -0.2761
 1140SOL    HW215054   3.939   4.282   3.151  1.2718  1.5047  0.1068
 1141SOL     OW15055   2.801   3.934  10.114 -0.0211 -0.0958  0.2468
 1141SOL    HW115056   2.890   3.898  10.111  0.1856  0.5956 -2.0160
 1141SOL    HW215057   2.829   4.026  10.117 -2.4873  0.6640 -0.0705
 1142SOL     OW15058   3.002   2.705   3.310  0.5025 -0.2008 -0.5396
 1142SOL    HW115059   3.068   2.662   3.256  0.4033  1.0508 -1.6616
 1142SOL    HW215060   3.050   2.788   3.312 -2.7860  1.7242 -1.9759
 1143SOL     OW15061   0.621   4.050   5.798  0.4849 -0.1174 -0.4319
 1143SOL    HW115062   0.655   3.973   5.843 -0.8522  0.5911  1.7836
 1143SOL    HW215063   0.704   4.092   5.776 -0.1507  1.7420  0.7641
 1144SOL     OW15064   3.092   4.590  14.552  0.3155  0.0711 -0.3917
 1144SOL    HW115065   3.166   4.627  14.600 -0.2076  0.0356  0.4436
 1144SOL    HW215066   3.097   4.626  14.464 -1.3435 -0.4532 -0.6944
 1145SOL     OW15067   0.243   2.929   4.077  0.4615  0.8928  0.1405
 1145SOL    HW115068   0.305   2.902   4.010  1.8970  0.7038  1.5431
 1145SOL    HW215069   0.280   3.013   4.105  0.7787  1.3423 -1.6343
 1146SOL     OW15070   2.038   2.281   0.855  0.3996 -0.0067  0.4277
 1146SOL    HW115071   1.995   2.262   0.939 -0.3797  2.3295  0.5555
 1146SOL    HW215072   1.963   2.300   0.799  0.6157 -0.8976 -0.1548
 1147SOL     OW15073   2.696   3.374   1.948  0.1484 -0.1368 -0.0257
 1147SOL    HW115074   2.663   3.405   2.032 -0.8232 -0.1142 -0.4089
 1147SOL    HW215075   2.717   3.281   1.958 -2.1721 -0.7650 -0.9170
 1148SOL     OW15076   3.199   0.300   3.841 -0.8627 -0.0176  0.0487
 1148SOL    HW115077   3.217   0.356   3.765  0.1091 -0.3899  0.0082
 1148SOL    HW215078   3.186   0.370   3.905 -0.1909  0.7362 -0.6464
 1149SOL     OW15079   1.707   2.504   7.362  0.5534 -0.0872 -0.4016
 1149SOL    HW115080   1.793   2.485   7.324 -0.4197 -1.2041 -2.0661
 1149SOL    HW215081   1.689   2.583   7.311  1.3476 -0.0978 -0.6890
 1150SOL     OW15082   0.960   0.244   3.468  0.4153 -0.1542 -0.1484
 1150SOL    HW115083   0.965   0.334   3.436  1.6912 -0.8595 -1.9319
 1150SOL    HW215084   0.949   0.261   3.562 -0.8593  0.0119 -0.3268
 1151SOL     OW15085   0.911   4.258   7.849  0.3677 -0.6518 -0.2466
 1151SOL    HW115086   0.932   4.346   7.880  2.6947 -2.5229  3.4406
 1151SOL    HW215087   0.974   4.238   7.779  0.2807 -1.2110 -0.1672
 1152SOL     OW15088   2.330   0.456   8.689  0.1417 -0.1904 -0.3726
 1152SOL    HW115089   2.311   0.451   8.783  1.7755 -0.6201 -0.0669
 1152SOL    HW215090   2.411   0.507   8.700 -0.1016  0.3575 -1.1445
 1153SOL     OW15091   3.436   4.483   6.979 -0.3722  0.2533 -0.2470
 1153SOL    HW115092   3.430   4.480   7.075 -1.0668  0.9518 -0.2776
 1153SOL    HW215093   3.349   4.453   6.952 -1.4677  1.4795  1.9337
 1154SOL     OW15094   0.102   0.767   7.825 -0.0871  0.8409 -0.6070
 1154SOL    HW115095   0.139   0.820   7.755 -2.4334  2.3508 -0.7190
 1154SOL    HW215096   0.168   0.698   7.833 -0.0892  1.3630  4.0952
 1155SOL     OW15097   2.320   1.666  13.501  0.2468  0.1311  0.1664
 1155SOL    HW115098   2.383   1.688  13.570  0.0611  2.0027 -0.2679
 1155SOL    HW215099   2.304   1.573  13.516  1.0511  0.4707  3.0985
 1156SOL     OW15100   0.457   1.002  10.081  0.5157 -0.0248  0.3166
 1156SOL    HW115101   0.540   0.956  10.064  0.8891  1.1217 -0.9565
 1156SOL    HW215102   0.393   0.933  10.065 -0.3574  0.6233  1.0704
 1157SOL     OW15103   0.420   0.150   7.240  0.4865 -0.1657  0.3066
 1157SOL    HW115104   0.418   0.245   7.240 -0.3947 -0.1828  2.3535
 1157SOL    HW215105   0.479   0.120   7.170 -1.0738 -1.0949 -0.6100
 1158SOL     OW15106   0.666   0.125   4.416 -0.0470 -0.3801 -0.1910
 1158SOL    HW115107   0.575   0.097   4.406  0.0028 -0.9982  1.0513
 1158SOL    HW215108   0.677   0.183   4.341  2.0936  1.0043  1.2060
 1159SOL     OW15109   1.053   4.395   4.913 -0.3945  0.1866 -0.4694
 1159SOL    HW115110   1.109   4.472   4.909  1.4637 -1.2326 -1.6995
 1159SOL    HW215111   1.099   4.348   4.984 -2.7508  0.9271  1.5585
 1160SOL     OW15112   0.500   2.937  16.202 -0.5850  0.0157  0.3542
 1160SOL    HW115113   0.452   2.908  16.280  0.4588 -0.5162  0.8107
 1160SOL    HW215114   0.534   3.019  16.237 -1.5041  1.0949 -1.3179
 1161SOL     OW15115   0.078   3.642   2.362  0.2612  0.3643 -0.1623
 1161SOL    HW115116   0.078   3.734   2.337 -1.0985  1.0136  2.2306
 1161SOL    HW215117   0.171   3.623   2.374  0.4493  0.0231 -2.2303
 1162SOL     OW15118   4.462   4.567   8.940 -0.6264  0.1753  0.1256
 1162SOL    HW115119   4.382   4.518   8.955  0.0235 -0.8642  0.2022
 1162SOL    HW215120   4.428   4.655   8.957 -0.5589  0.6496 -2.1882
 1163SOL     OW15121   3.232   0.262   8.717  0.3682  0.1978  0.4187
 1163SOL    HW115122   3.307   0.250   8.776  1.5860  1.7924 -0.7904
 1163SOL    HW215123   3.249   0.212   8.637 -2.2644  0.6631 -0.4264
 1164SOL     OW15124   0.433   4.102   6.148 -0.0691 -0.2490 -0.4930
 1164SOL    HW115125   0.353   4.128   6.194  0.9420 -1.1405  1.7566
 1164SOL    HW215126   0.413   4.143   6.064 -0.7996 -0.7844 -0.5803
 1165SOL     OW15127   3.227   2.300   7.782 -0.1640  0.1639  0.1335
 1165SOL    HW115128   3.190   2.239   7.718  0.0249  0.4462 -0.2494
 1165SOL    HW215129   3.271   2.225   7.822 -2.2374 -1.3974 -0.5003
 1166SOL     OW15130   2.639   4.018   5.723  0.2371 -0.2165  0.0842
 1166SOL    HW115131   2.606   4.039   5.810  0.6592 -0.7966  0.3842
 1166SOL    HW215132   2.572   4.067   5.675  0.4389 -0.9534 -0.9544
 1167SOL     OW15133   1.309   0.097   7.660 -0.2309  0.2271 -0.0356
 1167SOL    HW115134   1.263   0.123   7.579 -4.4804  0.5658  2.4926
 1167SOL    HW215135   1.241   0.058   7.714  0.6697  0.0948  0.9916
 1168SOL     OW15136   3.287   3.295  10.830 -0.6299 -0.6512  0.9519
 1168SOL    HW115137   3.286   3.210  10.786 -0.7055 -0.8375  1.3108
 1168SOL    HW215138   3.193   3.312  10.836 -0.1368  3.6319 -3.4346
 1169SOL     OW15139   1.475   3.217  10.175  0.5897 -0.3674  0.0381
 1169SOL    HW115140   1.516   3.151  10.119  0.3739  0.9133 -1.6022
 1169SOL    HW215141   1.468   3.292  10.116  1.0497 -0.3212  0.0419
 1170SOL     OW15142   2.830   0.860  12.193 -0.1750 -0.4146  0.2042
 1170SOL    HW115143   2.784   0.807  12.258  1.9340  0.4196  2.3772
 1170SOL    HW215144   2.919   0.862  12.226  0.0535 -0.7580 -0.4013
 1171SOL     OW15145   3.662   3.902   5.176  0.4850  0.0761  0.3799
 1171SOL    HW115146   3.697   3.941   5.095  1.2232 -1.2756  0.0552
 1171SOL    HW215147   3.567   3.902   5.164  0.5608 -0.4511 -0.2295
 1172SOL     OW15148   0.512   3.396   4.884  0.0946 -0.3227  0.0881
 1172SOL    HW115149   0.479   3.354   4.804 -0.6566  1.0205 -0.2999
 1172SOL    HW215150   0.455   3.472   4.883 -0.4892 -0.7380  2.8145
 1173SOL     OW15151   4.080   4.479  17.108 -0.2880  0.2024 -0.0143
 1173SOL    HW115152   4.080   4.556  17.051  0.5807  1.4049  1.5931
 1173SOL    HW215153   3.988   4.462  17.124  0.1720 -2.2938 -0.0693
 1174SOL     OW15154   0.117   3.750   3.595 -0.7196 -0.3132 -0.1092
 1174SOL    HW115155   0.151   3.783   3.678  3.2693  0.1243 -1.9369
 1174SOL    HW215156   0.025   3.777   3.595 -0.9535 -1.1100 -1.1617
 1175SOL     OW15157   2.795   2.895   8.785 -0.4213 -0.3427 -0.2221
 1175SOL    HW115158   2.771   2.809   8.820 -1.2574 -0.7200 -1.7494
 1175SOL    HW215159   2.880   2.908   8.827 -0.6321  0.8870 -0.1961
 1176SOL     OW15160   2.659   3.231   1.525 -0.2133 -0.1266  0.0784
 1176SOL    HW115161   2.577   3.244   1.571 -0.2800 -0.0849 -0.0517
 1176SOL    HW215162   2.685   3.147   1.561 -1.3367  0.6632  2.7019
 1177SOL     OW15163   2.584   0.610   7.361 -0.8178  0.4278  0.1355
 1177SOL    HW115164   2.634   0.631   7.440  1.0954 -0.2487 -0.8985
 1177SOL    HW215165   2.642   0.545   7.323  0.5287  0.5101  2.0476
 1178SOL     OW15166   4.188   3.905   8.969 -0.3379  0.1057  0.1648
 1178SOL    HW115167   4.136   3.858   8.904 -3.6342  0.4133  2.6039
 1178SOL    HW215168   4.215   3.972   8.907 -0.1818  0.3694  0.5156
 1179SOL     OW15169   4.054   3.399   3.670 -0.6720 -0.1500  0.1778
 1179SOL    HW115170   4.046   3.478   3.617  0.2580  0.2145  0.5795
 1179SOL    HW215171   4.147   3.378   3.668 -0.3987  0.9687  1.0071
 1180SOL     OW15172   0.264   3.506   8.684  0.7195 -0.2133 -0.2327
 1180SOL    HW115173   0.305   3.576   8.735 -1.8514  0.4092  0.9872
 1180SOL    HW215174   0.329   3.436   8.683  0.5288 -0.4328  1.7809
 1181SOL     OW15175   2.416   1.348   1.674  0.4670 -0.6555 -0.3098
 1181SOL    HW115176   2.374   1.269   1.641 -0.6973  0.4881 -1.5383
 1181SOL    HW215177   2.381   1.358   1.763 -0.0162  1.8412 -0.7786
 1182SOL     OW15178   4.439   3.783   5.869 -0.5194 -0.2376 -0.5933
 1182SOL    HW115179   4.371   3.784   5.803 -1.0191  0.7362 -0.0606
 1182SOL    HW215180   4.513   3.824   5.825  0.3981 -0.1852  0.9944
 1183SOL     OW15181   3.758   4.615   3.723 -0.0276  0.0398 -0.4198
 1183SOL    HW115182   3.798   4.537   3.761  3.1969  2.4810  1.1729
 1183SOL    HW215183   3.828   4.672   3.692 -0.2848  0.5395 -0.1012
 1184SOL     OW15184   2.682   3.425   5.674  0.9624  0.1285 -0.1390
 1184SOL    HW115185   2.613   3.394   5.616  0.0479  0.6876  0.6455
 1184SOL    HW215186   2.656   3.516   5.687  0.7530 -0.1894  1.7916
 1185SOL     OW15187   4.384   4.393   7.065  0.3432  0.0476  0.7463
 1185SOL    HW115188   4.366   4.299   7.061 -1.0249  0.4065 -1.7004
 1185SOL    HW215189   4.438   4.408   6.987  0.6150  1.2141  1.1673
 1186SOL     OW15190   2.953   1.599   8.338 -0.0218 -0.2013 -0.4858
 1186SOL    HW115191   2.891   1.664   8.305  1.0790  0.8730 -0.4339
 1186SOL    HW215192   2.954   1.628   8.429  1.5922 -2.9617  0.3584
 1187SOL     OW15193   3.304   0.693   0.258 -0.1112  0.4076 -0.3127
 1187SOL    HW115194   3.349   0.778   0.255  1.4606 -0.5161 -2.8071
 1187SOL    HW215195   3.296   0.664   0.168 -0.7176 -2.8959  0.7945
 1188SOL     OW15196   0.810   1.192   7.642 -0.3252 -0.3862  0.3065
 1188SOL    HW115197   0.894   1.228   7.615 -1.2192  1.7161  0.4002
 1188SOL    HW215198   0.823   1.192   7.737  0.1541 -1.3663  0.2438
 1189SOL     OW15199   1.180   2.943   7.927 -0.3877  0.0403 -0.1658
 1189SOL    HW115200   1.148   2.949   7.837  0.2190 -1.0263 -0.4564
 1189SOL    HW215201   1.104   2.897   7.965 -0.0439  0.6054  1.1809
 1190SOL     OW15202   2.139   0.806   8.216  0.0564 -0.2999  0.1912
 1190SOL    HW115203   2.083   0.798   8.139  2.1141 -1.6315 -1.1703
 1190SOL    HW215204   2.072   0.835   8.278  0.7622  1.9066 -0.0679
 1191SOL     OW15205   2.804   0.461   2.120 -0.1757  0.4806 -0.2692
 1191SOL    HW115206   2.833   0.422   2.037 -1.6422 -1.1162 -0.0274
 1191SOL    HW215207   2.727   0.507   2.088 -0.2921  0.4852  0.0177
 1192SOL     OW15208   0.250   2.248   5.322  0.1300 -0.2742  0.1945
 1192SOL    HW115209   0.340   2.275   5.336 -0.5795  1.0588  2.1705
 1192SOL    HW215210   0.259   2.204   5.237 -0.8790 -1.3725  0.6508
 1193SOL     OW15211   4.226   1.329   8.609  0.4899 -0.4420  0.0346
 1193SOL    HW115212   4.155   1.350   8.548  0.0586 -2.3641 -0.1163
 1193SOL    HW215213   4.256   1.415   8.639 -0.5700 -0.3111  0.6878
 1194SOL     OW15214   0.897   2.124   4.312 -0.4264  0.6597  0.5361
 1194SOL    HW115215   0.907   2.194   4.377  0.6058  1.8907 -0.9194
 1194SOL    HW215216   0.834   2.164   4.252 -0.3445 -0.2205 -0.1273
 1195SOL     OW15217   2.623   2.567   3.238 -0.0095 -0.0307 -0.3226
 1195SOL    HW115218   2.558   2.525   3.181 -0.5056 -1.0738  1.0089
 1195SOL    HW215219   2.684   2.590   3.168  0.8116  2.0630  1.0786
 1196SOL     OW15220   0.431   1.982   5.081  0.1178 -0.0250 -0.0300
 1196SOL    HW115221   0.380   1.986   5.161 -0.3670 -1.5423 -0.2581
 1196SOL    HW215222   0.500   2.046   5.101 -1.0973  1.8195 -1.6361
 1197SOL     OW15223   0.974   2.683   0.329 -0.3434 -0.3918 -0.4342
 1197SOL    HW115224   0.969   2.591   0.358  1.2466 -0.7336 -1.2464
 1197SOL    HW215225   0.933   2.732   0.400  1.0862  0.4728 -0.2091
 1198SOL     OW15226   4.431   0.477   7.714  0.3222  0.4704 -0.3034
 1198SOL    HW115227   4.490   0.552   7.706  0.1261  0.6283 -0.2573
 1198SOL    HW215228   4.485   0.402   7.739  0.6974  0.7897 -0.1586
 1199SOL     OW15229   1.266   1.447  17.463 -0.2438 -0.0900  0.0816
 1199SOL    HW115230   1.228   1.381  17.522 -0.9386  0.9617  0.7953
 1199SOL    HW215231   1.350   1.406  17.444  0.1581  0.8667 -0.1866
 1200SOL     OW15232   2.110   3.135   3.867 -0.6446  0.1088  0.1037
 1200SOL    HW115233   2.172   3.148   3.795 -1.0962  2.7528  0.1996
 1200SOL    HW215234   2.072   3.221   3.885  0.7632  0.9930 -1.0797
 1201SOL     OW15235   4.360   4.099   8.673 -0.5005 -0.3312  0.2974
 1201SOL    HW115236   4.326   4.062   8.591 -0.0907 -1.3701  0.5989
 1201SOL    HW215237   4.434   4.042   8.692  0.3721  0.9749  0.7918
 1202SOL     OW15238   3.361   4.708   3.207 -1.0528 -0.0509 -0.5619
 1202SOL    HW115239   3.312   4.716   3.125 -0.7443  1.7887 -0.5807
 1202SOL    HW215240   3.380   4.615   3.221  0.5051  0.3384 -0.0162
 1203SOL     OW15241   3.906   2.970   4.503 -0.4045 -0.1932  0.4383
 1203SOL    HW115242   3.893   2.921   4.584 -2.9511  0.1896  0.2631
 1203SOL    HW215243   3.854   3.051   4.507  0.1347  0.1058  1.5549
 1204SOL     OW15244   2.199   2.291  14.087 -0.1721  0.3496 -0.2649
 1204SOL    HW115245   2.106   2.306  14.071 -0.5634 -1.0970  0.5884
 1204SOL    HW215246   2.215   2.199  14.065 -0.2993  0.2474  0.0624
 1205SOL     OW15247   0.193   1.261   7.837  0.1904  0.1601  0.3787
 1205SOL    HW115248   0.193   1.284   7.744  3.9639  1.1539  0.6236
 1205SOL    HW215249   0.277   1.216   7.844  0.8542  1.4742  0.8612
 1206SOL     OW15250   1.694   3.532  16.811 -0.0461  0.0417 -0.0496
 1206SOL    HW115251   1.780   3.491  16.823  1.1408  2.9422  1.4401
 1206SOL    HW215252   1.673   3.501  16.723 -0.4370 -0.7705  0.3332
 1207SOL     OW15253   4.419   1.171   8.026  0.0574 -0.0592 -0.4468
 1207SOL    HW115254   4.495   1.186   7.970 -0.2748 -1.0781 -1.1566
 1207SOL    HW215255   4.357   1.119   7.975 -0.8210  1.5222 -1.0030
 1208SOL     OW15256   1.908   2.213   4.651  0.3817  0.2454 -0.3061
 1208SOL    HW115257   1.898   2.222   4.746  2.2429  1.0524 -0.1760
 1208SOL    HW215258   1.855   2.136   4.629 -3.3780  2.7775  0.0805
 1209SOL     OW15259   2.411   2.858   5.652  0.5463 -0.1753  0.1246
 1209SOL    HW115260   2.431   2.777   5.605  1.2695 -0.2380  0.5484
 1209SOL    HW215261   2.499   2.876   5.684  0.9294  0.3045 -1.1755
 1210SOL     OW15262   0.751   1.223  12.998  0.3663 -0.6697 -0.4358
 1210SOL    HW115263   0.745   1.127  13.003  1.6022 -0.7042  0.2851
 1210SOL    HW215264   0.820   1.230  13.063  0.2735 -0.6344 -0.3416
 1211SOL     OW15265   0.430   2.791   2.494  0.0349 -0.5697 -0.3358
 1211SOL    HW115266   0.403   2.799   2.586  0.0988  2.1627 -0.5513
 1211SOL    HW215267   0.452   2.882   2.473 -0.0293 -1.1201 -2.7407
 1212SOL     OW15268   2.540   0.644  10.086 -0.0364  0.2876  1.2289
 1212SOL    HW115269   2.571   0.735  10.087 -0.1345  0.3635 -2.1792
 1212SOL    HW215270   2.447   0.657  10.072  0.3407  1.6517  0.0072
 1213SOL     OW15271   0.094   3.867   6.699  0.2438  0.4022 -0.5832
 1213SOL    HW115272   0.086   3.821   6.783  1.0525  0.5990 -0.3992
 1213SOL    HW215273   0.003   3.894   6.686 -0.1648 -1.7925 -2.3159
 1214SOL     OW15274   1.927   1.733  11.382 -0.1669  0.5966 -0.1808
 1214SOL    HW115275   1.986   1.658  11.378  0.3276  1.0977 -2.2076
 1214SOL    HW215276   1.929   1.759  11.474  1.7992 -0.0932 -0.0370
 1215SOL     OW15277   0.428   3.212   3.411  0.9437 -0.7187 -0.1668
 1215SOL    HW115278   0.397   3.216   3.320  0.4393  1.9033  0.1074
 1215SOL    HW215279   0.363   3.157   3.453  0.6578 -0.7310 -0.6193
 1216SOL     OW15280   1.364   3.899   7.905 -0.1463  0.0586  0.2071
 1216SOL    HW115281   1.292   3.961   7.894 -0.3765  0.0962  1.9438
 1216SOL    HW215282   1.326   3.819   7.870 -1.2136  0.7271 -0.1544
 1217SOL     OW15283   4.140   2.253   2.558 -0.8533  0.5523  0.1596
 1217SOL    HW115284   4.073   2.212   2.612 -1.5216 -1.0100 -1.8623
 1217SOL    HW215285   4.203   2.184   2.538 -1.8925 -0.3806  0.1240
 1218SOL     OW15286   3.687   4.029   7.146 -0.3640  0.3917  0.7838
 1218SOL    HW115287   3.594   4.007   7.149  0.7278 -4.2730 -0.2854
 1218SOL    HW215288   3.693   4.060   7.236  0.3630 -2.0462  1.5658
 1219SOL     OW15289   2.216   4.399   8.859  0.0594  0.0921 -0.3065
 1219SOL    HW115290   2.257   4.337   8.798 -0.8232 -2.6518  1.9376
 1219SOL    HW215291   2.244   4.350   8.936 -1.2349  1.1408  0.8137
 1220SOL     OW15292   4.414   3.966  14.186  0.7230 -0.1209  0.7684
 1220SOL    HW115293   4.437   3.901  14.252 -0.9576 -1.7303 -0.2566
 1220SOL    HW215294   4.332   4.003  14.218  0.5746  0.2909 -0.0933
 1221SOL     OW15295   2.052   2.506   6.287 -0.2272 -0.2493 -0.3084
 1221SOL    HW115296   2.016   2.593   6.308  0.1486 -0.0373 -0.5343
 1221SOL    HW215297   2.102   2.519   6.207  0.7652  1.1699  0.5286
 1222SOL     OW15298   2.961   4.639   2.729 -0.7460  0.0066 -0.1768
 1222SOL    HW115299   3.035   4.693   2.755  0.3136  0.0524 -3.3315
 1222SOL    HW215300   2.920   4.689   2.659  0.4649  2.6137  0.9922
 1223SOL     OW15301   2.194   4.037   1.706  0.0479 -0.0489  0.0672
 1223SOL    HW115302   2.246   4.116   1.692 -0.5449  0.0176 -1.8458
 1223SOL    HW215303   2.108   4.077   1.723 -1.1195 -2.3523 -0.3263
 1224SOL     OW15304   0.778   3.358   4.993  0.0728  0.2601 -0.3324
 1224SOL    HW115305   0.810   3.291   4.932 -1.0622  1.6762 -2.4700
 1224SOL    HW215306   0.698   3.385   4.948 -1.7392 -2.4720  1.2398
 1225SOL     OW15307   1.188   3.190   9.663 -0.1856 -0.2691  0.5308
 1225SOL    HW115308   1.107   3.240   9.652  0.7785  1.2424  0.3168
 1225SOL    HW215309   1.199   3.187   9.758  2.6145  0.8049  0.2318
 1226SOL     OW15310   0.339   2.461   0.553  0.0324  1.1457  0.3396
 1226SOL    HW115311   0.279   2.515   0.605 -1.7807  0.5888 -1.1490
 1226SOL    HW215312   0.342   2.502   0.466  0.0893 -1.0017 -0.6830
 1227SOL     OW15313   4.351   4.222  11.560  0.5586 -0.4807 -0.4070
 1227SOL    HW115314   4.339   4.128  11.542 -1.9343 -0.0609 -0.9888
 1227SOL    HW215315   4.377   4.218  11.652  1.3199  1.9997 -0.5207
 1228SOL     OW15316   2.717   1.751   5.089 -0.2525 -0.5604  0.2180
 1228SOL    HW115317   2.729   1.813   5.161 -2.1576  0.3340 -0.2384
 1228SOL    HW215318   2.663   1.688   5.137 -2.9861  1.1233 -0.6810
 1229SOL     OW15319   4.606   3.242  11.668 -0.2871  0.0039 -0.3315
 1229SOL    HW115320   4.658   3.319  11.692  0.9545 -1.3842  1.4582
 1229SOL    HW215321   4.526   3.291  11.649 -0.5470 -0.7016 -1.0197
 1230SOL     OW15322   1.051   3.848   7.048 -0.5085  0.0277 -0.1721
 1230SOL    HW115323   0.978   3.790   7.071 -2.6899  1.7020 -2.8892
 1230SOL    HW215324   1.087   3.804   6.971  3.9944  0.2492  1.8148
 1231SOL     OW15325   3.235   2.276   2.731  0.7362 -0.5634  0.6186
 1231SOL    HW115326   3.230   2.211   2.661  0.2610 -2.1860  2.1737
 1231SOL    HW215327   3.312   2.245   2.778  1.4861 -0.4671 -0.5320
 1232SOL     OW15328   4.571   1.355  16.826  0.0960  0.0441 -0.0930
 1232SOL    HW115329   4.662   1.355  16.856 -0.7257  1.2131  2.3568
 1232SOL    HW215330   4.590   1.381  16.736  1.6376 -1.6204 -0.2630
 1233SOL     OW15331   1.539   2.931   3.308 -0.1288  0.1376  0.0191
 1233SOL    HW115332   1.501   2.852   3.271  0.2039  0.5438 -1.1816
 1233SOL    HW215333   1.517   2.996   3.242 -3.1269 -0.0208  0.8755
 1234SOL     OW15334   1.831   1.547   2.246 -0.0241  0.2733  0.0019
 1234SOL    HW115335   1.786   1.561   2.163  0.2860  2.9610  0.3032
 1234SOL    HW215336   1.799   1.459   2.266  1.7614 -0.4620 -0.3858
 1235SOL     OW15337   1.159   2.275   2.407 -0.1170  0.2129 -0.0307
 1235SOL    HW115338   1.086   2.255   2.466 -0.3347 -1.2145 -0.7909
 1235SOL    HW215339   1.226   2.228   2.457  1.5920  0.0139 -2.4824
 1236SOL     OW15340   0.972   3.369  11.802  0.1269  0.4131  0.1988
 1236SOL    HW115341   0.997   3.445  11.854  1.2460 -0.5321  1.0394
 1236SOL    HW215342   0.884   3.359  11.838  0.2436 -1.1048  0.0914
 1237SOL     OW15343   4.282   4.412   5.533 -0.0219  0.0065  0.2257
 1237SOL    HW115344   4.213   4.371   5.584 -1.1828  0.1395 -1.2633
 1237SOL    HW215345   4.243   4.492   5.497 -0.8533  0.9319  3.1598
 1238SOL     OW15346   2.916   2.131   9.453  0.0762  0.2582  0.3144
 1238SOL    HW115347   2.891   2.223   9.451 -0.3408  0.0873 -1.8763
 1238SOL    HW215348   2.874   2.096   9.532  1.0946  2.0228  1.6331
 1239SOL     OW15349   0.264   0.862   8.273 -0.4554 -0.0576  0.4304
 1239SOL    HW115350   0.256   0.892   8.363  1.2226 -0.4340  0.7056
 1239SOL    HW215351   0.176   0.824   8.272  0.5171 -2.3256 -0.8815
 1240SOL     OW15352   4.686   1.923   6.389 -0.1091 -0.2373  0.5756
 1240SOL    HW115353   4.676   1.864   6.315  0.1528 -0.2486  0.5498
 1240SOL    HW215354   0.044   1.909   6.403 -0.5592 -0.4563  3.3089
 1241SOL     OW15355   1.653   0.736  11.289 -0.4992  0.3266  0.2564
 1241SOL    HW115356   1.623   0.790  11.217  0.9870  0.5141 -0.2189
 1241SOL    HW215357   1.634   0.646  11.263  0.5322 -0.1983  1.2949
 1242SOL     OW15358   3.769   0.329   5.405 -0.5162  0.7321 -0.0530
 1242SOL    HW115359   3.863   0.316   5.418 -0.7585  0.2732  1.2793
 1242SOL    HW215360   3.736   0.241   5.388 -1.2164  1.0693 -0.4422
 1243SOL     OW15361   1.817   2.229  17.601  0.3388 -0.1730  0.5707
 1243SOL    HW115362   1.788   2.183  17.522 -1.5735  0.4619  0.8994
 1243SOL    HW215363   1.734   2.232  17.648 -0.5411 -0.3790 -0.9707
 1244SOL     OW15364   4.441   2.014   7.752  0.4816  0.2143  0.2446
 1244SOL    HW115365   4.479   2.041   7.669 -1.3456  1.9686 -0.0097
 1244SOL    HW215366   4.432   2.099   7.797  0.6015 -0.1772  1.0147
 1245SOL     OW15367   4.187   2.098   5.471 -0.2929 -0.2551  0.7239
 1245SOL    HW115368   4.165   2.189   5.454  1.3018 -0.4345 -2.2753
 1245SOL    HW215369   4.163   2.064   5.385 -0.0919 -0.0869  0.5995
 1246SOL     OW15370   2.620   2.540  14.012 -0.0936 -0.1847 -0.9150
 1246SOL    HW115371   2.629   2.495  14.096 -1.1396  1.2460 -0.0552
 1246SOL    HW215372   2.535   2.584  14.018  0.4147  0.9051 -1.6884
 1247SOL     OW15373   4.074   4.584  16.824 -0.4279  0.0533 -0.0004
 1247SOL    HW115374   4.070   4.551  16.734 -0.2343  0.8413 -0.2963
 1247SOL    HW215375   4.152   4.540  16.859  0.6709  1.4434 -0.7235
 1248SOL     OW15376   2.365   3.724   7.677  0.3073 -0.2752 -0.6470
 1248SOL    HW115377   2.340   3.667   7.750  0.9431 -0.6208 -0.7052
 1248SOL    HW215378   2.367   3.813   7.714 -1.1252  0.0567 -1.3516
 1249SOL     OW15379   1.360   0.054   5.183  0.2650  0.3247  0.5187
 1249SOL    HW115380   1.392   4.718   5.238  0.5328  0.2442  0.2573
 1249SOL    HW215381   1.431   0.118   5.194 -0.7631  1.4128  0.8138
 1250SOL     OW15382   1.729   2.751  11.007  0.4115 -0.3596  0.6327
 1250SOL    HW115383   1.710   2.741  11.100  2.8202  0.7802  1.2276
 1250SOL    HW215384   1.642   2.736  10.969  1.4470 -0.5873 -1.6418
 1251SOL     OW15385   0.113   1.035   6.670 -0.1837  0.0595 -0.1046
 1251SOL    HW115386   0.047   1.090   6.712 -0.4876  1.4781 -2.3795
 1251SOL    HW215387   0.129   1.092   6.594 -1.6231  1.3606  0.5727
 1252SOL     OW15388   3.094   1.750   9.513 -0.5668 -0.3511 -0.1581
 1252SOL    HW115389   3.066   1.834   9.552 -3.2680 -0.7022 -1.3041
 1252SOL    HW215390   3.119   1.786   9.428 -0.3609  0.0942  0.0852
 1253SOL     OW15391   4.580   3.682   4.506 -0.0469  0.6632 -0.6514
 1253SOL    HW115392   4.570   3.672   4.412  0.8294  0.5940 -0.7317
 1253SOL    HW215393   4.668   3.645   4.508  1.4567  4.3715  1.1118
 1254SOL     OW15394   1.934   3.414   2.046 -0.7876 -0.6447 -0.5237
 1254SOL    HW115395   1.851   3.451   2.075 -0.5915  1.9108 -3.2159
 1254SOL    HW215396   1.902   3.331   2.011 -1.1911  0.4728 -2.7611
 1255SOL     OW15397   1.954   1.423  12.562  0.3288 -0.8541  0.5952
 1255SOL    HW115398   2.034   1.379  12.532  1.4413  2.2382 -0.9627
 1255SOL    HW215399   1.924   1.372  12.637 -2.0142  1.1147  0.9770
 1256SOL     OW15400   2.556   4.347   2.094 -0.4915 -0.0291 -0.0712
 1256SOL    HW115401   2.507   4.270   2.120 -1.2346  1.5465  3.1656
 1256SOL    HW215402   2.540   4.393   2.176 -1.7233 -2.1125  0.8424
 1257SOL     OW15403   0.787   0.370   1.418  0.0263 -0.1516 -0.4051
 1257SOL    HW115404   0.835   0.314   1.357 -0.1347  0.0957 -0.7595
 1257SOL    HW215405   0.818   0.452   1.379  0.9352 -0.6843 -0.7909
 1258SOL     OW15406   2.689   3.594   5.250 -0.3933 -0.0136  0.3659
 1258SOL    HW115407   2.748   3.666   5.228 -0.7612  0.0576 -0.3741
 1258SOL    HW215408   2.622   3.607   5.184  0.6452 -2.6372 -1.2167
 1259SOL     OW15409   3.438   4.295  15.350 -0.1393 -0.2960  0.6661
 1259SOL    HW115410   3.444   4.391  15.354  0.6032 -0.3199  0.0187
 1259SOL    HW215411   3.516   4.262  15.395 -0.0251  0.6511  1.1658
 1260SOL     OW15412   3.768   3.119   6.097  0.5471  0.2529  0.0315
 1260SOL    HW115413   3.808   3.088   6.015  0.7171 -0.2200  0.2936
 1260SOL    HW215414   3.778   3.214   6.094  0.3742  0.3067  1.1825
 1261SOL     OW15415   0.535   0.659   8.206  0.7832 -0.0548 -0.4474
 1261SOL    HW115416   0.526   0.641   8.112 -1.6535 -2.2076  0.2305
 1261SOL    HW215417   0.458   0.717   8.207  0.4679 -0.5135  0.7372
 1262SOL     OW15418   2.144   1.116  11.406 -0.6225 -0.0136 -0.7685
 1262SOL    HW115419   2.227   1.157  11.381  0.6895 -1.2024  1.6516
 1262SOL    HW215420   2.080   1.187  11.398 -0.3114  0.3787  0.2612
 1263SOL     OW15421   0.477   1.730   2.362 -0.0965 -0.2401  0.5472
 1263SOL    HW115422   0.457   1.773   2.445  0.1189 -2.5456  1.8090
 1263SOL    HW215423   0.407   1.777   2.318  1.1490  1.5396  0.4910
 1264SOL     OW15424   1.830   4.448   3.889  0.3195 -0.0464  0.0326
 1264SOL    HW115425   1.865   4.455   3.978 -0.8465  1.2443  0.3818
 1264SOL    HW215426   1.904   4.501   3.858 -0.8535  1.5585  0.0036
 1265SOL     OW15427   2.335   2.288   7.039  0.2063  0.3690  0.5555
 1265SOL    HW115428   2.355   2.195   7.052 -0.7230 -0.1947 -2.0976
 1265SOL    HW215429   2.319   2.307   7.132  0.5473  1.1001  0.4628
 1266SOL     OW15430   0.080   4.223  10.084  0.1051  0.4647 -0.3727
 1266SOL    HW115431   0.096   4.312  10.055  1.7686 -0.1083 -1.1857
 1266SOL    HW215432   0.039   4.173  10.012 -1.4341  1.4584 -0.1878
 1267SOL     OW15433   4.703   2.359   4.521  0.1980  0.2675  0.0014
 1267SOL    HW115434   4.642   2.402   4.462  0.1334  0.5555  0.2799
 1267SOL    HW215435   4.651   2.380   4.599 -1.3306  2.6712 -1.6672
 1268SOL     OW15436   2.726   1.149   6.412  0.0215 -0.5742 -0.1544
 1268SOL    HW115437   2.761   1.201   6.484 -0.9736  1.0357 -0.8202
 1268SOL    HW215438   2.631   1.165   6.412 -0.2558 -2.1884 -1.5699
 1269SOL     OW15439   3.240   0.608  17.340  0.0751 -0.0848  0.1616
 1269SOL    HW115440   3.294   0.612  17.419 -1.3964  0.0766  1.1513
 1269SOL    HW215441   3.153   0.624  17.376 -1.3158 -2.1370 -2.2727
 1270SOL     OW15442   3.720   0.736   1.709 -0.5246 -0.6852  0.0473
 1270SOL    HW115443   3.656   0.724   1.639 -2.1843  2.2873  1.0566
 1270SOL    HW215444   3.719   0.653   1.757 -0.7607 -1.1719 -0.8055
 1271SOL     OW15445   2.956   2.248  10.616 -0.3265 -0.3588  0.1585
 1271SOL    HW115446   2.887   2.202  10.665 -1.2297  0.5722 -0.2389
 1271SOL    HW215447   2.913   2.324  10.577 -0.6654  0.1475  1.4946
 1272SOL     OW15448   1.871   1.805   4.752 -0.3700 -0.9638  0.2101
 1272SOL    HW115449   1.956   1.849   4.758 -1.5741  1.3081  0.6114
 1272SOL    HW215450   1.840   1.854   4.676  1.6135 -1.4577 -0.9266
 1273SOL     OW15451   0.389   0.684   3.431  0.0322 -0.4035  0.2030
 1273SOL    HW115452   0.311   0.730   3.460 -0.6348 -1.9581  0.8421
 1273SOL    HW215453   0.356   0.621   3.367 -1.9662  0.5748  0.2922
 1274SOL     OW15454   1.964   4.252   4.581  0.2616  0.0666 -0.2816
 1274SOL    HW115455   1.958   4.165   4.620 -1.4305  0.7952  1.0251
 1274SOL    HW215456   1.984   4.311   4.653  3.3654 -0.6764 -0.4974
 1275SOL     OW15457   0.560   1.967   1.073 -0.6585  0.3234 -0.3376
 1275SOL    HW115458   0.596   2.028   1.136 -1.1931  0.9209 -0.6103
 1275SOL    HW215459   0.534   2.032   1.007 -0.8158  0.1155 -0.4840
 1276SOL     OW15460   4.525   2.723   6.335 -0.2887  0.3780 -0.2864
 1276SOL    HW115461   4.478   2.640   6.336  0.2435  0.0848  0.3065
 1276SOL    HW215462   4.515   2.761   6.422 -1.2711  1.3534 -0.8231
 1277SOL     OW15463   0.823   2.840   1.054 -0.5649  0.1800 -0.2996
 1277SOL    HW115464   0.884   2.848   1.127 -1.6475 -0.1262  0.6513
 1277SOL    HW215465   0.829   2.923   1.008 -0.5961  0.1705 -0.3210
 1278SOL     OW15466   4.194   3.748   4.238 -0.4330  0.3696  0.2322
 1278SOL    HW115467   4.118   3.693   4.217 -0.8923  0.5793  1.3444
 1278SOL    HW215468   4.164   3.836   4.217  0.5899  0.9303  1.0928
 1279SOL     OW15469   2.383   1.324   7.623 -0.0130  0.5601 -0.9279
 1279SOL    HW115470   2.332   1.248   7.649  0.1797  0.1974 -1.6165
 1279SOL    HW215471   2.355   1.321   7.531 -1.3222  0.4854 -0.5196
 1280SOL     OW15472   0.831   3.385  13.560 -0.1528  0.2876 -0.3425
 1280SOL    HW115473   0.769   3.399  13.632 -0.8508  0.9455 -1.0687
 1280SOL    HW215474   0.837   3.291  13.573 -1.4464  0.4506  1.5248
 1281SOL     OW15475   2.209   0.539  10.525 -0.0302 -0.2975 -0.1801
 1281SOL    HW115476   2.176   0.468  10.580  0.6095  1.0709  1.9705
 1281SOL    HW215477   2.295   0.553  10.564 -0.8294 -1.3967  1.9707
 1282SOL     OW15478   3.147   0.067   9.782  0.0066  0.2514  0.0421
 1282SOL    HW115479   3.117   0.013   9.855  1.8130  0.6521  1.0782
 1282SOL    HW215480   3.096   0.146   9.802  0.2649 -0.1070  2.0877
 1283SOL     OW15481   2.138   1.322   5.150 -0.0638 -0.1050 -0.3285
 1283SOL    HW115482   2.088   1.400   5.171  1.5028  0.3765  1.6587
 1283SOL    HW215483   2.074   1.261   5.114 -0.1911  1.1572 -2.1876
 1284SOL     OW15484   0.338   1.500   4.425  0.1689 -0.3160 -0.3223
 1284SOL    HW115485   0.257   1.458   4.453 -0.4259  0.2929 -1.1106
 1284SOL    HW215486   0.389   1.488   4.504  0.2389  0.5008 -0.2513
 1285SOL     OW15487   0.749   4.633   6.283  0.4131 -0.0683  0.0774
 1285SOL    HW115488   0.682   4.677   6.335  0.8044 -0.1230  0.6349
 1285SOL    HW215489   0.801   4.588   6.350  1.7462 -0.2862 -1.1078
 1286SOL     OW15490   4.097   0.328   5.730  0.0030  0.0225 -0.0374
 1286SOL    HW115491   4.184   0.293   5.710 -0.2265 -0.1264 -0.7891
 1286SOL    HW215492   4.076   0.287   5.814  0.3661  0.4964  0.2823
 1287SOL     OW15493   0.536   3.808   6.983 -0.2946  0.5330 -0.4532
 1287SOL    HW115494   0.489   3.860   7.048 -0.3636 -0.6683  0.4712
 1287SOL    HW215495   0.475   3.814   6.910  0.4077 -0.4730 -1.1316
 1288SOL     OW15496   2.413   3.306   9.867  0.8650 -0.1653  0.2710
 1288SOL    HW115497   2.395   3.400   9.870 -1.4728 -0.5869 -0.1186
 1288SOL    HW215498   2.472   3.300   9.792 -1.3241 -1.1329 -1.3845
 1289SOL     OW15499   2.637   3.851   9.437  0.1015 -0.4080 -0.2179
 1289SOL    HW115500   2.732   3.865   9.434  0.0015  0.1760 -0.6679
 1289SOL    HW215501   2.612   3.892   9.354  0.5938  0.7002  0.1739
 1290SOL     OW15502   1.363   3.566   4.209  0.4934  0.1688  0.0086
 1290SOL    HW115503   1.394   3.506   4.278 -0.3539  0.2042  0.4146
 1290SOL    HW215504   1.345   3.500   4.142  2.8009 -0.8113  0.3276
 1291SOL     OW15505   2.769   1.335   9.150 -0.1624 -0.3602 -0.7679
 1291SOL    HW115506   2.809   1.251   9.171  0.5015  0.7464  2.4404
 1291SOL    HW215507   2.698   1.336   9.214  0.4691 -0.9661 -0.0620
 1292SOL     OW15508   1.150   4.322  14.608  0.1839 -0.1026 -0.1388
 1292SOL    HW115509   1.172   4.248  14.552  0.3385  1.0146 -1.5624
 1292SOL    HW215510   1.240   4.337  14.637  1.0829 -2.8517 -1.5326
 1293SOL     OW15511   4.347   1.963  17.477  0.4815 -0.1086  0.4552
 1293SOL    HW115512   4.386   1.987  17.561 -0.6556 -0.9197  1.2255
 1293SOL    HW215513   4.422   1.976  17.419  0.5659 -1.5813  0.2288
 1294SOL     OW15514   0.104   1.522   7.723 -0.1906  0.2594  0.0827
 1294SOL    HW115515   0.110   1.538   7.629 -0.5540 -2.0000 -0.3235
 1294SOL    HW215516   0.026   1.466   7.729 -0.3214  0.3434 -0.7849
 1295SOL     OW15517   2.954   0.698  13.207  0.4024  0.3906 -0.3243
 1295SOL    HW115518   3.019   0.648  13.159  0.4605 -0.3710  0.5459
 1295SOL    HW215519   2.879   0.662  13.159  0.1638  0.6327 -0.1295
 1296SOL     OW15520   2.854   2.469   9.031  0.5994 -0.1343 -0.2211
 1296SOL    HW115521   2.809   2.490   9.112  2.2407  1.2386  0.3140
 1296SOL    HW215522   2.822   2.380   9.014  1.3381 -0.1437 -1.5545
 1297SOL     OW15523   3.410   4.536   5.050 -0.1627 -0.0767  0.1845
 1297SOL    HW115524   3.331   4.531   5.103 -1.1527  0.3013 -1.2420
 1297SOL    HW215525   3.408   4.626   5.018 -3.1996 -0.3749 -0.5008
 1298SOL     OW15526   0.812   3.717   7.020  0.8413 -0.6195  0.5745
 1298SOL    HW115527   0.749   3.778   7.059  1.4540 -0.7388  1.7413
 1298SOL    HW215528   0.792   3.725   6.927  0.6131  4.8321  1.0825
 1299SOL     OW15529   1.138   4.497   0.950 -0.0791 -0.1684 -0.1666
 1299SOL    HW115530   1.180   4.490   1.036 -2.9517 -0.9227  1.1877
 1299SOL    HW215531   1.215   4.489   0.894 -1.2109 -1.1338 -1.5794
 1300SOL     OW15532   3.272   3.830  14.540 -0.1462 -0.2436  0.3085
 1300SOL    HW115533   3.343   3.856  14.600  0.6406 -2.6901  0.4249
 1300SOL    HW215534   3.220   3.910  14.535 -0.8306 -0.6451  1.1114
 1301SOL     OW15535   1.490   1.347   2.478  0.0335  0.4241 -0.0204
 1301SOL    HW115536   1.452   1.300   2.553 -3.4185 -1.9636 -3.3007
 1301SOL    HW215537   1.434   1.424   2.474 -0.4750  0.2418  3.3109
 1302SOL     OW15538   4.267   4.579   4.601 -0.2974 -0.1086  0.8615
 1302SOL    HW115539   4.202   4.631   4.648  0.1842 -0.0159  1.4367
 1302SOL    HW215540   4.260   4.500   4.654  0.9235 -0.6414  0.2238
 1303SOL     OW15541   0.519   3.831   6.060 -0.1886  0.2186 -0.3186
 1303SOL    HW115542   0.506   3.917   6.101 -0.7304 -0.4663  0.9236
 1303SOL    HW215543   0.447   3.788   6.105  1.3711 -0.0792  1.8968
 1304SOL     OW15544   2.014   1.692  16.129 -0.1947  0.0981  0.3103
 1304SOL    HW115545   1.967   1.738  16.199 -0.1605 -0.5790  0.7795
 1304SOL    HW215546   1.965   1.735  16.059  0.0708 -0.5158 -0.2464
 1305SOL     OW15547   3.617   2.273   6.724  0.0059 -0.2706  0.3510
 1305SOL    HW115548   3.623   2.352   6.778 -0.0327 -0.0321  0.0089
 1305SOL    HW215549   3.528   2.239   6.736 -0.7128  1.9149  1.3187
 1306SOL     OW15550   2.760   4.720   5.681  0.5088  0.2751  0.1547
 1306SOL    HW115551   2.717   0.013   5.600 -0.0078  0.2148  0.4075
 1306SOL    HW215552   2.832   4.662   5.657 -0.0932 -0.3595 -0.1022
 1307SOL     OW15553   1.379   3.804   1.110  0.0475  0.1531 -0.1509
 1307SOL    HW115554   1.367   3.767   1.198 -2.9056  0.2245 -0.5059
 1307SOL    HW215555   1.333   3.886   1.126 -0.6612 -0.3825  0.5986
 1308SOL     OW15556   3.637   3.249   6.337 -0.2376  0.4227  0.5954
 1308SOL    HW115557   3.635   3.315   6.267 -0.7278 -0.3603 -0.1310
 1308SOL    HW215558   3.648   3.308   6.412  3.0032  0.5552  0.0123
 1309SOL     OW15559   1.071   1.093   3.654  0.1883  0.0182  0.4535
 1309SOL    HW115560   1.144   1.130   3.703  1.0992  0.5059 -1.2592
 1309SOL    HW215561   1.114   1.067   3.572  1.5017  2.0517  0.5145
 1310SOL     OW15562   1.592   0.209  12.845 -0.3079 -0.2519 -0.1367
 1310SOL    HW115563   1.557   0.287  12.888  1.6297  0.7808 -0.4316
 1310SOL    HW215564   1.574   0.225  12.753  0.8614  0.7750 -0.1933
 1311SOL     OW15565   4.057   0.811   5.095 -0.2711  0.4915 -0.1148
 1311SOL    HW115566   4.083   0.749   5.164 -0.3831  1.1852  0.5449
 1311SOL    HW215567   3.969   0.780   5.073 -0.0693  0.3569 -0.7228
 1312SOL     OW15568   3.856   4.454   7.452 -0.7083 -0.5889 -0.0751
 1312SOL    HW115569   3.891   4.518   7.514 -1.3526  1.5879 -1.9597
 1312SOL    HW215570   3.777   4.422   7.494 -2.1407 -1.0423 -3.0679
 1313SOL     OW15571   4.494   3.810  17.071  0.1175  0.4950 -0.4623
 1313SOL    HW115572   4.577   3.851  17.094 -0.4229  0.7049  1.1475
 1313SOL    HW215573   4.440   3.886  17.092 -0.1357  0.5986 -1.5187
 1314SOL     OW15574   1.355   1.004   7.145  0.4698 -0.1932  0.5617
 1314SOL    HW115575   1.298   1.079   7.126 -1.8168 -1.3734  2.7643
 1314SOL    HW215576   1.283   0.948   7.173  0.0351  1.3862  2.6425
 1315SOL     OW15577   0.902   4.480   3.101 -0.6284 -0.0289  0.1505
 1315SOL    HW115578   0.874   4.468   3.192  3.7671 -2.3563  1.1989
 1315SOL    HW215579   0.995   4.462   3.110 -0.5325  0.8042  0.7792
 1316SOL     OW15580   0.504   3.124   7.967 -0.2926 -0.4289  0.3295
 1316SOL    HW115581   0.493   3.133   7.873 -1.1295 -1.4590  0.3244
 1316SOL    HW215582   0.520   3.030   7.977 -1.4320 -0.8316 -1.7153
 1317SOL     OW15583   4.339   3.972  10.172  0.4432 -0.3935  0.5792
 1317SOL    HW115584   4.337   4.068  10.168 -3.3583 -0.5407 -1.0507
 1317SOL    HW215585   4.277   3.945  10.239  0.1104  1.9467  1.2168
 1318SOL     OW15586   2.605   1.953  14.599  0.0666 -0.5970  0.4540
 1318SOL    HW115587   2.613   1.971  14.505  1.1936  1.4900  0.9586
 1318SOL    HW215588   2.691   1.979  14.633 -0.2276  1.2141 -0.1897
 1319SOL     OW15589   0.160   2.697   4.193 -0.1595  0.4880 -0.6574
 1319SOL    HW115590   0.149   2.724   4.284 -1.6196  1.6806 -1.1705
 1319SOL    HW215591   0.192   2.778   4.152 -2.4772  1.7951  0.1383
 1320SOL     OW15592   3.209   3.291   3.331 -0.2371  0.2964 -0.3869
 1320SOL    HW115593   3.240   3.372   3.371 -0.4652 -0.0964  0.5881
 1320SOL    HW215594   3.131   3.280   3.385  0.1878 -0.7580  0.0139
 1321SOL     OW15595   1.169   0.532  13.365 -0.1843 -0.2309  0.4264
 1321SOL    HW115596   1.143   0.460  13.423  0.8658 -1.0309 -0.0994
 1321SOL    HW215597   1.194   0.483  13.287  3.3666  0.7652  0.9384
 1322SOL     OW15598   1.938   1.315   8.748  0.0760  0.0353  0.1237
 1322SOL    HW115599   1.927   1.404   8.781  0.6184  0.4507 -0.8256
 1322SOL    HW215600   2.011   1.327   8.687 -0.5688 -0.9925 -0.8454
 1323SOL     OW15601   0.113   2.230  11.349  0.5402 -0.0639  0.3848
 1323SOL    HW115602   0.155   2.234  11.435  0.3977 -0.4030  0.4726
 1323SOL    HW215603   0.023   2.201  11.367 -0.0081  1.3932  0.0361
 1324SOL     OW15604   4.418   3.534  16.486 -0.2218  0.1525  0.7201
 1324SOL    HW115605   4.476   3.537  16.562 -1.6543 -1.3735  1.8673
 1324SOL    HW215606   4.464   3.588  16.421  0.5947 -1.6519 -0.1954
 1325SOL     OW15607   2.450   1.216   3.951 -0.4112  0.2087  0.0815
 1325SOL    HW115608   2.528   1.252   3.993 -0.9965  2.2028 -0.5869
 1325SOL    HW215609   2.471   1.213   3.858  0.5316 -0.7677  0.3239
 1326SOL     OW15610   1.663   3.557  15.325 -0.2165  0.4093  0.4281
 1326SOL    HW115611   1.659   3.539  15.232 -2.8669  0.5650  0.5072
 1326SOL    HW215612   1.639   3.650  15.324  2.6694  1.0930 -1.4820
 1327SOL     OW15613   1.314   2.702   6.129 -0.5813  0.0671 -0.1928
 1327SOL    HW115614   1.353   2.769   6.073  0.1895 -0.4694 -0.3042
 1327SOL    HW215615   1.368   2.629   6.099 -0.0333  1.4042 -2.4789
 1328SOL     OW15616   2.411   2.079   9.026  0.2699  0.6865 -0.2039
 1328SOL    HW115617   2.422   1.990   9.057  1.6482  0.6018 -0.9067
 1328SOL    HW215618   2.321   2.095   9.053  0.9186 -1.5483  3.2161
 1329SOL     OW15619   3.531   3.732   7.792 -0.5183  0.2021 -0.6328
 1329SOL    HW115620   3.516   3.757   7.701 -2.2076  0.7002 -0.2297
 1329SOL    HW215621   3.539   3.816   7.837 -1.6470 -0.6222  1.1536
 1330SOL     OW15622   3.705   1.273   3.633 -0.0185 -0.5950 -0.2821
 1330SOL    HW115623   3.688   1.216   3.557  0.9062 -0.2021 -0.7930
 1330SOL    HW215624   3.708   1.217   3.711  0.7308  1.9675  1.5139
 1331SOL     OW15625   2.141   2.289   3.274  0.6342  0.2613  0.3666
 1331SOL    HW115626   2.213   2.227   3.266  1.0651  0.8706 -0.4361
 1331SOL    HW215627   2.182   2.360   3.324 -0.3288  0.9713  0.1488
 1332SOL     OW15628   2.851   1.454  15.028 -0.2227  0.3030  0.7212
 1332SOL    HW115629   2.766   1.429  15.066  0.6702 -2.5322  0.8048
 1332SOL    HW215630   2.888   1.374  14.992 -2.7312 -0.9435  0.8823
 1333SOL     OW15631   4.080   1.723   7.616 -0.2120  0.5158  0.6711
 1333SOL    HW115632   4.159   1.732   7.670 -0.0069  1.4953  0.2102
 1333SOL    HW215633   4.050   1.641   7.654 -1.2748  0.5347 -0.1407
 1334SOL     OW15634   0.426   0.420   3.614 -0.0915 -0.0459  0.5570
 1334SOL    HW115635   0.513   0.448   3.641  1.0023 -1.9147 -1.0525
 1334SOL    HW215636   0.448   0.347   3.556 -0.3511  1.3324 -1.2910
 1335SOL     OW15637   1.321   3.547   4.710 -0.5322 -0.3794  0.9869
 1335SOL    HW115638   1.397   3.560   4.653 -1.4231  0.5608  0.0125
 1335SOL    HW215639   1.344   3.604   4.784 -0.2788  0.9740 -0.1237
 1336SOL     OW15640   0.526   3.377   7.595 -0.3673  0.1935 -0.4307
 1336SOL    HW115641   0.573   3.449   7.637 -1.4404 -0.1803  1.4281
 1336SOL    HW215642   0.482   3.430   7.529  0.9375  0.5611 -0.9924
 1337SOL     OW15643   1.866   1.846   3.506 -0.1354 -0.0413  0.1737
 1337SOL    HW115644   1.806   1.857   3.432 -0.9527 -1.4412  0.6145
 1337SOL    HW215645   1.842   1.923   3.559  1.0238  0.9436 -0.7398
 1338SOL     OW15646   1.266   1.251   5.571  0.3294  0.1257 -0.7834
 1338SOL    HW115647   1.211   1.173   5.584 -0.6557  1.2507  1.7590
 1338SOL    HW215648   1.237   1.279   5.485 -1.7157  0.9048  0.1675
 1339SOL     OW15649   2.466   2.761   8.968  0.0204  0.0479 -0.1019
 1339SOL    HW115650   2.390   2.713   9.001  1.3505 -1.6967  0.4664
 1339SOL    HW215651   2.461   2.850   9.002 -0.6731 -0.8028  2.0457
 1340SOL     OW15652   0.158   4.570  10.457 -0.3392 -0.4618 -0.1378
 1340SOL    HW115653   0.078   4.575  10.406 -0.8909 -0.3090  0.7501
 1340SOL    HW215654   0.209   4.644  10.421  0.3265 -1.2821 -0.8915
 1341SOL     OW15655   4.213   3.374   6.583  0.3877  0.5209 -0.3124
 1341SOL    HW115656   4.282   3.427   6.544  0.4403 -0.0281 -0.9842
 1341SOL    HW215657   4.150   3.377   6.511  1.3578  1.9899 -1.0808
 1342SOL     OW15658   2.438   3.034   4.615  0.4252  0.0742 -0.0405
 1342SOL    HW115659   2.405   3.021   4.527 -2.7618 -3.8486  1.7199
 1342SOL    HW215660   2.472   3.123   4.606 -0.7054  0.6224  1.0697
 1343SOL     OW15661   2.799   0.324   3.470 -0.2348 -0.6476  0.5171
 1343SOL    HW115662   2.809   0.300   3.378 -2.0326  1.1897 -0.1560
 1343SOL    HW215663   2.716   0.281   3.488 -1.1637  1.0158  0.2302
 1344SOL     OW15664   3.291   4.003  12.606  0.4826  0.0437 -0.3232
 1344SOL    HW115665   3.283   4.079  12.549 -1.7089 -2.0216 -2.7650
 1344SOL    HW215666   3.349   3.941  12.562  1.6704  0.2958  0.8849
 1345SOL     OW15667   2.261   3.898   6.616  0.1917 -0.2191 -0.0232
 1345SOL    HW115668   2.308   3.817   6.633  0.1580 -0.0718  0.7552
 1345SOL    HW215669   2.227   3.900   6.706 -1.5032  0.6834 -0.6828
 1346SOL     OW15670   1.192   3.016  16.596  0.6058 -0.2338  0.2999
 1346SOL    HW115671   1.233   3.072  16.530 -1.0753 -0.4395 -0.9024
 1346SOL    HW215672   1.229   2.930  16.576  3.0388  0.0772  3.3132
 1347SOL     OW15673   0.575   3.420   2.978 -0.0364 -0.0102  0.1440
 1347SOL    HW115674   0.585   3.455   3.067 -5.6475  1.9437 -0.0159
 1347SOL    HW215675   0.518   3.344   2.988  0.5316 -0.3030  1.1613
 1348SOL     OW15676   0.183   4.643   3.431  0.2292 -0.1550  0.2348
 1348SOL    HW115677   0.104   4.688   3.402 -0.8871 -0.2814  3.1596
 1348SOL    HW215678   0.235   4.641   3.350  1.3481 -0.8796  0.9797
 1349SOL     OW15679   2.593   4.585   4.136 -0.0684  0.7730  0.2114
 1349SOL    HW115680   2.636   4.597   4.221  1.0521  1.0174 -0.3972
 1349SOL    HW215681   2.503   4.554   4.150  0.4191  0.1835  2.0882
 1350SOL     OW15682   3.340   1.559   0.079 -0.1494  0.5151  0.1522
 1350SOL    HW115683   3.356   1.637   0.026 -0.3026  0.6264  0.2701
 1350SOL    HW215684   3.423   1.552   0.125  0.7536 -0.8612 -1.6930
 1351SOL     OW15685   0.479   2.472   9.670 -0.2703 -0.0063  0.4654
 1351SOL    HW115686   0.414   2.441   9.733 -2.2244 -1.2446 -2.1693
 1351SOL    HW215687   0.431   2.527   9.608 -1.3570 -0.0491  1.2624
 1352SOL     OW15688   1.129   2.298   7.887 -0.3219 -0.3236 -0.2540
 1352SOL    HW115689   1.175   2.341   7.815  0.8507 -1.6172 -0.2635
 1352SOL    HW215690   1.191   2.232   7.917  0.2288 -0.2590 -1.2537
 1353SOL     OW15691   4.557   1.824   4.403  0.1777  0.2250  0.2768
 1353SOL    HW115692   4.619   1.833   4.475  0.5068 -1.2161  0.1908
 1353SOL    HW215693   4.559   1.731   4.381 -2.2916  0.4989 -1.0824
 1354SOL     OW15694   2.670   0.056  15.295  0.1464 -0.2223 -0.0977
 1354SOL    HW115695   2.665   0.132  15.353 -1.5712  1.2209 -2.1400
 1354SOL    HW215696   2.729   0.087  15.226  2.0071 -0.7411  1.2500
 1355SOL     OW15697   2.053   4.469   3.161 -0.5932  0.2452 -0.0496
 1355SOL    HW115698   2.076   4.560   3.143 -3.0101  0.9974  0.6727
 1355SOL    HW215699   1.995   4.484   3.236 -1.8862  1.8498 -1.3628
 1356SOL     OW15700   3.227   2.383   5.952 -0.5120 -0.3183 -0.2385
 1356SOL    HW115701   3.139   2.351   5.932 -1.2658 -0.7544  3.7380
 1356SOL    HW215702   3.223   2.437   6.031  0.0126 -1.2152  0.3858
 1357SOL     OW15703   1.873   3.372   2.430 -0.1611 -0.0881  0.7275
 1357SOL    HW115704   1.870   3.467   2.414 -1.2245  0.0884  1.9430
 1357SOL    HW215705   1.798   3.346   2.377 -1.5179  0.9207  2.1455
 1358SOL     OW15706   2.479   3.266   8.234  0.4690 -0.0258 -0.7614
 1358SOL    HW115707   2.538   3.259   8.158  1.7929 -4.5719  0.6847
 1358SOL    HW215708   2.428   3.344   8.212  0.7532  0.6815  1.1025
 1359SOL     OW15709   2.790   0.916   1.765  0.0899 -0.5109 -0.0778
 1359SOL    HW115710   2.710   0.958   1.734 -0.3181 -0.3399  1.1866
 1359SOL    HW215711   2.758   0.828   1.750  0.2540 -0.3107 -1.5839
 1360SOL     OW15712   3.672   0.542   6.946  0.0071  0.0216 -0.1815
 1360SOL    HW115713   3.597   0.510   6.896 -0.3600 -2.6639  2.1571
 1360SOL    HW215714   3.710   0.461   6.978  1.6002  1.2352  0.9645
 1361SOL     OW15715   1.388   1.697   8.151  0.2833 -0.2137  0.4415
 1361SOL    HW115716   1.299   1.666   8.138  0.4075 -0.1110 -0.6220
 1361SOL    HW215717   1.435   1.680   8.069  0.9811  2.0707  0.3757
 1362SOL     OW15718   3.922   0.630   3.718 -0.2481  0.0130  0.5596
 1362SOL    HW115719   3.870   0.598   3.791  0.8642 -0.6989  1.0339
 1362SOL    HW215720   3.866   0.695   3.675 -1.1865 -2.5382 -2.0278
 1363SOL     OW15721   0.360   1.476   5.133  0.3792  0.1561 -0.0537
 1363SOL    HW115722   0.353   1.527   5.213 -0.7960 -0.8113  0.4550
 1363SOL    HW215723   0.394   1.543   5.074  1.3563  0.8855  1.3502
 1364SOL     OW15724   0.601   2.233  14.357  0.7995  0.2064 -0.0734
 1364SOL    HW115725   0.639   2.284  14.285 -1.2768  1.7677 -0.0622
 1364SOL    HW215726   0.623   2.290  14.431  0.2917  0.8708 -0.4272
 1365SOL     OW15727   3.525   0.147   4.883  0.2395  0.2032  0.1544
 1365SOL    HW115728   3.587   0.217   4.903 -0.1482  0.8423 -0.9182
 1365SOL    HW215729   3.579   0.072   4.858 -0.0259 -0.2804  1.0034
 1366SOL     OW15730   0.470   3.999   4.794 -0.3996 -0.1791 -0.3000
 1366SOL    HW115731   0.500   3.919   4.836  1.9499  0.7283 -0.2506
 1366SOL    HW215732   0.426   4.044   4.867  4.0884 -0.2927  2.4605
 1367SOL     OW15733   1.915   2.755  16.805  0.1194 -0.0602 -0.5446
 1367SOL    HW115734   1.924   2.672  16.759  2.8027 -0.4890  0.7668
 1367SOL    HW215735   1.819   2.765  16.807  0.1342 -0.0908  1.0153
 1368SOL     OW15736   3.477   2.197   3.386  0.3921  0.5919 -0.1662
 1368SOL    HW115737   3.536   2.195   3.311  0.4442 -2.2417 -0.0569
 1368SOL    HW215738   3.405   2.250   3.352 -1.1295 -1.0594  0.4697
 1369SOL     OW15739   4.027   1.888   8.186 -0.6750 -0.6045 -0.3326
 1369SOL    HW115740   4.070   1.814   8.228  0.5759  0.8863  0.9853
 1369SOL    HW215741   4.003   1.838   8.108 -0.1477 -0.1634 -0.7790
 1370SOL     OW15742   2.503   3.777   2.133  0.4106  0.0584  0.3864
 1370SOL    HW115743   2.579   3.833   2.148  1.0349 -0.8007  0.4197
 1370SOL    HW215744   2.536   3.688   2.118  0.7277  0.2318  0.0543
 1371SOL     OW15745   3.658   0.215   8.047  0.5164 -0.0844  0.0483
 1371SOL    HW115746   3.714   0.145   8.081  1.7383  1.2061  0.7115
 1371SOL    HW215747   3.701   0.285   8.096 -0.3025  0.6201 -0.2421
 1372SOL     OW15748   0.291   1.307   1.997  0.0210 -0.3432  0.0395
 1372SOL    HW115749   0.379   1.270   2.002 -1.3056 -3.1925  2.7448
 1372SOL    HW215750   0.252   1.234   1.948  1.7305  0.0495 -1.9005
 1373SOL     OW15751   4.439   4.724   6.901 -0.4788  0.1275 -0.1366
 1373SOL    HW115752   4.347   0.009   6.916 -1.0072 -0.8750 -2.0179
 1373SOL    HW215753   4.483   0.073   6.894  0.0016 -0.2492 -1.7318
 1374SOL     OW15754   4.104   4.656   7.294  0.6065  0.6692  0.3185
 1374SOL    HW115755   4.032   4.597   7.272 -1.7630  4.1419 -1.2505
 1374SOL    HW215756   4.152   4.599   7.354  0.0356  1.8755  1.9359
 1375SOL     OW15757   3.514   0.322  14.322 -0.2455 -0.4850  0.1309
 1375SOL    HW115758   3.429   0.289  14.351 -0.9219 -1.0120 -2.5263
 1375SOL    HW215759   3.527   0.272  14.242  0.8084  1.1626 -0.7132
 1376SOL     OW15760   2.018   4.668   0.468  1.3100 -0.1544 -0.1136
 1376SOL    HW115761   2.040   0.012   0.516 -2.2613  0.1272  1.0785
 1376SOL    HW215762   2.100   4.625   0.445  0.0291 -2.2209 -0.7949
 1377SOL     OW15763   1.960   4.430   8.937 -0.4430  0.2564  0.0468
 1377SOL    HW115764   1.969   4.393   9.025 -0.3757 -1.1917 -0.5698
 1377SOL    HW215765   2.050   4.432   8.903 -0.1604 -1.2923  0.6866
 1378SOL     OW15766   2.372   0.913   8.092 -0.1858 -0.0153  0.0365
 1378SOL    HW115767   2.320   0.959   8.025  0.5129  2.2139  1.0237
 1378SOL    HW215768   2.303   0.868   8.140  0.0617 -1.1733 -0.6796
 1379SOL     OW15769   1.557   1.961   0.217 -0.3980  0.0236  0.3479
 1379SOL    HW115770   1.612   1.996   0.147 -2.9135  2.2494 -0.5088
 1379SOL    HW215771   1.493   1.903   0.175  0.2473  0.3272 -1.0589
 1380SOL     OW15772   4.175   2.853   4.297 -0.2522 -0.0964 -0.1765
 1380SOL    HW115773   4.081   2.834   4.293 -0.5975  1.2572  1.1098
 1380SOL    HW215774   4.184   2.914   4.371 -1.8497 -0.2292  0.1273
 1381SOL     OW15775   0.335   1.443  12.558 -0.2707  0.2235 -0.1257
 1381SOL    HW115776   0.280   1.454  12.481  0.1681 -1.1694 -0.6455
 1381SOL    HW215777   0.322   1.353  12.589  0.0342  0.0111 -0.5977
 1382SOL     OW15778   4.470   1.671  15.542  0.1940  0.6684  0.0406
 1382SOL    HW115779   4.454   1.607  15.472 -3.7014  0.7920  0.8146
 1382SOL    HW215780   4.393   1.725  15.525 -1.7559 -2.5725 -1.4858
 1383SOL     OW15781   0.985   4.535   1.688 -0.0764  0.2606  0.1913
 1383SOL    HW115782   0.943   4.621   1.690 -1.0779 -0.1903 -2.8771
 1383SOL    HW215783   0.996   4.531   1.783 -0.3667 -0.8810  0.1798
 1384SOL     OW15784   0.622   0.488   3.890 -0.1699 -0.4522  0.5184
 1384SOL    HW115785   0.664   0.406   3.914 -0.7627 -1.8917 -3.3276
 1384SOL    HW215786   0.697   0.533   3.852 -2.2428  1.4924 -1.2582
 1385SOL     OW15787   2.681   3.780  16.944 -0.4386  0.0938  0.6721
 1385SOL    HW115788   2.614   3.725  16.985 -1.3305 -0.2893 -1.2920
 1385SOL    HW215789   2.636   3.835  16.880  1.8834 -1.8554 -2.6455
 1386SOL     OW15790   4.219   4.323  16.356  0.0289  1.0247  0.2705
 1386SOL    HW115791   4.151   4.289  16.297  0.2743  2.5014 -0.8716
 1386SOL    HW215792   4.270   4.376  16.294  1.6969 -0.5711  0.2818
 1387SOL     OW15793   4.666   2.212   8.533 -0.7397  0.6234 -0.2981
 1387SOL    HW115794   4.727   2.276   8.570 -0.8724  2.1084 -2.7012
 1387SOL    HW215795   4.630   2.251   8.454 -0.9121  1.4870  0.2002
 1388SOL     OW15796   1.201   1.201   6.272 -0.3819  0.5073 -0.0470
 1388SOL    HW115797   1.282   1.236   6.235  1.1674 -2.2689  0.7587
 1388SOL    HW215798   1.225   1.186   6.364  2.4246  2.8494 -0.4009
 1389SOL     OW15799   2.170   3.754   9.091 -0.5467  0.0672 -0.6335
 1389SOL    HW115800   2.173   3.819   9.020  3.9307  1.4359  0.8361
 1389SOL    HW215801   2.112   3.694   9.045  1.9969 -1.0564 -2.3624
 1390SOL     OW15802   2.597   0.528   6.769  0.8292 -0.3027 -0.5468
 1390SOL    HW115803   2.648   0.567   6.841 -0.3015 -0.4863  0.3451
 1390SOL    HW215804   2.671   0.500   6.716  1.6765  1.1316 -0.1444
 1391SOL     OW15805   4.690   3.036   3.499 -0.4877  0.4290  0.5819
 1391SOL    HW115806   4.733   2.982   3.433  0.6125  2.6830 -0.5520
 1391SOL    HW215807   4.705   3.117   3.450  1.1515  0.7001  1.5385
 1392SOL     OW15808   1.860   3.270  10.263 -0.5877  0.4727 -0.3322
 1392SOL    HW115809   1.954   3.266  10.248 -0.5917 -1.8594  0.1988
 1392SOL    HW215810   1.832   3.186  10.226  2.1688 -0.0122 -1.3417
 1393SOL     OW15811   3.793   3.786   2.372  0.3571 -0.2652 -0.4951
 1393SOL    HW115812   3.754   3.704   2.342 -2.0447  0.4094  0.8450
 1393SOL    HW215813   3.877   3.762   2.411  1.0206 -0.5282 -2.0857
 1394SOL     OW15814   1.479   0.285   1.633  0.5212  0.0550  0.2547
 1394SOL    HW115815   1.526   0.360   1.597 -0.6191  0.1059 -1.1354
 1394SOL    HW215816   1.468   0.223   1.561 -3.0099 -0.1473  0.9480
 1395SOL     OW15817   1.227   0.955   3.135  0.3605 -0.1250 -0.6465
 1395SOL    HW115818   1.254   1.013   3.064 -0.0784  0.4711 -0.3232
 1395SOL    HW215819   1.312   0.925   3.167 -1.0907 -2.5273  0.9729
 1396SOL     OW15820   3.071   2.447  15.943  0.7583  0.1701  0.2001
 1396SOL    HW115821   3.094   2.505  16.016  3.3238 -3.7546  2.5178
 1396SOL    HW215822   2.988   2.482  15.909  0.8705  1.9849  1.8057
 1397SOL     OW15823   0.184   3.428  16.624  0.9714 -0.4755 -0.1218
 1397SOL    HW115824   0.137   3.378  16.690 -2.0651  1.3676 -0.9045
 1397SOL    HW215825   0.111   3.476  16.585 -0.0408  0.5774  3.0111
 1398SOL     OW15826   0.288   0.079   2.211 -0.2293  0.4222  0.1712
 1398SOL    HW115827   0.316   0.070   2.302  0.7421 -0.6346 -0.2266
 1398SOL    HW215828   0.194   0.061   2.211 -0.3305  0.9451 -2.9756
 1399SOL     OW15829   2.559   3.817   5.430  0.0037 -0.3345  0.2632
 1399SOL    HW115830   2.625   3.795   5.364 -0.4514 -0.9274 -0.0003
 1399SOL    HW215831   2.498   3.745   5.412 -0.8214 -0.2773  2.8636
 1400SOL     OW15832   1.288   4.370   6.207 -0.4857  0.4450 -0.8755
 1400SOL    HW115833   1.279   4.436   6.276  0.3477 -1.8416  1.4183
 1400SOL    HW215834   1.272   4.419   6.127 -1.7254  2.6233  0.7152
 1401SOL     OW15835   3.116   1.872   3.784 -0.6021  0.3848 -0.6788
 1401SOL    HW115836   3.051   1.930   3.824 -0.3367  0.3989 -0.2655
 1401SOL    HW215837   3.198   1.910   3.816 -1.1392  1.1022 -0.1314
 1402SOL     OW15838   0.691   0.466  10.742 -0.3814  0.3412 -0.1084
 1402SOL    HW115839   0.700   0.423  10.827 -4.5297  0.9342  0.6426
 1402SOL    HW215840   0.723   0.556  10.748  0.7824 -0.0899  0.0689
 1403SOL     OW15841   1.045   2.269   5.841  0.3585 -0.0027 -0.9013
 1403SOL    HW115842   0.972   2.213   5.814 -1.2732  1.4292  0.5349
 1403SOL    HW215843   1.104   2.240   5.771  1.8236 -0.8799  0.7104
 1404SOL     OW15844   2.749   1.148   8.823 -0.5742 -0.2472 -0.7817
 1404SOL    HW115845   2.673   1.112   8.869  1.6061 -2.6188  1.0028
 1404SOL    HW215846   2.802   1.079   8.784 -1.4893 -2.0911  1.2459
 1405SOL     OW15847   0.428   1.338   2.798 -0.1587  0.1842 -0.0228
 1405SOL    HW115848   0.401   1.267   2.856  2.0977  1.1558  2.1898
 1405SOL    HW215849   0.397   1.413   2.847  0.6970  0.6458 -0.1805
 1406SOL     OW15850   2.095   2.624   7.809  0.7995 -0.0275 -0.2674
 1406SOL    HW115851   2.135   2.558   7.865 -2.2321 -0.5115  1.3071
 1406SOL    HW215852   2.060   2.576   7.733  0.6724  0.8706 -0.7822
 1407SOL     OW15853   3.831   0.329  12.027 -0.0213 -0.0954 -0.0321
 1407SOL    HW115854   3.774   0.405  12.013 -0.5604 -0.7624 -1.4713
 1407SOL    HW215855   3.911   0.381  12.029  0.4329 -0.8839  1.9591
 1408SOL     OW15856   2.975   1.920   6.366  0.0709 -0.1871 -0.2576
 1408SOL    HW115857   3.035   1.864   6.316  0.1516  0.4745 -0.9080
 1408SOL    HW215858   3.019   1.999   6.334 -2.3243  0.6600 -1.4311
 1409SOL     OW15859   2.502   1.525   4.280 -0.4139  0.7172  0.4798
 1409SOL    HW115860   2.510   1.602   4.336 -1.8304  1.2024 -0.0099
 1409SOL    HW215861   2.550   1.544   4.199 -1.0693  2.2044  0.4506
 1410SOL     OW15862   3.646   2.727   2.917 -0.8833 -0.1348  0.4345
 1410SOL    HW115863   3.582   2.733   2.988 -0.8505  1.7409  0.3083
 1410SOL    HW215864   3.654   2.821   2.899  0.6601 -0.4405 -0.4092
 1411SOL     OW15865   4.215   1.499   4.345  0.1186 -1.3036 -0.3356
 1411SOL    HW115866   4.203   1.587   4.308  4.1793 -0.4306  0.4794
 1411SOL    HW215867   4.231   1.524   4.436 -1.0311  1.2665 -0.8097
 1412SOL     OW15868   2.792   3.035  16.001 -0.1643 -0.2023  0.6321
 1412SOL    HW115869   2.865   2.999  15.952 -0.7346 -0.6195  0.0811
 1412SOL    HW215870   2.819   3.005  16.088 -1.2236 -1.7679  0.4175
 1413SOL     OW15871   3.602   4.020   4.174 -0.1550 -0.1190  0.3379
 1413SOL    HW115872   3.625   3.954   4.239 -0.7333 -1.4492 -0.8190
 1413SOL    HW215873   3.615   4.093   4.235  2.2852  1.3944 -1.9678
 1414SOL     OW15874   0.460   1.752  13.608 -0.0057 -0.0631 -0.1646
 1414SOL    HW115875   0.430   1.770  13.697 -0.0057  1.5573 -0.5017
 1414SOL    HW215876   0.394   1.684  13.596  0.2574 -0.5674  1.1733
 1415SOL     OW15877   3.305   0.324   1.060  0.0988 -0.7686  0.1484
 1415SOL    HW115878   3.275   0.270   0.987 -0.3366  1.8715 -1.6151
 1415SOL    HW215879   3.217   0.332   1.098  0.8554 -2.1625  2.2169
 1416SOL     OW15880   2.969   4.439   9.882  0.0934 -0.5379 -0.5430
 1416SOL    HW115881   2.999   4.349   9.893 -0.6444 -0.6864  0.2595
 1416SOL    HW215882   2.888   4.439   9.932 -1.1039  2.7398 -2.4482
 1417SOL     OW15883   4.604   1.128   4.076 -0.1340  0.2815 -0.3908
 1417SOL    HW115884   4.597   1.134   3.980  1.7746 -0.4911 -0.5777
 1417SOL    HW215885   4.541   1.058   4.092  0.3364 -0.4965 -1.8788
 1418SOL     OW15886   2.320   2.549   5.524  0.1577 -0.2282 -0.0529
 1418SOL    HW115887   2.324   2.464   5.479 -0.3751  1.0834 -2.6074
 1418SOL    HW215888   2.250   2.596   5.478  1.0289 -0.8010 -1.9929
 1419SOL     OW15889   3.824   2.516   0.162  0.1542  0.0235  0.4822
 1419SOL    HW115890   3.851   2.538   0.073 -0.5617  0.6182  0.4138
 1419SOL    HW215891   3.730   2.535   0.160  0.0881 -0.0553  3.0799
 1420SOL     OW15892   1.223   2.616   5.489  0.2056 -0.1716  0.1596
 1420SOL    HW115893   1.160   2.655   5.428  0.7028  2.6854  1.4605
 1420SOL    HW215894   1.189   2.530   5.513  1.1041 -0.6214 -0.1447
 1421SOL     OW15895   3.793   2.910   7.027 -0.2096  0.0062  0.2275
 1421SOL    HW115896   3.802   2.977   6.959 -0.2660 -1.9764 -1.7633
 1421SOL    HW215897   3.723   2.954   7.075 -1.5457  0.6695 -2.3228
 1422SOL     OW15898   0.780   1.732   6.526 -0.5293 -0.8334  0.2924
 1422SOL    HW115899   0.755   1.815   6.567 -1.0489  0.2063 -2.1613
 1422SOL    HW215900   0.865   1.736   6.482 -0.4087 -0.5347  0.5521
 1423SOL     OW15901   3.583   4.626   4.326  0.2540  0.2213  0.0007
 1423SOL    HW115902   3.582   4.672   4.242  1.6592  0.3204  0.0518
 1423SOL    HW215903   3.489   4.619   4.342  0.1963  0.1487 -0.3654
 1424SOL     OW15904   2.838   2.056   5.607  0.0454  1.0592 -0.4316
 1424SOL    HW115905   2.902   2.126   5.592  0.4719  0.0487 -3.3300
 1424SOL    HW215906   2.779   2.112   5.656  1.7422  0.9101  1.7713
 1425SOL     OW15907   2.983   3.585  16.082  0.6698 -0.2373 -0.2239
 1425SOL    HW115908   2.921   3.562  16.151  2.8832 -1.2170  1.4314
 1425SOL    HW215909   3.011   3.674  16.105  1.1426 -1.1302  2.5988
 1426SOL     OW15910   3.004   2.259  14.775  0.0336 -0.3717  0.2948
 1426SOL    HW115911   2.950   2.281  14.699 -0.6590  0.1801  0.9493
 1426SOL    HW215912   3.089   2.296  14.750  0.0053  1.7492  3.2692
 1427SOL     OW15913   4.265   3.119   1.824  0.0225 -0.0078  0.2921
 1427SOL    HW115914   4.246   3.211   1.844  0.8149  0.5496 -1.4960
 1427SOL    HW215915   4.232   3.105   1.735 -1.1801 -1.6217  1.0032
 1428SOL     OW15916   2.410   2.781   9.394  0.4144  0.4538 -0.5772
 1428SOL    HW115917   2.395   2.854   9.453  1.0691  0.2708 -0.1796
 1428SOL    HW215918   2.505   2.779   9.404  0.4153  0.4080 -0.5913
 1429SOL     OW15919   1.293   1.531   5.670 -0.2516  0.0084  0.2711
 1429SOL    HW115920   1.311   1.549   5.578  0.1265 -2.9692 -0.2264
 1429SOL    HW215921   1.289   1.437   5.654  0.5313 -0.0174  0.2333
 1430SOL     OW15922   0.041   4.213   4.138 -0.2004  0.1240 -0.2392
 1430SOL    HW115923   0.058   4.307   4.149 -0.6925  0.1672  0.1556
 1430SOL    HW215924   0.121   4.172   4.172 -0.4626 -0.9890 -0.9771
 1431SOL     OW15925   0.668   4.232   3.345  0.4574  0.3001 -0.0724
 1431SOL    HW115926   0.740   4.293   3.361  1.1409 -0.0065 -2.0076
 1431SOL    HW215927   0.656   4.189   3.430 -1.4249  3.5775  1.3191
 1432SOL     OW15928   3.248   1.750   4.918 -0.4251  0.0140 -0.5187
 1432SOL    HW115929   3.281   1.838   4.899 -0.3502 -0.5458 -3.0596
 1432SOL    HW215930   3.183   1.738   4.848  0.2492 -1.6141 -0.8668
 1433SOL     OW15931   0.918   0.468   8.655  0.4929  0.7161 -0.0977
 1433SOL    HW115932   0.913   0.430   8.743 -2.3607  0.0113 -0.5360
 1433SOL    HW215933   1.004   0.509   8.659  1.7351 -1.9434  0.6233
 1434SOL     OW15934   3.578   1.167   2.845  0.2553 -0.0805  0.3694
 1434SOL    HW115935   3.553   1.131   2.931  0.4731 -1.3314 -0.0877
 1434SOL    HW215936   3.541   1.255   2.842  1.0910  0.2940  1.0443
 1435SOL     OW15937   3.653   2.859   1.982  0.4083 -0.6099  0.2094
 1435SOL    HW115938   3.585   2.815   2.032  0.0816 -0.9153 -0.5039
 1435SOL    HW215939   3.667   2.938   2.033 -1.4771  0.1705 -0.4867
 1436SOL     OW15940   1.764   3.510   6.190  0.0739  0.0992 -0.2657
 1436SOL    HW115941   1.845   3.519   6.140 -1.0808 -1.9669 -2.4664
 1436SOL    HW215942   1.798   3.502   6.280  0.9094 -1.2335 -0.7046
 1437SOL     OW15943   3.128   2.803   7.512  0.1715 -0.4430  0.4275
 1437SOL    HW115944   3.077   2.859   7.571 -0.8078 -1.0478  0.1580
 1437SOL    HW215945   3.217   2.830   7.532  0.2646  0.5145 -1.3300
 1438SOL     OW15946   0.964   3.151   5.624  0.1034  0.0881  0.2517
 1438SOL    HW115947   1.009   3.166   5.707  0.3683 -0.4475  0.2006
 1438SOL    HW215948   0.991   3.228   5.574 -1.5984  0.6011  0.1048
 1439SOL     OW15949   2.415   2.138  10.739 -0.6729  0.0042  0.5183
 1439SOL    HW115950   2.389   2.046  10.745  0.7079 -0.4428 -0.6568
 1439SOL    HW215951   2.405   2.154  10.833  1.1865 -0.6787  0.8285
 1440SOL     OW15952   2.543   0.782   6.438  0.8201 -0.1252  1.1223
 1440SOL    HW115953   2.607   0.734   6.490  0.4146 -0.3474  1.4097
 1440SOL    HW215954   2.601   0.815   6.370 -0.2523 -0.1156  0.2166
 1441SOL     OW15955   2.487   1.076   9.691  0.1712  0.3376  0.2268
 1441SOL    HW115956   2.517   1.153   9.740 -3.0952  1.5176  0.3974
 1441SOL    HW215957   2.435   1.114   9.620  0.4738 -0.4902 -0.4378
 1442SOL     OW15958   4.397   4.204   2.654 -0.7377 -0.3260  0.4604
 1442SOL    HW115959   4.350   4.241   2.579 -0.4964 -0.0614  0.4394
 1442SOL    HW215960   4.434   4.278   2.701  0.0759 -0.4935  0.0959
 1443SOL     OW15961   1.705   4.488   5.803  0.2539 -0.0213  0.0790
 1443SOL    HW115962   1.799   4.496   5.816  0.1988 -0.0962  0.5162
 1443SOL    HW215963   1.690   4.539   5.724  0.6800 -0.0015  0.0127
 1444SOL     OW15964   3.013   2.391   4.702 -0.0750 -0.4884  0.2051
 1444SOL    HW115965   2.923   2.389   4.734 -0.7383  0.6242 -1.6239
 1444SOL    HW215966   3.000   2.385   4.608  1.5430  0.1495 -0.0614
 1445SOL     OW15967   4.009   2.104   8.590 -0.0858  0.3621  0.5196
 1445SOL    HW115968   3.999   2.107   8.686 -1.2703  0.1205  0.4039
 1445SOL    HW215969   4.069   2.032   8.572 -0.1635  1.0310 -2.3650
 1446SOL     OW15970   2.536   2.349   0.416  0.1176 -0.1439 -0.0200
 1446SOL    HW115971   2.509   2.259   0.399 -3.3705  0.6993  0.9187
 1446SOL    HW215972   2.496   2.358   0.502 -2.4714  1.2723 -1.3520
 1447SOL     OW15973   0.555   2.317   2.017  0.0493  0.1205  0.7653
 1447SOL    HW115974   0.491   2.345   1.952 -0.3511 -0.3709  0.9454
 1447SOL    HW215975   0.626   2.378   1.998  0.0842  0.2936  1.4360
 1448SOL     OW15976   2.213   3.531  16.052 -0.0529 -0.0823  0.2777
 1448SOL    HW115977   2.274   3.578  15.995  0.3535 -1.4272 -0.3991
 1448SOL    HW215978   2.175   3.609  16.092 -0.3140 -0.6377  1.1227
 1449SOL     OW15979   0.568   0.493   7.587 -0.3333 -0.1964  0.9574
 1449SOL    HW115980   0.545   0.580   7.556 -0.0858 -0.5912 -0.3244
 1449SOL    HW215981   0.609   0.502   7.673  1.9293 -4.1338  0.3179
 1450SOL     OW15982   1.933   4.215   0.031  0.0443 -0.1224  0.0700
 1450SOL    HW115983   1.958   4.223   0.123 -1.5049  1.2660  0.3718
 1450SOL    HW215984   1.860   4.154   0.037 -0.3049  0.3118  0.2004
 1451SOL     OW15985   0.284   3.460   3.658  0.0200  0.2917 -0.5429
 1451SOL    HW115986   0.363   3.408   3.670  0.5789  1.1328 -0.6060
 1451SOL    HW215987   0.204   3.408   3.667  0.7949 -0.5022  1.7565
 1452SOL     OW15988   4.687   3.011   7.042  0.2621  0.4429 -0.1213
 1452SOL    HW115989   4.696   3.002   7.137  0.8640 -0.2694 -0.2462
 1452SOL    HW215990   4.708   2.921   7.014 -1.0191  0.7424 -2.0531
 1453SOL     OW15991   0.662   1.652   3.140  0.5897 -0.0201  0.5118
 1453SOL    HW115992   0.668   1.667   3.046 -1.2715  0.7630  0.5150
 1453SOL    HW215993   0.743   1.686   3.179  1.5882 -0.7329 -0.9333
 1454SOL     OW15994   1.625   3.686   2.706  0.6737 -0.0409 -0.2251
 1454SOL    HW115995   1.656   3.731   2.627 -0.4015 -2.1029 -1.8477
 1454SOL    HW215996   1.707   3.644   2.730  0.3156 -0.4136  0.3565
 1455SOL     OW15997   0.006   3.042   3.178  0.1458 -0.1817  0.5621
 1455SOL    HW115998   4.662   2.993   3.197 -0.5007  0.5893 -0.1454
 1455SOL    HW215999   4.716   3.128   3.211  1.4823  1.1165 -1.7669
 1456SOL     OW16000   2.125   2.991   6.590 -0.2388  0.2913  0.3060
 1456SOL    HW116001   2.166   2.977   6.675  1.0890 -1.5212 -0.6464
 1456SOL    HW216002   2.049   2.934   6.593  1.4383 -1.8986  0.8627
 1457SOL     OW16003   1.907   4.658   7.583  0.0810 -0.3359  0.0327
 1457SOL    HW116004   1.874   4.637   7.670 -0.9110 -0.9375 -0.4987
 1457SOL    HW216005   1.973   4.724   7.604  0.2269 -0.7627  0.9316
 1458SOL     OW16006   2.857   2.073   7.560 -0.2267  0.7755  0.0062
 1458SOL    HW116007   2.890   2.162   7.563 -1.4472  1.2962 -2.0455
 1458SOL    HW216008   2.796   2.068   7.633  0.5386  1.6010  0.6922
 1459SOL     OW16009   3.530   1.553   7.239 -0.4793 -0.0589 -0.6017
 1459SOL    HW116010   3.500   1.638   7.270  0.0440 -0.1103  0.0229
 1459SOL    HW216011   3.498   1.491   7.304  0.4194 -0.6551 -0.7315
 1460SOL     OW16012   1.194   2.992   4.063  0.9943  0.3658 -0.1898
 1460SOL    HW116013   1.289   3.006   4.066  1.1766 -0.7419 -0.9244
 1460SOL    HW216014   1.161   3.075   4.097 -0.9766 -0.2736 -0.5300
 1461SOL     OW16015   0.369   2.860   2.751 -0.4100 -0.0603 -0.2216
 1461SOL    HW116016   0.308   2.873   2.823 -0.4883 -3.1859  0.2764
 1461SOL    HW216017   0.435   2.798   2.783  0.6041  1.0396 -0.1930
 1462SOL     OW16018   4.450   0.135   3.384 -0.0658 -0.9440 -0.5599
 1462SOL    HW116019   4.422   0.180   3.304  1.1947  2.2801  0.8144
 1462SOL    HW216020   4.372   0.141   3.439  0.9608 -0.7409  0.8657
 1463SOL     OW16021   4.029   3.328  12.592  0.3901 -0.1684 -0.0839
 1463SOL    HW116022   4.056   3.250  12.641 -0.2562 -0.0219  0.5042
 1463SOL    HW216023   4.066   3.313  12.505  2.1034  1.1349  0.4260
 1464SOL     OW16024   2.771   3.544   8.808 -0.2843 -0.6792 -0.3234
 1464SOL    HW116025   2.763   3.639   8.809 -0.0755 -0.6468 -1.2477
 1464SOL    HW216026   2.767   3.534   8.713 -0.6089 -2.3757 -0.1286
 1465SOL     OW16027   0.554   1.941   5.774 -0.3307  0.0137 -0.0634
 1465SOL    HW116028   0.511   1.957   5.858  0.9650  0.8049  0.4541
 1465SOL    HW216029   0.481   1.924   5.715 -2.6018  1.1283  2.4235
 1466SOL     OW16030   1.763   0.689  17.531  0.6705 -0.1424  0.2535
 1466SOL    HW116031   1.818   0.721  17.460 -0.8591 -2.1595 -1.8286
 1466SOL    HW216032   1.826   0.629  17.573  1.4450 -0.3196 -1.1753
 1467SOL     OW16033   0.381   4.681   5.093  0.2977  0.7337 -0.2947
 1467SOL    HW116034   0.467   4.650   5.122  0.2503  0.2855 -0.6225
 1467SOL    HW216035   0.392   4.666   4.999  1.4891 -2.4057  0.3497
 1468SOL     OW16036   4.509   0.672   6.250  0.5481 -0.3033 -0.2972
 1468SOL    HW116037   4.474   0.676   6.339 -0.5717 -0.2373 -0.7376
 1468SOL    HW216038   4.459   0.600   6.213  3.2143 -0.1695 -4.1668
 1469SOL     OW16039   0.782   1.250   2.041 -0.2486 -0.0304 -0.5102
 1469SOL    HW116040   0.804   1.162   2.010  1.1193  0.3563 -0.6258
 1469SOL    HW216041   0.809   1.250   2.133  1.5909 -0.9698 -1.0683
 1470SOL     OW16042   0.814   1.743   4.677  0.6062  0.1170 -0.1564
 1470SOL    HW116043   0.847   1.790   4.753 -0.6962  0.0835  0.4366
 1470SOL    HW216044   0.884   1.773   4.618 -0.7253 -0.2404 -1.9345
 1471SOL     OW16045   3.345   4.177   7.571  0.0029 -0.0533 -0.4051
 1471SOL    HW116046   3.323   4.192   7.663  1.4974 -1.7897  0.2318
 1471SOL    HW216047   3.300   4.240   7.515 -2.2067 -1.6428 -0.4544
 1472SOL     OW16048   0.716   2.142  16.842  0.7886 -0.2309 -0.6338
 1472SOL    HW116049   0.781   2.188  16.789 -0.6753  1.8634 -0.5939
 1472SOL    HW216050   0.767   2.061  16.850  1.3223  0.2265  0.6817
 1473SOL     OW16051   1.880   4.237   8.739 -0.1253 -0.7262  0.4091
 1473SOL    HW116052   1.903   4.314   8.790 -0.1904 -0.2356 -0.2989
 1473SOL    HW216053   1.900   4.172   8.806 -1.4195 -1.4022  0.1501
 1474SOL     OW16054   2.005   2.820  15.220  0.2922 -0.2911 -0.5063
 1474SOL    HW116055   1.966   2.801  15.305  1.5027 -0.8378 -0.0703
 1474SOL    HW216056   1.971   2.908  15.205  1.0649  0.3398  1.5769
 1475SOL     OW16057   4.628   4.287   9.536  0.3326  0.3373 -0.4904
 1475SOL    HW116058   4.614   4.320   9.625 -0.4392  2.5117 -1.4354
 1475SOL    HW216059   4.623   4.367   9.484  0.6405  1.2157  0.8404
 1476SOL     OW16060   1.831   4.332  10.966  0.0421 -0.3513  0.1880
 1476SOL    HW116061   1.779   4.298  11.039  0.1832 -1.5704 -0.2749
 1476SOL    HW216062   1.809   4.277  10.891 -1.3865  1.3591 -0.6500
 1477SOL     OW16063   0.366   0.525   3.203 -0.2992 -0.4818 -0.1214
 1477SOL    HW116064   0.406   0.440   3.182  1.4068 -0.0202  1.2449
 1477SOL    HW216065   0.378   0.572   3.121  0.0446  0.6044  0.5596
 1478SOL     OW16066   2.396   0.374   7.543 -0.0766 -0.2843 -0.6499
 1478SOL    HW116067   2.400   0.338   7.632 -0.7533  2.8652  0.6721
 1478SOL    HW216068   2.488   0.367   7.520  0.5809 -1.3804  2.2592
 1479SOL     OW16069   3.990   0.825   4.493  0.1884 -0.4422 -0.2383
 1479SOL    HW116070   3.933   0.808   4.568 -0.3850 -0.5184 -0.6925
 1479SOL    HW216071   4.020   0.738   4.466  1.8085  1.0154 -3.1075
 1480SOL     OW16072   4.035   1.126   9.008  0.0180 -0.4881  0.2092
 1480SOL    HW116073   3.990   1.047   8.978 -1.0917  0.1438  0.2265
 1480SOL    HW216074   4.128   1.104   9.004 -0.0636 -1.0249  1.4297
 1481SOL     OW16075   3.886   2.713   6.861  0.2066 -0.2681 -0.6949
 1481SOL    HW116076   3.899   2.773   6.788  0.6933  1.2770  0.6722
 1481SOL    HW216077   3.875   2.771   6.936 -1.7875  0.9663 -1.9661
 1482SOL     OW16078   4.454   0.169   2.490 -0.0618  0.1809  0.4704
 1482SOL    HW116079   4.500   0.221   2.556  1.7972 -0.2898 -0.4588
 1482SOL    HW216080   4.366   0.205   2.486  0.8724  2.2998 -0.9354
 1483SOL     OW16081   4.282   3.217   8.970 -0.0445  0.0506 -0.0156
 1483SOL    HW116082   4.212   3.209   8.906  0.5095  2.0081 -0.8800
 1483SOL    HW216083   4.279   3.310   8.994 -1.5506 -0.1406  0.5329
 1484SOL     OW16084   1.782   0.881   7.755 -0.1948  0.0128  0.4948
 1484SOL    HW116085   1.822   0.796   7.737  3.2048  1.2014  2.4965
 1484SOL    HW216086   1.733   0.901   7.675 -1.4534 -2.0161  0.7607
 1485SOL     OW16087   1.683   4.291   1.639  0.8569  0.2973  0.0198
 1485SOL    HW116088   1.637   4.210   1.659  1.3694  0.1128  0.4364
 1485SOL    HW216089   1.626   4.313   1.565  1.2929 -0.2117 -0.4623
 1486SOL     OW16090   1.294   2.231   2.655 -0.1675  0.1629 -0.1210
 1486SOL    HW116091   1.225   2.166   2.672  0.3153 -0.6341 -1.2641
 1486SOL    HW216092   1.271   2.302   2.716 -1.2943  0.0965 -0.4630
 1487SOL     OW16093   0.267   4.340   2.907  0.3793 -0.0853 -0.3355
 1487SOL    HW116094   0.307   4.273   2.851 -0.6276 -1.5077  0.6488
 1487SOL    HW216095   0.272   4.294   2.990 -2.3494 -1.5719 -0.9923
 1488SOL     OW16096   4.164   0.253   4.837  0.1938  0.0839  0.1797
 1488SOL    HW116097   4.114   0.289   4.764  2.4024  2.0197 -0.3834
 1488SOL    HW216098   4.096   0.230   4.900  0.6821 -0.5488  0.4808
 1489SOL     OW16099   3.680   1.667  13.307  0.6008  0.0339  0.1569
 1489SOL    HW116100   3.634   1.724  13.369  0.8136 -0.4484  0.7569
 1489SOL    HW216101   3.753   1.722  13.278  0.3759 -1.0699 -2.5787
 1490SOL     OW16102   0.735   0.051   3.187  0.2076  0.0894 -0.4209
 1490SOL    HW116103   0.798   0.031   3.256 -0.6290 -0.9337  0.0426
 1490SOL    HW216104   0.655   0.015   3.224  1.3422 -1.8690  0.1055
 1491SOL     OW16105   0.838   1.964   3.439 -0.0524  0.2929 -0.1687
 1491SOL    HW116106   0.801   2.052   3.449 -0.6978  0.2083 -1.8110
 1491SOL    HW216107   0.863   1.946   3.530 -1.8786 -1.3440  0.0173
 1492SOL     OW16108   3.564   0.907   3.055 -0.1637 -0.6080  0.4523
 1492SOL    HW116109   3.475   0.905   3.021 -0.8275 -0.1924  2.1420
 1492SOL    HW216110   3.555   0.831   3.113 -1.4150 -0.0087  1.0593
 1493SOL     OW16111   2.762   2.189   5.248 -0.0495  0.2019  0.2732
 1493SOL    HW116112   2.833   2.191   5.183 -0.7904  1.0938 -0.5052
 1493SOL    HW216113   2.686   2.166   5.196  1.5690  1.3296 -2.5891
 1494SOL     OW16114   3.484   2.741   4.312 -0.0878 -0.0542  0.0217
 1494SOL    HW116115   3.392   2.722   4.330  0.1300  1.2407  2.5791
 1494SOL    HW216116   3.507   2.672   4.251  1.8000 -0.2573  0.9724
 1495SOL     OW16117   1.706   0.900   1.003 -0.0698  0.3436  0.3291
 1495SOL    HW116118   1.646   0.901   0.928 -0.3834  2.0207  0.6047
 1495SOL    HW216119   1.778   0.856   0.958 -2.4644 -2.9169 -0.2850
 1496SOL     OW16120   0.390   2.060  14.414 -0.4102 -0.0411 -0.1953
 1496SOL    HW116121   0.443   2.139  14.408 -0.3924 -0.2016 -2.1898
 1496SOL    HW216122   0.424   2.011  14.489 -0.4703  1.0790  0.5511
 1497SOL     OW16123   4.290   2.684   9.945 -0.1231  0.0094  0.1455
 1497SOL    HW116124   4.379   2.654   9.931 -0.0163  0.6599 -0.5993
 1497SOL    HW216125   4.308   2.775   9.923  2.5258 -1.2739 -2.9220
 1498SOL     OW16126   2.088   3.148   5.506 -0.0414  0.4384 -0.5651
 1498SOL    HW116127   2.006   3.163   5.459  0.4049  0.9003 -1.1909
 1498SOL    HW216128   2.135   3.079   5.460  1.7148  1.8770 -0.9073
 1499SOL     OW16129   1.049   1.011   1.489 -0.3568 -0.0132 -0.2610
 1499SOL    HW116130   1.029   1.082   1.427  0.3349  0.7419  0.3807
 1499SOL    HW216131   1.032   1.055   1.573  0.8981  0.5566 -0.3058
 1500SOL     OW16132   4.328   2.256   7.152 -0.7009 -0.5758 -0.3855
 1500SOL    HW116133   4.249   2.208   7.176 -1.1679  0.3642 -0.0721
 1500SOL    HW216134   4.314   2.266   7.058  0.4634 -0.1002 -0.5108
 1501SOL     OW16135   1.966   1.489   5.986 -0.2470 -0.3742  0.0287
 1501SOL    HW116136   2.036   1.551   6.005 -0.9966  0.3143  0.5592
 1501SOL    HW216137   1.910   1.538   5.925  0.9208  0.6777 -0.1888
 1502SOL     OW16138   1.527   4.112   9.026  0.0368  0.5527 -0.3489
 1502SOL    HW116139   1.529   4.207   9.035 -0.7019  0.3583  1.7219
 1502SOL    HW216140   1.435   4.098   9.003 -0.6433 -0.0195  2.7693
 1503SOL     OW16141   3.833   4.198  16.454  0.0794  0.4754  0.0685
 1503SOL    HW116142   3.857   4.278  16.408  3.2541  0.1520  1.2028
 1503SOL    HW216143   3.835   4.222  16.546 -1.4698  1.0528 -0.0535
 1504SOL     OW16144   4.129   1.433   5.428 -0.6929  0.4135  0.1595
 1504SOL    HW116145   4.073   1.379   5.484 -1.7230  0.3515 -0.9458
 1504SOL    HW216146   4.212   1.387   5.442 -0.5457  0.6855  0.1721
 1505SOL     OW16147   1.769   4.241  10.694 -0.1217 -0.3861 -0.0672
 1505SOL    HW116148   1.684   4.272  10.662  0.6002  1.4869 -0.1879
 1505SOL    HW216149   1.797   4.186  10.620 -2.7204  0.1693 -1.4700
 1506SOL     OW16150   1.942   1.886   7.140  0.0659 -0.5648 -0.0281
 1506SOL    HW116151   1.867   1.939   7.112 -0.0210 -0.6261  0.0872
 1506SOL    HW216152   1.999   1.957   7.168 -0.1452 -0.1232 -0.7232
 1507SOL     OW16153   2.293   1.103   4.894 -0.0419 -0.0616  0.0416
 1507SOL    HW116154   2.251   1.188   4.880  1.0792  0.6223  0.8356
 1507SOL    HW216155   2.294   1.067   4.805 -0.9334  0.3296 -0.1264
 1508SOL     OW16156   2.829   3.938   7.738 -0.0105  0.6942  0.5397
 1508SOL    HW116157   2.771   3.868   7.709  1.9876  0.0588 -1.9555
 1508SOL    HW216158   2.876   3.962   7.658  0.1343 -0.1146  0.3787
 1509SOL     OW16159   1.454   2.841   2.961  0.3566  0.1762  0.5588
 1509SOL    HW116160   1.537   2.796   2.942 -1.4083 -1.6613 -2.6275
 1509SOL    HW216161   1.433   2.793   3.040 -1.3015 -0.5547 -0.3396
 1510SOL     OW16162   0.520   0.020   6.470 -0.2914  0.1237 -0.2067
 1510SOL    HW116163   0.493   0.107   6.443 -2.1964 -0.9513 -1.7868
 1510SOL    HW216164   0.447   4.698   6.448 -0.7130  0.7828 -0.5290
 1511SOL     OW16165   4.349   3.046   3.452 -0.5738  0.3738 -0.5172
 1511SOL    HW116166   4.282   2.985   3.481  1.5344 -1.3875  0.6134
 1511SOL    HW216167   4.415   3.059   3.520  1.1229 -0.8451 -1.9336
 1512SOL     OW16168   1.546   0.436   9.213  0.5064  0.1796 -0.3708
 1512SOL    HW116169   1.562   0.530   9.199  0.0122  0.7381  2.7601
 1512SOL    HW216170   1.604   0.397   9.147 -0.0516 -2.4185  0.6801
 1513SOL     OW16171   4.238   0.914   2.233 -0.0066 -0.4260  0.5602
 1513SOL    HW116172   4.204   0.952   2.151 -0.8833  3.0610  2.5548
 1513SOL    HW216173   4.205   0.964   2.307  3.1084  1.4326  0.6785
 1514SOL     OW16174   2.717   3.106   8.966  0.2789 -0.0519  1.0049
 1514SOL    HW116175   2.745   3.192   8.999 -0.4414  0.4559  0.3089
 1514SOL    HW216176   2.803   3.067   8.955  0.1629  0.5040 -1.9668
 1515SOL     OW16177   1.382   2.188   4.338  0.4635 -0.2494  0.1890
 1515SOL    HW116178   1.445   2.240   4.388 -0.0205 -0.4543  1.0016
 1515SOL    HW216179   1.305   2.205   4.391  0.5337 -0.3113  0.3110
 1516SOL     OW16180   2.313   0.244   4.043 -0.4584  0.0856  0.3976
 1516SOL    HW116181   2.314   0.321   4.100  1.4860  0.4027 -0.0576
 1516SOL    HW216182   2.318   0.169   4.102  1.6442  0.0326  0.1427
 1517SOL     OW16183   2.941   3.292   8.628 -0.1271  0.5347 -0.2981
 1517SOL    HW116184   3.005   3.360   8.605 -0.1418  0.1930 -1.3511
 1517SOL    HW216185   2.852   3.313   8.599 -0.0853 -1.7487 -2.0455
 1518SOL     OW16186   3.659   0.624   7.800  0.1895 -0.2440 -0.1683
 1518SOL    HW116187   3.576   0.591   7.764  0.9735 -0.2187 -2.0051
 1518SOL    HW216188   3.709   0.544   7.815 -0.7387 -0.5566  1.2517
 1519SOL     OW16189   0.405   0.337   2.955 -0.3104  0.1395 -0.1235
 1519SOL    HW116190   0.384   0.363   2.866 -0.9832 -1.0639 -0.3193
 1519SOL    HW216191   0.499   0.320   2.949 -0.2049  0.9411 -0.6387
 1520SOL     OW16192   2.017   0.322  17.394 -0.4734  0.3610  0.0410
 1520SOL    HW116193   1.958   0.316  17.319 -0.4262  2.3914 -0.1490
 1520SOL    HW216194   2.014   0.231  17.424 -0.3371 -0.3201 -2.0162
 1521SOL     OW16195   3.689   1.284  10.255 -0.7196 -0.8716 -0.9464
 1521SOL    HW116196   3.760   1.346  10.271 -1.5948 -0.2484  0.4747
 1521SOL    HW216197   3.643   1.341  10.193 -0.5229 -0.6139 -0.8558
 1522SOL     OW16198   4.255   2.538  11.350 -0.0029 -0.2919 -0.3328
 1522SOL    HW116199   4.332   2.593  11.332 -0.7870  1.2400  1.0414
 1522SOL    HW216200   4.287   2.496  11.430 -0.4191 -1.0359 -0.5540
 1523SOL     OW16201   0.341   1.671   8.674  0.3319  0.1222  0.3907
 1523SOL    HW116202   0.290   1.642   8.598 -1.7783  0.4601  1.6952
 1523SOL    HW216203   0.397   1.595   8.688 -1.2044 -0.6331  2.4458
 1524SOL     OW16204   0.703   3.164   5.581  0.0432 -0.0169  0.2832
 1524SOL    HW116205   0.797   3.147   5.594  0.2668  1.7700  1.0570
 1524SOL    HW216206   0.680   3.205   5.664  2.1707 -0.5678  1.1671
 1525SOL     OW16207   3.763   1.577   4.044  0.3722  0.3445 -0.1076
 1525SOL    HW116208   3.738   1.666   4.067  1.6559  0.4082  1.0731
 1525SOL    HW216209   3.857   1.593   4.043  0.3397  0.6611  1.0660
 1526SOL     OW16210   4.458   3.142   7.283  0.1555 -0.3492  0.3246
 1526SOL    HW116211   4.420   3.158   7.369  0.6233  1.4874  0.1968
 1526SOL    HW216212   4.465   3.234   7.256  0.3028 -0.8733 -1.4071
 1527SOL     OW16213   0.766   0.619  16.721 -0.0753  0.2106  0.0667
 1527SOL    HW116214   0.769   0.642  16.628 -1.9346  1.0116  0.1966
 1527SOL    HW216215   0.799   0.701  16.758 -0.0594  0.3886 -0.3428
 1528SOL     OW16216   1.980   0.941   9.964  0.3220  0.6483  0.0253
 1528SOL    HW116217   1.939   1.027   9.959  2.5125  1.7882  1.3761
 1528SOL    HW216218   1.966   0.926  10.058 -1.9400  1.9204 -0.1187
 1529SOL     OW16219   3.043   2.494   1.972  0.2397  0.3120  0.2117
 1529SOL    HW116220   2.949   2.496   1.991  0.3097 -0.3228  0.6131
 1529SOL    HW216221   3.029   2.460   1.884 -2.2215  1.3940  0.2031
 1530SOL     OW16222   0.189   4.555   5.361  0.1306 -0.1955 -0.3493
 1530SOL    HW116223   0.253   4.625   5.349 -0.1978 -0.0171 -1.0249
 1530SOL    HW216224   0.240   4.488   5.406 -1.8292 -1.0967  0.5297
 1531SOL     OW16225   1.950   3.693  12.367 -0.5568  0.2908 -0.3970
 1531SOL    HW116226   1.994   3.682  12.283 -0.5606 -0.7057 -0.2756
 1531SOL    HW216227   1.888   3.620  12.355 -1.2688  0.9049 -0.4589
 1532SOL     OW16228   3.421   0.416   7.977  0.6609  0.0753  0.4556
 1532SOL    HW116229   3.459   0.479   8.038  0.2828  2.4357 -1.7651
 1532SOL    HW216230   3.496   0.376   7.932  0.8449  2.7867 -1.6738
 1533SOL     OW16231   2.376   3.006   9.558  0.0393 -0.0200 -0.4588
 1533SOL    HW116232   2.405   2.946   9.627 -1.3917 -0.7582 -0.4956
 1533SOL    HW216233   2.453   3.062   9.556 -1.0384  1.4782 -0.6200
 1534SOL     OW16234   1.807   2.494   3.793 -0.6848 -0.3571 -0.1187
 1534SOL    HW116235   1.723   2.512   3.749  0.7357  1.6785 -2.0054
 1534SOL    HW216236   1.789   2.461   3.881 -1.8631  1.8845  0.5010
 1535SOL     OW16237   3.196   3.893   7.508 -0.3806  0.4104  0.3130
 1535SOL    HW116238   3.206   3.829   7.438 -0.2914  1.2277 -0.4103
 1535SOL    HW216239   3.283   3.932   7.516 -0.3568  0.4899 -0.3659
 1536SOL     OW16240   3.948   1.751   4.357  0.1095  0.1286  0.1897
 1536SOL    HW116241   3.936   1.841   4.386  0.3109  0.8640 -2.0440
 1536SOL    HW216242   4.015   1.751   4.289 -1.5567 -0.0382 -1.4637
 1537SOL     OW16243   2.771   1.794   4.294 -0.0223 -0.4465 -0.0404
 1537SOL    HW116244   2.732   1.761   4.376  0.2723 -2.0672 -0.5464
 1537SOL    HW216245   2.719   1.874   4.292  2.0336  0.8100 -2.0768
 1538SOL     OW16246   0.555   0.760   1.540 -0.0765  0.1180 -0.3661
 1538SOL    HW116247   0.594   0.725   1.460  0.3785  0.3003 -0.2253
 1538SOL    HW216248   0.559   0.853   1.518 -0.0566 -0.0776 -1.2073
 1539SOL     OW16249   0.495   2.913   3.020 -0.5355 -0.7129 -0.6526
 1539SOL    HW116250   0.539   2.854   2.958 -1.9580 -3.9525  1.3876
 1539SOL    HW216251   0.405   2.882   3.013 -0.0739 -1.6613 -2.3932
 1540SOL     OW16252   1.082   1.187   8.917 -0.3269 -0.7266 -0.2658
 1540SOL    HW116253   1.112   1.199   9.007 -2.7287 -0.5224  0.5200
 1540SOL    HW216254   0.987   1.200   8.927 -0.1812 -1.4801  2.1129
 1541SOL     OW16255   2.926   3.213   6.533  0.3279  0.4264  0.0409
 1541SOL    HW116256   2.978   3.288   6.560  1.5968 -0.0953 -0.9527
 1541SOL    HW216257   2.945   3.206   6.439 -0.9605 -0.3489 -0.1631
 1542SOL     OW16258   0.563   0.431  16.483  0.0890 -0.1369  0.2628
 1542SOL    HW116259   0.478   0.455  16.519 -0.3861 -1.7494  0.2328
 1542SOL    HW216260   0.583   0.503  16.424  1.4595 -0.6049  0.1464
 1543SOL     OW16261   4.078   4.432   9.246 -0.0359 -0.0852  0.3144
 1543SOL    HW116262   3.992   4.419   9.207  0.1184  2.0652 -0.7318
 1543SOL    HW216263   4.052   4.429   9.338 -0.3772  0.1618  0.2240
 1544SOL     OW16264   3.588   2.551   4.924  0.5302 -0.0426 -0.8023
 1544SOL    HW116265   3.535   2.535   5.003  0.0031 -0.7366 -1.2967
 1544SOL    HW216266   3.672   2.534   4.965  0.5183  0.3177 -0.6254
 1545SOL     OW16267   0.585   1.586   3.600 -0.2117  0.6729  0.0525
 1545SOL    HW116268   0.509   1.544   3.561 -0.9840  0.9396  1.2640
 1545SOL    HW216269   0.601   1.659   3.540  3.1320 -0.9220 -0.9971
 1546SOL     OW16270   4.458   2.284   4.923 -0.0854  0.3471 -0.0748
 1546SOL    HW116271   4.424   2.195   4.929 -1.3671  0.8952  0.9244
 1546SOL    HW216272   4.404   2.329   4.989  1.2927  0.2474  1.1348
 1547SOL     OW16273   1.176   3.407   8.929  0.8701 -0.5264  0.9212
 1547SOL    HW116274   1.195   3.439   8.840  0.3793  0.3450  1.1308
 1547SOL    HW216275   1.205   3.316   8.933  0.5475 -0.6421  0.5732
 1548SOL     OW16276   0.950   0.908   9.218 -0.0625  0.5598  0.1392
 1548SOL    HW116277   0.881   0.843   9.232  1.7283 -1.3498  0.1309
 1548SOL    HW216278   0.896   0.968   9.167 -1.4493 -0.8992 -0.1285
 1549SOL     OW16279   4.485   4.620  16.919 -0.0378  0.0529  0.2212
 1549SOL    HW116280   4.566   4.572  16.937 -0.0902  0.1224  0.6312
 1549SOL    HW216281   4.473   4.602  16.825 -1.4137 -1.2979  0.6405
 1550SOL     OW16282   3.661   1.264   8.216 -0.0725  0.4847 -0.0759
 1550SOL    HW116283   3.625   1.193   8.162 -1.9451  1.0307  0.4631
 1550SOL    HW216284   3.607   1.250   8.293 -0.6803  1.4768 -0.3323
 1551SOL     OW16285   2.752   1.427   2.797 -0.0166  0.3536  0.3950
 1551SOL    HW116286   2.657   1.430   2.803  0.0028 -1.2243  1.6288
 1551SOL    HW216287   2.774   1.344   2.839  1.7545 -0.5715 -2.3950
 1552SOL     OW16288   3.556   2.186   5.663  0.2195 -0.2249  0.2256
 1552SOL    HW116289   3.532   2.273   5.695  0.7562 -0.1722  0.4867
 1552SOL    HW216290   3.551   2.133   5.743 -3.0799  1.6702  1.2995
 1553SOL     OW16291   4.445   0.904   3.323  0.1635  0.1958 -0.1156
 1553SOL    HW116292   4.358   0.877   3.352 -0.5682  0.7526 -1.7835
 1553SOL    HW216293   4.422   0.976   3.264 -2.3919  0.2734  0.9886
 1554SOL     OW16294   1.494   3.854   0.217  0.0451  0.1034  0.1245
 1554SOL    HW116295   1.414   3.896   0.249  1.2232  1.6250  1.1115
 1554SOL    HW216296   1.560   3.924   0.221 -0.2371  0.3416  0.5727
 1555SOL     OW16297   2.471   3.017   9.054  0.2538 -0.0218  0.3570
 1555SOL    HW116298   2.550   3.066   9.030 -0.0494  1.9413  3.3808
 1555SOL    HW216299   2.445   3.066   9.132 -0.2066  0.0679  0.1434
 1556SOL     OW16300   3.852   2.334   4.873  0.0840  0.4125 -0.2626
 1556SOL    HW116301   3.933   2.293   4.903 -1.4928 -0.7837  2.4366
 1556SOL    HW216302   3.866   2.412   4.928  1.2133  0.0603 -0.0472
 1557SOL     OW16303   1.934   0.169  12.193 -0.4560  0.1907  0.3865
 1557SOL    HW116304   1.880   0.116  12.251  0.0369  1.7664  2.2898
 1557SOL    HW216305   1.877   0.235  12.152  1.5812  1.5317 -0.3127
 1558SOL     OW16306   0.915   4.648   2.694 -0.0916 -0.5150 -0.1956
 1558SOL    HW116307   0.848   4.630   2.759  1.4754 -0.8944  1.3349
 1558SOL    HW216308   0.978   4.702   2.743 -0.0389 -1.2024  0.4947
 1559SOL     OW16309   0.096   4.085   8.904  0.1692 -0.1059 -0.2503
 1559SOL    HW116310   0.027   4.041   8.953 -0.8673  0.0648 -1.5372
 1559SOL    HW216311   0.121   4.170   8.942  0.7008 -1.1031  1.5888
 1560SOL     OW16312   0.911   1.436   5.885 -0.3994  0.3330 -0.3595
 1560SOL    HW116313   0.982   1.400   5.938 -1.8609 -2.5173 -0.3685
 1560SOL    HW216314   0.963   1.502   5.839 -0.8514  0.1672 -1.1091
 1561SOL     OW16315   0.219   0.812   6.301 -0.4065  0.4079 -0.0030
 1561SOL    HW116316   0.167   0.807   6.221  2.3439  0.0052 -1.7626
 1561SOL    HW216317   0.309   0.807   6.268 -0.8692 -1.9116 -0.8462
 1562SOL     OW16318   2.721   2.118   0.171  0.2837  0.3518 -0.1970
 1562SOL    HW116319   2.630   2.092   0.183  0.1719 -1.0973 -4.0529
 1562SOL    HW216320   2.715   2.143   0.078 -1.1058  0.3109 -0.1189
 1563SOL     OW16321   2.600   1.337   1.481 -0.1417 -0.2861  0.3630
 1563SOL    HW116322   2.539   1.342   1.555  1.9244  0.2697  2.0276
 1563SOL    HW216323   2.555   1.391   1.416  0.0958  1.3448  1.5550
 1564SOL     OW16324   0.499   0.930  10.867 -0.7070  0.5020 -0.2386
 1564SOL    HW116325   0.554   0.905  10.941 -1.7139 -0.6009  0.1459
 1564SOL    HW216326   0.453   0.846  10.853 -0.8031  0.5515 -0.2222
 1565SOL     OW16327   2.138   1.412   8.321  0.3988  0.3608  0.4273
 1565SOL    HW116328   2.176   1.362   8.248 -0.3679 -1.8205  1.5431
 1565SOL    HW216329   2.081   1.348   8.363  2.6679 -2.5970 -0.9596
 1566SOL     OW16330   3.451   3.321  17.406 -0.1396  0.6794  0.1229
 1566SOL    HW116331   3.530   3.296  17.454  0.6255  3.1660  0.2104
 1566SOL    HW216332   3.388   3.289  17.470 -0.4970 -0.7635 -0.9452
 1567SOL     OW16333   2.947   1.162   4.571 -0.2343 -0.1318 -0.2717
 1567SOL    HW116334   2.890   1.098   4.527  0.2875 -1.6348  1.2687
 1567SOL    HW216335   3.034   1.122   4.568  1.1718  2.9730 -0.5878
 1568SOL     OW16336   1.295   1.171  16.270  0.0728  0.0745  0.0685
 1568SOL    HW116337   1.389   1.192  16.275  0.4079 -1.7405  1.4457
 1568SOL    HW216338   1.298   1.075  16.275 -0.9450 -0.0229 -1.2010
 1569SOL     OW16339   1.395   2.100   9.217  0.1356 -0.5105 -0.0799
 1569SOL    HW116340   1.403   2.174   9.276 -0.2211 -0.6713  0.1750
 1569SOL    HW216341   1.444   2.137   9.143  0.4045 -0.6608  0.0231
 1570SOL     OW16342   4.405   2.079   9.003 -1.0222  0.0625  0.0810
 1570SOL    HW116343   4.447   2.110   8.923 -1.7663 -0.3439 -0.4657
 1570SOL    HW216344   4.363   2.001   8.968 -1.6562  1.8593 -3.1750
 1571SOL     OW16345   1.522   1.976  11.903 -0.5307 -0.3437  0.4379
 1571SOL    HW116346   1.529   1.999  11.996 -1.0066 -0.7308  0.5714
 1571SOL    HW216347   1.617   1.970  11.895 -0.4433  0.2117  1.0374
 1572SOL     OW16348   2.939   3.874   4.470 -0.0587 -0.2634  0.6022
 1572SOL    HW116349   3.029   3.906   4.472  0.8568 -2.8313  0.4749
 1572SOL    HW216350   2.900   3.943   4.415 -1.1537 -0.1039  1.5657
 1573SOL     OW16351   0.233   1.247   5.088 -0.2976 -0.1461 -0.0909
 1573SOL    HW116352   0.273   1.335   5.087 -0.7516  0.0610  0.0634
 1573SOL    HW216353   0.203   1.237   4.997 -2.4039 -0.1744  0.6077
 1574SOL     OW16354   3.851   3.145   5.130  0.5711  0.0965  0.4732
 1574SOL    HW116355   3.884   3.059   5.103  3.2672  1.8778 -1.8226
 1574SOL    HW216356   3.911   3.199   5.080 -2.3915  0.9709 -2.1299
 1575SOL     OW16357   3.680   0.956   6.522 -0.5554  0.1409  0.5403
 1575SOL    HW116358   3.711   0.967   6.432 -2.3107  1.2019  0.0823
 1575SOL    HW216359   3.721   0.872   6.539  1.5827  0.7971 -1.2678
 1576SOL     OW16360   3.886   3.018   2.634  0.1044  0.4587 -0.2224
 1576SOL    HW116361   3.942   2.946   2.663 -0.3943 -0.6062 -1.8949
 1576SOL    HW216362   3.814   2.996   2.693 -0.2563 -1.8241 -1.5277
 1577SOL     OW16363   1.363   3.326   3.145  0.2123  0.8902 -0.4064
 1577SOL    HW116364   1.418   3.300   3.218 -1.2347 -0.5245  0.1742
 1577SOL    HW216365   1.364   3.238   3.106 -1.7338  0.1017  1.3342
 1578SOL     OW16366   2.622   4.051   3.919 -0.3679  0.3768 -0.2257
 1578SOL    HW116367   2.680   4.125   3.902  2.1804 -1.8038 -0.9981
 1578SOL    HW216368   2.669   3.978   3.879  0.2407  1.0685 -0.7726
 1579SOL     OW16369   3.210   0.125   6.390  0.3405  0.0590  0.1884
 1579SOL    HW116370   3.258   0.092   6.314  1.4277  2.2817 -0.0811
 1579SOL    HW216371   3.134   0.167   6.350  1.4312  1.3344 -0.5441
 1580SOL     OW16372   1.251   3.378   9.387 -0.5947  0.1180  0.4122
 1580SOL    HW116373   1.170   3.342   9.354  0.4089 -1.0535 -0.7437
 1580SOL    HW216374   1.309   3.309   9.356 -0.0007  0.6516  0.3281
 1581SOL     OW16375   0.635   4.656   8.630 -0.0151 -0.1594  0.1753
 1581SOL    HW116376   0.653   4.576   8.579  2.8439 -0.1368  1.1623
 1581SOL    HW216377   0.717   4.662   8.679 -1.2348  3.9899  1.6410
 1582SOL     OW16378   0.359   1.645   6.315 -0.2045  0.1644 -0.1051
 1582SOL    HW116379   0.296   1.712   6.341  1.4651  0.7531  2.4306
 1582SOL    HW216380   0.377   1.597   6.396 -0.5369 -0.6979 -0.5582
 1583SOL     OW16381   3.660   3.046   0.843  0.1197  0.1879 -0.2390
 1583SOL    HW116382   3.741   3.054   0.892  0.0428  2.2307 -0.4176
 1583SOL    HW216383   3.659   3.129   0.794 -0.1011  0.1775 -0.2523
 1584SOL     OW16384   1.536   2.262   6.183  0.4074 -0.4104  0.5071
 1584SOL    HW116385   1.613   2.307   6.218 -1.0895  1.5465  1.2980
 1584SOL    HW216386   1.481   2.262   6.262  0.4282  1.1865  0.5078
 1585SOL     OW16387   3.519   4.667   2.072 -0.1444 -0.4088  0.2549
 1585SOL    HW116388   3.608   4.700   2.064 -0.1546 -0.3103  0.5489
 1585SOL    HW216389   3.475   4.701   1.995  0.1296  0.7193  0.6000
 1586SOL     OW16390   2.729   2.781  14.133 -0.0334  0.3928  0.1825
 1586SOL    HW116391   2.679   2.711  14.091 -0.2079  1.7686 -1.9457
 1586SOL    HW216392   2.679   2.794  14.213 -2.2138 -0.8667 -0.9850
 1587SOL     OW16393   1.059   3.305   0.370 -0.6464 -1.0566 -0.5858
 1587SOL    HW116394   1.127   3.313   0.437 -1.1744  0.3360 -0.2195
 1587SOL    HW216395   1.097   3.358   0.299  0.6452  0.8808  1.5412
 1588SOL     OW16396   1.992   0.506   3.972  0.3461  0.0162 -0.3843
 1588SOL    HW116397   1.958   0.503   4.062  2.3170 -1.1330  0.3318
 1588SOL    HW216398   2.043   0.425   3.970  0.0098 -0.1318 -2.8630
 1589SOL     OW16399   4.253   3.991   2.760 -0.2749 -0.0069 -0.5808
 1589SOL    HW116400   4.272   4.075   2.718 -3.1281  1.2798  0.6862
 1589SOL    HW216401   4.306   3.990   2.840  1.3558  1.2929 -1.6653
 1590SOL     OW16402   3.275   1.417   1.789 -0.6897 -0.0142  0.6400
 1590SOL    HW116403   3.292   1.495   1.842  0.6254  0.3603 -0.3228
 1590SOL    HW216404   3.203   1.442   1.731 -0.3813 -2.1270 -0.6332
 1591SOL     OW16405   1.006   4.023  14.585  0.8803  0.5842 -0.3054
 1591SOL    HW116406   1.102   4.021  14.583  0.8740 -0.7910  0.4775
 1591SOL    HW216407   0.986   4.050  14.674  2.4202 -1.8098  0.7681
 1592SOL     OW16408   0.246   4.713  11.485 -0.0178 -0.4608 -0.4297
 1592SOL    HW116409   0.177   0.045  11.482 -0.2601 -0.7117 -0.5515
 1592SOL    HW216410   0.217   4.673  11.566 -1.9240 -0.6051 -1.1729
 1593SOL     OW16411   0.941   4.006   7.638  0.1196  0.0763 -0.6880
 1593SOL    HW116412   0.906   3.933   7.586  1.3857 -1.7707  1.0253
 1593SOL    HW216413   0.892   4.080   7.603  0.6673  1.6376  1.8039
 1594SOL     OW16414   1.565   0.100   3.589 -0.5317 -0.0455 -0.1473
 1594SOL    HW116415   1.530   0.189   3.586  0.2426  0.2361 -0.8476
 1594SOL    HW216416   1.576   0.068   3.500 -1.4995 -1.1184  0.1154
 1595SOL     OW16417   1.038   3.600   3.125  0.1309  0.0601  0.0185
 1595SOL    HW116418   1.109   3.643   3.078  0.2243 -0.9300 -0.7561
 1595SOL    HW216419   1.089   3.561   3.196  1.7274 -0.1917 -1.2644
 1596SOL     OW16420   4.511   1.131   0.718 -0.4088 -0.1548  0.0416
 1596SOL    HW116421   4.496   1.193   0.646 -0.3103 -0.2156 -0.0323
 1596SOL    HW216422   4.571   1.071   0.674 -0.0956  0.1882 -0.0029
 1597SOL     OW16423   4.065   3.579   8.435 -0.0270 -0.0054 -0.0369
 1597SOL    HW116424   3.992   3.638   8.415 -0.9405 -0.8868  0.6757
 1597SOL    HW216425   4.042   3.512   8.371 -0.1088  1.7614 -1.8361
 1598SOL     OW16426   1.079   1.082   9.621 -0.2374  0.4600 -0.0192
 1598SOL    HW116427   1.025   1.100   9.697  1.1352 -0.0695  1.0801
 1598SOL    HW216428   1.055   0.990   9.630  1.8749 -0.0160  0.7678
 1599SOL     OW16429   0.247   3.283   8.938  0.0087  0.4161  0.1844
 1599SOL    HW116430   0.329   3.311   8.977 -0.6993  1.0975  1.2070
 1599SOL    HW216431   0.238   3.209   8.998 -0.7509 -2.4614 -3.5313
 1600SOL     OW16432   2.696   2.363   5.500 -0.0663 -0.2153  0.4022
 1600SOL    HW116433   2.720   2.302   5.430 -0.3703  1.5447 -1.2402
 1600SOL    HW216434   2.649   2.425   5.444  1.4375 -0.3435 -0.9894
 1601SOL     OW16435   3.703   0.594   2.826 -0.1801  0.1033 -0.4167
 1601SOL    HW116436   3.714   0.500   2.812 -0.3711 -0.0943  0.7533
 1601SOL    HW216437   3.651   0.599   2.906 -1.9926 -0.2926 -1.5645
 1602SOL     OW16438   4.091   2.528   3.967 -0.3826  0.0895  0.4620
 1602SOL    HW116439   4.164   2.590   3.966 -2.4137  2.4819  0.1122
 1602SOL    HW216440   4.137   2.446   3.986  0.7501  0.5069 -0.4562
 1603SOL     OW16441   2.481   0.775   1.611 -0.1804  0.0020  0.2599
 1603SOL    HW116442   2.393   0.737   1.601 -0.8524  1.6600 -0.1451
 1603SOL    HW216443   2.483   0.827   1.530  1.1600  1.7862  1.4504
 1604SOL     OW16444   3.554   2.089   9.531 -0.0667 -0.7386  0.1416
 1604SOL    HW116445   3.495   2.031   9.579 -0.8590 -0.9215 -1.0228
 1604SOL    HW216446   3.603   2.028   9.475  0.2258  1.0932 -1.6042
 1605SOL     OW16447   0.389   1.728   9.048  0.0997 -0.0058 -0.3417
 1605SOL    HW116448   0.468   1.700   9.003  0.6839  2.8844 -1.0681
 1605SOL    HW216449   0.339   1.773   8.980  1.4851  1.3370 -0.4671
 1606SOL     OW16450   0.128   2.415  15.106 -0.7555  0.1661 -0.3023
 1606SOL    HW116451   0.099   2.330  15.074 -0.6451 -0.1700  0.4883
 1606SOL    HW216452   0.168   2.394  15.190  1.0401 -0.9397 -1.4108
 1607SOL     OW16453   0.728   3.348   9.382  0.4765  0.1770 -0.3440
 1607SOL    HW116454   0.649   3.314   9.341  1.9245 -3.0006 -0.5118
 1607SOL    HW216455   0.782   3.291   9.328  3.4133  1.3855  1.2803
 1608SOL     OW16456   0.127   4.681  12.726 -0.2458 -0.2124 -0.2638
 1608SOL    HW116457   0.161   4.597  12.755 -1.7416 -0.2877  1.3390
 1608SOL    HW216458   0.194   4.735  12.768  1.8667 -2.6917 -0.4609
 1609SOL     OW16459   1.434   4.039   9.483 -0.7474 -0.3125 -0.6792
 1609SOL    HW116460   1.350   4.055   9.440  0.3143 -0.1581 -2.6703
 1609SOL    HW216461   1.409   4.078   9.567  0.0254  2.4395 -1.7296
 1610SOL     OW16462   4.266   3.945   6.494  0.1697  0.3224 -0.2035
 1610SOL    HW116463   4.324   4.021   6.497  0.9225 -0.3540  2.6008
 1610SOL    HW216464   4.180   3.978   6.467  0.2063  0.7209  0.1552
 1611SOL     OW16465   3.225   4.253   8.121  0.3550  0.1194  0.0490
 1611SOL    HW116466   3.202   4.345   8.136  1.8226  0.5815 -0.4325
 1611SOL    HW216467   3.279   4.245   8.201  0.1948 -1.8218 -0.0554
 1612SOL     OW16468   0.850   3.736   2.173  0.9004  0.4499  0.3865
 1612SOL    HW116469   0.817   3.741   2.263 -0.4482 -0.3030 -0.0630
 1612SOL    HW216470   0.869   3.643   2.162 -2.8418 -0.3665  0.5738
 1613SOL     OW16471   3.085   0.117   2.147 -0.7878  0.0416  0.1236
 1613SOL    HW116472   3.085   0.178   2.074 -0.8397 -0.4350 -0.2806
 1613SOL    HW216473   2.993   0.093   2.141 -0.7669 -0.3746  1.3781
 1614SOL     OW16474   3.221   2.693   4.041 -0.7991 -0.1992 -0.1648
 1614SOL    HW116475   3.219   2.611   4.090  0.4238 -0.3154 -0.3108
 1614SOL    HW216476   3.146   2.744   4.072 -0.6771 -0.9500  1.3389
 1615SOL     OW16477   0.614   1.621   6.182  0.1660 -0.5108  0.2191
 1615SOL    HW116478   0.524   1.623   6.217  0.0552 -0.7493 -0.0536
 1615SOL    HW216479   0.675   1.607   6.254  2.8480  2.3627 -1.5444
 1616SOL     OW16480   1.890   0.450   2.701  0.1954  0.3347 -0.0538
 1616SOL    HW116481   1.860   0.526   2.751 -2.2285  0.3162 -1.4699
 1616SOL    HW216482   1.903   0.495   2.617 -1.2134 -2.4246 -1.7531
 1617SOL     OW16483   1.954   0.552   5.111  0.3911 -0.8731 -0.3474
 1617SOL    HW116484   1.947   0.631   5.057 -0.6506  0.1180  1.2259
 1617SOL    HW216485   1.872   0.553   5.161  0.0871  2.3830 -0.8872
 1618SOL     OW16486   2.465   4.072  10.212  0.0281  0.3191 -0.6018
 1618SOL    HW116487   2.530   4.139  10.232 -0.8548  0.9648  0.1253
 1618SOL    HW216488   2.407   4.126  10.159  2.3819  2.5840 -0.8753
 1619SOL     OW16489   0.879   0.905   3.783  0.0750 -0.3660 -0.0494
 1619SOL    HW116490   0.968   0.941   3.779  0.3692 -1.1865 -1.0582
 1619SOL    HW216491   0.864   0.927   3.691 -1.0508 -3.0824 -0.5242
 1620SOL     OW16492   0.554   0.448   8.577  0.0706  0.6774 -0.1942
 1620SOL    HW116493   0.610   0.521   8.553  0.7188  0.7083  1.3701
 1620SOL    HW216494   0.488   0.444   8.508  0.0833 -0.9236 -0.1135
 1621SOL     OW16495   3.620   3.303  15.099 -0.0498 -0.0126  0.3198
 1621SOL    HW116496   3.525   3.295  15.088 -0.0804 -0.8975  1.2495
 1621SOL    HW216497   3.653   3.358  15.028  0.9502 -1.0343  0.0000
 1622SOL     OW16498   0.933   2.846   6.719  0.0570 -0.8148 -0.1688
 1622SOL    HW116499   0.916   2.753   6.710 -1.5481 -0.3877 -1.5845
 1622SOL    HW216500   0.956   2.845   6.812  0.5095 -1.0186 -0.2843
 1623SOL     OW16501   1.799   1.142   6.245 -0.3038 -0.4562 -0.0164
 1623SOL    HW116502   1.716   1.095   6.255 -0.4914  0.1949  1.5240
 1623SOL    HW216503   1.791   1.185   6.160 -1.7878  0.3083  0.5085
 1624SOL     OW16504   0.530   0.837  15.638 -0.6482  0.0940  0.3109
 1624SOL    HW116505   0.588   0.864  15.566 -1.1551  1.1042  0.2752
 1624SOL    HW216506   0.490   0.916  15.675  1.2391  1.7245 -1.1093
 1625SOL     OW16507   0.918   1.059   4.013 -0.3364  0.0225 -0.6725
 1625SOL    HW116508   0.871   1.134   3.976 -2.0247 -1.6077 -1.8212
 1625SOL    HW216509   0.872   0.985   3.973 -2.1558  0.9331 -0.2721
 1626SOL     OW16510   0.568   2.862   7.112 -0.6354 -0.0581 -0.1189
 1626SOL    HW116511   0.601   2.886   7.025 -0.5217 -0.8595 -0.3009
 1626SOL    HW216512   0.546   2.769   7.106 -0.8114  0.0103 -0.5496
 1627SOL     OW16513   3.607   1.871   8.253  0.1729  0.4181 -0.1310
 1627SOL    HW116514   3.642   1.783   8.250 -0.0664  0.3542 -1.0885
 1627SOL    HW216515   3.680   1.909   8.302  0.3069  1.0358 -0.7980
 1628SOL     OW16516   2.189   3.373   0.787 -0.2452  0.0899  0.1990
 1628SOL    HW116517   2.282   3.353   0.795 -0.1213  0.4860 -0.2421
 1628SOL    HW216518   2.163   3.344   0.874  0.7993  3.1569  1.4821
 1629SOL     OW16519   2.160   0.039   8.014  0.0737  0.1816 -0.1080
 1629SOL    HW116520   2.126   0.089   7.940 -0.1684  0.9823  0.5507
 1629SOL    HW216521   2.127   4.685   8.004 -1.7066  0.6918  1.3252
 1630SOL     OW16522   4.046   3.840   8.748  0.2385  0.1617  1.1039
 1630SOL    HW116523   4.109   3.811   8.682 -1.7498 -0.0240 -0.6973
 1630SOL    HW216524   3.964   3.801   8.719  0.3496  0.1325  0.8294
 1631SOL     OW16525   2.476   4.687  15.066  0.0181 -0.2916  0.3889
 1631SOL    HW116526   2.510   4.730  14.987 -0.6431  0.8316  0.7236
 1631SOL    HW216527   2.501   0.013  15.134  0.2635  1.1670 -1.0380
 1632SOL     OW16528   3.108   1.944   5.476 -0.0244 -0.0078 -0.3073
 1632SOL    HW116529   3.150   1.951   5.390 -1.0263  1.9628 -0.6539
 1632SOL    HW216530   3.065   1.860   5.463 -0.1826  0.0291 -0.0219
 1633SOL     OW16531   0.599   0.141  11.208  0.1413 -0.1727  0.3613
 1633SOL    HW116532   0.691   0.149  11.181 -0.1671 -0.7703 -0.8898
 1633SOL    HW216533   0.607   0.093  11.290  0.4312 -0.0445  0.4080
 1634SOL     OW16534   2.664   4.148  13.831  0.2430 -0.2024 -0.0119
 1634SOL    HW116535   2.748   4.103  13.837 -0.4730 -1.2956  1.6400
 1634SOL    HW216536   2.642   4.121  13.741 -1.4029  2.3153 -0.3721
 1635SOL     OW16537   4.470   3.390  16.755 -0.5142  0.1756  0.4289
 1635SOL    HW116538   4.380   3.411  16.730  0.4922  1.2847 -2.3208
 1635SOL    HW216539   4.501   3.479  16.736  0.0646 -0.1241  0.0095
 1636SOL     OW16540   2.610   2.638  14.662 -0.1015 -0.4768 -0.2667
 1636SOL    HW116541   2.536   2.629  14.721 -1.5479 -2.6475 -2.4098
 1636SOL    HW216542   2.643   2.720  14.699  0.5676 -1.5636  1.5359
 1637SOL     OW16543   3.798   0.087   7.736  0.1707  0.4219 -0.2953
 1637SOL    HW116544   3.835   0.152   7.676  0.5634  1.5363  1.1347
 1637SOL    HW216545   3.792   0.148   7.809  1.6616  0.1337  0.0701
 1638SOL     OW16546   0.652   2.828   3.257  0.1266  0.2064 -0.2964
 1638SOL    HW116547   0.619   2.867   3.176  2.3957  2.0286 -0.3362
 1638SOL    HW216548   0.717   2.896   3.272  2.3524 -2.2320  1.2794
 1639SOL     OW16549   2.757   3.880   5.213  0.0582 -0.2716 -0.2781
 1639SOL    HW116550   2.745   3.908   5.122  2.1758 -0.4395 -0.6110
 1639SOL    HW216551   2.783   3.960   5.258  0.2550 -0.8776  0.6716
 1640SOL     OW16552   1.674   3.345  12.115  0.7329  0.6833  0.5120
 1640SOL    HW116553   1.765   3.375  12.114  0.7586  0.6139  0.9522
 1640SOL    HW216554   1.682   3.306  12.028  1.2249  1.8939  0.0138
 1641SOL     OW16555   4.019   3.642   7.243  0.1480  0.4247 -0.6075
 1641SOL    HW116556   4.019   3.546   7.239 -0.3055  0.3493  0.8909
 1641SOL    HW216557   4.098   3.658   7.295  0.2992 -0.9549 -0.4146
 1642SOL     OW16558   2.935   0.409   8.421  0.8442  0.0306 -0.1827
 1642SOL    HW116559   3.029   0.411   8.438  0.7771 -0.4759  0.2639
 1642SOL    HW216560   2.896   0.478   8.474  3.2481 -0.5267  2.2803
 1643SOL     OW16561   2.197   1.791   5.861 -0.5789  0.7256 -0.2933
 1643SOL    HW116562   2.250   1.865   5.887 -0.6226  0.4923  0.4555
 1643SOL    HW216563   2.195   1.743   5.944  0.4950  4.0646  1.6683
 1644SOL     OW16564   0.301   1.831   3.681 -0.1248  0.8803  0.1428
 1644SOL    HW116565   0.298   1.778   3.760 -1.3082 -0.2780 -0.6780
 1644SOL    HW216566   0.318   1.914   3.726 -0.2668  2.2486 -2.2850
 1645SOL     OW16567   0.335   4.510   0.176 -0.2154 -0.1043  0.2671
 1645SOL    HW116568   0.397   4.549   0.237  1.8041 -4.1040  0.7590
 1645SOL    HW216569   0.340   4.563   0.096  1.2017  1.1873  1.2200
 1646SOL     OW16570   0.862   3.384   3.976 -0.1081 -0.4019  0.0474
 1646SOL    HW116571   0.779   3.426   3.956 -0.1170 -1.3077 -1.8311
 1646SOL    HW216572   0.867   3.298   3.933 -0.8192 -1.1166  1.3927
 1647SOL     OW16573   4.689   3.849   6.414 -0.0879  0.1199 -0.0682
 1647SOL    HW116574   4.681   3.908   6.488 -0.2055 -0.6834  0.5655
 1647SOL    HW216575   0.047   3.845   6.396  0.1015  0.2982  0.8986
 1648SOL     OW16576   3.579   3.981   7.892  0.3820  1.4762 -0.0130
 1648SOL    HW116577   3.659   4.006   7.938  0.7304  0.9786 -0.3404
 1648SOL    HW216578   3.522   3.998   7.968  0.0838  1.1796 -0.1673
 1649SOL     OW16579   3.106   4.432  13.492 -0.1497 -0.3626 -0.2662
 1649SOL    HW116580   3.121   4.527  13.492 -1.9202 -0.0775 -0.2248
 1649SOL    HW216581   3.107   4.421  13.587 -0.1010 -0.2666 -0.2557
 1650SOL     OW16582   0.646   1.901   8.767 -0.0889 -0.1433 -0.1687
 1650SOL    HW116583   0.693   1.915   8.849 -1.6022  0.5492  0.5789
 1650SOL    HW216584   0.573   1.963   8.773  0.3157  0.1413  1.8215
 1651SOL     OW16585   2.153   4.386   5.372 -0.5787 -0.0376 -0.3434
 1651SOL    HW116586   2.070   4.353   5.338 -0.7395 -0.5872  0.5914
 1651SOL    HW216587   2.182   4.313   5.427 -0.4677 -1.4353 -2.2487
 1652SOL     OW16588   0.628   3.563  10.787  0.4119 -0.9572  0.2230
 1652SOL    HW116589   0.553   3.505  10.793 -1.1510  0.9512 -0.9191
 1652SOL    HW216590   0.649   3.575  10.880  3.0005 -0.3012 -0.4326
 1653SOL     OW16591   0.055   0.565   8.121 -0.0542 -0.0751 -0.1768
 1653SOL    HW116592   0.066   0.514   8.041  0.4512 -0.1277 -0.0721
 1653SOL    HW216593   0.067   0.501   8.192 -1.8025 -2.3243 -1.8943
 1654SOL     OW16594   4.687   3.135   8.158  0.4857  1.2790 -0.6770
 1654SOL    HW116595   4.649   3.222   8.166 -1.1750  0.4432  0.5592
 1654SOL    HW216596   4.609   3.089   8.126 -0.2615  1.8787  0.2734
 1655SOL     OW16597   2.047   2.250  12.780  0.1871 -0.4967  0.4321
 1655SOL    HW116598   2.020   2.218  12.866  2.4003 -2.4068  0.3909
 1655SOL    HW216599   2.135   2.214  12.772  0.3182 -0.4720  1.7834
 1656SOL     OW16600   0.563   1.985   7.783 -0.3477  0.1636 -0.5166
 1656SOL    HW116601   0.488   1.983   7.842  0.2175 -1.6513  0.1217
 1656SOL    HW216602   0.632   2.016   7.841 -0.0590 -0.3818 -0.5718
 1657SOL     OW16603   2.147   4.452  10.087  0.7406  0.8836 -0.0773
 1657SOL    HW116604   2.089   4.460  10.011  0.4687  1.2014  0.1668
 1657SOL    HW216605   2.090   4.416  10.155  0.7876  0.9046 -0.0270
 1658SOL     OW16606   4.321   0.127   4.496 -0.5496 -0.6826 -0.3471
 1658SOL    HW116607   4.302   0.085   4.412  2.7369  0.9634 -1.8770
 1658SOL    HW216608   4.245   0.184   4.510 -0.0211 -0.4809  1.6773
 1659SOL     OW16609   4.210   1.907  12.229  0.1422 -0.3611 -0.5057
 1659SOL    HW116610   4.221   1.880  12.320  0.9473 -1.4842 -0.9475
 1659SOL    HW216611   4.295   1.881  12.194  0.1242 -1.6041  0.3593
 1660SOL     OW16612   1.149   1.914  11.787  0.5567 -0.1244  0.6783
 1660SOL    HW116613   1.224   1.862  11.817  1.4840  0.5790 -0.4221
 1660SOL    HW216614   1.085   1.844  11.791 -0.0755  0.5106  1.6676
 1661SOL     OW16615   2.803   0.006   2.133  0.2869  0.1377 -0.1910
 1661SOL    HW116616   2.733   0.042   2.079 -1.1125  1.8041  2.6902
 1661SOL    HW216617   2.808   4.660   2.085  2.7131  1.3486 -1.9940
 1662SOL     OW16618   3.965   3.705  10.937 -0.5872 -0.4706 -0.0995
 1662SOL    HW116619   4.002   3.649  11.005 -0.3178 -0.1167  0.0446
 1662SOL    HW216620   4.047   3.740  10.902 -0.9278  1.7596  1.2912
 1663SOL     OW16621   1.904   2.306   1.103  0.6165 -0.0721 -0.3152
 1663SOL    HW116622   1.817   2.323   1.139  0.2165 -1.1764 -0.7671
 1663SOL    HW216623   1.938   2.232   1.153 -1.7233 -0.6527  0.4315
 1664SOL     OW16624   1.410   4.536  12.114 -0.3439  0.4485  0.0347
 1664SOL    HW116625   1.396   4.518  12.206  0.3441  0.2443  0.0975
 1664SOL    HW216626   1.345   4.600  12.086 -0.9250 -0.4381 -0.6115
 1665SOL     OW16627   2.567   2.793   3.401  0.4399 -0.0821 -0.7508
 1665SOL    HW116628   2.654   2.832   3.408  0.3072 -0.2973  2.0784
 1665SOL    HW216629   2.589   2.700   3.389  2.0665 -0.0591  2.1428
 1666SOL     OW16630   3.193   1.399   4.764 -0.0195  0.3859  0.4079
 1666SOL    HW116631   3.105   1.431   4.783  0.5931  1.4403  1.4875
 1666SOL    HW216632   3.205   1.424   4.672 -0.6376  0.2467  0.2922
 1667SOL     OW16633   3.277   2.171   1.856 -0.1397  0.4348 -0.0089
 1667SOL    HW116634   3.333   2.096   1.838  1.1443  0.7740  2.4847
 1667SOL    HW216635   3.228   2.181   1.775  0.9000 -0.2594 -0.7179
 1668SOL     OW16636   1.535   2.697  14.834 -0.4650 -0.4132  0.4252
 1668SOL    HW116637   1.615   2.648  14.852  0.4191  0.2296 -1.7337
 1668SOL    HW216638   1.510   2.742  14.914 -1.5076 -2.1152  1.0510
 1669SOL     OW16639   3.471   0.051   7.939 -0.3148  0.1576  0.5861
 1669SOL    HW116640   3.532   0.108   7.987 -0.2271 -0.3119  1.0348
 1669SOL    HW216641   3.475   4.702   7.984 -0.4832 -2.1777 -3.7636
 1670SOL     OW16642   0.452   2.859   6.088 -0.4642  0.0396  0.0224
 1670SOL    HW116643   0.408   2.922   6.032 -2.0923 -0.7727  0.3684
 1670SOL    HW216644   0.500   2.807   6.024  1.2437  1.0008  0.5201
 1671SOL     OW16645   3.938   2.029   6.599 -0.3120  0.9191 -0.2343
 1671SOL    HW116646   3.850   2.050   6.568 -0.9983 -2.2928 -0.5212
 1671SOL    HW216647   3.970   2.116   6.623 -1.5945  0.7059  2.2510
 1672SOL     OW16648   3.491   3.900   6.757 -0.5877  0.2121  0.9191
 1672SOL    HW116649   3.496   3.992   6.784 -0.7518  0.2540  0.8060
 1672SOL    HW216650   3.487   3.915   6.662  2.2338 -1.9909  0.4471
 1673SOL     OW16651   0.749   3.959   4.323  0.4027  0.5734 -0.2169
 1673SOL    HW116652   0.665   3.970   4.368  0.6900 -2.3334  1.0432
 1673SOL    HW216653   0.734   3.867   4.299  0.1833  0.1834  1.3917
 1674SOL     OW16654   1.247   3.499   6.206 -0.0648 -0.1578 -0.3346
 1674SOL    HW116655   1.333   3.536   6.186  0.4183  0.0697  2.1106
 1674SOL    HW216656   1.201   3.519   6.125 -1.9282  1.4492  1.1399
 1675SOL     OW16657   1.236   2.657  17.517  0.0238  0.4144 -0.3637
 1675SOL    HW116658   1.229   2.726  17.451 -2.7489 -0.6911 -1.2137
 1675SOL    HW216659   1.321   2.676  17.557 -0.2916  1.7021 -0.3034
 1676SOL     OW16660   2.536   2.771  17.613  0.5739 -0.4820 -0.4402
 1676SOL    HW116661   2.628   2.761  17.589  0.9369  0.2340  0.6629
 1676SOL    HW216662   2.514   2.863  17.627  0.5492 -0.2276 -2.0846
 1677SOL     OW16663   4.625   3.613   1.706 -0.3152  0.4752  0.5771
 1677SOL    HW116664   4.637   3.637   1.614 -0.8973  0.2903  0.4505
 1677SOL    HW216665   4.710   3.586   1.739 -0.5164 -0.3042  0.4673
 1678SOL     OW16666   1.584   4.319   7.350 -0.2596  0.2824  0.4257
 1678SOL    HW116667   1.591   4.237   7.399 -1.1504 -0.0583 -0.0147
 1678SOL    HW216668   1.529   4.369   7.410 -2.6280  1.4967 -2.7806
 1679SOL     OW16669   1.274   4.231   8.214 -0.9595  0.4024 -0.8171
 1679SOL    HW116670   1.336   4.191   8.153  1.4972  1.4025  1.0620
 1679SOL    HW216671   1.229   4.155   8.251 -1.4038 -0.5175 -3.2159
 1680SOL     OW16672   1.488   1.977   5.525 -0.1385  0.4721 -0.5893
 1680SOL    HW116673   1.499   1.887   5.557 -0.9113  0.7761  0.5256
 1680SOL    HW216674   1.498   2.037   5.599  2.8366 -1.9153  0.9686
 1681SOL     OW16675   0.900   2.167   8.368  0.0758  0.3979  0.3302
 1681SOL    HW116676   0.973   2.151   8.308  0.6001 -0.8382  1.2854
 1681SOL    HW216677   0.945   2.197   8.447  0.8048 -1.9353  0.8198
 1682SOL     OW16678   3.629   4.148   5.844  0.4026  0.1545 -0.2862
 1682SOL    HW116679   3.551   4.194   5.815 -1.7168 -1.8682  2.2283
 1682SOL    HW216680   3.695   4.217   5.843  0.6727 -0.1008  0.7457
 1683SOL     OW16681   2.075   2.784   9.379 -0.2928  0.4100 -0.7064
 1683SOL    HW116682   2.154   2.738   9.349 -0.0640  0.0016  0.5435
 1683SOL    HW216683   2.072   2.743   9.465 -0.6663 -0.4832 -1.1381
 1684SOL     OW16684   0.318   2.902  16.404 -0.2967 -0.0001 -0.4242
 1684SOL    HW116685   0.271   2.848  16.467 -1.8102  0.4213 -1.1816
 1684SOL    HW216686   0.328   2.985  16.450  0.8855 -0.7100  0.6141
 1685SOL     OW16687   2.388   4.452  11.222  0.4376  0.2911  0.3872
 1685SOL    HW116688   2.423   4.541  11.226 -0.7382  0.6860  2.2072
 1685SOL    HW216689   2.305   4.447  11.270 -0.9031 -1.1566 -2.1122
 1686SOL     OW16690   4.380   1.834   4.897 -0.0958 -0.0113 -0.0296
 1686SOL    HW116691   4.475   1.817   4.895 -0.3167 -1.1602 -0.6029
 1686SOL    HW216692   4.348   1.773   4.832 -1.1624  1.1646 -0.6095
 1687SOL     OW16693   0.339   3.842   0.668  0.9474  0.1449  0.0661
 1687SOL    HW116694   0.265   3.853   0.727 -0.2899  1.4426 -1.7072
 1687SOL    HW216695   0.382   3.925   0.688  0.5456  0.3502  0.0662
 1688SOL     OW16696   0.053   3.651  15.869 -0.1984  0.1532  0.3045
 1688SOL    HW116697   0.049   3.555  15.864 -1.6890  0.1225  2.1365
 1688SOL    HW216698   0.146   3.657  15.889 -0.2658  2.4715 -0.0545
 1689SOL     OW16699   1.965   0.522   7.059  0.0210 -0.9790  0.5988
 1689SOL    HW116700   1.945   0.540   6.968  2.6121 -1.5371 -0.0836
 1689SOL    HW216701   2.058   0.547   7.061  0.3625 -2.2524  1.7434
 1690SOL     OW16702   3.054   4.017   8.387 -0.3199  0.4341  0.7068
 1690SOL    HW116703   3.069   4.021   8.293 -1.5825 -2.3605  0.4022
 1690SOL    HW216704   3.105   3.941   8.417 -0.8353 -0.6600 -1.2292
 1691SOL     OW16705   0.083   0.385   2.737  0.3124 -0.0116  0.3396
 1691SOL    HW116706   0.148   0.317   2.720 -0.7864 -0.4660 -2.1905
 1691SOL    HW216707   0.137   0.455   2.773  1.2372  0.6214 -2.2339
 1692SOL     OW16708   2.223   2.592   8.285 -0.1363  0.3228  0.1693
 1692SOL    HW116709   2.255   2.682   8.291  2.1478 -0.6241  2.1800
 1692SOL    HW216710   2.309   2.549   8.287  0.5933  1.8094  1.0065
 1693SOL     OW16711   0.643   0.958   2.670  0.0920  0.2231 -0.8145
 1693SOL    HW116712   0.577   1.027   2.675  1.7079  1.8386 -2.1270
 1693SOL    HW216713   0.599   0.925   2.592  0.1218 -0.8565 -0.3786
 1694SOL     OW16714   3.024   2.698   5.935  0.5079  0.0104  0.8767
 1694SOL    HW116715   2.974   2.634   5.884 -0.1024 -1.0534  2.8113
 1694SOL    HW216716   2.968   2.776   5.934  2.3319  1.2559 -1.7183
 1695SOL     OW16717   0.270   0.581   1.041 -0.1285  0.3588  0.1749
 1695SOL    HW116718   0.297   0.566   0.950  1.3778  0.7460  0.5539
 1695SOL    HW216719   0.339   0.543   1.096 -0.9607 -2.1502 -0.4724
 1696SOL     OW16720   2.553   3.665   9.115  0.0346 -0.1998  0.0166
 1696SOL    HW116721   2.532   3.582   9.071 -3.4314  0.2285  0.8113
 1696SOL    HW216722   2.572   3.638   9.205  1.5109 -2.0078 -0.8291
 1697SOL     OW16723   1.704   1.373   7.398  0.1480  0.0215 -0.1151
 1697SOL    HW116724   1.672   1.413   7.478  1.5272 -1.7351  1.3169
 1697SOL    HW216725   1.695   1.446   7.337 -0.4898 -0.0986 -0.1661
 1698SOL     OW16726   0.724   3.335   7.949 -0.0465  0.3249 -0.2464
 1698SOL    HW116727   0.650   3.278   7.932  0.7609 -0.6041 -0.6837
 1698SOL    HW216728   0.761   3.312   8.034 -1.8649  1.0358  0.7253
 1699SOL     OW16729   3.178   3.546   3.457  0.1898  0.1969 -0.0403
 1699SOL    HW116730   3.172   3.560   3.552 -0.7757 -0.6466  0.0259
 1699SOL    HW216731   3.252   3.604   3.439 -0.1220  0.1391 -1.5087
 1700SOL     OW16732   2.551   2.620   9.907 -0.1569 -0.2991  0.3741
 1700SOL    HW116733   2.493   2.594   9.979  0.1541  0.2579  0.8254
 1700SOL    HW216734   2.492   2.598   9.835  1.9443 -1.2685 -1.0298
 1701SOL     OW16735   1.874   0.226   6.931  0.3057  0.3179  0.5602
 1701SOL    HW116736   1.881   0.293   6.863 -3.9820  0.8145  0.5867
 1701SOL    HW216737   1.835   0.274   7.004 -0.4616  1.1487 -0.3880
 1702SOL     OW16738   0.435   1.373   2.497 -0.3557  0.1760  0.4081
 1702SOL    HW116739   0.452   1.371   2.591 -1.8775 -0.1354  0.6887
 1702SOL    HW216740   0.391   1.457   2.484  1.8646  0.8246 -2.7537
 1703SOL     OW16741   0.197   1.528   9.191  0.1734 -0.0594  0.4449
 1703SOL    HW116742   0.253   1.511   9.266  1.0737 -0.4989 -0.3359
 1703SOL    HW216743   0.231   1.614   9.165 -0.2039 -0.3135 -0.9186
 1704SOL     OW16744   4.487   4.130   8.273  0.0713 -0.1494  0.7211
 1704SOL    HW116745   4.524   4.204   8.321 -3.0771  3.2669 -2.1969
 1704SOL    HW216746   4.410   4.111   8.326 -0.9833  0.1889 -0.7106
 1705SOL     OW16747   2.927   0.422   8.040  0.1053 -0.0283 -0.7203
 1705SOL    HW116748   2.930   0.466   8.125 -3.3089 -0.0545 -0.5849
 1705SOL    HW216749   3.012   0.378   8.036 -0.2105 -1.0061  3.0487
 1706SOL     OW16750   2.208   3.762   1.677 -0.1664  0.1541 -0.3803
 1706SOL    HW116751   2.184   3.711   1.754 -1.7802  0.3970 -0.7208
 1706SOL    HW216752   2.191   3.851   1.709  2.3301  0.0871  1.1191
 1707SOL     OW16753   2.335   1.740   5.505  0.2224 -0.5874 -0.1577
 1707SOL    HW116754   2.316   1.730   5.411  0.7458 -0.6049 -0.2620
 1707SOL    HW216755   2.250   1.751   5.547  0.1375 -3.0090  0.2657
 1708SOL     OW16756   0.121   2.560   2.462  0.3455 -0.1868  0.1313
 1708SOL    HW116757   0.113   2.546   2.556 -1.3170  1.0544  0.1641
 1708SOL    HW216758   0.049   2.622   2.455  0.5085 -0.1293 -1.0532
 1709SOL     OW16759   1.466   2.769   4.797  0.0720  0.0519 -0.0498
 1709SOL    HW116760   1.438   2.780   4.706  1.3206 -4.3531 -0.9875
 1709SOL    HW216761   1.395   2.818   4.839 -0.6180 -0.8799 -0.1158
 1710SOL     OW16762   0.454   4.044   2.148 -0.4270  0.3105 -0.2778
 1710SOL    HW116763   0.412   4.112   2.095  2.1958  1.7224 -0.5312
 1710SOL    HW216764   0.453   4.086   2.235 -0.3501  0.5777 -0.4059
 1711SOL     OW16765   3.185   0.519   2.145  0.0485 -0.4596 -0.3362
 1711SOL    HW116766   3.147   0.529   2.232 -0.3496  3.2886 -0.9340
 1711SOL    HW216767   3.117   0.467   2.104 -1.5965 -1.7450  4.0179
 1712SOL     OW16768   1.679   3.137   7.671 -0.3363 -0.3421  1.3478
 1712SOL    HW116769   1.672   3.056   7.722  0.9927 -3.0637 -2.7441
 1712SOL    HW216770   1.722   3.204   7.725  0.2618 -0.2661  0.7834
 1713SOL     OW16771   3.203   2.560   9.625  0.5124 -0.2279  1.2235
 1713SOL    HW116772   3.226   2.512   9.545 -0.3896  0.6042  0.4707
 1713SOL    HW216773   3.280   2.609   9.654 -0.4687  1.4475  0.9826
 1714SOL     OW16774   4.156   1.955   1.637  0.5521  0.4465  0.2693
 1714SOL    HW116775   4.178   1.862   1.640 -1.2423 -0.0258 -0.9687
 1714SOL    HW216776   4.148   1.978   1.544  0.6437  0.0036  0.1508
 1715SOL     OW16777   0.658   1.580   1.888 -0.1803  0.2708 -0.1494
 1715SOL    HW116778   0.608   1.544   1.962  1.7570 -0.0133  1.0370
 1715SOL    HW216779   0.680   1.669   1.915  2.9020 -1.1810  2.1519
 1716SOL     OW16780   4.437   1.105   6.547  0.3532  0.3810  0.5531
 1716SOL    HW116781   4.485   1.029   6.513  2.0199  1.5368  0.3255
 1716SOL    HW216782   4.379   1.061   6.609  0.0663 -0.6218 -0.4283
 1717SOL     OW16783   2.326   4.494   9.156 -0.3734  0.0035  0.0751
 1717SOL    HW116784   2.421   4.504   9.160 -0.2097 -0.9714 -1.1858
 1717SOL    HW216785   2.331   4.400   9.173  1.2409  0.2083  0.7250
 1718SOL     OW16786   1.133   1.433  15.063 -0.1933  0.0975  0.3529
 1718SOL    HW116787   1.073   1.498  15.025  0.7174 -0.3356 -1.8392
 1718SOL    HW216788   1.072   1.373  15.106 -0.0563  0.1157  0.5692
 1719SOL     OW16789   2.274   3.777   2.308 -0.4485 -0.0262 -0.0292
 1719SOL    HW116790   2.340   3.749   2.244  0.0748  3.0614 -0.8379
 1719SOL    HW216791   2.206   3.802   2.246 -1.6240  0.9706  1.6868
 1720SOL     OW16792   1.415   1.085  17.579 -0.3151 -0.3514  0.4443
 1720SOL    HW116793   1.363   1.078  17.658  1.1259  0.5830  1.4720
 1720SOL    HW216794   1.357   1.034  17.523  3.0400 -1.0184 -2.4414
 1721SOL     OW16795   4.439   2.718   9.179 -0.0051  0.1052 -0.1080
 1721SOL    HW116796   4.395   2.698   9.261 -2.5710  2.2955 -0.9723
 1721SOL    HW216797   4.409   2.807   9.161  0.6442  0.6432  1.4489
 1722SOL     OW16798   1.519   1.233   5.566 -0.3875 -0.3732  0.8724
 1722SOL    HW116799   1.531   1.142   5.594 -1.8305  0.0375  2.7891
 1722SOL    HW216800   1.424   1.235   5.577 -0.7247 -1.0932 -1.9521
 1723SOL     OW16801   0.243   1.278   2.265 -0.1918  0.0846 -0.2256
 1723SOL    HW116802   0.298   1.340   2.314 -0.5912  0.2660  0.0003
 1723SOL    HW216803   0.275   1.303   2.179 -1.9655  0.7056 -0.6935
 1724SOL     OW16804   1.728   1.425   2.662 -1.0600 -1.0685 -0.1309
 1724SOL    HW116805   1.752   1.496   2.603 -1.3283  1.3272  2.6310
 1724SOL    HW216806   1.819   1.398   2.678 -0.2165  2.2359  0.4974
 1725SOL     OW16807   0.328   3.178   4.061  0.4986  0.3698  0.5380
 1725SOL    HW116808   0.308   3.256   4.112 -2.8267 -0.5000  0.5670
 1725SOL    HW216809   0.292   3.190   3.973  1.5346  1.9073  0.3441
 1726SOL     OW16810   3.150   3.739   9.443 -0.7574  0.2171 -0.1404
 1726SOL    HW116811   3.193   3.671   9.494 -2.6761 -2.1151 -1.6293
 1726SOL    HW216812   3.222   3.797   9.417  0.1926 -1.8593 -2.2064
 1727SOL     OW16813   2.479   0.830   1.338  0.2456  0.4019  0.4017
 1727SOL    HW116814   2.500   0.904   1.282 -0.5972 -0.4887 -1.0888
 1727SOL    HW216815   2.560   0.782   1.322  0.3777  0.5029  0.7622
 1728SOL     OW16816   2.556   3.779  14.256  0.3450 -0.1294 -0.0254
 1728SOL    HW116817   2.594   3.769  14.343 -2.2775 -1.4912  0.9550
 1728SOL    HW216818   2.609   3.843  14.207 -2.6786  0.9508 -1.8937
 1729SOL     OW16819   2.822   3.779   9.126  0.2407 -0.1945 -0.3109
 1729SOL    HW116820   2.728   3.786   9.107 -0.0711 -0.0382  1.3246
 1729SOL    HW216821   2.842   3.853   9.184 -1.0443 -0.7333  0.8397
 1730SOL     OW16822   2.000   1.729  12.350  0.4548  0.4417 -0.3183
 1730SOL    HW116823   1.969   1.819  12.365  1.1435  0.1133  3.1487
 1730SOL    HW216824   1.929   1.674  12.383 -0.5217 -0.1150 -3.3509
 1731SOL     OW16825   2.953   0.520   0.482 -0.1075  0.1664  0.7857
 1731SOL    HW116826   3.008   0.594   0.508  0.1320 -0.0933  1.0137
 1731SOL    HW216827   2.865   0.542   0.514 -0.2575 -0.4613  0.8027
 1732SOL     OW16828   0.403   3.273  12.100  0.2540 -0.1108  0.4744
 1732SOL    HW116829   0.393   3.363  12.070 -0.3356 -0.4120 -0.2346
 1732SOL    HW216830   0.471   3.283  12.167  1.7211 -1.1360 -0.8587
 1733SOL     OW16831   1.422   3.909   5.710 -0.1563 -0.4655  0.1807
 1733SOL    HW116832   1.461   3.980   5.761 -3.3962 -0.7458  3.0989
 1733SOL    HW216833   1.358   3.862   5.763  0.4259  0.0165  1.3186
 1734SOL     OW16834   1.453   4.347  14.583  0.4897 -0.1825 -0.6103
 1734SOL    HW116835   1.481   4.322  14.496 -2.1569 -0.4435 -1.3915
 1734SOL    HW216836   1.513   4.301  14.642  1.2063 -1.1316 -2.1148
 1735SOL     OW16837   3.688   2.766   4.497 -0.4772  0.3770  0.7167
 1735SOL    HW116838   3.605   2.767   4.449  0.7446 -1.0119 -1.3967
 1735SOL    HW216839   3.673   2.842   4.553  4.5515  1.3899  0.6622
 1736SOL     OW16840   3.812   0.285  10.554  0.6438 -0.4450 -0.0407
 1736SOL    HW116841   3.823   0.377  10.531  0.8687 -0.3196  0.5642
 1736SOL    HW216842   3.744   0.307  10.618 -0.6621 -1.1815 -1.1736
 1737SOL     OW16843   0.246   2.128   5.574  0.2555 -0.1356  0.2090
 1737SOL    HW116844   0.223   2.129   5.481  1.0976  3.7006  0.0406
 1737SOL    HW216845   0.269   2.219   5.592 -0.7776 -0.1284  1.5219
 1738SOL     OW16846   0.475   1.355   6.688  0.2362 -0.2732  0.1157
 1738SOL    HW116847   0.402   1.309   6.645  0.5401 -0.0955 -0.5882
 1738SOL    HW216848   0.521   1.280   6.726  2.3991  0.6182 -0.7458
 1739SOL     OW16849   3.775   4.566   5.488  0.1467  0.3696  0.1668
 1739SOL    HW116850   3.695   4.514   5.496 -0.6354  1.5796  0.1682
 1739SOL    HW216851   3.781   4.610   5.573 -1.7051 -0.2588  0.6269
 1740SOL     OW16852   3.245   1.104   6.072  0.4539  0.1389 -0.6421
 1740SOL    HW116853   3.164   1.142   6.038 -0.7491 -0.6354  1.3819
 1740SOL    HW216854   3.239   1.138   6.161 -0.5190 -0.3059 -0.5426
 1741SOL     OW16855   1.214   2.921  15.147 -0.4267  0.5901  0.1982
 1741SOL    HW116856   1.165   2.885  15.221 -0.6351 -0.8307 -0.6312
 1741SOL    HW216857   1.285   2.857  15.136 -0.8765  0.2705 -0.8382
 1742SOL     OW16858   1.616   0.837   7.506 -0.4924 -0.0207 -0.6640
 1742SOL    HW116859   1.669   0.763   7.477  0.2813  0.1303  0.3707
 1742SOL    HW216860   1.527   0.805   7.489 -1.1131  1.6973 -0.5822
 1743SOL     OW16861   2.106   3.374  12.798  0.3002  0.3506 -0.4962
 1743SOL    HW116862   2.120   3.290  12.842  0.9487 -0.5396 -2.4290
 1743SOL    HW216863   2.020   3.385  12.838  0.6968  0.6219  0.2762
 1744SOL     OW16864   3.426   2.982  16.297 -0.2443 -0.3083  0.1490
 1744SOL    HW116865   3.368   2.914  16.263 -0.7137  0.6233 -0.9083
 1744SOL    HW216866   3.407   3.062  16.248  1.7170  0.8382  1.2551
 1745SOL     OW16867   0.557   2.892   4.336 -0.6032 -0.4546 -0.5948
 1745SOL    HW116868   0.492   2.944   4.382 -0.7098 -2.6955  1.7844
 1745SOL    HW216869   0.604   2.966   4.298 -0.4718 -0.0102  0.4564
 1746SOL     OW16870   0.057   3.918   2.945 -0.0494  0.7015  0.1516
 1746SOL    HW116871   0.130   3.946   3.000 -0.1149  1.8235 -0.3431
 1746SOL    HW216872   0.017   3.855   3.005 -0.3143 -0.1147 -0.8854
 1747SOL     OW16873   1.556   2.287   5.467 -0.0794 -0.6291 -0.1177
 1747SOL    HW116874   1.594   2.208   5.429 -0.8915 -0.3977 -1.3892
 1747SOL    HW216875   1.552   2.266   5.561 -1.1038  0.8254  0.1704
 1748SOL     OW16876   3.806   0.310   2.031  0.4458 -0.1404  0.2973
 1748SOL    HW116877   3.853   0.256   2.094 -0.0252  0.1477  0.8998
 1748SOL    HW216878   3.765   0.373   2.091 -0.1052 -2.7468  2.6392
 1749SOL     OW16879   3.955   0.924  16.641  1.0591  0.4789  0.2124
 1749SOL    HW116880   4.020   0.984  16.604  0.4493  0.6484 -0.5954
 1749SOL    HW216881   3.926   0.970  16.719  0.7666 -2.2451  1.7248
 1750SOL     OW16882   2.188   1.222   4.321  0.1401 -0.3907  0.3507
 1750SOL    HW116883   2.210   1.277   4.246  0.5496  1.1304  1.5599
 1750SOL    HW216884   2.267   1.232   4.374  0.8250 -0.4333 -0.6787
 1751SOL     OW16885   3.815   0.349  15.122 -1.0476 -0.1452  0.1699
 1751SOL    HW116886   3.894   0.296  15.123 -0.2880  0.9352 -2.3407
 1751SOL    HW216887   3.786   0.348  15.031  0.1533  0.1019 -0.2063
 1752SOL     OW16888   1.057   4.525   7.106 -0.3562  0.0110 -0.1817
 1752SOL    HW116889   1.111   4.465   7.054  0.1318  0.4264 -0.1590
 1752SOL    HW216890   0.994   4.559   7.043 -0.4238 -0.0292 -0.1353
 1753SOL     OW16891   3.584   3.176   5.328 -0.4703  0.4138 -0.5295
 1753SOL    HW116892   3.494   3.209   5.332 -0.1379  1.3727 -1.2518
 1753SOL    HW216893   3.572   3.085   5.356 -1.5009  0.4897 -0.7320
 1754SOL     OW16894   0.129   1.587  12.709  0.3762 -0.4206  0.7078
 1754SOL    HW116895   0.140   1.537  12.628  2.9638  0.1212  0.7229
 1754SOL    HW216896   0.088   1.670  12.684  1.5460  0.3352  1.2901
 1755SOL     OW16897   0.800   2.951   2.521 -0.3322  0.0498  0.1222
 1755SOL    HW116898   0.753   2.964   2.604 -0.9614 -0.6174 -0.1380
 1755SOL    HW216899   0.889   2.939   2.556  0.0124  0.9158 -0.4462
 1756SOL     OW16900   1.310   3.992   1.583 -0.4671 -1.1543 -0.7718
 1756SOL    HW116901   1.260   3.911   1.574  0.0143 -1.7390  1.6887
 1756SOL    HW216902   1.340   3.999   1.492  2.2743 -1.4700  0.0898
 1757SOL     OW16903   1.109   4.416   2.294  0.1920 -0.4797  0.4567
 1757SOL    HW116904   1.038   4.430   2.356 -1.0189 -2.5114 -0.4972
 1757SOL    HW216905   1.181   4.417   2.357  2.1751  0.6131 -1.8251
 1758SOL     OW16906   3.337   0.415   5.954 -0.0529  0.1429  0.5344
 1758SOL    HW116907   3.365   0.505   5.938  0.4316 -0.1083 -0.0361
 1758SOL    HW216908   3.257   0.430   6.005 -0.9725 -1.5948 -0.4112
 1759SOL     OW16909   2.555   1.953   5.857 -0.0829  0.1870  0.4884
 1759SOL    HW116910   2.548   1.889   5.787  0.5804  0.1514  0.4578
 1759SOL    HW216911   2.468   1.993   5.853 -0.7941 -1.2356  1.6641
 1760SOL     OW16912   4.384   2.646   9.476 -0.6917  0.6315  0.0243
 1760SOL    HW116913   4.418   2.726   9.514 -0.6462  0.2515  0.7791
 1760SOL    HW216914   4.426   2.578   9.529 -0.2661 -0.0918 -1.2310
 1761SOL     OW16915   1.718   0.241  11.232 -0.0807 -0.3636  0.2964
 1761SOL    HW116916   1.805   0.261  11.265 -1.1417 -1.2195  3.5799
 1761SOL    HW216917   1.664   0.273  11.305 -0.9336  2.9066 -1.7679
 1762SOL     OW16918   4.289   3.691  12.091  0.5588  0.5528 -0.6357
 1762SOL    HW116919   4.282   3.621  12.155 -1.1247 -0.4507 -1.8994
 1762SOL    HW216920   4.276   3.636  12.013 -0.6898  1.0977 -0.8154
 1763SOL     OW16921   4.356   1.955   7.281  0.3841 -0.8213  0.2327
 1763SOL    HW116922   4.268   1.931   7.310  0.5683 -0.5277  1.0494
 1763SOL    HW216923   4.372   2.026   7.344 -1.1328  0.8162 -1.2250
 1764SOL     OW16924   0.320   3.068   5.951  0.3557  0.0846  0.5016
 1764SOL    HW116925   0.260   3.046   5.880 -0.2183  2.1296  0.3452
 1764SOL    HW216926   0.306   3.162   5.965  1.9816  0.8048 -2.9766
 1765SOL     OW16927   2.840   3.190  14.486  0.0469 -0.3187  0.7604
 1765SOL    HW116928   2.860   3.163  14.396  0.9529 -1.0410  1.1707
 1765SOL    HW216929   2.806   3.276  14.463 -0.5856 -0.3371  1.6523
 1766SOL     OW16930   2.828   0.320   3.203  0.1272 -0.0794 -0.1642
 1766SOL    HW116931   2.902   0.357   3.153  1.9871 -0.9990  1.9000
 1766SOL    HW216932   2.780   0.278   3.132  0.8219  0.6856 -1.0921
 1767SOL     OW16933   3.880   0.268   2.520 -0.6148 -0.0622 -0.0035
 1767SOL    HW116934   3.917   0.340   2.470 -0.6694 -2.2218 -3.1902
 1767SOL    HW216935   3.948   0.247   2.583 -1.4559  0.2601  1.0125
 1768SOL     OW16936   2.960   3.124   6.775 -0.2664  0.3354 -0.4591
 1768SOL    HW116937   2.931   3.157   6.690 -0.2682  0.9173 -0.2344
 1768SOL    HW216938   2.901   3.174   6.831  0.2983 -0.8240  1.1672
 1769SOL     OW16939   0.435   4.124  13.178 -0.0586  0.5808  0.4993
 1769SOL    HW116940   0.408   4.213  13.199 -0.9134  0.3150  0.5297
 1769SOL    HW216941   0.351   4.080  13.190  0.8525 -1.2036  0.4453
 1770SOL     OW16942   1.614   4.275   2.272 -0.1591 -0.5593 -0.3500
 1770SOL    HW116943   1.563   4.194   2.277  0.4355 -0.8792  0.5815
 1770SOL    HW216944   1.639   4.268   2.180  1.3321  0.2012  0.0133
 1771SOL     OW16945   2.727   0.576   3.313 -0.1039  0.0498 -0.5057
 1771SOL    HW116946   2.737   0.481   3.322  0.4947 -0.1261 -2.9039
 1771SOL    HW216947   2.633   0.588   3.326  0.3785 -0.5598  3.4492
 1772SOL     OW16948   0.302   0.546   7.873 -0.0649 -0.6224  0.1290
 1772SOL    HW116949   0.362   0.616   7.845 -0.4072 -0.3917 -0.0235
 1772SOL    HW216950   0.350   0.497   7.940  1.2834 -0.1751 -0.5187
 1773SOL     OW16951   4.651   0.115  12.945  0.0945 -0.1991 -0.6641
 1773SOL    HW116952   4.680   0.026  12.964 -0.2763 -0.2768 -0.4503
 1773SOL    HW216953   4.729   0.168  12.961 -0.6143  0.8480 -0.6408
 1774SOL     OW16954   4.636   2.370   4.081  0.2333  0.2884 -0.1956
 1774SOL    HW116955   4.720   2.327   4.092  1.3379  2.1199 -1.4577
 1774SOL    HW216956   4.656   2.419   4.001  0.2641  1.1102  0.3109
 1775SOL     OW16957   2.601   4.243   5.123  0.1992 -0.1341  0.1078
 1775SOL    HW116958   2.588   4.256   5.217  1.4742 -0.5949  0.3422
 1775SOL    HW216959   2.508   4.233   5.104 -0.2336  1.5258  1.3380
 1776SOL     OW16960   2.107   0.143  10.375  0.0518 -0.6156  0.1809
 1776SOL    HW116961   2.039   0.099  10.426 -0.6151  1.4859  1.1031
 1776SOL    HW216962   2.062   0.153  10.291  0.9086  1.0100 -0.0735
 1777SOL     OW16963   2.658   2.125   6.783  0.7071 -0.2026  0.0071
 1777SOL    HW116964   2.680   2.156   6.871 -0.1629  1.2529 -0.3053
 1777SOL    HW216965   2.570   2.161   6.770  0.8445 -0.1300 -0.7019
 1778SOL     OW16966   4.279   0.131   1.786  0.0456 -0.2851 -0.3005
 1778SOL    HW116967   4.205   0.192   1.787  0.9734  0.7768  2.0626
 1778SOL    HW216968   4.313   0.148   1.874 -1.4206  1.7648 -0.1265
 1779SOL     OW16969   0.108   2.338   2.268  0.0064 -0.3037 -0.3361
 1779SOL    HW116970   0.133   2.404   2.332  0.4807  1.5905 -2.4833
 1779SOL    HW216971   0.193   2.312   2.234  0.2760 -0.2094  0.2618
 1780SOL     OW16972   0.747   4.576   2.025  0.0077 -0.1944 -0.2835
 1780SOL    HW116973   0.698   4.658   2.035  1.9948  0.7648  1.5737
 1780SOL    HW216974   0.701   4.521   2.088  1.1702 -0.3457  0.4259
 1781SOL     OW16975   1.535   0.310   7.380  0.4430  0.1955  0.0985
 1781SOL    HW116976   1.559   0.253   7.453 -0.7527 -0.3145  0.0946
 1781SOL    HW216977   1.593   0.291   7.306 -2.1047 -3.3022 -0.9901
 1782SOL     OW16978   4.548   2.557   7.056  0.1327 -0.5740  0.3485
 1782SOL    HW116979   4.618   2.540   7.119  1.8037 -2.9291 -2.1540
 1782SOL    HW216980   4.478   2.580   7.117 -0.1401 -1.7816  0.5012
 1783SOL     OW16981   4.121   0.198  14.564  0.1569 -0.4324  0.4136
 1783SOL    HW116982   4.095   0.284  14.531 -0.6875  0.8977  4.6422
 1783SOL    HW216983   4.037   0.170  14.601  0.7400 -1.8200  0.6658
 1784SOL     OW16984   2.972   2.666   2.315 -0.1869  0.1643  0.4121
 1784SOL    HW116985   2.986   2.760   2.329  2.1138  0.1095 -1.4679
 1784SOL    HW216986   3.063   2.643   2.296  0.2064  1.7754  0.3230
 1785SOL     OW16987   0.510   1.916  11.106 -0.2053 -0.0978 -0.1568
 1785SOL    HW116988   0.442   1.896  11.042  0.2998 -1.9182 -0.1176
 1785SOL    HW216989   0.487   2.002  11.142 -2.8618  0.6618 -3.7284
 1786SOL     OW16990   1.834   4.695   6.975 -0.3604 -0.6466 -0.3900
 1786SOL    HW116991   1.750   4.702   7.022  0.5327 -1.1252  1.2680
 1786SOL    HW216992   1.866   0.049   6.974 -1.7054 -0.2036 -3.7226
 1787SOL     OW16993   0.783   0.701   5.745  0.0696  0.0130 -0.3591
 1787SOL    HW116994   0.712   0.638   5.756 -0.1466  0.2317 -0.5107
 1787SOL    HW216995   0.837   0.661   5.814 -0.8597 -2.0931 -0.8702
 1788SOL     OW16996   1.314   1.730   8.566 -1.1920  0.6560  0.1899
 1788SOL    HW116997   1.360   1.647   8.575 -0.9605  0.8420  0.7373
 1788SOL    HW216998   1.280   1.735   8.656  2.2728  3.0919  1.4072
 1789SOL     OW16999   2.908   1.785  12.663 -0.5502  0.4717 -0.5153
 1789SOL    HW117000   2.919   1.693  12.641  1.6349  1.1991 -2.4126
 1789SOL    HW217001   2.833   1.811  12.610 -0.0059  1.8450 -0.6196
 1790SOL     OW17002   0.838   0.976   1.967  0.2470  0.5495 -0.5202
 1790SOL    HW117003   0.792   0.893   1.957  0.9860 -0.1050  1.4018
 1790SOL    HW217004   0.889   0.962   2.047  0.4991  2.6900 -0.3117
 1791SOL     OW17005   3.537   1.911  14.588 -0.2051  0.1247 -0.2745
 1791SOL    HW117006   3.457   1.859  14.581  1.5191 -2.6524  0.4293
 1791SOL    HW217007   3.570   1.884  14.673 -0.6646  1.2796  0.2611
 1792SOL     OW17008   3.018   2.926   2.819  0.3112  0.2702  0.7486
 1792SOL    HW117009   3.015   2.834   2.794 -0.1441  0.9006 -1.5681
 1792SOL    HW217010   2.945   2.945   2.760  1.9229  0.7021 -1.1235
 1793SOL     OW17011   0.986   1.247  13.178  0.3238 -0.0877 -0.2326
 1793SOL    HW117012   0.994   1.300  13.257  1.0167 -0.9272  0.2545
 1793SOL    HW217013   1.004   1.155  13.199  1.2460  0.3653  0.9493
 1794SOL     OW17014   1.722   1.233   7.765 -0.2255  0.3808  0.5319
 1794SOL    HW117015   1.706   1.173   7.692 -2.6633  1.8698 -0.1802
 1794SOL    HW217016   1.707   1.174   7.838 -0.9140 -0.8964 -0.6465
 1795SOL     OW17017   4.393   2.680  16.768  0.1531 -0.2637 -0.0056
 1795SOL    HW117018   4.330   2.609  16.760 -0.1996  0.2019 -1.2564
 1795SOL    HW217019   4.333   2.754  16.777  0.1640  0.2913 -4.6475
 1796SOL     OW17020   4.491   2.869   9.556  0.0128 -0.2075 -0.0865
 1796SOL    HW117021   4.463   2.958   9.574  1.1899 -0.4945  3.1377
 1796SOL    HW217022   4.492   2.828   9.643  0.9614  1.6517  0.7871
 1797SOL     OW17023   2.478   1.521   7.089 -0.0418 -0.2085  0.3729
 1797SOL    HW117024   2.451   1.530   6.997 -2.1318 -1.0463  0.8978
 1797SOL    HW217025   2.519   1.603   7.114 -0.1464  0.2436 -0.9144
 1798SOL     OW17026   1.092   4.231   8.697  0.7530 -0.1094 -0.1932
 1798SOL    HW117027   1.168   4.289   8.693 -0.2379  1.0824 -2.0505
 1798SOL    HW217028   1.115   4.165   8.632  0.3778  1.2454 -1.7097
 1799SOL     OW17029   0.751   3.336  15.115 -0.6553 -0.4363 -0.4033
 1799SOL    HW117030   0.689   3.347  15.187  0.7266 -1.1915  0.8778
 1799SOL    HW217031   0.773   3.424  15.085 -2.6856  0.1891 -0.0420
 1800SOL     OW17032   0.227   2.277  11.086 -0.0472 -0.1099 -0.2467
 1800SOL    HW117033   0.308   2.242  11.123 -0.2658  1.8695  2.0563
 1800SOL    HW217034   0.173   2.250  11.160 -0.3110 -1.5300 -0.9531
 1801SOL     OW17035   3.773   3.269   2.854 -0.3707  0.3904  0.3179
 1801SOL    HW117036   3.723   3.253   2.774  0.6976  2.6195 -0.8012
 1801SOL    HW217037   3.859   3.280   2.814  0.3002 -0.2056  1.5881
 1802SOL     OW17038   3.827   1.182   7.176 -0.0641  0.0542  0.3618
 1802SOL    HW117039   3.875   1.106   7.209  1.4360  0.4423 -0.9642
 1802SOL    HW217040   3.868   1.257   7.219  0.2330  0.4257 -0.5873
 1803SOL     OW17041   0.645   1.593  16.275 -0.2516 -0.2545  0.0146
 1803SOL    HW117042   0.695   1.553  16.205  0.9838  0.8109  0.2879
 1803SOL    HW217043   0.612   1.663  16.219  0.1886  0.8170  1.1014
 1804SOL     OW17044   1.751   0.040   9.648  0.3812 -0.3184  0.2980
 1804SOL    HW117045   1.770   0.053   9.555  0.6479  4.0561  0.9939
 1804SOL    HW217046   1.753   4.680   9.656 -2.1345 -0.2377  1.7732
 1805SOL     OW17047   4.537   0.238   0.372 -0.9568 -0.1709 -0.2332
 1805SOL    HW117048   4.606   0.194   0.422 -1.0434  0.6593  0.6144
 1805SOL    HW217049   4.489   0.162   0.339 -1.0921 -1.0279  1.8865
 1806SOL     OW17050   3.777   1.933   2.058  0.1450 -0.4928 -0.3973
 1806SOL    HW117051   3.752   2.025   2.065  1.7745 -0.1479  0.8094
 1806SOL    HW217052   3.863   1.947   2.017  0.3220 -0.8508 -0.1432
 1807SOL     OW17053   1.360   2.411  17.111  0.0177  0.8058 -1.3228
 1807SOL    HW117054   1.296   2.423  17.041 -0.7770 -2.4537 -1.1649
 1807SOL    HW217055   1.385   2.503  17.117  1.0249  0.6259 -2.8158
 1808SOL     OW17056   2.575   0.991   8.938  0.3545  0.4332  0.6850
 1808SOL    HW117057   2.523   0.994   9.019  2.2793  1.8802  1.8821
 1808SOL    HW217058   2.529   0.929   8.882 -0.6899  0.7597  1.1873
 1809SOL     OW17059   4.691   0.664   6.769  0.1423 -0.2324  0.1637
 1809SOL    HW117060   4.728   0.752   6.773  1.2758 -0.5887 -2.4034
 1809SOL    HW217061   4.698   0.640   6.861 -0.5569  1.5073  0.6562
 1810SOL     OW17062   0.659   2.945  13.217  0.0253  0.1148 -0.3575
 1810SOL    HW117063   0.723   2.984  13.277 -0.5730  0.4972  0.0330
 1810SOL    HW217064   0.595   3.015  13.225 -1.2994 -1.2020  0.4744
 1811SOL     OW17065   3.333   2.438   1.950 -0.0365  0.3177 -0.2442
 1811SOL    HW117066   3.240   2.439   1.974  0.0770  1.9444  0.1335
 1811SOL    HW217067   3.355   2.353   1.912 -1.2160  0.6010 -1.5280
 1812SOL     OW17068   1.334   3.777   8.747  0.4588  0.2111 -0.4993
 1812SOL    HW117069   1.414   3.822   8.773 -0.4352 -0.4713  3.4203
 1812SOL    HW217070   1.372   3.696   8.714  0.8353  0.8365 -1.5989
 1813SOL     OW17071   1.087   1.964   5.038  0.3154 -0.3761  0.2974
 1813SOL    HW117072   1.116   2.035   5.097 -0.1499 -0.3078  0.4460
 1813SOL    HW217073   1.071   1.905   5.112 -0.2222 -0.8967 -0.2361
 1814SOL     OW17074   3.092   1.360   8.524  0.0004  0.4374 -0.1893
 1814SOL    HW117075   3.016   1.349   8.581 -0.3216 -0.0438 -0.7125
 1814SOL    HW217076   3.097   1.456   8.522 -0.2964  0.4445 -0.5135
 1815SOL     OW17077   0.683   0.260   2.479  0.3778  0.4037  0.2843
 1815SOL    HW117078   0.696   0.242   2.386  0.1867  1.2910  0.0744
 1815SOL    HW217079   0.617   0.330   2.478 -0.4489 -0.3472  1.2079
 1816SOL     OW17080   1.182   1.599  11.279 -0.3536 -0.3792 -0.0211
 1816SOL    HW117081   1.172   1.506  11.258 -1.3298 -0.2185 -0.2686
 1816SOL    HW217082   1.232   1.631  11.204  0.1219 -0.7609  0.1319
 1817SOL     OW17083   2.120   1.498   8.594 -0.1225 -0.0824 -0.0263
 1817SOL    HW117084   2.134   1.438   8.521  0.1767 -0.5315  0.4001
 1817SOL    HW217085   2.213   1.512   8.612  0.0907  0.9220 -1.8825
 1818SOL     OW17086   0.132   2.558   3.462  0.1640  0.3902 -0.1613
 1818SOL    HW117087   0.120   2.555   3.557 -0.9936 -0.7622 -0.3376
 1818SOL    HW217088   0.126   2.653   3.447  1.0908  0.5994  0.8226
 1819SOL     OW17089   1.015   2.234   8.645  0.6368 -0.3154 -0.2662
 1819SOL    HW117090   1.072   2.180   8.590  1.0313 -0.4118  0.2425
 1819SOL    HW217091   0.960   2.157   8.653  2.2692 -1.2211  2.0925
 1820SOL     OW17092   1.936   1.821  16.369 -0.1844 -0.3478 -0.2273
 1820SOL    HW117093   1.973   1.909  16.362  0.3854 -0.3865  2.5118
 1820SOL    HW217094   1.969   1.791  16.454  0.5301 -1.3051 -0.8489
 1821SOL     OW17095   3.570   2.981   6.279 -0.0759  0.0358 -0.1726
 1821SOL    HW117096   3.567   2.968   6.374  2.1540  1.1676  0.0546
 1821SOL    HW217097   3.596   3.073   6.279  1.5644 -0.4307 -2.7273
 1822SOL     OW17098   3.876   2.659  12.477  0.1407  0.1699  0.1478
 1822SOL    HW117099   3.953   2.611  12.507  0.5844  0.7023 -0.1406
 1822SOL    HW217100   3.828   2.637  12.556 -0.6315  1.5571  0.0618
 1823SOL     OW17101   4.269   2.519   4.441 -0.4123  0.3145 -0.0179
 1823SOL    HW117102   4.277   2.502   4.347  1.8934  0.7310  0.0852
 1823SOL    HW217103   4.244   2.430   4.464  1.1274 -0.0266  0.3510
 1824SOL     OW17104   2.222   3.457   4.205 -0.0724 -0.0508 -0.3093
 1824SOL    HW117105   2.137   3.449   4.248  1.2120 -0.2500  2.1688
 1824SOL    HW217106   2.204   3.531   4.147 -1.6274  0.5189  0.9090
 1825SOL     OW17107   4.602   1.117   8.767  0.2142 -0.0566  0.5493
 1825SOL    HW117108   4.576   1.094   8.678  1.8012  0.5195 -0.0592
 1825SOL    HW217109   4.521   1.155   8.802 -0.4265 -0.1028 -0.8627
 1826SOL     OW17110   1.467   4.668   0.935  0.5353  0.3195 -0.1512
 1826SOL    HW117111   1.445   0.020   0.905  0.8961  0.6288  0.4747
 1826SOL    HW217112   1.412   4.612   0.881  0.0533  0.3784  0.2845
 1827SOL     OW17113   2.798   3.051   4.291  0.1958 -0.4572 -0.0076
 1827SOL    HW117114   2.863   3.054   4.362  1.1704  2.2209 -1.0390
 1827SOL    HW217115   2.804   3.137   4.250 -1.2017 -1.3374 -2.0460
 1828SOL     OW17116   3.518   3.680   8.537  0.0787  0.3591 -0.5067
 1828SOL    HW117117   3.507   3.588   8.516  3.4527 -0.3023  0.5724
 1828SOL    HW217118   3.431   3.717   8.549 -0.3074 -0.7411  0.0347
 1829SOL     OW17119   0.159   0.335   3.615  0.3568  0.0514 -0.3093
 1829SOL    HW117120   0.213   0.364   3.542  3.0481 -1.0817  1.2458
 1829SOL    HW217121   0.213   0.271   3.662  1.3847  0.4007 -1.0212
 1830SOL     OW17122   0.906   4.190  15.516  0.4135 -0.1920 -0.2883
 1830SOL    HW117123   0.951   4.189  15.431  0.2072 -1.9991 -0.3730
 1830SOL    HW217124   0.813   4.200  15.495 -0.3845 -3.0710  1.9107
 1831SOL     OW17125   2.806   0.933   4.451 -0.0369 -0.0639  0.0804
 1831SOL    HW117126   2.856   0.867   4.500  2.0268  0.0028 -1.9501
 1831SOL    HW217127   2.807   0.898   4.362  0.7757  1.4477 -0.5106
 1832SOL     OW17128   3.343   3.155   4.921 -0.2661 -0.3236  0.2886
 1832SOL    HW117129   3.416   3.107   4.959  1.7977  3.0597  0.5867
 1832SOL    HW217130   3.277   3.086   4.923  0.6104 -1.1584  0.3782
 1833SOL     OW17131   2.389   3.437   7.202  0.0495  0.2353  0.1578
 1833SOL    HW117132   2.440   3.368   7.159  0.8989  0.2589  1.1341
 1833SOL    HW217133   2.434   3.514   7.168 -0.8158 -0.0137 -1.5461
 1834SOL     OW17134   0.355   3.698   8.904  0.6832 -0.0696  1.5942
 1834SOL    HW117135   0.434   3.658   8.938  1.7087 -0.5444 -1.3051
 1834SOL    HW217136   0.354   3.785   8.944 -2.8617 -0.5330  2.5409
 1835SOL     OW17137   1.577   0.263  17.647 -0.2229 -0.4102  0.0526
 1835SOL    HW117138   1.537   0.338  17.602  2.0059  0.4660 -0.4304
 1835SOL    HW217139   1.526   0.254  17.728 -2.0652  0.9778 -0.9299
 1836SOL     OW17140   4.460   3.421   7.230 -0.3461  0.3820  0.3760
 1836SOL    HW117141   4.513   3.437   7.307 -3.6529  0.0644  2.7190
 1836SOL    HW217142   4.507   3.467   7.160  0.5774  0.7691  1.2555
 1837SOL     OW17143   4.152   2.436   1.919 -0.3121 -0.5920 -0.4730
 1837SOL    HW117144   4.177   2.353   1.960  1.9823  0.6887  0.7813
 1837SOL    HW217145   4.232   2.489   1.928 -0.9548  0.6347 -1.9163
 1838SOL     OW17146   1.660   2.737  16.808  0.0587 -0.4004 -0.2234
 1838SOL    HW117147   1.629   2.770  16.892 -0.0633 -0.3993 -0.2694
 1838SOL    HW217148   1.596   2.667  16.795  0.5390 -1.1731  1.5965
 1839SOL     OW17149   1.755   0.712   5.340  0.5431  0.4385 -0.3278
 1839SOL    HW117150   1.689   0.767   5.298  0.7656  0.8708 -0.1113
 1839SOL    HW217151   1.809   0.777   5.386 -0.1042 -1.2332  2.7555
 1840SOL     OW17152   3.620   1.428  17.321 -0.0524  0.6267  0.1466
 1840SOL    HW117153   3.633   1.488  17.395 -1.9781  1.6770 -0.3604
 1840SOL    HW217154   3.693   1.366  17.318  1.3640  2.2790  0.5917
 1841SOL     OW17155   3.376   4.153   5.448 -0.3049 -0.4518 -0.0313
 1841SOL    HW117156   3.366   4.188   5.359 -1.2159  0.5480  0.4729
 1841SOL    HW217157   3.464   4.119   5.433 -0.9962 -2.1485 -0.2648
 1842SOL     OW17158   3.449   1.437   7.002 -0.5495 -0.0761 -0.2406
 1842SOL    HW117159   3.483   1.459   7.089 -1.6400 -0.6108  0.3120
 1842SOL    HW217160   3.436   1.521   6.956  0.0585  0.4162  0.4848
 1843SOL     OW17161   0.745   3.480  17.016  0.3646  0.0013  0.4839
 1843SOL    HW117162   0.651   3.493  17.028  0.6324  3.1226 -0.9391
 1843SOL    HW217163   0.788   3.510  17.096 -0.5219 -0.0479  0.9776
 1844SOL     OW17164   2.823   1.585  11.587  0.3981 -0.1387 -0.0623
 1844SOL    HW117165   2.834   1.645  11.662 -1.1417 -0.2161  0.2401
 1844SOL    HW217166   2.765   1.631  11.526  0.7222  0.4186  0.0499
 1845SOL     OW17167   0.023   4.033  15.258 -0.0211 -0.3277 -0.6231
 1845SOL    HW117168   0.095   4.089  15.288 -1.9345  1.1113  1.2545
 1845SOL    HW217169   0.012   3.973  15.332 -2.5732 -0.7003 -1.3060
 1846SOL     OW17170   3.903   2.709   4.102 -0.3205  0.0359  0.3837
 1846SOL    HW117171   3.902   2.724   4.197 -0.3257  2.9148 -0.0741
 1846SOL    HW217172   3.989   2.668   4.094 -0.6730 -0.7740  0.6813
 1847SOL     OW17173   0.847   3.490   2.862 -0.6307 -0.2957 -0.4481
 1847SOL    HW117174   0.784   3.418   2.872 -0.9647  0.3020  1.7537
 1847SOL    HW217175   0.900   3.468   2.939  0.7785 -0.6953 -1.5389
 1848SOL     OW17176   4.350   3.887   5.366 -0.1279 -0.1356 -0.2399
 1848SOL    HW117177   4.333   3.821   5.299 -0.5587  0.2709 -0.5305
 1848SOL    HW217178   4.446   3.894   5.365 -0.0425 -1.6456 -1.7399
 1849SOL     OW17179   2.733   4.714   7.015  0.0804 -0.1850 -0.5957
 1849SOL    HW117180   2.765   0.068   7.024 -0.8354  0.3356 -2.5604
 1849SOL    HW217181   2.643   4.726   6.983 -0.3443  1.7592  1.2980
 1850SOL     OW17182   0.727   2.286   4.799  0.2760  0.4145  0.1346
 1850SOL    HW117183   0.780   2.252   4.871  0.7123 -0.1503 -0.4491
 1850SOL    HW217184   0.637   2.274   4.829  0.3178  1.1980  0.5800
 1851SOL     OW17185   0.789   3.918   0.599  0.2723  0.0533 -0.1966
 1851SOL    HW117186   0.774   4.008   0.572  0.7527 -0.0449 -0.8097
 1851SOL    HW217187   0.855   3.937   0.666  1.1446 -0.7777 -0.8207
 1852SOL     OW17188   4.088   1.335   8.031  0.4130 -0.1819  0.4216
 1852SOL    HW117189   4.079   1.242   8.008 -0.8651  0.5506 -1.9890
 1852SOL    HW217190   3.996   1.361   8.032  0.8624  1.3550  2.2405
 1853SOL     OW17191   1.316   3.636   8.987  0.1230 -0.4698 -0.4090
 1853SOL    HW117192   1.314   3.678   8.901 -0.8277 -0.2420 -0.2728
 1853SOL    HW217193   1.251   3.566   8.984  1.3601 -1.6734  1.3112
 1854SOL     OW17194   3.888   0.590  14.642  1.4835  0.0400  0.1087
 1854SOL    HW117195   3.971   0.572  14.686  2.3702  0.7635 -1.2525
 1854SOL    HW217196   3.857   0.504  14.614  2.7159 -1.1589  2.4168
 1855SOL     OW17197   0.283   3.670   2.958 -0.1301  0.4669  0.5471
 1855SOL    HW117198   0.344   3.731   2.917 -2.1898  1.0283 -1.6383
 1855SOL    HW217199   0.312   3.684   3.048 -1.9776  0.1231  1.1950
 1856SOL     OW17200   0.492   2.510  16.150  0.6804 -0.2657  0.2015
 1856SOL    HW117201   0.457   2.596  16.126  1.8181  0.4062  0.9526
 1856SOL    HW217202   0.583   2.511  16.119  0.3945  2.0092 -0.5482
 1857SOL     OW17203   4.028   3.197   4.916 -0.7379 -0.2257  0.1256
 1857SOL    HW117204   4.084   3.263   4.954 -0.6256  0.3425 -1.0109
 1857SOL    HW217205   3.978   3.256   4.859  1.6247  2.0851  0.4786
 1858SOL     OW17206   0.121   3.088   6.631  0.1279  0.3342 -0.3119
 1858SOL    HW117207   0.041   3.141   6.636  0.9500  1.4332  1.2188
 1858SOL    HW217208   0.093   3.005   6.668  0.5295 -0.6932 -2.2900
 1859SOL     OW17209   1.867   2.360   8.447  0.1643  0.2513  0.8636
 1859SOL    HW117210   1.907   2.437   8.406 -0.7590 -0.5364 -1.4931
 1859SOL    HW217211   1.864   2.394   8.537 -0.5743 -1.5281  1.5064
 1860SOL     OW17212   3.799   1.496   5.749 -0.5053 -0.1095 -0.1038
 1860SOL    HW117213   3.859   1.435   5.704 -0.8265  0.5241 -1.4009
 1860SOL    HW217214   3.867   1.531   5.806  0.6970  1.8945 -2.7724
 1861SOL     OW17215   1.629   3.919  10.102  0.1504 -0.1291 -0.4413
 1861SOL    HW117216   1.536   3.913  10.080  0.1790 -0.6943 -0.3955
 1861SOL    HW217217   1.670   3.902  10.016  0.1872  1.6739 -0.7832
 1862SOL     OW17218   0.315   3.118   6.429 -0.0555 -0.3463  0.7740
 1862SOL    HW117219   0.248   3.107   6.497  0.3917  0.8202  1.4088
 1862SOL    HW217220   0.403   3.120   6.468  0.0996 -1.0772  0.4619
 1863SOL     OW17221   0.892   1.188   6.572 -0.7065  0.2020  0.1653
 1863SOL    HW117222   0.905   1.282   6.562 -1.5494  0.4750  1.6265
 1863SOL    HW217223   0.867   1.181   6.664  0.6281 -1.0446  0.4269
 1864SOL     OW17224   0.505   4.269   0.550 -0.0643  0.3210 -0.2844
 1864SOL    HW117225   0.419   4.303   0.528 -0.0672  0.8009  0.4395
 1864SOL    HW217226   0.487   4.176   0.540  1.5049  0.0918 -1.0321
 1865SOL     OW17227   1.503   2.930   1.988  0.2409  0.5883 -0.5373
 1865SOL    HW117228   1.533   3.011   1.945 -1.1462  2.0764  1.3117
 1865SOL    HW217229   1.581   2.905   2.037 -0.3274 -1.9919 -0.9676
 1866SOL     OW17230   3.692   3.848   9.327  0.4775  0.2774 -0.5270
 1866SOL    HW117231   3.706   3.770   9.381 -0.2210  0.0312 -0.7030
 1866SOL    HW217232   3.695   3.911   9.399  3.5116 -0.2393 -0.2022
 1867SOL     OW17233   4.535   1.935   6.810 -0.2859  0.0056  0.7582
 1867SOL    HW117234   4.596   2.008   6.813  1.5252 -1.5170  0.8224
 1867SOL    HW217235   4.523   1.898   6.897  0.0640  0.7291  1.1151
 1868SOL     OW17236   1.027   1.451   8.196 -0.4832 -0.5484  0.3996
 1868SOL    HW117237   1.104   1.394   8.187 -0.4945 -0.6021  0.6622
 1868SOL    HW217238   1.074   1.513   8.252 -1.2112  1.3606 -1.1063
 1869SOL     OW17239   2.414   1.731  13.758  0.0169  0.5246  0.0425
 1869SOL    HW117240   2.409   1.638  13.778 -1.2254  0.7151  0.6192
 1869SOL    HW217241   2.451   1.770  13.838 -0.7881 -1.0563  1.1927
 1870SOL     OW17242   0.604   1.583  16.566 -0.6947  0.6298  0.1797
 1870SOL    HW117243   0.626   1.600  16.475 -0.5991  0.2569  0.1340
 1870SOL    HW217244   0.667   1.516  16.594 -2.0265  0.0941  1.9122
 1871SOL     OW17245   1.674   0.094   7.528  0.3560 -0.3916 -0.4108
 1871SOL    HW117246   1.739   0.077   7.460  0.1609 -1.0633 -0.4336
 1871SOL    HW217247   1.703   0.035   7.597  1.3098 -0.4477 -0.8671
 1872SOL     OW17248   3.895   2.409   7.905 -0.4600 -0.1527 -0.2984
 1872SOL    HW117249   3.918   2.366   7.987 -2.6780  0.5557  0.6774
 1872SOL    HW217250   3.849   2.335   7.866  2.3753 -2.2491  0.2728
 1873SOL     OW17251   2.151   0.803  17.612  0.6854 -0.0826 -0.2242
 1873SOL    HW117252   2.079   0.866  17.602  1.3078  0.7279  0.4708
 1873SOL    HW217253   2.129   0.747  17.538 -0.6254  2.1238 -1.5089
 1874SOL     OW17254   1.486   4.231   6.817  0.7399 -0.3552 -0.5285
 1874SOL    HW117255   1.456   4.142   6.797 -0.9792  0.7064 -2.6057
 1874SOL    HW217256   1.500   4.234   6.912 -0.8363  0.2263 -0.3098
 1875SOL     OW17257   0.098   4.492  10.011 -0.0437  0.5649 -0.3391
 1875SOL    HW117258   0.188   4.509  10.039  0.5117 -1.3760 -0.9095
 1875SOL    HW217259   0.087   4.568   9.955 -0.5152  1.2746  0.7272
 1876SOL     OW17260   2.996   0.723   7.392  0.8161  0.8159 -0.0337
 1876SOL    HW117261   3.006   0.804   7.443  0.7150  0.5591  0.3957
 1876SOL    HW217262   2.952   0.683   7.467  0.6633 -0.0165 -0.5678
 1877SOL     OW17263   2.998   4.062   7.178  0.3489  0.0952 -0.2850
 1877SOL    HW117264   2.939   4.122   7.223 -1.5833 -1.2600 -1.0359
 1877SOL    HW217265   2.942   4.036   7.105 -0.4605  0.0180  0.3686
 1878SOL     OW17266   2.694   2.702   2.048 -0.2894  0.1377  0.0254
 1878SOL    HW117267   2.622   2.758   2.019  0.5918  1.0510 -0.4144
 1878SOL    HW217268   2.720   2.752   2.126  1.2421 -3.3279  1.7413
 1879SOL     OW17269   4.504   2.627   2.916 -0.5944  0.5616 -0.1368
 1879SOL    HW117270   4.558   2.578   2.978 -0.0622  2.0703  0.5958
 1879SOL    HW217271   4.425   2.573   2.909 -0.7899  0.9622 -1.0527
 1880SOL     OW17272   3.884   3.251  12.915 -0.6998 -0.6512 -0.2461
 1880SOL    HW117273   3.922   3.270  13.000  0.3628 -0.5461 -0.7421
 1880SOL    HW217274   3.798   3.216  12.938 -1.3702  0.7003 -0.7314
 1881SOL     OW17275   2.758   1.513  11.030 -0.3082  0.4096  0.2885
 1881SOL    HW117276   2.725   1.456  10.961 -0.0006 -1.6470  1.8114
 1881SOL    HW217277   2.842   1.468  11.046 -0.3450 -0.7131 -2.7244
 1882SOL     OW17278   4.007   0.075   8.755  0.4470  0.5336 -0.3438
 1882SOL    HW117279   4.039   0.008   8.816  2.8840  1.3556 -0.7395
 1882SOL    HW217280   3.952   0.129   8.812  0.8815  0.7582 -0.1419
 1883SOL     OW17281   0.042   0.395   7.882  0.5469  0.9148  0.2931
 1883SOL    HW117282   0.137   0.410   7.883  0.6986 -0.2886  3.5764
 1883SOL    HW217283   0.030   0.379   7.788 -0.8817 -0.2570  0.6815
 1884SOL     OW17284   4.285   1.710   6.963  0.0632  0.0877  0.2385
 1884SOL    HW117285   4.237   1.680   7.040  1.7116  0.1244  1.2710
 1884SOL    HW217286   4.249   1.798   6.959 -2.9974 -1.1535 -0.3719
 1885SOL     OW17287   1.924   1.336   4.446  0.1430  0.3786 -0.1190
 1885SOL    HW117288   2.013   1.318   4.417  0.2229  1.3125 -0.4487
 1885SOL    HW217289   1.914   1.420   4.401  1.1052  0.0597 -0.9084
 1886SOL     OW17290   2.878   4.588  16.241  0.4247 -0.2642  0.0807
 1886SOL    HW117291   2.944   4.657  16.236  0.2524  0.0912  2.7744
 1886SOL    HW217292   2.864   4.568  16.149  0.9558 -0.7810  0.1064
 1887SOL     OW17293   3.444   0.205   1.925  0.2184 -0.6185  0.0109
 1887SOL    HW117294   3.510   0.273   1.908  1.0265 -1.5163 -0.4597
 1887SOL    HW217295   3.433   0.221   2.019  0.7609  0.1750 -0.0593
 1888SOL     OW17296   0.381   1.255   1.048 -0.0186 -0.3016  0.2619
 1888SOL    HW117297   0.438   1.306   0.990  0.7919  0.2523  1.5462
 1888SOL    HW217298   0.326   1.219   0.978 -1.1777 -0.9170  1.4907
 1889SOL     OW17299   3.881   4.381   9.073 -0.4557 -0.2167 -0.0887
 1889SOL    HW117300   3.947   4.354   9.009 -0.7123 -0.4966 -0.2376
 1889SOL    HW217301   3.834   4.299   9.089 -2.1458  0.1375 -3.1919
 1890SOL     OW17302   3.145   4.011   2.350  0.2413 -0.6256 -0.1504
 1890SOL    HW117303   3.109   3.923   2.355 -0.4624 -0.4492 -2.2756
 1890SOL    HW217304   3.071   4.071   2.338  0.0741 -0.5642  1.0948
 1891SOL     OW17305   2.435   4.710   5.049 -0.0083 -0.0536  0.0523
 1891SOL    HW117306   2.388   0.056   5.064  0.5317  0.5704 -1.6806
 1891SOL    HW217307   2.495   4.718   5.124 -0.3429 -1.5548  0.4796
 1892SOL     OW17308   4.246   2.732   2.316  0.3126  0.2414  0.3368
 1892SOL    HW117309   4.239   2.642   2.348 -1.0741  0.4105  0.5069
 1892SOL    HW217310   4.198   2.731   2.233  0.3594 -2.4003  0.3471
 1893SOL     OW17311   0.002   0.533   2.382  0.2721 -0.2905 -0.0126
 1893SOL    HW117312   0.075   0.560   2.437  0.3652 -1.7604  0.6010
 1893SOL    HW217313   4.734   0.610   2.326 -1.1155  1.1419  2.0093
 1894SOL     OW17314   2.791   3.446  15.453 -0.8280 -0.1885 -0.5536
 1894SOL    HW117315   2.810   3.534  15.420  0.6124 -0.4026 -0.3212
 1894SOL    HW217316   2.881   3.427  15.482 -0.3717 -0.4596 -2.1771
 1895SOL     OW17317   2.102   0.112   6.235 -0.3296 -0.6110 -0.0641
 1895SOL    HW117318   2.150   0.125   6.153 -0.1716  0.6204  0.2215
 1895SOL    HW217319   2.168   0.090   6.301  0.6127  1.9770 -0.1458
 1896SOL     OW17320   3.334   3.277   4.299  0.1928 -0.2828 -0.3638
 1896SOL    HW117321   3.289   3.202   4.261 -0.1139  0.6708 -1.8924
 1896SOL    HW217322   3.424   3.268   4.268  0.2873 -0.5064 -0.0195
 1897SOL     OW17323   4.052   3.865   1.530 -0.6369 -0.1712 -0.0602
 1897SOL    HW117324   4.116   3.794   1.535  1.6568  1.9381  0.9783
 1897SOL    HW217325   4.079   3.892   1.618  0.4025  1.2593 -0.8040
 1898SOL     OW17326   0.519   2.592   0.090 -0.7980  0.1313 -0.6263
 1898SOL    HW117327   0.568   2.551   0.018  3.0569  2.2188  0.8489
 1898SOL    HW217328   0.565   2.676   0.084 -0.9141  0.2840  0.7750
 1899SOL     OW17329   0.777   1.917   2.434 -0.0532  0.0353  0.3398
 1899SOL    HW117330   0.737   1.942   2.517  2.6991  0.8645  1.3953
 1899SOL    HW217331   0.767   2.001   2.388 -0.5216  0.2985  0.9142
 1900SOL     OW17332   3.820   2.801   6.044  0.1862 -0.4768  0.4326
 1900SOL    HW117333   3.757   2.859   6.087  1.2579  0.4635  0.7371
 1900SOL    HW217334   3.861   2.860   5.980 -0.0292 -1.4962 -0.6445
 1901SOL     OW17335   1.696   4.662   6.050  0.9572 -0.1637  0.3297
 1901SOL    HW117336   1.787   4.682   6.027  0.4244  1.7403 -0.1486
 1901SOL    HW217337   1.673   4.606   5.976 -0.3331 -1.9913  2.1223
 1902SOL     OW17338   0.289   4.618   2.653  0.1001 -0.2571 -0.0208
 1902SOL    HW117339   0.332   4.632   2.737 -1.2792  0.5369  0.5499
 1902SOL    HW217340   0.224   4.547   2.650  1.4429 -1.4279 -1.7521
 1903SOL     OW17341   4.084   1.823   1.221  0.1865 -0.5931 -0.1909
 1903SOL    HW117342   4.095   1.741   1.270 -2.1750 -0.2173  0.9414
 1903SOL    HW217343   4.091   1.889   1.290  0.1311 -1.7395  0.9060
 1904SOL     OW17344   3.960   0.860   1.109 -0.0480 -0.0363 -0.0759
 1904SOL    HW117345   3.886   0.884   1.053  0.9475  0.0696 -1.3361
 1904SOL    HW217346   3.917   0.803   1.172  1.1709  1.4433  2.0944
 1905SOL     OW17347   0.412   4.366   5.016 -0.5297 -0.0727  0.1096
 1905SOL    HW117348   0.352   4.437   4.992  1.3206  1.3461 -0.2332
 1905SOL    HW217349   0.464   4.413   5.081  1.3555  0.0729 -1.5172
 1906SOL     OW17350   0.920   0.189   8.501 -0.8554 -0.4956  0.0443
 1906SOL    HW117351   0.928   0.278   8.534 -0.6449 -0.6384  0.3778
 1906SOL    HW217352   0.980   0.183   8.427  0.6229  0.5735  1.1642
 1907SOL     OW17353   3.320   3.005   3.697  0.0952 -1.2176 -0.1806
 1907SOL    HW117354   3.363   3.000   3.783  1.1565  0.8912 -0.5828
 1907SOL    HW217355   3.371   3.065   3.643 -1.2821  0.8279  0.7748
 1908SOL     OW17356   2.039   1.664   8.253 -0.0053  0.3993  0.1936
 1908SOL    HW117357   2.079   1.583   8.284 -3.0969 -1.2718 -0.1861
 1908SOL    HW217358   2.033   1.643   8.160  1.5266 -1.3306  0.4872
 1909SOL     OW17359   3.814   4.151   1.751 -0.4885  0.0487 -0.2108
 1909SOL    HW117360   3.723   4.155   1.778  0.2303  0.9139  2.0260
 1909SOL    HW217361   3.807   4.090   1.677  0.9124 -1.3166  0.7818
 1910SOL     OW17362   2.571   3.150  14.113 -0.1537  0.3455 -0.0626
 1910SOL    HW117363   2.553   3.102  14.194  1.1460  0.2158  0.1546
 1910SOL    HW217364   2.482   3.155  14.078 -0.3551 -1.0715  0.2491
 1911SOL     OW17365   3.355   2.060   3.780  0.0816 -0.0883 -0.0667
 1911SOL    HW117366   3.409   2.072   3.858 -0.0337  1.8745 -0.2687
 1911SOL    HW217367   3.406   2.069   3.700 -0.6168 -1.4494 -0.6471
 1912SOL     OW17368   2.337   2.425  13.814  0.3137 -1.0991  0.3250
 1912SOL    HW117369   2.248   2.390  13.801  1.2431 -2.0853 -3.2779
 1912SOL    HW217370   2.396   2.359  13.778  2.4667  0.8238  0.3719
 1913SOL     OW17371   1.202   3.898   2.363 -0.3685  0.1266 -0.6710
 1913SOL    HW117372   1.128   3.954   2.339 -0.8361 -0.7508 -1.2718
 1913SOL    HW217373   1.150   3.828   2.401  0.4107 -0.2919 -0.3888
 1914SOL     OW17374   3.261   3.975   4.225 -0.8752  0.2202 -0.3812
 1914SOL    HW117375   3.213   3.943   4.301  1.6670 -1.9840  0.3163
 1914SOL    HW217376   3.324   4.022   4.280 -0.0027 -1.7757  0.3201
 1915SOL     OW17377   2.776   0.730   9.751  0.0763  0.2845  0.0347
 1915SOL    HW117378   2.717   0.785   9.700  1.4915  1.8661  0.1051
 1915SOL    HW217379   2.758   0.743   9.844  1.7638  1.6769  0.1562
 1916SOL     OW17380   4.320   1.560  12.189 -0.4465 -0.1292 -0.0087
 1916SOL    HW117381   4.346   1.652  12.186  3.2001 -1.0889  1.8798
 1916SOL    HW217382   4.230   1.567  12.156 -0.2868 -0.1149 -0.4358
 1917SOL     OW17383   2.992   1.196  12.002  0.1405  0.6592  0.7039
 1917SOL    HW117384   2.989   1.270  11.941 -0.1766 -0.2677 -0.4173
 1917SOL    HW217385   3.087   1.183  12.011  0.2101  1.7039  1.3885
 1918SOL     OW17386   1.961   2.283   4.944  0.9278  0.0998  0.0092
 1918SOL    HW117387   2.004   2.362   4.914 -0.7891  1.0292 -0.0162
 1918SOL    HW217388   2.040   2.254   4.990  2.1766  0.8282 -1.6917
 1919SOL     OW17389   2.478   4.000   4.754 -0.7033 -0.2406 -0.1445
 1919SOL    HW117390   2.491   4.094   4.740 -0.5355 -0.7757 -3.5571
 1919SOL    HW217391   2.394   3.968   4.721 -1.5183 -0.9333  2.5793
 1920SOL     OW17392   0.397   3.598  11.113 -0.1044  0.0366 -0.6856
 1920SOL    HW117393   0.477   3.589  11.166 -0.5558 -1.9804 -0.3334
 1920SOL    HW217394   0.418   3.684  11.077  0.6882  0.1922  0.1368
 1921SOL     OW17395   0.710   4.693   3.855 -0.4566  0.0078 -0.1714
 1921SOL    HW117396   0.744   4.731   3.774  0.0324 -0.4981 -0.2070
 1921SOL    HW217397   0.783   4.665   3.910 -1.1075  1.0980  1.2474
 1922SOL     OW17398   2.540   4.479  12.765 -0.0014  0.3813  0.2929
 1922SOL    HW117399   2.472   4.539  12.738  0.3724  1.5840  2.0435
 1922SOL    HW217400   2.483   4.413  12.806 -1.3257  0.5016 -1.3624
 1923SOL     OW17401   0.050   4.650   1.898  0.0715 -0.2944  0.2379
 1923SOL    HW117402   0.126   4.616   1.851  0.1870 -2.3044  1.8925
 1923SOL    HW217403   0.061   0.009   1.903  0.8316 -0.2858 -1.2535
 1924SOL     OW17404   1.133   0.861  13.031 -0.1708  0.1946 -0.5363
 1924SOL    HW117405   1.072   0.791  13.010 -1.2044  0.9414 -0.0138
 1924SOL    HW217406   1.216   0.814  13.024 -0.2390 -0.1726  1.0799
 1925SOL     OW17407   3.601   2.155   1.071  0.5392  0.2765  0.0444
 1925SOL    HW117408   3.685   2.133   1.111  2.1483  2.3906 -2.1077
 1925SOL    HW217409   3.591   2.246   1.102 -0.3969  0.2904 -0.2875
 1926SOL     OW17410   4.697   3.370   2.384  0.0385 -0.5445 -0.5249
 1926SOL    HW117411   0.002   3.451   2.354  0.9704 -0.3572  1.2534
 1926SOL    HW217412   4.728   3.365   2.475  0.5556  0.2919 -0.6549
 1927SOL     OW17413   0.184   0.577  14.338 -0.2148  0.8094 -0.1606
 1927SOL    HW117414   0.171   0.520  14.262 -0.6566 -0.2862  0.7276
 1927SOL    HW217415   0.266   0.539  14.371  0.0773  1.0657 -0.5957
 1928SOL     OW17416   0.785   3.696   2.437 -0.2337  0.6115 -0.1187
 1928SOL    HW117417   0.775   3.601   2.429  1.8096  0.4577 -0.9289
 1928SOL    HW217418   0.875   3.692   2.471  0.0042 -1.3184 -0.9506
 1929SOL     OW17419   2.632   1.321   7.765  0.8750 -0.3001  0.4121
 1929SOL    HW117420   2.543   1.317   7.729  0.6135 -0.5072  1.0798
 1929SOL    HW217421   2.685   1.293   7.690  0.7101 -1.2746  0.6555
 1930SOL     OW17422   2.421   1.055  13.221  0.3283  0.2782  0.3760
 1930SOL    HW117423   2.332   1.031  13.194  0.2637  2.1796 -1.0800
 1930SOL    HW217424   2.437   1.149  13.214 -3.2583  0.8567  0.1241
 1931SOL     OW17425   0.412   1.136  10.706 -0.9132 -0.2812 -0.3234
 1931SOL    HW117426   0.445   1.059  10.752 -1.6552 -0.3761  0.0509
 1931SOL    HW217427   0.375   1.093  10.629 -1.8090  1.8290 -1.0654
 1932SOL     OW17428   1.284   2.746   2.359 -0.1283  0.1559 -0.0918
 1932SOL    HW117429   1.339   2.762   2.282  1.0100  2.1608  1.1549
 1932SOL    HW217430   1.249   2.662   2.328  1.4099 -0.0309 -1.3444
 1933SOL     OW17431   4.681   1.773   3.775 -0.5159 -0.4083 -0.2414
 1933SOL    HW117432   4.609   1.820   3.817  0.5525  0.6929  0.3229
 1933SOL    HW217433   0.017   1.835   3.780  1.6279 -3.0914  2.2524
 1934SOL     OW17434   3.875   0.952   6.329  0.2938  0.2823 -0.0867
 1934SOL    HW117435   3.965   0.940   6.360  0.9397  3.0401 -0.8633
 1934SOL    HW217436   3.888   0.944   6.234  0.4869  0.5539 -0.0818
 1935SOL     OW17437   3.172   3.094   9.427  0.6253  0.3473  0.0563
 1935SOL    HW117438   3.194   3.014   9.380 -1.6335 -0.9746  1.2771
 1935SOL    HW217439   3.087   3.081   9.469  0.2518  0.5571 -0.6358
 1936SOL     OW17440   0.195   2.090  10.759  0.1334 -0.0690 -0.3829
 1936SOL    HW117441   0.201   2.144  10.838  0.8581  0.5040 -0.8376
 1936SOL    HW217442   0.156   2.159  10.705  2.7140  2.2652  0.7433
 1937SOL     OW17443   0.489   0.271   6.400 -0.2197  0.1295  0.0698
 1937SOL    HW117444   0.446   0.346   6.441  1.1965  0.0192  1.7795
 1937SOL    HW217445   0.580   0.301   6.399 -0.5666  1.0567 -2.8214
 1938SOL     OW17446   0.197   0.123   5.175  0.5112 -0.1687 -0.4801
 1938SOL    HW117447   0.258   0.076   5.119  0.9605 -1.1393  0.8396
 1938SOL    HW217448   0.236   0.115   5.262 -0.9807 -1.0733  0.1147
 1939SOL     OW17449   0.961   1.771   2.099 -0.5769 -0.4391  0.1474
 1939SOL    HW117450   0.992   1.857   2.130 -0.1189 -1.0087  1.2528
 1939SOL    HW217451   0.895   1.799   2.036 -1.9757 -3.8714  0.0984
 1940SOL     OW17452   1.442   1.309   7.765  0.7479 -0.1687 -0.1184
 1940SOL    HW117453   1.489   1.232   7.734 -0.0314 -0.8029  0.2654
 1940SOL    HW217454   1.479   1.324   7.852 -0.4480 -1.8921  0.6764
 1941SOL     OW17455   3.751   1.877  13.138  0.2718  0.0579  0.4512
 1941SOL    HW117456   3.839   1.902  13.109 -0.1999  1.6708  0.3907
 1941SOL    HW217457   3.703   1.959  13.125  0.5346 -0.0394 -1.0949
 1942SOL     OW17458   4.430   2.694  12.415  0.3916  0.6126 -0.6690
 1942SOL    HW117459   4.483   2.670  12.339 -0.4172 -1.8989 -0.4417
 1942SOL    HW217460   4.359   2.748  12.382 -0.3708 -0.1335 -0.2522
 1943SOL     OW17461   1.725   0.230   7.181 -0.0464  0.0861 -0.1170
 1943SOL    HW117462   1.781   0.164   7.223 -1.3320 -0.8567  0.1399
 1943SOL    HW217463   1.657   0.180   7.135  0.9359  0.1893 -1.6700
 1944SOL     OW17464   0.863   3.212   6.374 -0.3586 -0.4607  0.8469
 1944SOL    HW117465   0.905   3.231   6.458  4.2880  2.6562 -2.2073
 1944SOL    HW217466   0.911   3.135   6.343 -0.4816  0.5233 -1.7123
 1945SOL     OW17467   3.129   2.327  10.306 -0.0504 -0.1698  0.4426
 1945SOL    HW117468   3.050   2.373  10.277  0.2977 -0.8294 -1.5148
 1945SOL    HW217469   3.158   2.280  10.228 -1.1517  0.1803 -0.1846
 1946SOL     OW17470   4.581   1.540   7.947  0.6651 -0.2903 -0.4590
 1946SOL    HW117471   4.550   1.631   7.942 -1.0743 -0.8675 -0.3184
 1946SOL    HW217472   4.492   1.510   7.966 -0.3822  1.8450 -1.9330
 1947SOL     OW17473   4.057   4.145   2.091  0.4095 -0.6283  0.0648
 1947SOL    HW117474   3.992   4.092   2.138 -1.1784 -0.0078 -1.4280
 1947SOL    HW217475   4.035   4.234   2.117 -0.3146 -0.6201 -0.5709
 1948SOL     OW17476   3.189   1.335   7.056  0.4014 -0.2853  0.2464
 1948SOL    HW117477   3.282   1.356   7.055  0.4036 -0.3363 -1.3849
 1948SOL    HW217478   3.156   1.415   7.015  0.0779 -1.2721 -1.4235
 1949SOL     OW17479   0.093   1.225   2.497 -0.4727  0.3176  0.3320
 1949SOL    HW117480   0.131   1.218   2.409  0.9624  0.2638  0.9452
 1949SOL    HW217481   0.107   1.319   2.507  0.8936  0.2143 -0.6241
 1950SOL     OW17482   1.473   4.008   1.369  0.4707  0.2971 -0.2340
 1950SOL    HW117483   1.520   4.066   1.309  2.1641 -1.0496 -0.2018
 1950SOL    HW217484   1.504   3.924   1.336 -1.1536  0.4584 -2.1837
 1951SOL     OW17485   0.485   0.711   2.919  0.0507  0.2310 -0.5604
 1951SOL    HW117486   0.520   0.746   3.001 -0.0043  0.5764 -0.6874
 1951SOL    HW217487   0.556   0.659   2.880  0.0922  1.5531 -2.2291
 1952SOL     OW17488   1.038   2.439   2.064 -0.1713  0.7336  0.0158
 1952SOL    HW117489   0.997   2.524   2.053 -4.0930 -1.2467 -0.5780
 1952SOL    HW217490   1.005   2.400   1.983 -0.1610 -3.1339  1.8618
 1953SOL     OW17491   2.334   2.570  16.665  0.2581 -0.4014  0.0235
 1953SOL    HW117492   2.401   2.548  16.730  0.6518 -1.2732 -0.6701
 1953SOL    HW217493   2.357   2.517  16.589 -2.0020  1.3818 -1.8975
 1954SOL     OW17494   1.984   1.200   8.442  0.6436  0.7294  0.2729
 1954SOL    HW117495   1.902   1.180   8.485 -0.0155  1.8229 -0.4849
 1954SOL    HW217496   1.974   1.137   8.370  1.8015  0.1279  0.6185
 1955SOL     OW17497   2.298   4.341   4.379 -0.3171  0.1567  0.2632
 1955SOL    HW117498   2.279   4.435   4.381  0.4028  0.2608  1.8764
 1955SOL    HW217499   2.394   4.351   4.382 -0.2891 -0.5269  1.6679
 1956SOL     OW17500   0.251   2.697  11.396  0.4924  0.7432 -0.2626
 1956SOL    HW117501   0.184   2.631  11.380  1.1417  0.6117 -2.4697
 1956SOL    HW217502   0.202   2.754  11.454  0.4342 -0.0732  0.4980
 1957SOL     OW17503   1.474   4.342   5.910 -0.1699 -0.5376  0.3350
 1957SOL    HW117504   1.409   4.413   5.914  1.7244  1.0921  1.8328
 1957SOL    HW217505   1.554   4.387   5.885 -0.8357  1.3022  1.4783
 1958SOL     OW17506   0.355   4.559   6.379 -0.0702  0.5083 -0.0916
 1958SOL    HW117507   0.266   4.530   6.397  0.3842 -2.2679 -2.3887
 1958SOL    HW217508   0.355   4.569   6.283 -3.4891 -0.5938 -0.2022
 1959SOL     OW17509   4.500   3.110   3.681  0.4300 -0.1232 -0.4620
 1959SOL    HW117510   4.514   3.086   3.773 -2.3366  0.0456 -0.0186
 1959SOL    HW217511   4.564   3.055   3.635  0.8401 -0.0242 -0.0148
 1960SOL     OW17512   0.611   2.526   2.270  0.2410 -0.0784 -0.5691
 1960SOL    HW117513   0.641   2.556   2.184  0.4336  1.6423  0.1021
 1960SOL    HW217514   0.524   2.565   2.273 -0.1623 -0.8581 -2.4403
 1961SOL     OW17515   0.070   0.267  13.125 -0.2354  0.5974 -0.5146
 1961SOL    HW117516   0.070   0.314  13.209 -0.4212  0.7303 -0.5882
 1961SOL    HW217517   0.153   0.303  13.094  0.1684 -0.8279 -1.0668
 1962SOL     OW17518   2.450   3.795   3.885 -0.1053  0.0580 -0.0109
 1962SOL    HW117519   2.466   3.861   3.952  0.9460  0.9683 -1.1557
 1962SOL    HW217520   2.361   3.811   3.854  0.7593 -2.4292 -3.6831
 1963SOL     OW17521   3.455   1.735   4.022  0.0539 -0.6125  0.1483
 1963SOL    HW117522   3.459   1.684   3.940 -1.3468  0.5662 -0.6544
 1963SOL    HW217523   3.541   1.775   4.023 -1.1748  2.0126 -0.9367
 1964SOL     OW17524   0.029   1.454   5.498 -0.6544 -0.0564 -0.4426
 1964SOL    HW117525   4.725   1.463   5.411 -1.9633 -0.0892  0.1440
 1964SOL    HW217526   0.103   1.398   5.477 -0.1020  1.5408 -2.8223
 1965SOL     OW17527   4.312   3.754   3.889 -0.4135  0.4057 -0.0828
 1965SOL    HW117528   4.217   3.746   3.878 -0.3251 -1.3713  0.4851
 1965SOL    HW217529   4.340   3.663   3.881  0.0784  0.5233  0.3444
 1966SOL     OW17530   2.038   0.104  15.333  0.1778 -0.1896 -0.2844
 1966SOL    HW117531   2.039   0.050  15.254 -1.5464 -0.4011 -0.1464
 1966SOL    HW217532   2.131   0.097  15.355  0.1004 -0.7159 -0.1321
 1967SOL     OW17533   1.763   3.821   5.495  0.1374  0.8199 -0.1226
 1967SOL    HW117534   1.673   3.817   5.461  1.9594 -5.6270 -4.0964
 1967SOL    HW217535   1.754   3.888   5.563 -0.8416 -0.7461  1.2846
 1968SOL     OW17536   3.451   1.474  15.446  0.1526 -0.1183 -0.0636
 1968SOL    HW117537   3.512   1.476  15.520 -0.2683 -1.3072  0.3128
 1968SOL    HW217538   3.389   1.533  15.488 -0.7438 -1.6306  0.7499
 1969SOL     OW17539   4.443   2.998   0.886 -0.4646 -0.0937  0.1875
 1969SOL    HW117540   4.516   2.936   0.888 -0.5033 -0.1221  0.7784
 1969SOL    HW217541   4.369   2.937   0.893  1.3511 -2.4737 -1.3197
 1970SOL     OW17542   4.688   4.127   2.805 -0.7430 -0.1139  0.5185
 1970SOL    HW117543   4.733   4.049   2.836 -1.0811  0.5536  2.7211
 1970SOL    HW217544   0.001   4.148   2.726 -0.0997 -0.0970  0.9213
 1971SOL     OW17545   2.626   2.285   7.810 -0.1613 -0.4703 -0.1155
 1971SOL    HW117546   2.669   2.337   7.878  1.8772 -1.1666 -0.8711
 1971SOL    HW217547   2.658   2.326   7.730  0.9597 -1.6250 -0.2382
 1972SOL     OW17548   4.141   2.925  11.859 -0.1329 -0.9000  0.0820
 1972SOL    HW117549   4.102   2.981  11.792 -0.8574  1.6008  2.6035
 1972SOL    HW217550   4.103   2.970  11.934  3.0072 -0.5953  1.4959
 1973SOL     OW17551   4.699   3.548   4.284 -0.0197  0.0212  0.2343
 1973SOL    HW117552   4.729   3.461   4.257 -3.7061 -0.1272 -3.4202
 1973SOL    HW217553   0.047   3.585   4.314 -0.0742  0.8737 -0.6516
 1974SOL     OW17554   3.072   0.551  12.073  0.3082  0.5000  0.3383
 1974SOL    HW117555   3.017   0.540  12.151  0.1170  0.7414  0.2404
 1974SOL    HW217556   3.000   0.572  12.012 -2.3892 -1.8391  2.6943
 1975SOL     OW17557   3.863   2.987  12.653 -0.5127  0.6693 -0.1664
 1975SOL    HW117558   3.816   3.037  12.586 -2.0769  3.1572  2.7925
 1975SOL    HW217559   3.894   2.908  12.609  1.5667  1.7652 -0.7304
 1976SOL     OW17560   3.010   2.299   2.308  0.6296 -0.4338  0.4156
 1976SOL    HW117561   2.940   2.347   2.264  1.4793 -0.7319 -1.2637
 1976SOL    HW217562   3.026   2.226   2.248  2.0698  1.3127 -1.3087
 1977SOL     OW17563   4.440   3.192   6.259  0.1314  0.0355 -0.3367
 1977SOL    HW117564   4.422   3.103   6.228 -0.7933 -0.8867  2.8328
 1977SOL    HW217565   4.423   3.174   6.351 -0.3953 -4.2583 -1.2764
 1978SOL     OW17566   1.936   1.530   5.212 -0.1607 -0.6252 -0.2188
 1978SOL    HW117567   1.859   1.526   5.156 -1.9363 -1.7645  2.2966
 1978SOL    HW217568   1.902   1.473   5.281  0.3953  0.6006  1.0691
 1979SOL     OW17569   2.569   0.483   1.549 -0.7211 -0.3861 -0.0346
 1979SOL    HW117570   2.513   0.561   1.547 -0.7782 -0.4866 -3.0918
 1979SOL    HW217571   2.544   0.440   1.466  1.4726  0.2495 -1.0151
 1980SOL     OW17572   2.909   1.940   0.137 -0.6711 -0.4063  0.5617
 1980SOL    HW117573   2.844   2.011   0.137  3.3319  3.2454  1.0411
 1980SOL    HW217574   2.978   1.979   0.083  0.5017 -3.1503  0.0859
 1981SOL     OW17575   4.607   3.568   7.025  0.7388  0.1928 -0.3108
 1981SOL    HW117576   4.644   3.490   6.982 -2.3978 -1.8195  0.6910
 1981SOL    HW217577   4.591   3.613   6.942 -1.3275  0.3752  0.1841
 1982SOL     OW17578   0.304   0.958   5.911  0.5610 -0.3471 -0.4878
 1982SOL    HW117579   0.383   0.915   5.880  0.4204 -0.5589 -0.5469
 1982SOL    HW217580   0.338   1.042   5.944 -3.4635  0.2030  2.2641
 1983SOL     OW17581   2.431   1.174   6.345 -0.3105  0.8645 -0.1277
 1983SOL    HW117582   2.363   1.233   6.377 -2.0235 -0.4947 -1.2091
 1983SOL    HW217583   2.375   1.097   6.333  0.1211  0.3376  1.3198
 1984SOL     OW17584   0.935   1.783   3.251 -0.2076  0.8202 -0.1141
 1984SOL    HW117585   1.027   1.787   3.278 -0.2744  0.7910  0.1214
 1984SOL    HW217586   0.894   1.853   3.302 -1.1916 -0.1319  0.4291
 1985SOL     OW17587   4.159   1.165   7.346 -0.0816 -0.1247 -0.2425
 1985SOL    HW117588   4.234   1.212   7.310 -1.3265  0.6613 -1.7861
 1985SOL    HW217589   4.126   1.124   7.267  0.0248 -1.1666  0.2539
 1986SOL     OW17590   0.912   1.330   4.609 -0.6804 -0.0431  0.3414
 1986SOL    HW117591   0.829   1.368   4.639  0.6537  2.3715  0.9724
 1986SOL    HW217592   0.964   1.358   4.684 -1.9408 -0.4950  1.3747
 1987SOL     OW17593   1.264   0.876   1.261  0.9991 -0.0156 -0.0903
 1987SOL    HW117594   1.297   0.965   1.262  0.7019  0.0370  3.8268
 1987SOL    HW217595   1.278   0.849   1.170 -3.1890 -1.5027 -0.3281
 1988SOL     OW17596   3.506   4.658   6.677 -0.3366  0.1054  0.2888
 1988SOL    HW117597   3.439   4.604   6.634 -0.5661  1.4049 -0.9878
 1988SOL    HW217598   3.509   4.629   6.768 -0.1699 -2.2817 -0.4855
 1989SOL     OW17599   0.632   3.184  17.013  0.4820  0.4003 -0.2077
 1989SOL    HW117600   0.719   3.210  17.044 -0.4505 -1.1738  3.7023
 1989SOL    HW217601   0.649   3.090  17.003  2.1725  0.5066  1.5985
 1990SOL     OW17602   4.248   4.584   8.690  0.1067 -0.0349  0.9861
 1990SOL    HW117603   4.316   4.517   8.682  1.7056  1.5904  0.8249
 1990SOL    HW217604   4.300   4.662   8.708 -0.5566  1.2903 -2.8344
 1991SOL     OW17605   0.038   1.643   8.217 -0.0280  0.3742 -0.4545
 1991SOL    HW117606   0.094   1.597   8.154 -1.0911 -0.1439 -1.0303
 1991SOL    HW217607   4.692   1.661   8.169 -0.0199  1.0005 -0.2355
 1992SOL     OW17608   1.170   1.516   6.155  0.0181 -0.0862 -0.1184
 1992SOL    HW117609   1.209   1.428   6.160  0.6372  0.1975  0.0861
 1992SOL    HW217610   1.235   1.565   6.105  1.1158 -0.3252  1.0654
 1993SOL     OW17611   4.362   0.520  12.495  0.1754 -0.4234  0.1513
 1993SOL    HW117612   4.451   0.487  12.483  0.4163 -0.1789  1.2259
 1993SOL    HW217613   4.330   0.477  12.574  1.3363 -0.7458  0.4463
 1994SOL     OW17614   2.726   2.600   8.580 -0.1617 -0.4449 -0.4710
 1994SOL    HW117615   2.812   2.560   8.591  0.6845  1.5789  0.1994
 1994SOL    HW217616   2.711   2.648   8.661 -3.2143 -1.3696 -0.4669
 1995SOL     OW17617   1.419   0.423   1.353  0.6861 -0.0457  0.0387
 1995SOL    HW117618   1.383   0.459   1.272  1.4428  0.6951  0.0356
 1995SOL    HW217619   1.355   0.457   1.415  2.3947  2.1365  0.5983
 1996SOL     OW17620   1.662   1.959  12.798 -0.1482  0.8898 -0.2146
 1996SOL    HW117621   1.687   1.881  12.748  2.0265  0.7800  1.0727
 1996SOL    HW217622   1.724   2.024  12.764  0.3678  1.0033  0.9596
 1997SOL     OW17623   2.705   1.782  16.463  0.5729 -0.3127 -0.3446
 1997SOL    HW117624   2.632   1.824  16.417  1.5239  0.2523 -1.3269
 1997SOL    HW217625   2.710   1.837  16.541  2.6680 -0.1704 -0.5866
 1998SOL     OW17626   0.050   1.737   5.837 -0.6199  0.4195  0.6280
 1998SOL    HW117627   0.070   1.807   5.900 -1.3455  0.5862  0.6779
 1998SOL    HW217628   0.049   1.793   5.759  0.2206 -0.5884 -0.1087
 1999SOL     OW17629   2.870   0.652   5.526 -0.1587 -0.0950 -0.8498
 1999SOL    HW117630   2.915   0.568   5.522  0.8384  0.3821  0.4349
 1999SOL    HW217631   2.799   0.636   5.590  0.2349  2.4499  0.2619
 2000SOL     OW17632   3.581   0.136  14.090  0.5049 -0.4317 -0.4381
 2000SOL    HW117633   3.557   0.153  13.999 -1.5660  0.5226  0.2724
 2000SOL    HW217634   3.672   0.109  14.085  0.3519 -1.2948  1.4132
 2001SOL     OW17635   3.373   3.255   6.577  0.8219 -0.4231 -0.2430
 2001SOL    HW117636   3.360   3.248   6.671 -3.8101 -0.3785 -0.8914
 2001SOL    HW217637   3.388   3.349   6.564  0.1850 -0.4477 -1.1667
 2002SOL     OW17638   0.333   3.077   0.716 -0.2757  0.4716  0.2225
 2002SOL    HW117639   0.328   3.136   0.791  1.0451 -0.4502  1.0294
 2002SOL    HW217640   0.244   3.043   0.709  0.1172 -0.3474 -0.8333
 2003SOL     OW17641   0.021   4.509   9.411 -0.3304 -0.2383  0.1518
 2003SOL    HW117642   4.720   4.507   9.322 -0.5374 -0.7294  0.2524
 2003SOL    HW217643   4.703   4.577   9.451  1.0242  0.2278  1.1871
 2004SOL     OW17644   1.762   0.034  15.897 -0.3918  0.7741  0.0785
 2004SOL    HW117645   1.814   0.009  15.973 -0.0793  1.1399 -0.0180
 2004SOL    HW217646   1.765   4.694  15.839  0.4061  1.4388 -0.7441
 2005SOL     OW17647   3.217   2.071   4.584  0.0362  0.1832  0.0896
 2005SOL    HW117648   3.121   2.069   4.574 -0.2312 -1.3252  2.9103
 2005SOL    HW217649   3.232   2.162   4.559 -0.4135 -0.3482 -2.1233
 2006SOL     OW17650   4.509   0.017   5.233 -0.1689  0.8958 -0.9149
 2006SOL    HW117651   4.563   0.069   5.173  1.4746 -0.4528 -0.6017
 2006SOL    HW217652   4.544   4.664   5.237  0.5032  1.1037 -2.2695
 2007SOL     OW17653   3.048   2.643  10.997 -0.0038  0.2712  0.1847
 2007SOL    HW117654   3.008   2.729  10.988 -0.1385  0.3444  1.5560
 2007SOL    HW217655   2.971   2.588  10.984  1.2349 -1.6180  0.8309
 2008SOL     OW17656   4.544   2.126   9.243 -0.5284  0.4379 -0.8270
 2008SOL    HW117657   4.498   2.101   9.162  1.2679  0.9463 -2.0078
 2008SOL    HW217658   4.571   2.042   9.279 -0.4643  1.2119  0.8973
 2009SOL     OW17659   4.083   2.279   2.979  0.7423 -0.1676 -0.4365
 2009SOL    HW117660   4.112   2.222   3.050  1.2319  0.2339 -0.3113
 2009SOL    HW217661   4.165   2.318   2.948 -0.1932  2.1845  0.0308
 2010SOL     OW17662   1.508   4.580   6.519 -0.0374 -0.2090  0.0668
 2010SOL    HW117663   1.424   4.627   6.516  0.4670  0.8464  1.9573
 2010SOL    HW217664   1.555   4.624   6.448  1.1026 -1.1985  0.2062
 2011SOL     OW17665   1.871   2.786  11.371 -0.1371  1.0605  0.3321
 2011SOL    HW117666   1.886   2.752  11.459  2.9039  2.3820  0.3484
 2011SOL    HW217667   1.831   2.707  11.335  0.0920  0.8038  0.6450
 2012SOL     OW17668   2.450   3.842   6.819 -0.3497  0.1287  0.5111
 2012SOL    HW117669   2.520   3.874   6.762 -2.4587  0.5355 -1.8154
 2012SOL    HW217670   2.437   3.919   6.875 -0.4732  0.5053 -0.0369
 2013SOL     OW17671   1.542   3.344   1.615  0.4109  0.2835  0.1636
 2013SOL    HW117672   1.636   3.353   1.601  0.4611  0.6949  0.7611
 2013SOL    HW217673   1.520   3.437   1.624  0.5944  0.0034  3.4421
 2014SOL     OW17674   1.296   4.328   2.601 -0.2333 -0.2887  0.4260
 2014SOL    HW117675   1.268   4.405   2.651 -2.4168  0.1407 -1.4649
 2014SOL    HW217676   1.229   4.260   2.612 -1.9121  1.3063  0.1531
 2015SOL     OW17677   4.497   3.226   0.698 -0.3754 -0.0361 -0.1269
 2015SOL    HW117678   4.513   3.135   0.675 -0.2277  0.8096 -3.3702
 2015SOL    HW217679   4.413   3.220   0.743 -1.2014 -2.2478 -2.0128
 2016SOL     OW17680   0.125   4.098   9.572  0.1511 -0.0898 -0.3390
 2016SOL    HW117681   0.098   4.048   9.496 -1.9775 -0.7748  0.8470
 2016SOL    HW217682   0.072   4.177   9.560  2.7402  2.0468  2.1708
 2017SOL     OW17683   3.234   4.312   3.051 -0.4710  0.1329 -0.3890
 2017SOL    HW117684   3.141   4.337   3.059  0.0720  1.8747  0.6245
 2017SOL    HW217685   3.247   4.279   2.963  2.0465  0.3619 -0.0810
 2018SOL     OW17686   4.439   4.546   5.066  0.1223  0.3292  0.8490
 2018SOL    HW117687   4.533   4.527   5.066 -0.0555 -0.5287  1.9038
 2018SOL    HW217688   4.433   4.641   5.054  1.3245  0.3316  0.3127
 2019SOL     OW17689   4.372   3.529   3.307 -0.2023 -0.3486  1.0095
 2019SOL    HW117690   4.352   3.517   3.214  2.3597  0.0109  0.4109
 2019SOL    HW217691   4.341   3.615   3.334 -0.8889 -0.1167 -0.5334
 2020SOL     OW17692   0.327   4.063   3.750  0.1420 -0.2876 -0.4535
 2020SOL    HW117693   0.304   4.102   3.666 -2.2737  0.3473  0.5237
 2020SOL    HW217694   0.245   4.023   3.779  0.1977 -0.5969 -0.7125
 2021SOL     OW17695   1.944   2.715   3.700  0.3037  0.2069  0.1421
 2021SOL    HW117696   1.897   2.669   3.769 -1.6716  0.7877 -0.8091
 2021SOL    HW217697   1.966   2.645   3.638  0.7609  0.9728 -0.5539
 2022SOL     OW17698   2.274   2.776   2.465  0.2382  0.5906 -0.9256
 2022SOL    HW117699   2.358   2.731   2.462 -1.1121 -1.8667 -1.6390
 2022SOL    HW217700   2.240   2.791   2.377  0.7488  0.6128 -1.1181
 2023SOL     OW17701   1.131   1.339   5.358 -0.2808 -0.2999  0.4731
 2023SOL    HW117702   1.063   1.302   5.302  1.3536 -2.4323 -0.1060
 2023SOL    HW217703   1.166   1.410   5.305  1.4724 -0.6299  1.2003
 2024SOL     OW17704   2.261   0.113  14.902  0.3566  0.2003  0.0749
 2024SOL    HW117705   2.207   0.180  14.860  0.0918 -0.7391 -1.0678
 2024SOL    HW217706   2.348   0.134  14.870  0.0756 -0.2384 -0.9510
 2025SOL     OW17707   3.967   4.430  13.492 -0.4946 -0.4901 -0.0123
 2025SOL    HW117708   4.037   4.491  13.472 -0.2873 -0.6753  0.1484
 2025SOL    HW217709   3.907   4.443  13.418 -0.1833  0.9035 -0.0127
 2026SOL     OW17710   1.980   4.527   9.477  0.4056 -0.0514  0.1196
 2026SOL    HW117711   2.009   4.438   9.458  0.2625  0.3626 -1.9863
 2026SOL    HW217712   2.018   4.571   9.401 -2.3808 -2.6413 -2.7871
 2027SOL     OW17713   1.254   4.092  14.500 -0.5355  0.8182 -0.5100
 2027SOL    HW117714   1.277   4.057  14.414  1.1381  0.4832  0.0667
 2027SOL    HW217715   1.309   4.039  14.558 -1.8097  1.8256  1.6280
 2028SOL     OW17716   4.476   3.631   8.540 -0.0290  0.1694 -0.2139
 2028SOL    HW117717   4.452   3.631   8.447 -0.0933  0.9043 -0.1979
 2028SOL    HW217718   4.527   3.550   8.547  0.2973  0.4183  0.3109
 2029SOL     OW17719   2.926   1.289   7.676  0.4422 -0.6236 -0.3060
 2029SOL    HW117720   2.960   1.364   7.725 -0.0236 -0.3901 -0.3417
 2029SOL    HW217721   2.892   1.320   7.592 -0.0752  1.7814  0.7954
 2030SOL     OW17722   0.387   1.080   5.261  0.0560  0.4661 -0.3159
 2030SOL    HW117723   0.350   1.130   5.189  2.6581  1.7062 -0.8037
 2030SOL    HW217724   0.409   1.145   5.328 -2.1483  1.2726 -0.4043
 2031SOL     OW17725   3.644   3.903   8.871  0.1518  0.2562  0.3876
 2031SOL    HW117726   3.575   3.836   8.871 -1.8943  2.3998  1.3791
 2031SOL    HW217727   3.683   3.871   8.789  0.5789  1.7254  0.0173
 2032SOL     OW17728   0.079   2.763   6.395 -0.0749 -0.0321  0.5744
 2032SOL    HW117729   4.730   2.759   6.350  1.1541  0.3764 -1.7863
 2032SOL    HW217730   0.114   2.684   6.353  1.4400  1.0098 -0.1088
 2033SOL     OW17731   1.999   3.778   6.076  0.1087 -1.6611  0.1880
 2033SOL    HW117732   2.022   3.838   6.147 -0.8289 -0.6927 -0.3332
 2033SOL    HW217733   1.908   3.797   6.053 -0.0092  0.6297  2.5863
 2034SOL     OW17734   1.643   0.795   6.504 -0.0069  0.3361 -0.2193
 2034SOL    HW117735   1.567   0.736   6.500 -0.1521  0.5224 -0.1798
 2034SOL    HW217736   1.607   0.877   6.535 -1.2839 -1.1446  2.1737
 2035SOL     OW17737   4.079   0.077   9.495 -0.5765 -0.2242 -0.1061
 2035SOL    HW117738   4.024   0.038   9.563  2.5291 -3.5359  0.5665
 2035SOL    HW217739   4.014   0.134   9.456  1.0617  2.2675  0.8043
 2036SOL     OW17740   0.669   2.441   3.587 -0.4151  0.2463  0.5056
 2036SOL    HW117741   0.623   2.503   3.530  2.5451  1.1828 -0.8412
 2036SOL    HW217742   0.762   2.443   3.564 -0.2221 -1.9989  1.1046
 2037SOL     OW17743   4.308   1.583   6.626 -0.3199  0.5014 -0.3595
 2037SOL    HW117744   4.280   1.670   6.655  0.1962 -0.5070  3.2282
 2037SOL    HW217745   4.258   1.521   6.680  1.7519  1.0205  2.1432
 2038SOL     OW17746   4.114   4.728   4.772  0.5129 -0.5978  0.0729
 2038SOL    HW117747   4.148   0.069   4.819 -1.4525  0.4152 -0.1705
 2038SOL    HW217748   4.022   0.001   4.795  1.1568  0.4625  2.3133
 2039SOL     OW17749   2.897   3.293  13.192 -0.9567 -0.5121  0.6499
 2039SOL    HW117750   2.864   3.375  13.229  2.0301  1.3123 -0.6853
 2039SOL    HW217751   2.989   3.311  13.211 -0.9479  0.2667 -0.1288
 2040SOL     OW17752   4.106   0.894  10.140  0.2129 -0.3504 -0.6678
 2040SOL    HW117753   4.136   0.861  10.056 -0.1247 -0.1657 -0.8600
 2040SOL    HW217754   4.032   0.946  10.108  0.4088  0.0557 -0.4728
 2041SOL     OW17755   1.949   0.232   3.617  0.2658  0.2015 -0.3110
 2041SOL    HW117756   1.957   0.278   3.701  1.8094 -2.6788  1.1018
 2041SOL    HW217757   1.966   0.310   3.565  0.9726 -0.3252 -0.8669
 2042SOL     OW17758   2.409   0.101   4.260 -0.1275  0.2854 -0.1321
 2042SOL    HW117759   2.428   0.020   4.306  2.4564  0.5879 -0.6670
 2042SOL    HW217760   2.496   0.124   4.227  0.3946  1.2475  1.9455
 2043SOL     OW17761   0.730   1.892   6.913 -0.1886 -0.0481  0.3152
 2043SOL    HW117762   0.726   1.814   6.968 -1.0156 -1.5188 -1.8491
 2043SOL    HW217763   0.824   1.909   6.905 -0.1489 -0.1304  0.6307
 2044SOL     OW17764   3.386   4.104   2.562 -0.2151  0.3532  0.1247
 2044SOL    HW117765   3.447   4.158   2.512  0.5132  1.5000  2.2467
 2044SOL    HW217766   3.385   4.028   2.504 -2.9698  1.5623 -1.4258
 2045SOL     OW17767   4.433   3.038   4.438  1.0277  0.0738  0.1194
 2045SOL    HW117768   4.343   3.015   4.460  0.2232  1.2551 -1.9231
 2045SOL    HW217769   4.469   2.973   4.377 -2.2475 -0.0475 -1.7163
 2046SOL     OW17770   3.450   3.704   8.892  0.0305 -0.4084  0.1008
 2046SOL    HW117771   3.406   3.660   8.964 -0.1534  0.6769  0.6384
 2046SOL    HW217772   3.378   3.736   8.837  1.3517  1.8435 -0.3252
 2047SOL     OW17773   3.656   0.284   7.535 -0.1788 -0.2292 -0.3153
 2047SOL    HW117774   3.751   0.289   7.525  0.2202 -1.4323  3.0333
 2047SOL    HW217775   3.647   0.214   7.470 -1.3464 -1.0987  0.7788
 2048SOL     OW17776   0.100   3.688   8.814 -0.2792  0.0086  0.4082
 2048SOL    HW117777   0.175   3.684   8.874  0.0580  0.6137  0.0262
 2048SOL    HW217778   0.139   3.635   8.744 -0.9245 -0.3005  0.2834
 2049SOL     OW17779   2.236   2.707  14.504 -0.3891  0.0351 -0.1884
 2049SOL    HW117780   2.250   2.773  14.436 -0.3382  0.1376 -0.0798
 2049SOL    HW217781   2.223   2.628  14.453 -2.3789  0.9073 -1.0158
 2050SOL     OW17782   0.518   1.266   4.579 -0.2867 -0.3991 -0.2310
 2050SOL    HW117783   0.603   1.301   4.553  0.0590 -0.3806  0.9320
 2050SOL    HW217784   0.483   1.223   4.501 -1.6538  1.3897 -0.6164
 2051SOL     OW17785   4.614   0.093  13.400 -0.4821 -0.1554  0.7319
 2051SOL    HW117786   4.630   0.184  13.426  4.1640 -1.0106  0.9844
 2051SOL    HW217787   4.623   0.045  13.482  0.8812  0.6292  1.0527
 2052SOL     OW17788   2.746   0.332   8.787  0.2307  0.2236 -0.1032
 2052SOL    HW117789   2.725   0.423   8.805 -1.1285 -0.0048 -0.4639
 2052SOL    HW217790   2.833   0.323   8.826  0.5717  0.5838 -0.7926
 2053SOL     OW17791   4.016   3.876   7.782  0.3101  0.3716 -0.1216
 2053SOL    HW117792   3.924   3.884   7.806 -0.3438  1.5662 -2.9342
 2053SOL    HW217793   4.021   3.789   7.743 -0.5876 -0.4967  1.6931
 2054SOL     OW17794   0.403   0.047  17.227 -0.4051 -0.3148 -0.7401
 2054SOL    HW117795   0.431   4.732  17.303  1.4914 -0.1081 -1.2833
 2054SOL    HW217796   0.380   0.134  17.262 -1.0931 -1.6544  2.1225
 2055SOL     OW17797   3.820   1.412   8.071 -0.1020  0.1147  0.3974
 2055SOL    HW117798   3.792   1.354   8.142  3.1922 -1.9165  0.0210
 2055SOL    HW217799   3.752   1.388   8.008  0.9634  1.8938 -1.4305
 2056SOL     OW17800   4.257   1.626   0.917  0.1220 -0.0559 -0.1347
 2056SOL    HW117801   4.254   1.715   0.954  1.8036 -1.0437  2.3326
 2056SOL    HW217802   4.344   1.599   0.943 -0.2499 -2.0971 -1.0308
 2057SOL     OW17803   3.139   3.809   2.631 -0.1229 -0.2411 -0.1204
 2057SOL    HW117804   3.218   3.785   2.680  0.8964  3.5998  0.1155
 2057SOL    HW217805   3.181   3.839   2.551 -0.3780 -1.9981 -0.9176
 2058SOL     OW17806   1.969   2.614   8.354 -0.1402 -0.3809 -0.1675
 2058SOL    HW117807   1.947   2.636   8.264 -0.3810  2.7928  0.6720
 2058SOL    HW217808   2.062   2.600   8.335  0.2696 -0.6393  2.0383
 2059SOL     OW17809   3.324   3.570   8.025 -0.3526  0.2274  0.1106
 2059SOL    HW117810   3.419   3.583   8.025 -0.1038 -1.6529 -2.1636
 2059SOL    HW217811   3.314   3.632   8.098  1.1643  0.6718 -0.0684
 2060SOL     OW17812   1.322   4.021   2.571  0.6258 -0.6269 -0.5006
 2060SOL    HW117813   1.295   3.997   2.483 -1.2937  3.4187 -1.0023
 2060SOL    HW217814   1.245   4.064   2.608 -0.2928 -0.4430 -2.6548
 2061SOL     OW17815   3.919   0.775   8.203 -0.2546 -0.0063  0.3090
 2061SOL    HW117816   4.015   0.778   8.202 -0.2371 -0.5396  1.0942
 2061SOL    HW217817   3.913   0.871   8.203  1.5529  0.1065 -1.6334
 2062SOL     OW17818   2.168   0.308   4.945  0.3528 -0.0901  0.1798
 2062SOL    HW117819   2.188   0.238   5.007 -2.0080 -0.3277  0.6839
 2062SOL    HW217820   2.187   0.384   5.001  0.3737 -1.0743  1.5215
 2063SOL     OW17821   3.569   2.605   5.961  0.1680  0.9680 -0.0863
 2063SOL    HW117822   3.656   2.600   6.000 -0.5120 -0.7223  1.2258
 2063SOL    HW217823   3.544   2.692   5.993 -1.1644  0.1461  1.0924
 2064SOL     OW17824   0.252   0.048  13.142 -0.2069  0.5702 -0.6723
 2064SOL    HW117825   0.204   0.115  13.190  1.2380  2.1375 -1.4409
 2064SOL    HW217826   0.187   4.714  13.130  0.1792 -0.1516  1.4213
 2065SOL     OW17827   2.045   4.375  13.683 -0.2567  0.1480  0.1615
 2065SOL    HW117828   2.093   4.338  13.609  0.3941  0.7461  0.2831
 2065SOL    HW217829   2.021   4.459  13.644 -0.9915 -0.4846 -0.7302
 2066SOL     OW17830   3.384   0.496   4.483  0.5878 -0.1638 -0.7988
 2066SOL    HW117831   3.420   0.418   4.441 -3.1634 -1.7350 -1.1047
 2066SOL    HW217832   3.465   0.527   4.523  0.8572 -2.9908  0.8507
 2067SOL     OW17833   3.771   3.996   4.910 -0.1929 -0.8556 -0.2820
 2067SOL    HW117834   3.806   4.000   4.821  0.3160  0.4159 -0.0268
 2067SOL    HW217835   3.847   4.025   4.960 -2.2326 -0.2550  2.4724
 2068SOL     OW17836   2.336   0.735   2.080  0.4036 -0.4384  0.3962
 2068SOL    HW117837   2.360   0.652   2.123  0.7108 -0.7717 -0.4283
 2068SOL    HW217838   2.277   0.703   2.012  0.7370 -2.7744  1.2036
 2069SOL     OW17839   1.103   0.525   0.941 -0.8862 -0.1748 -0.0644
 2069SOL    HW117840   1.010   0.542   0.926  0.0302  1.4986 -3.5663
 2069SOL    HW217841   1.131   0.590   0.878 -4.2541 -2.0023 -3.4470
 2070SOL     OW17842   3.207   1.209  14.495 -0.4019  0.5636 -0.3802
 2070SOL    HW117843   3.160   1.128  14.476 -2.0943  1.4585 -0.0874
 2070SOL    HW217844   3.257   1.215  14.414 -0.9103  1.7402 -0.6200
 2071SOL     OW17845   2.386   2.176   8.367  0.0235 -0.3338  0.2100
 2071SOL    HW117846   2.405   2.111   8.299 -1.9762  2.7385 -3.2207
 2071SOL    HW217847   2.294   2.195   8.354  0.1183 -0.4030 -0.5835
 2072SOL     OW17848   3.494   0.956   9.261  0.3385 -0.2135  0.0853
 2072SOL    HW117849   3.584   0.942   9.233  0.7076  1.9627  0.2104
 2072SOL    HW217850   3.499   1.040   9.306  0.6170  0.8293 -1.9128
 2073SOL     OW17851   0.186   4.117   4.873  0.1102  0.0484 -0.4630
 2073SOL    HW117852   0.225   4.182   4.815 -0.0272  1.6865  1.2574
 2073SOL    HW217853   0.151   4.048   4.817 -1.0062  0.5369 -0.3707
 2074SOL     OW17854   3.643   3.983   1.329  0.2254  0.7302  0.3564
 2074SOL    HW117855   3.701   3.946   1.396 -1.5021 -1.3298  0.7303
 2074SOL    HW217856   3.565   3.928   1.328  0.9430 -0.2259 -1.5420
 2075SOL     OW17857   1.538   2.439   5.267 -0.4817 -0.1019  0.6802
 2075SOL    HW117858   1.443   2.428   5.278 -0.2289 -2.8772 -0.1159
 2075SOL    HW217859   1.569   2.384   5.339 -1.1456 -2.4455 -0.8397
 2076SOL     OW17860   0.996   3.526   7.642 -0.2014  0.0031 -0.8967
 2076SOL    HW117861   1.086   3.502   7.667 -0.7864 -1.2522  0.0298
 2076SOL    HW217862   0.980   3.455   7.580 -2.2661 -0.8321  0.6202
 2077SOL     OW17863   1.398   1.628   1.836 -0.8602  0.0513  0.2975
 2077SOL    HW117864   1.453   1.563   1.879 -1.3619 -0.9251 -0.5361
 2077SOL    HW217865   1.314   1.582   1.833  1.0213 -3.3066 -0.2980
 2078SOL     OW17866   0.092   4.504   6.461 -0.9692  0.1678 -0.0965
 2078SOL    HW117867   0.070   4.415   6.487  0.7898 -0.1987  0.1181
 2078SOL    HW217868   0.009   4.550   6.449  0.9394  3.1973 -2.0357
 2079SOL     OW17869   3.452   0.447   7.574 -0.6109 -0.3577  0.0417
 2079SOL    HW117870   3.400   0.395   7.512 -0.7952 -0.2472  0.1026
 2079SOL    HW217871   3.538   0.411   7.556 -0.3616 -0.2526  1.0140
 2080SOL     OW17872   0.799   0.795   3.237  0.2295  0.0892 -0.2417
 2080SOL    HW117873   0.714   0.779   3.195  0.0419  1.7317 -0.4638
 2080SOL    HW217874   0.805   0.888   3.256  1.1716 -0.0361  0.0839
 2081SOL     OW17875   3.107   2.428  15.034 -0.4144 -0.4352  0.0737
 2081SOL    HW117876   3.046   2.355  15.046 -0.2148 -0.5582  0.3432
 2081SOL    HW217877   3.043   2.498  15.022  1.2881  1.0541 -0.4258
 2082SOL     OW17878   0.775   2.473   6.359 -0.1056 -0.3458 -0.1332
 2082SOL    HW117879   0.693   2.511   6.329  0.1246 -0.1128 -0.4749
 2082SOL    HW217880   0.747   2.402   6.417  0.5707  0.9181  1.7545
 2083SOL     OW17881   0.998   4.647  17.269 -0.2273 -0.1397  0.5220
 2083SOL    HW117882   1.084   4.676  17.299 -0.1450 -0.7757  0.8908
 2083SOL    HW217883   0.992   4.675  17.177  0.4860  0.4500  0.6544
 2084SOL     OW17884   3.798   3.308   3.606  0.0781  0.3576 -0.1627
 2084SOL    HW117885   3.882   3.328   3.648 -0.8733  2.9401  0.4545
 2084SOL    HW217886   3.794   3.358   3.525  0.1099  3.2399  1.6341
 2085SOL     OW17887   0.104   0.979  14.172 -0.2819 -0.5324 -0.0308
 2085SOL    HW117888   0.123   0.926  14.249  2.2698  0.8812  0.2945
 2085SOL    HW217889   0.187   1.024  14.156 -0.5158 -0.0484  0.1087
 2086SOL     OW17890   2.036   0.396  15.727  0.0028 -0.2743  0.5131
 2086SOL    HW117891   1.988   0.478  15.741  0.4955  0.4989 -2.2754
 2086SOL    HW217892   2.011   0.369  15.639 -1.6379 -0.9131  1.1812
 2087SOL     OW17893   1.361   0.264   9.269 -0.7907  0.2954  0.3230
 2087SOL    HW117894   1.447   0.235   9.299 -0.9564  0.3745  0.8679
 2087SOL    HW217895   1.387   0.351   9.236 -0.6664  0.4783  0.8994
 2088SOL     OW17896   0.375   3.689   3.783 -0.3981  0.2288  0.4709
 2088SOL    HW117897   0.302   3.675   3.723  0.6194  3.2922 -1.5021
 2088SOL    HW217898   0.357   3.623   3.850 -0.8658 -0.1083  0.0120
 2089SOL     OW17899   1.824   0.831   4.064 -0.4834  0.3044 -0.2322
 2089SOL    HW117900   1.870   0.864   3.986  0.3749  0.4255  0.3276
 2089SOL    HW217901   1.897   0.797   4.116 -1.5032  0.8926  1.5673
 2090SOL     OW17902   2.022   1.673  13.884 -0.2774  0.3286  0.1037
 2090SOL    HW117903   2.055   1.586  13.861 -2.5186 -0.2169 -1.0364
 2090SOL    HW217904   2.062   1.680  13.970  1.5008 -1.5689 -0.5751
 2091SOL     OW17905   4.349   1.478  17.101 -0.1501 -0.3672  0.6698
 2091SOL    HW117906   4.269   1.483  17.049 -0.4264 -1.0761  1.0212
 2091SOL    HW217907   4.396   1.551  17.062 -1.5427  1.0587  1.6652
 2092SOL     OW17908   3.361   2.935  14.590  0.2987 -0.2613 -0.6844
 2092SOL    HW117909   3.331   2.860  14.642 -3.1067  0.6398 -1.3700
 2092SOL    HW217910   3.372   3.001  14.658 -0.3280 -0.1235 -0.7137
 2093SOL     OW17911   2.469   3.534   4.352  0.8173  0.0578 -0.4479
 2093SOL    HW117912   2.392   3.511   4.299  0.4098 -0.1305  0.2205
 2093SOL    HW217913   2.532   3.469   4.324 -0.7565 -1.0185 -1.5045
 2094SOL     OW17914   3.841   3.989   2.207  0.1829 -0.0127 -0.0876
 2094SOL    HW117915   3.771   3.966   2.146  0.9540  0.3453 -1.1123
 2094SOL    HW217916   3.822   3.916   2.265 -0.4893  1.4200  1.4977
 2095SOL     OW17917   2.840   3.989   8.539  0.7001 -0.3360  0.3569
 2095SOL    HW117918   2.813   4.071   8.580 -0.4103  0.1939 -1.4610
 2095SOL    HW217919   2.917   4.021   8.492 -1.3649  1.2503 -1.9053
 2096SOL     OW17920   2.845   0.053   2.520 -0.5680 -0.2059  0.3980
 2096SOL    HW117921   2.901   0.093   2.453 -1.6949  0.7767  0.0340
 2096SOL    HW217922   2.765   0.103   2.501 -0.6084  0.1523  1.5071
 2097SOL     OW17923   1.075   2.499  17.700  1.0282  0.5657  0.0625
 2097SOL    HW117924   1.042   2.574   0.008 -2.6697 -0.8165 -0.3162
 2097SOL    HW217925   1.133   2.545  17.639  0.5183  0.7431 -0.2830
 2098SOL     OW17926   2.070   1.383   3.618 -0.4489 -0.0320  0.1759
 2098SOL    HW117927   2.051   1.458   3.563  1.2350  0.0511 -0.2740
 2098SOL    HW217928   2.097   1.322   3.550 -0.3878 -2.9867  2.8334
 2099SOL     OW17929   3.621   3.532   2.922  0.5947 -0.2575  0.1724
 2099SOL    HW117930   3.619   3.438   2.942 -1.1822 -0.7139 -2.1274
 2099SOL    HW217931   3.666   3.536   2.837  1.9074 -2.8172  0.7422
 2100SOL     OW17932   1.967   2.288   3.702  0.2788 -0.2657 -0.2499
 2100SOL    HW117933   1.925   2.358   3.750  1.0911 -0.3074  0.5198
 2100SOL    HW217934   1.894   2.226   3.704  1.2654 -1.4525 -0.9915
 2101SOL     OW17935   0.838   0.675   5.458 -0.3375 -0.0620  0.2322
 2101SOL    HW117936   0.791   0.749   5.496 -0.1893  0.3725 -0.4238
 2101SOL    HW217937   0.774   0.604   5.460  1.1404 -1.4387 -0.7791
 2102SOL     OW17938   0.417   0.283   5.329  0.3619  0.2440 -0.2339
 2102SOL    HW117939   0.508   0.254   5.332  0.8588  1.8502  0.8588
 2102SOL    HW217940   0.420   0.326   5.244 -2.3787 -0.9514 -0.9249
 2103SOL     OW17941   1.998   2.771   6.377 -0.0729 -0.4068  0.4824
 2103SOL    HW117942   1.938   2.787   6.450 -3.0332 -2.5872 -1.5081
 2103SOL    HW217943   1.970   2.843   6.320 -1.1563  0.3434  1.9866
 2104SOL     OW17944   2.480   0.666  13.138 -0.1367 -0.0572 -0.1499
 2104SOL    HW117945   2.390   0.662  13.171 -0.0051 -0.4200  0.1570
 2104SOL    HW217946   2.515   0.737  13.192 -1.0808 -1.0828  1.8009
 2105SOL     OW17947   1.924   0.623  11.294  0.1301 -0.0887  0.7258
 2105SOL    HW117948   1.916   0.598  11.386 -0.5151  1.3411  1.0560
 2105SOL    HW217949   1.841   0.670  11.283 -0.4006 -1.0708  0.5516
 2106SOL     OW17950   4.703   2.421   7.509  0.1297  0.0328  0.1953
 2106SOL    HW117951   0.021   2.374   7.446 -1.1292  0.5918 -1.2808
 2106SOL    HW217952   4.623   2.403   7.459 -0.0581  1.9129 -0.1861
 2107SOL     OW17953   1.508   1.542  11.927  0.1264  0.8469 -0.3056
 2107SOL    HW117954   1.424   1.499  11.908 -1.1506  2.3899  1.7613
 2107SOL    HW217955   1.538   1.480  11.993 -1.0240 -0.8498 -1.3872
 2108SOL     OW17956   3.786   0.413   9.640  0.7415  0.0473 -0.7586
 2108SOL    HW117957   3.857   0.411   9.704 -0.0071  0.1183  0.0709
 2108SOL    HW217958   3.714   0.380   9.693  0.5623 -0.6653 -1.4389
 2109SOL     OW17959   0.615   3.340  12.989  0.3893  0.0305 -0.3358
 2109SOL    HW117960   0.694   3.312  13.035 -0.2292  0.1199  0.7675
 2109SOL    HW217961   0.558   3.281  13.039  0.0012  0.2594 -0.5058
 2110SOL     OW17962   0.026   0.222   3.138  0.2724  0.3127 -0.4141
 2110SOL    HW117963   4.690   0.252   3.083  1.0503  2.0874 -0.4695
 2110SOL    HW217964   0.044   0.302   3.189  1.2421 -1.0470  1.3946
 2111SOL     OW17965   1.872   0.726  15.121  0.6478  0.1532 -0.0669
 2111SOL    HW117966   1.888   0.815  15.089 -0.9050  1.1043  1.8105
 2111SOL    HW217967   1.796   0.748  15.175  2.2969 -1.2731  2.8937
 2112SOL     OW17968   1.564   0.068   7.030  0.1461 -0.1102 -0.2557
 2112SOL    HW117969   1.544   0.105   6.944 -0.0717  0.5321  0.0702
 2112SOL    HW217970   1.506   4.732   7.005 -1.2831  0.4525  1.4259
 2113SOL     OW17971   0.205   2.088   7.132  0.1257 -0.1309  0.0019
 2113SOL    HW117972   0.242   2.084   7.221  0.9275 -0.6481 -0.3483
 2113SOL    HW217973   0.270   2.037   7.084  0.6388 -0.7185  1.3141
 2114SOL     OW17974   1.809   3.783  15.516  0.5844 -0.0589 -0.1510
 2114SOL    HW117975   1.839   3.708  15.465 -1.4182 -0.0448 -1.3642
 2114SOL    HW217976   1.756   3.839  15.458  0.9001  1.9060  1.4333
 2115SOL     OW17977   3.292   0.957   7.401 -0.7956 -0.2171 -0.0940
 2115SOL    HW117978   3.329   0.927   7.484 -0.9569  1.1654  0.4717
 2115SOL    HW217979   3.204   0.981   7.429 -1.1537 -0.7644 -0.7413
 2116SOL     OW17980   3.517   1.214   4.100  0.3695 -0.3627 -0.3012
 2116SOL    HW117981   3.436   1.261   4.080  0.2052 -0.5806 -0.1520
 2116SOL    HW217982   3.570   1.283   4.140 -0.3910 -0.8248  1.4966
 2117SOL     OW17983   3.704   0.258   7.000  0.6959  0.2616 -0.6425
 2117SOL    HW117984   3.664   0.222   6.921 -0.2040  2.3421 -1.1370
 2117SOL    HW217985   3.675   0.190   7.060 -1.0160  2.9696  1.5865
 2118SOL     OW17986   3.836   2.151  10.119 -0.1183  0.1736  0.4022
 2118SOL    HW117987   3.887   2.084  10.165  0.9537  0.2685 -0.6450
 2118SOL    HW217988   3.787   2.198  10.186  0.2701 -0.3109  1.0210
 2119SOL     OW17989   0.450   0.635   9.191  0.1987 -0.2436  0.4762
 2119SOL    HW117990   0.462   0.628   9.286  1.7775  2.5952  0.4732
 2119SOL    HW217991   0.359   0.608   9.179 -0.3076  2.6427 -2.0047
 2120SOL     OW17992   2.287   0.921   5.124  0.1162 -0.1744 -0.4847
 2120SOL    HW117993   2.198   0.885   5.120 -0.6772  1.9892 -2.6401
 2120SOL    HW217994   2.282   0.996   5.064  3.2365  0.8281  0.5085
 2121SOL     OW17995   2.368   1.819   0.815  0.0463 -1.0016 -0.9084
 2121SOL    HW117996   2.439   1.756   0.827 -0.1818 -0.9950  0.4691
 2121SOL    HW217997   2.402   1.895   0.863 -3.0419  1.1594 -2.1569
 2122SOL     OW17998   1.944   4.283   5.259  0.1478 -0.9646 -0.3022
 2122SOL    HW117999   1.912   4.202   5.298  0.2477  1.1110  4.0928
 2122SOL    HW218000   1.869   4.289   5.200 -0.5927 -0.1224  0.7153
 2123SOL     OW18001   2.767   2.789  11.765  0.4133 -0.0166  0.4676
 2123SOL    HW118002   2.795   2.852  11.698 -1.6679  0.2467 -0.1707
 2123SOL    HW218003   2.696   2.735  11.730  0.3048 -0.1525  0.8945
 2124SOL     OW18004   4.456   1.661   5.190 -0.0795 -0.5674 -0.0873
 2124SOL    HW118005   4.400   1.613   5.129 -0.0209 -1.9709  0.9884
 2124SOL    HW218006   4.394   1.704   5.249  2.7779  2.0259  1.0967
 2125SOL     OW18007   4.566   4.488   1.786  0.0815  0.3844 -0.0924
 2125SOL    HW118008   4.650   4.526   1.814 -1.0315  1.9780  1.1224
 2125SOL    HW218009   4.539   4.550   1.719  0.2022 -0.1729 -0.6496
 2126SOL     OW18010   3.538   0.921   5.829 -0.2272  0.4631 -0.6887
 2126SOL    HW118011   3.592   0.935   5.752  0.7530  0.1631 -0.0569
 2126SOL    HW218012   3.573   0.983   5.893  0.5660 -0.8605  0.1556
 2127SOL     OW18013   4.702   3.095   9.639  0.0530 -0.7552  0.1216
 2127SOL    HW118014   0.030   3.025   9.623  1.1881 -0.3142  2.6183
 2127SOL    HW218015   0.018   3.149   9.699  0.3615 -0.7302 -0.1722
 2128SOL     OW18016   2.705   0.848   0.283  0.3909  0.0391  0.1443
 2128SOL    HW118017   2.618   0.807   0.280  1.2094 -1.5775 -2.1598
 2128SOL    HW218018   2.768   0.778   0.269 -1.7085 -0.6766 -5.8074
 2129SOL     OW18019   4.603   3.850  15.864 -0.2098 -0.8393  0.5130
 2129SOL    HW118020   4.573   3.814  15.781  0.8830 -1.3283  0.3363
 2129SOL    HW218021   4.689   3.809  15.869 -1.0903 -2.4319  2.4779
 2130SOL     OW18022   3.294   1.106  16.329 -0.1471  0.0315  0.0799
 2130SOL    HW118023   3.301   1.167  16.256  0.0607  0.3558  0.3711
 2130SOL    HW218024   3.390   1.107  16.327 -0.1574  1.6968  0.3926
 2131SOL     OW18025   2.851   0.099  15.089  0.2795 -0.5152 -0.3060
 2131SOL    HW118026   2.932   0.144  15.110 -1.0775  1.5218  0.5902
 2131SOL    HW218027   2.816   0.162  15.025 -1.3848 -1.0089  0.1062
 2132SOL     OW18028   2.293   4.433   3.793  0.3363 -0.2085 -0.2127
 2132SOL    HW118029   2.354   4.507   3.795  0.4808 -0.3077 -0.8870
 2132SOL    HW218030   2.226   4.461   3.856 -0.7550  0.1897 -1.5435
 2133SOL     OW18031   3.330   3.033  13.069 -0.3855  0.1101  0.2205
 2133SOL    HW118032   3.258   2.977  13.040 -0.8725  1.0265 -0.3112
 2133SOL    HW218033   3.399   3.008  13.007  0.5695 -0.7192  1.6016
 2134SOL     OW18034   2.708   3.568   8.528  0.3759 -0.0034 -0.2540
 2134SOL    HW118035   2.666   3.651   8.505  1.7005  1.5797  3.0273
 2134SOL    HW218036   2.707   3.527   8.442 -1.5854  1.0971 -0.7557
 2135SOL     OW18037   2.432   0.639   2.496 -0.3756 -0.3889 -0.3293
 2135SOL    HW118038   2.406   0.659   2.585 -0.7558 -2.2626 -0.0217
 2135SOL    HW218039   2.433   0.728   2.460  0.5908  0.1552  1.0659
 2136SOL     OW18040   4.188   2.185   9.100 -0.6379  0.3431  0.5884
 2136SOL    HW118041   4.202   2.280   9.095  0.6930  0.0346 -1.3151
 2136SOL    HW218042   4.273   2.163   9.064 -0.5664 -1.6271  1.9967
 2137SOL     OW18043   3.172   2.823   9.938 -0.1569  0.5090 -0.4216
 2137SOL    HW118044   3.223   2.901   9.918 -0.7174  0.6749 -1.1698
 2137SOL    HW218045   3.081   2.850   9.930 -0.2530  0.4154  0.3001
 2138SOL     OW18046   3.800   0.637   3.948 -0.4261 -0.6967  0.5067
 2138SOL    HW118047   3.791   0.547   3.981  1.2077 -0.7807  0.7168
 2138SOL    HW218048   3.718   0.670   3.986 -0.6140  1.9517 -2.2931
 2139SOL     OW18049   0.887   2.972   7.468 -0.1392 -0.3311 -0.3196
 2139SOL    HW118050   0.934   3.012   7.396 -0.5709  1.2892  0.2937
 2139SOL    HW218051   0.809   2.939   7.424 -1.9748  2.8181  0.5358
 2140SOL     OW18052   4.625   2.656   4.837 -0.1118 -0.0847  0.1072
 2140SOL    HW118053   4.586   2.571   4.815  1.0365 -0.9735  1.4400
 2140SOL    HW218054   4.605   2.661   4.931  1.4551  0.8743  0.3920
 2141SOL     OW18055   2.747   2.605   2.510 -0.2742  0.0049 -0.0334
 2141SOL    HW118056   2.812   2.597   2.440 -2.2401  1.0651 -1.9421
 2141SOL    HW218057   2.800   2.601   2.590  1.3764 -1.6583 -1.2012
 2142SOL     OW18058   1.462   1.442   4.430  0.2989 -0.1854 -0.5626
 2142SOL    HW118059   1.513   1.427   4.351  0.7287 -1.2666 -0.0834
 2142SOL    HW218060   1.374   1.462   4.399  0.0603 -0.0606  0.1840
 2143SOL     OW18061   1.775   0.335   8.585 -0.3979 -0.0524  0.3518
 2143SOL    HW118062   1.849   0.290   8.544 -1.8236 -0.5276 -1.7125
 2143SOL    HW218063   1.735   0.374   8.507 -1.9531 -1.3798  0.5001
 2144SOL     OW18064   3.353   4.630  12.249  0.5432  0.2115 -0.2945
 2144SOL    HW118065   3.311   4.706  12.209  1.1421 -0.0151 -1.3596
 2144SOL    HW218066   3.283   4.594  12.303  2.2011 -0.0934  1.6613
 2145SOL     OW18067   1.728   3.757  15.774 -0.1365 -0.0605 -0.4108
 2145SOL    HW118068   1.792   3.762  15.703  1.1140 -2.6108  0.5198
 2145SOL    HW218069   1.699   3.667  15.755  2.7189 -1.1868  0.4777
 2146SOL     OW18070   1.679   0.144   3.924 -0.5731  0.4082  0.3245
 2146SOL    HW118071   1.645   0.232   3.910  0.8024  0.7856 -0.6771
 2146SOL    HW218072   1.606   0.083   3.928  0.5589 -0.5414  6.4898
 2147SOL     OW18073   1.642   1.135  15.389 -0.4859 -0.3845 -0.3015
 2147SOL    HW118074   1.717   1.193  15.372 -1.0030  0.5352  0.5605
 2147SOL    HW218075   1.568   1.194  15.376 -0.0875  0.2701  0.4238
 2148SOL     OW18076   1.255   4.129   3.905 -0.0382  0.4573 -0.6327
 2148SOL    HW118077   1.241   4.218   3.937  1.8220  0.7151 -0.5525
 2148SOL    HW218078   1.247   4.138   3.810 -1.7523  0.3785 -0.4970
 2149SOL     OW18079   1.512   1.079   6.295 -0.6077  0.2551 -0.0601
 2149SOL    HW118080   1.431   1.047   6.254  0.2464  0.1669 -1.6941
 2149SOL    HW218081   1.500   1.033   6.378 -0.3320  0.1912 -0.0562
 2150SOL     OW18082   4.287   3.377   2.341 -0.6068  0.5146 -0.5675
 2150SOL    HW118083   4.345   3.387   2.415  0.4367  2.6295 -1.6923
 2150SOL    HW218084   4.342   3.335   2.275 -0.4845 -0.4364  0.1401
 2151SOL     OW18085   1.233   1.967   9.026  0.1124  0.3548  0.2442
 2151SOL    HW118086   1.264   1.990   9.114 -1.7646  0.7813  0.7904
 2151SOL    HW218087   1.145   2.003   9.030 -0.3509 -0.9557  1.4900
 2152SOL     OW18088   1.853   0.816   6.751 -0.2831  0.0452  0.5217
 2152SOL    HW118089   1.804   0.894   6.778  0.8323  1.0102 -0.2383
 2152SOL    HW218090   1.791   0.782   6.688 -0.3945 -0.3760  0.8623
 2153SOL     OW18091   0.743   1.888  10.959 -0.2910 -0.1347  0.1702
 2153SOL    HW118092   0.695   1.872  10.878  0.9703 -1.2255 -0.3702
 2153SOL    HW218093   0.677   1.900  11.027 -1.6029 -0.1693 -1.0908
 2154SOL     OW18094   3.341   1.260  15.331  0.5825 -0.1083  0.1365
 2154SOL    HW118095   3.426   1.220  15.312  0.4314 -0.9363  1.2046
 2154SOL    HW218096   3.364   1.350  15.353 -1.3267  0.8002 -1.5926
 2155SOL     OW18097   3.250   2.391  15.694 -0.7443  0.4505 -0.2783
 2155SOL    HW118098   3.197   2.317  15.663  0.4360 -0.5188  0.0043
 2155SOL    HW218099   3.223   2.401  15.785 -1.0347 -1.0486 -0.2042
 2156SOL     OW18100   2.803   1.030   7.973  0.1000  0.0648  0.2358
 2156SOL    HW118101   2.887   1.040   8.017  0.4240  2.0985 -0.8508
 2156SOL    HW218102   2.739   1.038   8.043  0.4017 -1.0890  0.6477
 2157SOL     OW18103   2.335   0.387   0.675 -0.3497  0.3436  0.6463
 2157SOL    HW118104   2.380   0.374   0.759 -0.2963  1.7260  0.8259
 2157SOL    HW218105   2.368   0.307   0.633 -0.0379  1.3582 -1.0289
 2158SOL     OW18106   3.310   2.093   7.937 -0.2886 -0.0126 -0.3448
 2158SOL    HW118107   3.277   2.132   8.018  1.3657  0.0648  0.2895
 2158SOL    HW218108   3.400   2.066   7.957 -0.4990  0.3939  1.1108
 2159SOL     OW18109   4.193   4.240   1.631 -0.1669 -0.4980  0.2628
 2159SOL    HW118110   4.252   4.216   1.560 -0.0344 -0.0093  0.2108
 2159SOL    HW218111   4.162   4.328   1.612  2.3573 -0.3149 -2.8851
 2160SOL     OW18112   0.067   4.178   1.829  0.6400 -0.9917  0.6235
 2160SOL    HW118113   0.035   4.201   1.742 -0.7264 -2.0988  0.8339
 2160SOL    HW218114   4.734   4.214   1.886  2.0870  1.6058  0.7421
 2161SOL     OW18115   1.009   4.650   4.297  0.4134 -0.3240 -0.2045
 2161SOL    HW118116   1.090   4.614   4.260  2.2577  1.9213  1.6737
 2161SOL    HW218117   1.027   0.007   4.285 -0.6997 -0.1257 -0.4179
 2162SOL     OW18118   0.613   2.856  10.806  0.0969 -0.7310  0.3152
 2162SOL    HW118119   0.615   2.869  10.901 -1.5790 -1.8912  0.4914
 2162SOL    HW218120   0.544   2.792  10.795  0.9985 -1.3386 -1.8582
 2163SOL     OW18121   3.536   3.291   7.088 -0.5949 -0.2930 -0.1930
 2163SOL    HW118122   3.620   3.249   7.106 -0.5919 -0.2423 -0.0903
 2163SOL    HW218123   3.537   3.283   6.993  0.9678  2.3614 -0.3963
 2164SOL     OW18124   3.903   0.456   7.150  0.2003  0.0163 -0.1629
 2164SOL    HW118125   3.823   0.407   7.130  0.3647  0.6942 -2.5754
 2164SOL    HW218126   3.967   0.397   7.111 -0.4236 -1.3802  0.9289
 2165SOL     OW18127   4.104   1.126   5.931  0.0247 -0.1321  0.5153
 2165SOL    HW118128   4.188   1.167   5.911 -1.0998  1.7742 -0.3843
 2165SOL    HW218129   4.093   1.167   6.017  2.6614 -0.4253  0.9820
 2166SOL     OW18130   2.701   3.288   4.991  0.2372 -0.2247  0.2429
 2166SOL    HW118131   2.738   3.244   4.915 -2.1324 -1.6352 -0.0941
 2166SOL    HW218132   2.690   3.378   4.960 -1.5202 -1.1413 -1.8264
 2167SOL     OW18133   0.084   1.483  14.499 -0.1818  0.2143  0.3314
 2167SOL    HW118134   0.130   1.521  14.424  0.2429 -2.1377 -0.5747
 2167SOL    HW218135   0.157   1.439  14.543 -0.2075 -0.6111 -0.4676
 2168SOL     OW18136   2.571   4.602  13.693 -0.0331 -0.3217  0.1121
 2168SOL    HW118137   2.667   4.599  13.690  0.0154 -0.0943  1.4217
 2168SOL    HW218138   2.556   4.617  13.786  1.3879  0.9247  0.1291
 2169SOL     OW18139   0.127   4.548   0.530  0.3044 -0.2868  0.2553
 2169SOL    HW118140   0.118   4.622   0.591  0.9094 -0.4843  0.5802
 2169SOL    HW218141   0.066   4.485   0.568 -0.2264 -0.3832 -0.7673
 2170SOL     OW18142   0.462   4.201   7.198  0.4115 -0.6960 -0.3612
 2170SOL    HW118143   0.554   4.203   7.173  0.0500 -1.2017 -1.7268
 2170SOL    HW218144   0.453   4.288   7.239  0.3997 -0.8905  0.0516
 2171SOL     OW18145   1.668   1.792  13.566 -0.0758 -0.0351  0.7620
 2171SOL    HW118146   1.709   1.726  13.510  1.6579  1.2493  0.5387
 2171SOL    HW218147   1.600   1.742  13.611 -0.7973  0.6248  0.4068
 2172SOL     OW18148   1.120   1.552   2.914  0.0026  0.4262 -0.5902
 2172SOL    HW118149   1.036   1.592   2.895 -1.4033 -3.1627 -1.9585
 2172SOL    HW218150   1.135   1.579   3.005 -0.7682 -1.6738  0.1643
 2173SOL     OW18151   1.230   4.432   6.888 -0.0118 -0.4444 -0.0585
 2173SOL    HW118152   1.298   4.388   6.837 -2.3884 -1.0822 -2.6500
 2173SOL    HW218153   1.163   4.364   6.876 -2.0446  1.4164  0.7525
 2174SOL     OW18154   1.532   1.473   4.150 -0.4607  0.7583  0.3303
 2174SOL    HW118155   1.621   1.498   4.125 -0.4691 -1.1072 -1.5908
 2174SOL    HW218156   1.483   1.555   4.156 -1.2678  0.4348 -1.6873
 2175SOL     OW18157   4.173   4.209   7.231 -0.5671 -0.1828 -0.2832
 2175SOL    HW118158   4.087   4.203   7.191 -0.5379  2.5642 -0.7638
 2175SOL    HW218159   4.190   4.295   7.193  0.4868  0.1807  0.9711
 2176SOL     OW18160   0.667   4.602  11.118 -0.1825 -0.2517 -0.2393
 2176SOL    HW118161   0.582   4.559  11.129 -0.1589 -0.5720 -1.3406
 2176SOL    HW218162   0.644   4.685  11.076 -0.5057 -0.4227 -0.3981
 2177SOL     OW18163   2.509   4.325   4.670 -0.5456  0.3181  0.0696
 2177SOL    HW118164   2.536   4.360   4.585 -1.4885 -0.6039 -0.6149
 2177SOL    HW218165   2.428   4.283   4.642 -0.8625  0.9991 -0.0240
 2178SOL     OW18166   0.740   1.448   4.928  0.2925 -0.8594  0.3207
 2178SOL    HW118167   0.724   1.476   4.838  0.3625  1.2119  0.9536
 2178SOL    HW218168   0.834   1.466   4.923 -0.2775  1.6759 -1.1404
 2179SOL     OW18169   3.072   1.388   6.293 -0.2166 -0.2527 -0.1222
 2179SOL    HW118170   2.985   1.384   6.254 -0.7947 -2.6521  1.3964
 2179SOL    HW218171   3.132   1.406   6.221 -2.0045 -0.1530 -1.5836
 2180SOL     OW18172   4.142   0.469   3.660 -0.3360  0.4603 -0.7857
 2180SOL    HW118173   4.063   0.516   3.684  0.0259  0.2023  0.9751
 2180SOL    HW218174   4.138   0.397   3.723  2.9316  0.6513 -0.3145
 2181SOL     OW18175   3.009   2.382   1.736  0.0192 -0.3486  0.5126
 2181SOL    HW118176   2.962   2.449   1.687 -2.3346 -2.0858  0.4412
 2181SOL    HW218177   3.016   2.314   1.669 -0.2791  0.3429 -0.2291
 2182SOL     OW18178   4.269   3.811   5.648  0.0846 -0.0376  0.2106
 2182SOL    HW118179   4.269   3.793   5.554 -0.1354 -4.1069  0.9714
 2182SOL    HW218180   4.274   3.906   5.639  1.8292 -0.1361 -0.0151
 2183SOL     OW18181   2.867   1.887   8.429 -0.2363  0.2750 -0.6303
 2183SOL    HW118182   2.844   1.896   8.522  1.6907 -0.1515 -0.1052
 2183SOL    HW218183   2.786   1.846   8.399 -0.5272  2.5782 -2.9565
 2184SOL     OW18184   0.885   3.042   4.127  0.1027  0.3677 -0.1046
 2184SOL    HW118185   0.806   3.083   4.164  1.0710  1.3799  0.8164
 2184SOL    HW218186   0.882   3.070   4.035 -2.2342  1.2468  0.2288
 2185SOL     OW18187   0.206   2.542  16.126  0.1560  0.2420  0.7801
 2185SOL    HW118188   0.172   2.624  16.163  1.7735  0.9476  0.7185
 2185SOL    HW218189   0.166   2.544  16.039  1.5425 -1.0575  0.1257
 2186SOL     OW18190   1.023   4.267   6.809  0.7496  0.0389 -0.3027
 2186SOL    HW118191   1.002   4.208   6.736 -0.1854 -0.9689  0.7808
 2186SOL    HW218192   1.025   4.205   6.882 -1.8365 -0.7905 -0.9486
 2187SOL     OW18193   2.667   0.731  13.965  0.0847  0.2247  0.3589
 2187SOL    HW118194   2.675   0.739  13.870  0.7247 -3.4202  0.0977
 2187SOL    HW218195   2.744   0.782  13.991  0.1420 -0.4060  1.4069
 2188SOL     OW18196   2.698   4.556   6.186  0.3490  0.2443  0.1161
 2188SOL    HW118197   2.778   4.601   6.159  1.2626 -1.1705  0.4363
 2188SOL    HW218198   2.659   4.614   6.251  0.6261  1.5413 -0.8840
 2189SOL     OW18199   1.334   2.028   7.322  0.4264  0.0579 -0.1632
 2189SOL    HW118200   1.318   2.104   7.266 -0.3847 -0.7328 -1.0206
 2189SOL    HW218201   1.285   1.961   7.273 -1.0923  0.3086  1.0261
 2190SOL     OW18202   2.429   0.429   7.229 -0.2568 -0.6433 -0.2711
 2190SOL    HW118203   2.479   0.433   7.147  1.0804  1.9661  0.6762
 2190SOL    HW218204   2.489   0.483   7.281 -0.0566 -1.0886 -0.0332
 2191SOL     OW18205   1.761   1.510  17.101 -0.6584 -0.2503  0.1444
 2191SOL    HW118206   1.740   1.417  17.112 -0.9793 -0.3827 -1.5834
 2191SOL    HW218207   1.837   1.509  17.043  0.4616  3.0975  1.5663
 2192SOL     OW18208   3.610   1.580   3.336 -0.9518 -0.0233  0.6932
 2192SOL    HW118209   3.634   1.640   3.266  1.4634 -3.1667 -1.1801
 2192SOL    HW218210   3.521   1.608   3.359 -2.0629 -1.8762 -1.2582
 2193SOL     OW18211   4.200   2.853   7.454  0.0715  0.1585  0.1441
 2193SOL    HW118212   4.153   2.830   7.374 -0.8480 -0.4814  0.8730
 2193SOL    HW218213   4.262   2.920   7.425  0.2013 -1.5618 -3.6541
 2194SOL     OW18214   0.178   2.146   0.747 -0.1818  0.0926 -0.8887
 2194SOL    HW118215   0.244   2.077   0.737 -0.9765 -0.6009 -1.3057
 2194SOL    HW218216   0.189   2.177   0.837  1.9106 -0.2579 -1.0251
 2195SOL     OW18217   0.224   2.622   3.743  0.0040 -0.0774  0.2381
 2195SOL    HW118218   0.313   2.641   3.715 -0.3732  1.8531  0.3922
 2195SOL    HW218219   0.240   2.571   3.823  0.6366  1.3527  1.0041
 2196SOL     OW18220   2.384   4.475   7.571  1.0442 -1.0607  0.2941
 2196SOL    HW118221   2.431   4.413   7.626  1.3824 -0.0822  1.1151
 2196SOL    HW218222   2.296   4.451   7.599 -0.2969  2.9700 -0.4988
 2197SOL     OW18223   0.832   0.118   8.963  0.1676 -0.0055  0.1883
 2197SOL    HW118224   0.875   0.199   8.987 -0.0658 -0.0204  0.6486
 2197SOL    HW218225   0.828   0.130   8.868  0.4615  2.5482  0.5044
 2198SOL     OW18226   2.336   0.103   2.485 -0.0909  0.5711 -0.1428
 2198SOL    HW118227   2.385   0.080   2.406 -0.4996 -2.0823  0.3739
 2198SOL    HW218228   2.381   0.183   2.509  1.2077 -0.3967  0.6173
 2199SOL     OW18229   3.695   1.807   5.569 -0.0774 -1.4581  0.2585
 2199SOL    HW118230   3.767   1.867   5.552 -0.7600 -1.0324 -1.1795
 2199SOL    HW218231   3.660   1.830   5.655  1.0296 -1.3084  0.6670
 2200SOL     OW18232   2.030   1.772  13.518 -0.2690  0.1916 -0.5178
 2200SOL    HW118233   2.025   1.847  13.578 -0.5862  1.6408 -2.3591
 2200SOL    HW218234   2.124   1.754  13.520 -0.7326 -2.1513  0.4278
 2201SOL     OW18235   1.294   0.521   6.774  0.5184 -0.2039 -0.3910
 2201SOL    HW118236   1.326   0.502   6.862 -0.9892 -1.8085 -0.1818
 2201SOL    HW218237   1.251   0.438   6.753 -0.1112  0.3201 -1.1572
 2202SOL     OW18238   1.075   2.240   3.390  0.0086 -0.0373 -0.4539
 2202SOL    HW118239   1.090   2.203   3.303  0.1679  0.1791 -0.5208
 2202SOL    HW218240   1.112   2.170   3.444 -0.2982 -0.0289 -0.2342
 2203SOL     OW18241   0.713   2.814   2.095 -0.2107 -0.9429 -0.3122
 2203SOL    HW118242   0.642   2.878   2.102  1.4145  0.8022  0.0894
 2203SOL    HW218243   0.775   2.841   2.162 -0.8471  0.3391 -0.2550
 2204SOL     OW18244   4.042   0.190  10.476  0.0029 -0.3610 -0.1531
 2204SOL    HW118245   4.062   0.275  10.437 -0.9734 -0.5483 -1.0764
 2204SOL    HW218246   3.952   0.207  10.503  0.5371  0.9461  0.8114
 2205SOL     OW18247   3.908   1.827   0.408  0.4350  0.6530  0.0095
 2205SOL    HW118248   3.874   1.896   0.351 -1.4464 -0.5794 -0.3475
 2205SOL    HW218249   3.913   1.871   0.493 -1.5510 -2.2131  1.5976
 2206SOL     OW18250   4.484   0.958   5.106 -0.1225  0.5406 -0.1696
 2206SOL    HW118251   4.566   0.912   5.122  0.5526  1.9075  0.2746
 2206SOL    HW218252   4.440   0.897   5.047 -2.7845  1.9981  0.3185
 2207SOL     OW18253   4.093   2.887   8.231 -0.3841  0.4141  0.3533
 2207SOL    HW118254   4.009   2.900   8.274 -0.9938 -1.7132 -0.2253
 2207SOL    HW218255   4.147   2.953   8.276  0.1695  0.3628 -0.2248
 2208SOL     OW18256   0.539   3.059   0.231 -0.2478 -0.1409  0.7161
 2208SOL    HW118257   0.468   3.071   0.294 -1.3054 -1.7243 -0.2064
 2208SOL    HW218258   0.604   3.014   0.286  0.9231 -1.7853 -2.0265
 2209SOL     OW18259   0.907   1.398  10.220 -0.4194  0.1493 -0.0310
 2209SOL    HW118260   0.831   1.456  10.213  0.2641  1.0015 -0.3758
 2209SOL    HW218261   0.871   1.310  10.209  1.5099 -0.4524 -1.4806
 2210SOL     OW18262   3.104   1.653   7.903  0.6409  0.2449  0.1471
 2210SOL    HW118263   3.095   1.609   7.987 -2.6194  1.3204  0.3697
 2210SOL    HW218264   3.065   1.589   7.843 -1.1213  1.8852 -0.4612
 2211SOL     OW18265   1.168   1.335   6.772  0.5760 -0.2331 -0.0365
 2211SOL    HW118266   1.110   1.287   6.713  0.5148 -1.4488  0.9931
 2211SOL    HW218267   1.170   1.425   6.742  0.3524 -0.7088 -1.4844
 2212SOL     OW18268   2.787   0.769   6.603  0.0599  0.1793 -0.1358
 2212SOL    HW118269   2.835   0.846   6.571 -2.2981  1.2572 -1.0436
 2212SOL    HW218270   2.728   0.819   6.659  2.1098  4.3451 -1.6745
 2213SOL     OW18271   2.763   0.338  14.963 -0.3127 -0.5697 -0.0610
 2213SOL    HW118272   2.819   0.401  15.008  0.1203 -0.0895 -1.2691
 2213SOL    HW218273   2.677   0.370  14.989 -1.7011 -1.9293 -3.0900
 2214SOL     OW18274   2.323   4.391   0.770 -0.1933  0.5101  0.6669
 2214SOL    HW118275   2.307   4.297   0.785  2.6741 -0.1291 -0.4005
 2214SOL    HW218276   2.336   4.422   0.860 -0.8927 -0.9772  1.2901
 2215SOL     OW18277   0.006   1.519   3.888  0.5272 -0.0130 -0.6122
 2215SOL    HW118278   4.658   1.489   3.923  0.3709  2.7620  1.3819
 2215SOL    HW218279   4.719   1.605   3.852  0.0272  1.1564  2.5430
 2216SOL     OW18280   4.103   2.484  10.609 -1.0535  0.1196 -0.4211
 2216SOL    HW118281   4.128   2.571  10.578  2.6330 -0.2412  1.5602
 2216SOL    HW218282   4.088   2.490  10.704  1.5696 -0.1660 -0.0067
 2217SOL     OW18283   2.306   4.548   4.168  0.3064 -0.2851  0.1108
 2217SOL    HW118284   2.228   4.567   4.116  0.5048 -0.5651 -0.2854
 2217SOL    HW218285   2.280   4.586   4.253 -4.0927  0.0605 -1.3637
 2218SOL     OW18286   3.032   4.168   4.194  0.4490 -0.1205 -0.0885
 2218SOL    HW118287   3.013   4.203   4.107  0.4427  1.3443  0.5023
 2218SOL    HW218288   3.121   4.132   4.197  0.3409 -0.4248 -0.4065
 2219SOL     OW18289   0.141   3.569   7.292 -0.1154 -0.2140 -0.0027
 2219SOL    HW118290   0.120   3.498   7.353  0.3619 -1.1533 -0.9455
 2219SOL    HW218291   0.091   3.638   7.337 -1.5992 -0.3299 -1.4878
 2220SOL     OW18292   1.586   3.188   9.508  0.8164 -0.0343 -0.4484
 2220SOL    HW118293   1.570   3.199   9.414 -0.8604 -0.2394 -0.1852
 2220SOL    HW218294   1.666   3.238   9.522  2.2797 -1.2955 -4.1849
 2221SOL     OW18295   4.327   1.838   8.899 -0.1215  0.4003  0.3201
 2221SOL    HW118296   4.417   1.814   8.919 -0.2064 -0.7167 -0.6337
 2221SOL    HW218297   4.323   1.779   8.824 -3.2943  0.9318  0.0515
 2222SOL     OW18298   4.178   0.693   7.472 -0.0737 -0.1786  0.4145
 2222SOL    HW118299   4.103   0.640   7.448  0.1099 -0.7719  1.1556
 2222SOL    HW218300   4.171   0.676   7.566  2.3845 -0.8810  0.4841
 2223SOL     OW18301   0.003   4.518  17.058  0.2265 -0.0792 -0.6148
 2223SOL    HW118302   0.070   4.585  17.069  0.0460 -0.0136  0.0716
 2223SOL    HW218303   4.729   4.492  17.149  2.1470  3.4509  0.5973
 2224SOL     OW18304   3.842   3.102   3.098 -0.3348 -0.4857  0.6109
 2224SOL    HW118305   3.824   3.183   3.050 -0.0068  0.1887  1.6297
 2224SOL    HW218306   3.905   3.050   3.047 -1.4857 -0.2326 -1.0909
 2225SOL     OW18307   0.588   2.826   8.037 -0.1680 -0.7938  0.1384
 2225SOL    HW118308   0.503   2.795   8.006  1.4860 -1.1761 -3.9652
 2225SOL    HW218309   0.611   2.757   8.099  0.2539  0.5529  1.4878
 2226SOL     OW18310   0.071   4.297  16.901 -0.5671  0.0477  0.2258
 2226SOL    HW118311   0.029   4.377  16.931  0.1896  0.8181 -0.7892
 2226SOL    HW218312   0.030   4.225  16.949  1.1604 -1.0888 -0.0105
 2227SOL     OW18313   4.510   3.281   7.743  0.4771  0.2378 -0.4996
 2227SOL    HW118314   4.566   3.344   7.789  1.3166  0.0775 -1.2947
 2227SOL    HW218315   4.455   3.257   7.818 -0.9418 -2.2557 -2.3385
 2228SOL     OW18316   2.416   1.371   5.044  0.3523  0.1290  0.4216
 2228SOL    HW118317   2.344   1.336   5.097  0.1039  0.9752  0.6363
 2228SOL    HW218318   2.378   1.396   4.959  0.2782 -1.1226  0.0844
 2229SOL     OW18319   2.267   2.054  17.503  0.1692  0.0807 -0.1760
 2229SOL    HW118320   2.343   2.110  17.516  0.3643  0.2984 -2.2838
 2229SOL    HW218321   2.202   2.119  17.532 -0.8773 -1.6940  1.4533
 2230SOL     OW18322   2.658   1.025   5.375  0.4898  0.5100  0.0765
 2230SOL    HW118323   2.591   1.065   5.318 -0.8702  1.2838  2.2106
 2230SOL    HW218324   2.608   0.961   5.425  0.3446  2.0029  1.8639
 2231SOL     OW18325   1.855   1.987   0.102 -0.1235 -0.0281  0.2117
 2231SOL    HW118326   1.930   1.955   0.151  0.8214 -1.2563 -2.0504
 2231SOL    HW218327   1.880   1.970   0.011 -1.4713  2.6232 -0.6547
 2232SOL     OW18328   1.946   4.303   9.163  0.1592  0.1672  0.0612
 2232SOL    HW118329   2.005   4.288   9.237 -0.4350  0.8363  0.6785
 2232SOL    HW218330   1.897   4.221   9.170 -1.1026  0.7893 -1.5529
 2233SOL     OW18331   0.326   1.890  15.207 -0.1136 -0.3548  0.0970
 2233SOL    HW118332   0.308   1.857  15.296  2.0054  1.0143  1.0284
 2233SOL    HW218333   0.343   1.808  15.160  0.0114  0.0275 -0.5203
 2234SOL     OW18334   2.734   3.474  13.343  0.6000 -0.1438 -0.2271
 2234SOL    HW118335   2.809   3.522  13.380  1.1424 -1.2667  0.1361
 2234SOL    HW218336   2.710   3.414  13.413  1.0450  0.0263  0.0725
 2235SOL     OW18337   1.778   2.382  12.509 -0.7794  0.0589  0.2850
 2235SOL    HW118338   1.751   2.434  12.585 -0.1982 -1.0911  1.2679
 2235SOL    HW218339   1.717   2.415  12.443 -2.1584 -0.4911  1.2870
 2236SOL     OW18340   0.733   2.947  10.560  0.0189 -0.3669 -0.1814
 2236SOL    HW118341   0.700   2.901  10.483 -0.1555 -0.6724  0.0764
 2236SOL    HW218342   0.694   2.904  10.636 -1.0846 -2.7627 -2.1298
 2237SOL     OW18343   2.300   1.966  14.067 -0.2645 -0.1729  0.4443
 2237SOL    HW118344   2.357   1.981  14.142  2.9182  0.1674 -2.0172
 2237SOL    HW218345   2.287   1.872  14.070  2.5939 -0.5499  1.1567
 2238SOL     OW18346   1.572   3.066   2.307 -0.0666 -0.8328 -0.2525
 2238SOL    HW118347   1.481   3.058   2.279 -0.0817  2.2291 -1.0817
 2238SOL    HW218348   1.596   3.156   2.285 -3.2255 -0.0590 -0.5837
 2239SOL     OW18349   2.513   2.890  13.538  0.0588  0.0888 -0.0513
 2239SOL    HW118350   2.509   2.973  13.585 -1.1850  0.3669 -0.6360
 2239SOL    HW218351   2.462   2.830  13.592 -2.3001  1.2309 -1.0260
 2240SOL     OW18352   1.377   1.905  15.207 -0.4341 -0.1912  0.1474
 2240SOL    HW118353   1.283   1.909  15.188 -0.1271  0.4543 -1.2603
 2240SOL    HW218354   1.402   1.977  15.149  0.3552  0.3907  1.1994
 2241SOL     OW18355   3.308   3.277   5.366  0.0673 -0.1044  0.2222
 2241SOL    HW118356   3.256   3.305   5.290 -2.9303 -0.5544  2.0994
 2241SOL    HW218357   3.277   3.187   5.370  1.3752 -0.4344  2.8050
 2242SOL     OW18358   0.902   0.876   6.226  0.0551 -0.2392 -0.1186
 2242SOL    HW118359   0.897   0.913   6.314 -0.5798  2.9867 -1.5322
 2242SOL    HW218360   0.934   0.949   6.173 -0.2859 -0.8204 -1.1100
 2243SOL     OW18361   3.730   2.028   9.897  0.0190 -0.0938 -0.2357
 2243SOL    HW118362   3.777   2.069   9.970 -1.3179  0.4639  0.3084
 2243SOL    HW218363   3.700   2.102   9.846  0.4794 -0.3352 -0.8545
 2244SOL     OW18364   1.955   4.449   4.394  0.7083  0.6063 -0.3151
 2244SOL    HW118365   1.943   4.373   4.451 -0.2886  0.8098 -0.2355
 2244SOL    HW218366   1.923   4.405   4.315 -2.1472  0.8272  0.6910
 2245SOL     OW18367   1.807   2.227   0.666  0.3100  0.4133  0.0253
 2245SOL    HW118368   1.723   2.271   0.653  0.5821  0.3986 -1.8281
 2245SOL    HW218369   1.795   2.187   0.752  1.6470  1.2791  0.6179
 2246SOL     OW18370   3.662   2.034   3.892 -0.1410  0.6853 -0.0967
 2246SOL    HW118371   3.648   2.128   3.882 -1.7989  0.4464 -0.0207
 2246SOL    HW218372   3.691   2.001   3.807 -0.7766  1.5337 -0.6459
 2247SOL     OW18373   4.383   4.505   3.926  0.7008  0.4444  0.1480
 2247SOL    HW118374   4.351   4.584   3.881 -1.2320 -0.5393 -0.1915
 2247SOL    HW218375   4.316   4.440   3.903 -0.9876  1.5486  1.9739
 2248SOL     OW18376   1.900   0.004   4.032 -0.4038 -0.0351 -0.2109
 2248SOL    HW118377   1.892   0.065   4.105 -0.3934 -0.9250  0.5268
 2248SOL    HW218378   1.829   0.039   3.978 -0.5893 -0.2649 -0.1164
 2249SOL     OW18379   1.108   2.919   4.454 -0.2398 -0.0438 -0.3187
 2249SOL    HW118380   1.089   2.925   4.547 -2.2606  0.4484 -0.7665
 2249SOL    HW218381   1.040   2.978   4.422 -0.3769  0.2389  0.4940
 2250SOL     OW18382   2.409   2.050   4.136 -0.3957 -0.4987  0.4952
 2250SOL    HW118383   2.404   2.145   4.125  1.5751 -0.5997 -1.4158
 2250SOL    HW218384   2.483   2.029   4.192 -1.2200 -2.5667  0.8001
 2251SOL     OW18385   3.652   2.393   2.953 -0.4030 -0.8287 -0.4208
 2251SOL    HW118386   3.662   2.458   2.883  0.4027 -1.8251 -1.2247
 2251SOL    HW218387   3.663   2.454   3.027  0.0239  0.5820 -1.6402
 2252SOL     OW18388   4.309   4.299   6.330  0.2680 -0.4309  0.2103
 2252SOL    HW118389   4.348   4.386   6.321 -0.1086 -0.0639  2.1197
 2252SOL    HW218390   4.320   4.272   6.239 -1.9913  0.8144 -0.4492
 2253SOL     OW18391   1.276   4.007   6.490 -0.0484  0.3064  0.2082
 2253SOL    HW118392   1.246   4.074   6.428  2.1532  0.7158 -0.4252
 2253SOL    HW218393   1.201   4.019   6.548 -0.8592 -0.1782 -0.7521
 2254SOL     OW18394   4.200   2.355   8.550  0.1536 -0.1751  0.5312
 2254SOL    HW118395   4.218   2.417   8.621  0.2536 -0.2333  0.5574
 2254SOL    HW218396   4.246   2.281   8.591 -1.8983 -1.2477  0.9114
 2255SOL     OW18397   3.408   3.961  15.394 -0.1611  0.3194  0.4546
 2255SOL    HW118398   3.348   4.007  15.336  0.0261 -2.4547 -1.8956
 2255SOL    HW218399   3.394   3.870  15.370  1.0581  0.0882  0.6219
 2256SOL     OW18400   1.520   1.534  16.944  0.3523 -0.5323 -0.1056
 2256SOL    HW118401   1.585   1.540  17.014  1.4059  1.8070 -1.2999
 2256SOL    HW218402   1.525   1.628  16.925 -1.2460 -0.5541 -0.6032
 2257SOL     OW18403   3.639   1.862  13.490 -0.3831 -0.2104  0.2121
 2257SOL    HW118404   3.727   1.897  13.488 -1.3914  2.4022  1.9577
 2257SOL    HW218405   3.593   1.942  13.515  1.0689  0.9978 -1.0164
 2258SOL     OW18406   0.807   4.210   5.245  0.3152 -0.3409 -0.3085
 2258SOL    HW118407   0.789   4.154   5.169 -1.3200 -1.1082  0.6472
 2258SOL    HW218408   0.817   4.294   5.201  2.3226  0.6426  2.0415
 2259SOL     OW18409   3.190   1.014   6.570 -0.0355  0.0423  0.3218
 2259SOL    HW118410   3.173   1.041   6.660  0.9514  0.1330  0.4779
 2259SOL    HW218411   3.277   0.977   6.576 -1.1279 -2.5311  0.1203
 2260SOL     OW18412   4.397   3.592   0.931 -0.2545 -0.5960  0.0033
 2260SOL    HW118413   4.353   3.623   0.852 -0.7942 -1.3587  0.0098
 2260SOL    HW218414   4.337   3.614   1.002 -1.1871  1.3987 -1.3770
 2261SOL     OW18415   4.433   2.299  15.961 -0.0606  0.3989  0.2744
 2261SOL    HW118416   4.509   2.327  15.909 -0.0662  0.9695  0.5771
 2261SOL    HW218417   4.394   2.226  15.911  2.1159  0.1221 -1.0141
 2262SOL     OW18418   0.605   1.742   4.141  0.3655 -0.2863  0.0688
 2262SOL    HW118419   0.643   1.702   4.063 -1.8351  1.3914 -1.8586
 2262SOL    HW218420   0.602   1.662   4.194 -0.3341 -0.1471  0.2435
 2263SOL     OW18421   2.791   0.621   7.571  0.0617 -0.1410 -0.2151
 2263SOL    HW118422   2.833   0.623   7.657  0.1994  1.0481 -0.3161
 2263SOL    HW218423   2.761   0.530   7.570 -0.2612 -0.0436  0.3196
 2264SOL     OW18424   4.073   2.753   8.828  0.2182 -0.0512  0.1571
 2264SOL    HW118425   3.982   2.735   8.851  0.2421 -0.6036 -0.1838
 2264SOL    HW218426   4.090   2.810   8.903 -3.2516 -1.0263  1.6693
 2265SOL     OW18427   1.827   1.656   5.814  0.3459  0.1406  0.0004
 2265SOL    HW118428   1.868   1.638   5.729  0.2032 -0.5515  0.0759
 2265SOL    HW218429   1.818   1.751   5.804  0.2605  0.2680  1.2465
 2266SOL     OW18430   0.553   1.133   6.197  0.0399  0.3290  0.0926
 2266SOL    HW118431   0.633   1.173   6.230  0.0554 -0.2721  0.7995
 2266SOL    HW218432   0.490   1.201   6.221 -1.9618 -2.1528  2.0535
 2267SOL     OW18433   1.604   3.065  11.963  0.1210 -0.4305 -0.1838
 2267SOL    HW118434   1.606   3.022  11.877  0.3596  0.8228 -0.8004
 2267SOL    HW218435   1.515   3.042  11.989 -1.2060  2.4902 -2.2739
 2268SOL     OW18436   4.118   0.105  16.932 -0.3828 -0.2280 -0.0780
 2268SOL    HW118437   4.192   0.044  16.935 -0.7374 -0.6532  0.0762
 2268SOL    HW218438   4.136   0.155  16.852 -2.9666  0.0324 -0.4985
 2269SOL     OW18439   1.036   3.600   0.474  0.4451  0.2435  0.2510
 2269SOL    HW118440   1.036   3.558   0.388 -2.0606 -0.8213  0.7800
 2269SOL    HW218441   0.957   3.565   0.514 -0.1205  1.5351  0.2645
 2270SOL     OW18442   4.523   3.187   2.617 -0.2794 -0.8437  0.2876
 2270SOL    HW118443   4.503   3.278   2.593 -0.1872 -0.5509  1.3455
 2270SOL    HW218444   4.447   3.172   2.673 -2.3279  1.1178 -1.9467
 2271SOL     OW18445   0.430   0.656   1.757  0.1454 -0.0110  0.3477
 2271SOL    HW118446   0.450   0.676   1.665  0.8193  1.1514  0.7475
 2271SOL    HW218447   0.522   0.649   1.781  0.5309 -0.7184 -1.3285
 2272SOL     OW18448   0.318   2.582   4.783 -0.7449 -0.2130  0.6939
 2272SOL    HW118449   0.345   2.492   4.765  0.7913  0.2140  0.8679
 2272SOL    HW218450   0.371   2.601   4.860 -0.2961  1.1155  0.0619
 2273SOL     OW18451   3.379   4.134   6.107  0.1885 -0.0435  0.1033
 2273SOL    HW118452   3.400   4.073   6.037  1.2232  0.8550 -0.3636
 2273SOL    HW218453   3.327   4.069   6.155  0.9579 -1.1778 -0.6031
 2274SOL     OW18454   4.626   4.304   2.015  0.4243  0.4301  0.4083
 2274SOL    HW118455   4.620   4.377   1.954 -0.9540  0.4180  0.5363
 2274SOL    HW218456   4.624   4.346   2.101 -0.9979  0.8962  0.1398
 2275SOL     OW18457   2.123   3.906   3.082 -0.1955  0.3185 -0.3736
 2275SOL    HW118458   2.075   3.987   3.099  0.9839  1.1264 -0.8956
 2275SOL    HW218459   2.191   3.913   3.149  1.3131  1.2226 -2.0028
 2276SOL     OW18460   0.147   1.736   2.907  0.5887 -0.3118  0.5689
 2276SOL    HW118461   0.111   1.754   2.994  0.5666 -0.7164  0.6435
 2276SOL    HW218462   0.210   1.668   2.932  0.2992 -0.5470  0.6524
 2277SOL     OW18463   0.700   3.567   6.342  0.0715  0.0842 -0.2794
 2277SOL    HW118464   0.656   3.500   6.290 -0.4775 -1.2840  1.9218
 2277SOL    HW218465   0.690   3.529   6.429  0.2714 -0.1841 -0.3731
 2278SOL     OW18466   4.012   0.650   9.648 -0.7377 -0.0945 -0.3514
 2278SOL    HW118467   4.062   0.604   9.580  1.0110 -1.6104  1.9243
 2278SOL    HW218468   3.985   0.577   9.704  1.5139  0.4069  1.3544
 2279SOL     OW18469   0.236   4.133   5.322  0.7774 -0.8553  0.1603
 2279SOL    HW118470   0.292   4.130   5.244  0.4045 -0.2383 -0.1356
 2279SOL    HW218471   0.167   4.075   5.290 -1.1278 -0.1374  2.9892
 2280SOL     OW18472   4.019   2.842   1.503  0.1458  0.1739  0.6259
 2280SOL    HW118473   4.050   2.931   1.521 -0.7963  0.8790 -1.2521
 2280SOL    HW218474   3.924   2.838   1.490  0.1349  2.0790  0.1113
 2281SOL     OW18475   2.243   3.540   7.881  0.0375  0.2479 -0.0370
 2281SOL    HW118476   2.257   3.478   7.953  1.8359  0.8911  0.1777
 2281SOL    HW218477   2.151   3.520   7.865 -0.2117 -1.4129  3.6209
 2282SOL     OW18478   3.206   0.447   6.516 -0.3265  0.3976 -0.2315
 2282SOL    HW118479   3.124   0.491   6.539 -0.5626 -0.5733  0.7614
 2282SOL    HW218480   3.231   0.489   6.434  1.5453  0.6287  0.4638
 2283SOL     OW18481   4.692   4.225   3.418  0.4699  0.1690 -1.2969
 2283SOL    HW118482   4.632   4.217   3.492 -0.2995  0.2658 -1.9126
 2283SOL    HW218483   0.025   4.281   3.454  0.3323 -0.5096  0.0385
 2284SOL     OW18484   3.409   0.514  14.688  0.1713 -0.9838 -0.1011
 2284SOL    HW118485   3.486   0.528  14.743 -0.6049 -0.9550  0.9793
 2284SOL    HW218486   3.347   0.584  14.709  0.3104 -1.2020  1.0449
 2285SOL     OW18487   3.490   3.024   8.686  0.6371 -0.0821  0.5253
 2285SOL    HW118488   3.553   2.967   8.641  0.7360 -0.5823  1.3039
 2285SOL    HW218489   3.543   3.057   8.758  0.7022  0.1687  0.3632
 2286SOL     OW18490   1.770   2.258  11.436 -0.3117 -0.4658  0.2168
 2286SOL    HW118491   1.782   2.321  11.507 -3.2507 -0.1115  0.3860
 2286SOL    HW218492   1.746   2.175  11.477  1.0461 -0.6275  0.6939
 2287SOL     OW18493   2.724   3.262   3.164  0.4086 -0.2823 -0.5056
 2287SOL    HW118494   2.685   3.305   3.240  3.7522 -0.1850  1.1900
 2287SOL    HW218495   2.665   3.188   3.158  0.6724 -0.5145 -0.2797
 2288SOL     OW18496   2.984   4.396   4.379  0.4042 -0.7753 -0.2779
 2288SOL    HW118497   3.032   4.414   4.460  0.4641 -0.7072 -0.3277
 2288SOL    HW218498   3.034   4.332   4.328 -0.4751 -0.3390 -1.6879
 2289SOL     OW18499   2.776   0.273   9.137 -0.5958 -0.0512  0.3349
 2289SOL    HW118500   2.859   0.315   9.114  0.3540 -2.1561 -0.0689
 2289SOL    HW218501   2.759   0.293   9.229  2.4593  3.3373  0.1498
 2290SOL     OW18502   4.432   4.603   3.382  0.5727  0.5821 -0.0959
 2290SOL    HW118503   4.336   4.606   3.389  0.6386 -1.6429  1.9277
 2290SOL    HW218504   4.450   4.696   3.366  0.6265  0.5731 -0.0859
 2291SOL     OW18505   4.270   4.632   9.475  0.4558  0.0936 -0.0535
 2291SOL    HW118506   4.230   4.546   9.487 -0.4148  0.7048  1.5412
 2291SOL    HW218507   4.195   4.689   9.458  0.2435 -0.3044 -0.4709
 2292SOL     OW18508   2.709   1.337   4.278 -0.0908  0.4377 -0.1654
 2292SOL    HW118509   2.621   1.374   4.289 -0.0374  0.1212  1.3249
 2292SOL    HW218510   2.752   1.356   4.361 -1.0145 -1.8738  0.8476
 2293SOL     OW18511   2.435   1.864   2.501  0.9633 -0.0672  0.2360
 2293SOL    HW118512   2.507   1.855   2.438  1.2795  2.8821  0.1631
 2293SOL    HW218513   2.413   1.955   2.485 -0.1626  0.0335  2.3112
 2294SOL     OW18514   3.277   1.877  10.045  0.1525 -0.4322 -0.0663
 2294SOL    HW118515   3.214   1.896   9.975 -0.3789 -0.6107  0.3697
 2294SOL    HW218516   3.358   1.886   9.996  1.0484 -1.2477  1.2704
 2295SOL     OW18517   2.388   3.374   9.089 -0.2838 -0.8969 -0.1922
 2295SOL    HW118518   2.381   3.315   9.163 -2.2448  0.6738  0.8950
 2295SOL    HW218519   2.309   3.428   9.103  1.3675  0.9048  2.2649
 2296SOL     OW18520   2.268   0.560   5.150 -0.2975 -0.1980 -0.9877
 2296SOL    HW118521   2.250   0.634   5.207 -0.2625 -0.1392 -1.0535
 2296SOL    HW218522   2.339   0.590   5.095 -0.8035  0.4363 -1.2947
 2297SOL     OW18523   1.909   4.409   9.919  0.4092 -0.1052 -0.1403
 2297SOL    HW118524   1.890   4.323   9.883  0.8483  0.3890 -1.5421
 2297SOL    HW218525   1.942   4.453   9.840 -0.6893 -0.0073 -0.5427
 2298SOL     OW18526   4.573   4.083   4.651  0.0910 -0.0154  0.0349
 2298SOL    HW118527   4.624   4.003   4.663 -1.0717 -0.9937 -1.5663
 2298SOL    HW218528   4.490   4.064   4.694  1.2360 -2.5525  1.1196
 2299SOL     OW18529   2.508   3.775   4.899  0.0648 -0.3999  0.7189
 2299SOL    HW118530   2.529   3.868   4.891  1.2211 -0.8041 -1.0726
 2299SOL    HW218531   2.473   3.764   4.810  3.4333  2.9283 -1.0254
 2300SOL     OW18532   2.225   3.993   5.782 -0.1268  0.3459  0.0020
 2300SOL    HW118533   2.294   3.958   5.838  0.1817 -1.5088 -1.5390
 2300SOL    HW218534   2.154   4.012   5.843  0.5812  1.7386  0.3809
 2301SOL     OW18535   1.020   1.022  17.709  0.0237 -0.7493  0.1816
 2301SOL    HW118536   0.941   1.071  17.686  0.6049  0.1164  0.0488
 2301SOL    HW218537   0.988   0.932  17.698  0.6135 -0.9830  0.3907
 2302SOL     OW18538   1.295   3.414   7.823 -0.0940  0.1246 -0.0642
 2302SOL    HW118539   1.264   3.392   7.911  1.8139 -1.4317  0.2079
 2302SOL    HW218540   1.253   3.350   7.765  0.1426 -1.1141  1.1402
 2303SOL     OW18541   3.794   4.698   2.032  0.1928  0.1784  0.2211
 2303SOL    HW118542   3.871   4.734   2.076 -0.9787  3.2531 -0.2285
 2303SOL    HW218543   3.837   4.626   1.987 -0.3298  0.6772 -1.0762
 2304SOL     OW18544   4.041   1.402  11.052  0.1651 -0.0269 -0.1323
 2304SOL    HW118545   3.945   1.403  11.048  0.1641 -3.7485 -0.3450
 2304SOL    HW218546   4.059   1.495  11.038  2.7337 -0.1118  2.7182
 2305SOL     OW18547   2.505   4.709   3.489  0.0807 -0.4208 -0.0031
 2305SOL    HW118548   2.588   4.708   3.441  0.5175 -1.5711  0.7656
 2305SOL    HW218549   2.450   4.645   3.446 -0.0080  0.4618 -1.2009
 2306SOL     OW18550   1.121   4.043   7.866  0.2081 -0.6213  0.3550
 2306SOL    HW118551   1.043   4.077   7.910  0.1988 -2.1459  1.4957
 2306SOL    HW218552   1.096   4.060   7.775  2.4501 -0.6473 -0.2598
 2307SOL     OW18553   1.601   0.824   5.122  0.0953 -0.2561 -0.2643
 2307SOL    HW118554   1.513   0.860   5.131  0.2278  0.2310 -0.8836
 2307SOL    HW218555   1.584   0.742   5.074  0.1917 -0.0821 -0.5971
 2308SOL     OW18556   4.391   3.555  17.424 -0.3163  0.0588  0.1883
 2308SOL    HW118557   4.337   3.583  17.350  1.0212  1.1977 -0.3400
 2308SOL    HW218558   4.324   3.519  17.483  0.2754 -1.3686 -0.0237
 2309SOL     OW18559   3.430   0.925   6.606  0.2455 -0.3856 -0.5682
 2309SOL    HW118560   3.517   0.941   6.567 -0.4458 -0.6503 -2.2145
 2309SOL    HW218561   3.456   0.872   6.682  1.0582  1.5892  0.5342
 2310SOL     OW18562   3.722   4.382   2.654  0.4420 -0.0688  0.0137
 2310SOL    HW118563   3.778   4.367   2.730 -0.9496  1.1389  1.2788
 2310SOL    HW218564   3.731   4.478   2.649 -0.6106 -0.1452 -3.6462
 2311SOL     OW18565   3.904   1.486   6.158  0.0705  0.0737 -0.3342
 2311SOL    HW118566   3.890   1.569   6.112 -0.9181  0.2788  0.3439
 2311SOL    HW218567   3.846   1.430   6.106 -1.4789  0.4732  0.9554
 2312SOL     OW18568   3.084   2.487  11.214  0.3929 -0.3929  1.0725
 2312SOL    HW118569   3.086   2.528  11.128  1.6601 -0.6841  0.9691
 2312SOL    HW218570   3.171   2.511  11.246  1.6150 -4.7127  0.8627
 2313SOL     OW18571   2.250   4.232   2.798  0.4049  0.4273 -0.0690
 2313SOL    HW118572   2.284   4.199   2.881  2.4036 -1.1443 -1.4984
 2313SOL    HW218573   2.265   4.324   2.821 -0.6642  0.6836 -0.3849
 2314SOL     OW18574   3.688   1.658   7.529 -0.0026 -0.2837 -0.1563
 2314SOL    HW118575   3.678   1.670   7.434  3.3922  0.2306 -0.4608
 2314SOL    HW218576   3.747   1.731   7.545  0.5514 -0.9546  0.8426
 2315SOL     OW18577   1.537   3.095  10.477 -0.4079  0.2371  0.4807
 2315SOL    HW118578   1.475   3.147  10.426 -0.2958 -0.8968 -0.7813
 2315SOL    HW218579   1.548   3.142  10.560  0.0878 -0.1256  0.6138
 2316SOL     OW18580   1.737   4.588   8.558  0.5619 -0.1135  0.0681
 2316SOL    HW118581   1.764   4.580   8.650  1.7646 -0.9131 -0.3586
 2316SOL    HW218582   1.726   4.683   8.557  1.9868  0.0300 -1.2353
 2317SOL     OW18583   2.949   1.247   2.194 -0.2601 -0.5862 -0.2001
 2317SOL    HW118584   2.895   1.275   2.121 -0.3651  1.4080  0.6312
 2317SOL    HW218585   3.035   1.251   2.152 -0.0623  2.0433  0.4928
 2318SOL     OW18586   2.375   3.490  11.528 -1.0372  0.1063  0.0727
 2318SOL    HW118587   2.453   3.487  11.473 -0.5633 -1.7572  0.8447
 2318SOL    HW218588   2.296   3.475  11.475 -1.8389 -1.1293  1.6035
 2319SOL     OW18589   2.650   4.714   6.632  0.4296 -0.1013  0.2603
 2319SOL    HW118590   2.696   0.004   6.712  0.0028  1.5336 -0.0157
 2319SOL    HW218591   2.563   4.701   6.671  0.5698 -2.3078 -0.1694
 2320SOL     OW18592   2.716   4.421  10.589 -0.6311 -0.5749 -0.3169
 2320SOL    HW118593   2.673   4.413  10.674 -0.4782  0.6132 -0.1174
 2320SOL    HW218594   2.674   4.502  10.559 -0.7115 -0.0449  1.2003
 2321SOL     OW18595   3.981   4.651   4.503 -0.1758  0.4199  0.0658
 2321SOL    HW118596   3.995   4.611   4.417  0.1334 -1.6557  1.0858
 2321SOL    HW218597   4.062   4.699   4.520  0.5798 -0.5091 -0.9368
 2322SOL     OW18598   0.891   1.429   1.870  0.5704  0.4055 -0.1836
 2322SOL    HW118599   0.875   1.364   1.938  1.2688  2.9367  2.3832
 2322SOL    HW218600   0.814   1.484   1.855  1.3944  1.0104 -2.0809
 2323SOL     OW18601   3.806   2.607   3.620 -0.1939  0.4461  0.3290
 2323SOL    HW118602   3.814   2.592   3.714 -1.2293  1.6037  0.6102
 2323SOL    HW218603   3.765   2.522   3.602 -0.0920  0.3883  0.3733
 2324SOL     OW18604   4.674   2.692   3.205  0.8528  0.7009  0.7242
 2324SOL    HW118605   4.607   2.639   3.248  0.4716  0.5924 -0.0204
 2324SOL    HW218606   4.693   2.635   3.131  2.8340  1.3671  0.7238
 2325SOL     OW18607   0.410   3.109   6.770  0.2739 -0.4239 -0.0769
 2325SOL    HW118608   0.482   3.113   6.707  1.5601 -4.5468  1.1727
 2325SOL    HW218609   0.378   3.020   6.781 -3.4386  0.9852  0.6671
 2326SOL     OW18610   1.732   0.685   5.709  0.3362  0.5390  0.0065
 2326SOL    HW118611   1.673   0.620   5.670 -0.2813 -0.7252  3.0241
 2326SOL    HW218612   1.684   0.688   5.792  0.1838 -0.5377 -0.0382
 2327SOL     OW18613   4.735   0.726   2.201  0.1380  0.1577  0.1072
 2327SOL    HW118614   4.687   0.805   2.224 -0.5587 -0.3655  0.4093
 2327SOL    HW218615   0.083   0.761   2.169  0.5179 -2.0616 -1.3047
 2328SOL     OW18616   1.932   4.013   9.212 -0.5284 -0.3928  0.0312
 2328SOL    HW118617   1.839   3.996   9.197 -0.2485 -0.0415 -2.0700
 2328SOL    HW218618   1.949   4.004   9.306  0.5213 -1.6229 -0.2808
 2329SOL     OW18619   3.109   0.877  14.600 -0.3237 -0.1765 -0.3357
 2329SOL    HW118620   3.114   0.883  14.504  1.4371 -2.7129 -0.3952
 2329SOL    HW218621   3.141   0.790  14.624  1.8977  1.5788  3.0973
 2330SOL     OW18622   0.110   3.919   4.692 -0.0973  0.7276  0.7304
 2330SOL    HW118623   0.108   3.934   4.598  2.6402  0.4905  0.6277
 2330SOL    HW218624   0.131   3.826   4.700 -0.5933  0.6110  0.6856
 2331SOL     OW18625   3.887   1.938   9.053  0.3312  0.3847  0.1343
 2331SOL    HW118626   3.875   1.889   9.134 -2.8730 -0.2721 -0.7502
 2331SOL    HW218627   3.815   1.902   9.001 -0.7124  0.3100  1.6089
 2332SOL     OW18628   4.583   0.873   6.517  0.6154  0.5634  0.2237
 2332SOL    HW118629   4.594   0.799   6.457 -1.5539  0.5835 -0.1820
 2332SOL    HW218630   4.525   0.828   6.580 -0.8215  2.0637 -0.0316
 2333SOL     OW18631   1.606   0.971   3.863 -0.4025  0.2797 -0.4030
 2333SOL    HW118632   1.581   1.063   3.852 -2.5085 -0.5172 -2.1917
 2333SOL    HW218633   1.644   0.954   3.777 -1.6128  3.4357 -1.5776
 2334SOL     OW18634   4.562   4.489  10.609 -0.3426  0.0001  0.5172
 2334SOL    HW118635   4.628   4.419  10.614  0.1232  0.3795 -0.2257
 2334SOL    HW218636   4.585   4.550  10.679 -1.1531  0.0821  0.7051
 2335SOL     OW18637   0.836   3.220   8.210 -0.0226  0.1282  0.2467
 2335SOL    HW118638   0.902   3.175   8.158  0.5566  1.3072 -0.0396
 2335SOL    HW218639   0.863   3.227   8.301 -0.0342 -0.8566  0.3213
 2336SOL     OW18640   1.442   4.708   8.731  0.2289  0.3301 -0.0007
 2336SOL    HW118641   1.437   4.612   8.733 -0.5588  0.3803  0.1253
 2336SOL    HW218642   1.524   4.719   8.780 -0.8020 -0.2907  1.8612
 2337SOL     OW18643   4.288   2.405   2.835  0.0176 -0.0346 -0.3308
 2337SOL    HW118644   4.359   2.346   2.809  1.2521  0.5757  1.6725
 2337SOL    HW218645   4.213   2.393   2.777 -0.9595 -1.5628  1.2351
 2338SOL     OW18646   4.463   2.063   0.791  0.4524 -0.0721  0.3287
 2338SOL    HW118647   4.370   2.050   0.771  0.8365  0.0765 -1.5608
 2338SOL    HW218648   4.476   2.045   0.884  1.1665 -1.3936 -0.0252
 2339SOL     OW18649   4.256   1.656   6.304  0.1664  0.2371 -0.2454
 2339SOL    HW118650   4.248   1.637   6.397 -2.8216  1.0097 -0.3304
 2339SOL    HW218651   4.225   1.746   6.296  2.8024  0.9758 -1.8961
 2340SOL     OW18652   0.547   2.873   8.571  0.3094 -0.6803 -0.3103
 2340SOL    HW118653   0.488   2.850   8.500 -1.0785 -0.0319  0.6222
 2340SOL    HW218654   0.531   2.809   8.641 -1.1908 -1.1976 -1.1329
 2341SOL     OW18655   0.248   0.090   7.477 -0.6161 -0.1457 -0.1568
 2341SOL    HW118656   0.305   0.102   7.401  0.8474 -1.1516  0.7727
 2341SOL    HW218657   0.294   0.150   7.536 -1.3677  1.2216 -0.9611
 2342SOL     OW18658   2.763   1.014   3.515  0.0540  0.2712 -0.3444
 2342SOL    HW118659   2.777   1.045   3.426  0.4384 -0.7425 -0.6373
 2342SOL    HW218660   2.841   1.052   3.555 -0.8574  1.9050 -0.1478
 2343SOL     OW18661   2.294   4.559   3.410 -0.5928 -0.0989  0.1493
 2343SOL    HW118662   2.254   4.478   3.443  0.9925 -1.1572 -0.5212
 2343SOL    HW218663   2.242   4.625   3.456 -1.4700  0.3510 -1.4926
 2344SOL     OW18664   2.080   2.296  13.763  0.4521  0.0778  0.0684
 2344SOL    HW118665   2.022   2.286  13.687 -2.8532 -1.0692  2.7822
 2344SOL    HW218666   2.052   2.221  13.815  0.7514  0.0388  0.1724
 2345SOL     OW18667   0.200   2.806  16.154 -0.4108  0.2463  0.4058
 2345SOL    HW118668   0.119   2.847  16.183  1.3174  3.9144 -0.0163
 2345SOL    HW218669   0.251   2.862  16.212 -0.9552 -1.6641  2.6956
 2346SOL     OW18670   1.781   2.584   3.417  0.2680  0.1359  0.3935
 2346SOL    HW118671   1.873   2.575   3.444  1.1412  1.5956 -2.0773
 2346SOL    HW218672   1.769   2.676   3.438  0.6311  0.3119 -0.1407
 2347SOL     OW18673   1.454   0.843   3.255 -0.0839 -0.4833  0.1542
 2347SOL    HW118674   1.483   0.892   3.332  0.6352  0.9605 -1.0190
 2347SOL    HW218675   1.540   0.831   3.213 -0.0904 -1.2299  0.3518
 2348SOL     OW18676   0.974   1.817   3.698 -0.3887  0.5130  0.5333
 2348SOL    HW118677   0.898   1.818   3.756 -1.3388 -0.7470 -0.7014
 2348SOL    HW218678   0.985   1.730   3.661  0.5349  1.0650 -0.5134
 2349SOL     OW18679   1.057   4.192  15.275 -0.2164 -0.3617 -0.0901
 2349SOL    HW118680   1.003   4.149  15.210 -1.1143  1.4041 -0.5202
 2349SOL    HW218681   1.112   4.247  15.219 -2.3356  0.8557 -0.9788
 2350SOL     OW18682   3.535   0.553   8.197 -0.4796  0.0236  0.2009
 2350SOL    HW118683   3.516   0.482   8.258 -0.3801  0.6979  1.0244
 2350SOL    HW218684   3.597   0.605   8.249  1.3079 -1.9215  0.0110
 2351SOL     OW18685   3.112   0.099   5.417  0.0213  0.5712  0.2544
 2351SOL    HW118686   3.077   0.188   5.424 -0.2354  0.3185  2.1700
 2351SOL    HW218687   3.041   0.037   5.432  1.1212 -1.2635 -2.1860
 2352SOL     OW18688   0.193   3.027  16.674  0.0633 -0.3919 -0.4340
 2352SOL    HW118689   0.205   2.974  16.753  2.4184  1.2806  0.3606
 2352SOL    HW218690   0.117   3.083  16.691  1.0163  0.9072 -0.4339
 2353SOL     OW18691   0.863   0.259   0.089 -0.3811  0.4615 -0.0396
 2353SOL    HW118692   0.776   0.243   0.052 -0.9962  1.0587  1.1369
 2353SOL    HW218693   0.840   0.253   0.182  0.3362 -0.3011  0.0832
 2354SOL     OW18694   0.602   3.340   4.304 -0.1033  0.0715  0.0859
 2354SOL    HW118695   0.630   3.372   4.390 -0.6144 -2.4610  1.2064
 2354SOL    HW218696   0.669   3.375   4.246 -0.0297 -1.4739 -0.7653
 2355SOL     OW18697   0.464   0.773   7.853 -0.0724 -0.1977  0.6779
 2355SOL    HW118698   0.489   0.834   7.923  1.4551 -1.2473  1.0564
 2355SOL    HW218699   0.474   0.828   7.776 -1.7592  0.1832  0.7497
 2356SOL     OW18700   0.871   0.330   4.520 -0.1725  0.3450 -0.7563
 2356SOL    HW118701   0.805   0.273   4.480  0.1337  1.2743 -2.5550
 2356SOL    HW218702   0.835   0.370   4.599  1.7358 -0.8991  0.7587
 2357SOL     OW18703   0.300   1.225   4.162 -0.1074 -0.3816 -0.4486
 2357SOL    HW118704   0.341   1.223   4.076 -0.9829  0.8874 -0.8920
 2357SOL    HW218705   0.329   1.313   4.186 -0.6782 -0.2954 -0.0593
 2358SOL     OW18706   1.268   0.137   5.759  0.6108 -0.5796 -0.0519
 2358SOL    HW118707   1.252   0.106   5.669 -2.0930 -3.8578  1.5378
 2358SOL    HW218708   1.212   0.214   5.754  0.2049 -0.8959 -0.4632
 2359SOL     OW18709   4.607   2.928   2.004  0.3180 -0.1078  0.3563
 2359SOL    HW118710   4.587   3.018   1.976  2.1024  0.3531  0.5083
 2359SOL    HW218711   4.522   2.886   1.994 -0.8671  1.8632  2.2530
 2360SOL     OW18712   2.602   0.930  11.504 -0.2991 -0.1459 -0.0725
 2360SOL    HW118713   2.553   0.896  11.429 -1.0974 -0.1804  0.4600
 2360SOL    HW218714   2.686   0.949  11.463 -0.3546  0.7105  0.2139
 2361SOL     OW18715   2.831   0.623   9.193  0.3624 -0.2573 -0.2702
 2361SOL    HW118716   2.819   0.718   9.197  2.3647 -0.0298  0.3079
 2361SOL    HW218717   2.922   0.609   9.168  0.6430 -0.9003  1.1198
 2362SOL     OW18718   2.283   2.651   3.091 -1.0205 -0.1435  0.0880
 2362SOL    HW118719   2.244   2.627   3.006  1.7323 -1.0317 -0.9258
 2362SOL    HW218720   2.251   2.739   3.112  0.0557  0.6194 -1.4779
 2363SOL     OW18721   1.083   0.127   0.792 -0.3217  0.6463  0.4393
 2363SOL    HW118722   1.097   0.166   0.878  2.1218  0.7505 -0.0131
 2363SOL    HW218723   1.142   0.179   0.738  0.4119 -0.3748  0.2592
 2364SOL     OW18724   0.430   0.695   6.718  0.1290 -0.1248  0.2522
 2364SOL    HW118725   0.359   0.730   6.665 -1.8092  1.0661  3.6262
 2364SOL    HW218726   0.492   0.767   6.713  0.5781 -0.5765 -0.6945
 2365SOL     OW18727   4.624   1.208   6.745 -0.0794 -0.4531 -0.3049
 2365SOL    HW118728   4.560   1.175   6.682  2.0232 -3.3365 -0.9550
 2365SOL    HW218729   4.595   1.162   6.824 -0.2022  1.4262  0.7541
 2366SOL     OW18730   2.015   4.602   5.003  0.3830 -0.1242 -0.4680
 2366SOL    HW118731   2.072   4.617   4.928 -0.4699  0.4168 -1.0036
 2366SOL    HW218732   2.073   4.549   5.058 -0.8672  0.8222  1.7655
 2367SOL     OW18733   4.172   4.585   3.464 -0.3178 -0.0539  0.3095
 2367SOL    HW118734   4.108   4.654   3.485  0.0890  0.4027  0.0223
 2367SOL    HW218735   4.119   4.558   3.389 -0.6979 -0.4087  0.7052
 2368SOL     OW18736   0.877   3.142   3.844  0.0211 -0.3743  0.1669
 2368SOL    HW118737   0.943   3.073   3.859  1.2097  0.6512 -0.3670
 2368SOL    HW218738   0.900   3.163   3.753 -0.8169  2.6768  0.6584
 2369SOL     OW18739   1.776   2.875   1.581 -0.4501  0.0315 -0.1780
 2369SOL    HW118740   1.776   2.865   1.676  0.9500 -1.1254 -0.3041
 2369SOL    HW218741   1.773   2.785   1.549 -0.7473  0.7258 -2.0968
 2370SOL     OW18742   0.580   0.015   5.879 -0.6407 -0.3351 -0.8381
 2370SOL    HW118743   0.591   0.060   5.963  1.2466 -1.5267 -0.4312
 2370SOL    HW218744   0.582   4.662   5.916 -1.8701  0.1532  0.3864
 2371SOL     OW18745   3.296   2.907   5.648  0.0089  0.5234 -0.1446
 2371SOL    HW118746   3.297   2.823   5.693  0.5969 -0.6062 -2.2661
 2371SOL    HW218747   3.329   2.972   5.711  2.0480  1.2859 -1.9933
 2372SOL     OW18748   3.980   4.506   2.399 -0.5054  0.1762 -0.3391
 2372SOL    HW118749   3.978   4.424   2.447  1.8454  1.1190  1.3839
 2372SOL    HW218750   4.028   4.485   2.319  0.3595 -2.1037  0.7732
 2373SOL     OW18751   3.806   0.078  13.389 -0.7329 -0.1355  0.2539
 2373SOL    HW118752   3.856   0.051  13.312 -0.1928  0.3710  0.4246
 2373SOL    HW218753   3.878   0.095  13.450 -0.8168 -2.3592  0.9679
 2374SOL     OW18754   1.682   2.255  12.051 -0.4536  0.0507  0.2927
 2374SOL    HW118755   1.622   2.325  12.026  0.8130  1.1023  0.1964
 2374SOL    HW218756   1.746   2.261  11.980  0.1670 -0.2379  0.8325
 2375SOL     OW18757   3.537   1.387  11.098 -0.0508 -0.0892 -0.2812
 2375SOL    HW118758   3.535   1.478  11.069 -0.7342  1.1406  3.7266
 2375SOL    HW218759   3.447   1.358  11.078 -0.5009  0.3392  1.1275
 2376SOL     OW18760   2.634   2.900   6.249  0.1976  0.1859  0.2307
 2376SOL    HW118761   2.590   2.845   6.313 -3.8527  1.9427 -1.0660
 2376SOL    HW218762   2.723   2.868   6.264 -0.6833 -1.9238  1.0185
 2377SOL     OW18763   1.539   3.719   8.494 -0.1797  0.3557 -0.0016
 2377SOL    HW118764   1.518   3.629   8.469  1.2570  0.3634 -1.1792
 2377SOL    HW218765   1.456   3.758   8.467  0.6503  1.6891 -0.5922
 2378SOL     OW18766   4.381   4.569  17.182  0.2425 -0.4939  0.0820
 2378SOL    HW118767   4.451   4.626  17.215  0.6297 -0.6739 -0.4267
 2378SOL    HW218768   4.396   4.602  17.094  1.7004  0.7794  0.8137
 2379SOL     OW18769   1.107   0.404   3.075  0.1447  0.3124  0.4673
 2379SOL    HW118770   1.086   0.490   3.113 -1.9297  0.2265 -0.5037
 2379SOL    HW218771   1.150   0.432   2.995  0.7508  1.5471  1.2232
 2380SOL     OW18772   0.928   3.696   6.184  0.0801 -0.6214  0.2967
 2380SOL    HW118773   0.998   3.714   6.247 -0.5650  3.2431 -0.0482
 2380SOL    HW218774   0.917   3.602   6.199 -2.5497 -0.1391  1.4572
 2381SOL     OW18775   0.311   2.633   7.531  0.3020  0.2364  0.3862
 2381SOL    HW118776   0.278   2.712   7.488 -1.1821 -0.9281 -0.6076
 2381SOL    HW218777   0.264   2.634   7.614  0.8551 -0.0962  0.7073
 2382SOL     OW18778   0.914   0.464   2.463 -0.0170  0.1512  0.2265
 2382SOL    HW118779   0.906   0.512   2.545  0.1439  1.4123 -0.4948
 2382SOL    HW218780   0.840   0.502   2.416  1.7246  2.5062 -0.5965
 2383SOL     OW18781   1.546   0.247   3.293  0.6534 -0.1695  0.5134
 2383SOL    HW118782   1.475   0.276   3.351 -0.8508 -0.6730 -1.0818
 2383SOL    HW218783   1.612   0.315   3.308  2.4151 -1.2941 -2.2883
 2384SOL     OW18784   4.580   0.406  15.355 -0.4308 -0.2092 -0.1300
 2384SOL    HW118785   4.571   0.444  15.443  0.5540 -0.5900  0.1393
 2384SOL    HW218786   4.672   0.379  15.358  0.0356  1.4763  1.2715
 2385SOL     OW18787   4.127   4.667   5.853 -0.2227  0.1023 -0.0569
 2385SOL    HW118788   4.182   4.722   5.798  0.0950  1.6403  1.7865
 2385SOL    HW218789   4.053   4.653   5.794 -1.0455  0.0309  0.9868
 2386SOL     OW18790   3.168   0.291   8.047  0.1019 -0.2670  0.2926
 2386SOL    HW118791   3.249   0.327   8.012  0.1164  1.1006  1.7600
 2386SOL    HW218792   3.216   0.247   8.116  0.1273  0.0956  0.5043
 2387SOL     OW18793   0.420   1.455  10.225  0.4870  0.6865 -0.4227
 2387SOL    HW118794   0.327   1.471  10.242  0.5482 -0.7268  1.2126
 2387SOL    HW218795   0.460   1.539  10.249  0.0441  0.8045 -0.0936
 2388SOL     OW18796   3.067   2.092   9.061 -0.2536  0.1161 -0.1043
 2388SOL    HW118797   3.001   2.032   9.029  0.3352 -0.5796 -0.0042
 2388SOL    HW218798   3.144   2.049   9.023  2.5043  1.0792  4.3778
 2389SOL     OW18799   2.881   1.201   1.069 -0.4212  0.8275 -0.3655
 2389SOL    HW118800   2.786   1.193   1.079 -0.3339  1.0214  0.6490
 2389SOL    HW218801   2.930   1.157   1.139 -0.7480 -0.2346 -0.8168
 2390SOL     OW18802   0.628   0.214   4.918  0.1923  0.0999  0.6188
 2390SOL    HW118803   0.555   0.222   4.980 -0.3055 -0.1106  0.0654
 2390SOL    HW218804   0.589   0.192   4.833 -0.7272 -0.9763  1.3207
 2391SOL     OW18805   3.360   0.875  17.671  0.1069  0.0432 -0.4247
 2391SOL    HW118806   3.278   0.890  17.624 -0.2546  0.7785  0.4205
 2391SOL    HW218807   3.337   0.908   0.017  1.6973  2.6419 -0.9765
 2392SOL     OW18808   3.488   1.835   9.194 -0.2189 -0.3038  0.3525
 2392SOL    HW118809   3.534   1.751   9.191 -0.7315 -0.6333  1.8072
 2392SOL    HW218810   3.529   1.878   9.269  2.2373 -0.8585 -0.6708
 2393SOL     OW18811   2.345   0.652  14.562  0.9117  0.3707  0.0746
 2393SOL    HW118812   2.362   0.579  14.622 -1.8252 -0.3382  0.0063
 2393SOL    HW218813   2.419   0.709  14.585 -0.0286  1.0381  1.4445
 2394SOL     OW18814   0.683   2.614   8.983 -0.5762 -0.1627  0.0940
 2394SOL    HW118815   0.644   2.544   9.036 -2.0995 -0.1814 -1.0726
 2394SOL    HW218816   0.683   2.684   9.048 -1.8755  0.2810 -0.3739
 2395SOL     OW18817   0.727   0.920   9.970  0.2648 -0.4530 -0.9953
 2395SOL    HW118818   0.814   0.960   9.975  0.6464 -1.0387 -2.9351
 2395SOL    HW218819   0.746   0.826   9.979  0.4098 -0.4096 -0.8459
 2396SOL     OW18820   0.410   4.660   8.785 -0.2178 -0.7830  0.1805
 2396SOL    HW118821   0.493   4.632   8.746 -1.0151 -1.7979 -0.7787
 2396SOL    HW218822   0.406   4.594   8.854  0.2291  0.8748  1.7786
 2397SOL     OW18823   2.407   3.554   2.555  0.0060  0.1263 -0.2288
 2397SOL    HW118824   2.325   3.530   2.599  1.4028  2.0608  3.4309
 2397SOL    HW218825   2.383   3.538   2.464  0.9859  0.4825 -0.5540
 2398SOL     OW18826   0.581   2.154  10.585 -1.5374  0.5083 -0.0358
 2398SOL    HW118827   0.544   2.106  10.659  2.5611 -1.6798  0.5793
 2398SOL    HW218828   0.645   2.092  10.551 -2.2695  0.8625 -2.0114
 2399SOL     OW18829   4.112   3.750   4.485  0.0726  0.1203  0.5854
 2399SOL    HW118830   4.130   3.660   4.512  2.3197  0.1851 -0.7756
 2399SOL    HW218831   4.169   3.762   4.410 -0.2872 -3.5585 -0.3088
 2400SOL     OW18832   3.870   1.174   5.185 -0.0486 -0.3970 -0.2834
 2400SOL    HW118833   3.905   1.150   5.271  3.4551 -1.2807 -1.9742
 2400SOL    HW218834   3.879   1.269   5.188 -1.2701 -0.2010 -2.8574
 2401SOL     OW18835   3.737   3.378   9.323  0.1538  0.0170 -0.2337
 2401SOL    HW118836   3.771   3.440   9.258 -1.7203  0.9864 -0.3053
 2401SOL    HW218837   3.713   3.440   9.392  1.2781  0.8733 -0.6083
 2402SOL     OW18838   1.594   4.426   4.718 -0.2067 -0.2560  0.1646
 2402SOL    HW118839   1.535   4.371   4.770 -0.1546 -0.7751 -0.3290
 2402SOL    HW218840   1.645   4.459   4.792 -1.7731  1.0740  0.6767
 2403SOL     OW18841   3.035   3.685   5.450 -0.1100 -0.5120  0.0832
 2403SOL    HW118842   3.123   3.652   5.470  1.4939  3.5235 -0.2804
 2403SOL    HW218843   2.981   3.606   5.455 -0.1081 -0.4851  0.5458
 2404SOL     OW18844   2.111   2.928   1.818 -0.4142  0.1308  0.3719
 2404SOL    HW118845   2.162   2.852   1.845  1.6107  1.5077  0.4569
 2404SOL    HW218846   2.070   2.949   1.903 -3.4780  0.1120 -1.1027
 2405SOL     OW18847   2.248   0.450  12.820 -0.0828 -0.0811  0.8477
 2405SOL    HW118848   2.178   0.515  12.816 -0.0031  0.0044  0.8314
 2405SOL    HW218849   2.319   0.513  12.806  0.7976 -1.7376 -2.0842
 2406SOL     OW18850   2.241   4.734   1.928  0.2518 -0.1624  0.3090
 2406SOL    HW118851   2.183   4.672   1.886 -2.4616  2.1594  0.6094
 2406SOL    HW218852   2.320   4.682   1.941  0.5817  0.4329  0.7396
 2407SOL     OW18853   2.456   3.970   8.065  0.3582 -0.2538 -0.0805
 2407SOL    HW118854   2.516   3.926   8.125 -1.3093 -1.4998  0.6769
 2407SOL    HW218855   2.369   3.936   8.086 -0.1875 -0.5101 -2.8615
 2408SOL     OW18856   3.038   3.970   6.033  0.7138 -0.0772 -0.2387
 2408SOL    HW118857   2.962   4.028   6.037  0.2013 -0.8138  0.6180
 2408SOL    HW218858   3.000   3.883   6.026 -1.9819  1.0631  0.0679
 2409SOL     OW18859   3.926   3.206  12.251 -0.0757 -0.2138  0.3094
 2409SOL    HW118860   3.900   3.136  12.310 -0.9049  0.6771  0.9990
 2409SOL    HW218861   4.012   3.241  12.272 -0.1767  1.4991 -2.0561
 2410SOL     OW18862   3.192   2.853   4.512  0.1736  0.0748  0.0774
 2410SOL    HW118863   3.233   2.932   4.548  0.5797 -0.5220  0.9292
 2410SOL    HW218864   3.231   2.780   4.560  1.3259 -1.0025 -2.4933
 2411SOL     OW18865   4.421   2.541  12.630  0.1039 -0.0333 -0.6658
 2411SOL    HW118866   4.447   2.616  12.685  0.9926 -0.9786  0.1997
 2411SOL    HW218867   4.429   2.583  12.544 -0.3768 -2.8509 -2.0519
 2412SOL     OW18868   4.481   2.575   5.057  0.2693  0.2284  0.2588
 2412SOL    HW118869   4.499   2.609   5.145 -0.0214  0.5546  0.1901
 2412SOL    HW218870   4.390   2.546   5.064  0.2093  0.6973  1.3877
 2413SOL     OW18871   4.228   2.608   8.014  0.2276  0.0039 -0.0069
 2413SOL    HW118872   4.282   2.587   7.938 -0.5998  0.9412 -0.8515
 2413SOL    HW218873   4.293   2.630   8.082  0.7753  0.2876 -0.6216
 2414SOL     OW18874   3.822   4.255   6.286 -0.2263 -0.0583 -0.3000
 2414SOL    HW118875   3.882   4.291   6.221  1.3842 -0.6362  0.8667
 2414SOL    HW218876   3.811   4.340   6.329 -0.4729  0.3395 -1.1386
 2415SOL     OW18877   0.468   2.699   4.136 -0.2391 -0.3650  0.1672
 2415SOL    HW118878   0.499   2.775   4.184 -1.3857  1.4890 -2.0234
 2415SOL    HW218879   0.387   2.674   4.181 -0.0888 -1.0685  0.0446
 2416SOL     OW18880   3.101   3.022  10.547  0.2412 -1.0615  0.0266
 2416SOL    HW118881   3.173   3.017  10.610  0.0605  1.8317  0.4669
 2416SOL    HW218882   3.080   2.929  10.545  1.6383 -1.2804 -3.1360
 2417SOL     OW18883   3.164   1.635   3.964 -0.0011  0.2687 -0.0645
 2417SOL    HW118884   3.117   1.622   4.047 -1.3423  0.6395 -0.7571
 2417SOL    HW218885   3.179   1.729   3.968  0.2719  0.2318 -0.2568
 2418SOL     OW18886   3.061   4.097   0.066  0.0543  0.4941  0.3717
 2418SOL    HW118887   3.032   4.168   0.123 -0.0003  0.4121  0.4468
 2418SOL    HW218888   3.037   4.127  17.720 -1.0066 -2.2778 -0.2726
 2419SOL     OW18889   4.497   0.974   4.526 -0.4013  0.3477 -0.2534
 2419SOL    HW118890   4.403   0.977   4.510 -0.7749  0.1515  1.8889
 2419SOL    HW218891   4.534   0.981   4.438 -1.5864  1.6088 -0.6499
 2420SOL     OW18892   4.083   2.201   1.036  0.0981  0.2642  0.0637
 2420SOL    HW118893   4.111   2.194   0.945  0.1203 -2.1248  0.2592
 2420SOL    HW218894   4.126   2.282   1.064 -1.0581  1.0830 -0.4853
 2421SOL     OW18895   4.049   1.190   3.856 -0.3792  0.3197 -0.2388
 2421SOL    HW118896   3.979   1.190   3.922  0.2903 -0.5701  0.4655
 2421SOL    HW218897   4.125   1.228   3.900 -0.0152  0.7724 -1.2544
 2422SOL     OW18898   4.104   4.142   5.768  0.2184 -0.4030 -0.4167
 2422SOL    HW118899   4.108   4.067   5.827  0.4535  0.7450  0.9994
 2422SOL    HW218900   4.185   4.121   5.721  0.2632 -0.0973 -0.4781
 2423SOL     OW18901   4.528   1.619   2.086  0.1879  0.3254 -0.8493
 2423SOL    HW118902   4.445   1.666   2.086  0.3978  0.6853  1.6175
 2423SOL    HW218903   4.508   1.547   2.026 -0.6698 -0.2948  0.1750
 2424SOL     OW18904   0.406   1.511   0.336  0.2773  0.3841  0.8139
 2424SOL    HW118905   0.321   1.467   0.330  1.0477 -1.2134  1.5693
 2424SOL    HW218906   0.431   1.498   0.245  0.3113  0.3992  0.8210
 2425SOL     OW18907   1.640   0.137   4.554 -0.2617  0.3817 -0.1099
 2425SOL    HW118908   1.698   0.072   4.513 -0.2900  0.1210  0.2562
 2425SOL    HW218909   1.633   0.109   4.646 -0.6971 -2.4647 -0.9951
 2426SOL     OW18910   2.216   1.239   1.875  0.1956 -0.0114 -0.3821
 2426SOL    HW118911   2.246   1.149   1.871 -1.3428 -0.5684  0.7822
 2426SOL    HW218912   2.135   1.234   1.824  0.9412  1.2438 -1.7083
 2427SOL     OW18913   1.462   3.270   7.534 -0.1779  0.3804  0.4333
 2427SOL    HW118914   1.386   3.275   7.592 -0.7467 -0.7348 -0.2282
 2427SOL    HW218915   1.532   3.248   7.596 -0.2318  0.1317  0.4057
 2428SOL     OW18916   2.627   2.581   3.601 -0.7970  0.1608  0.2526
 2428SOL    HW118917   2.564   2.550   3.667 -1.8833 -1.2453 -1.4567
 2428SOL    HW218918   2.638   2.672   3.629  0.3139  0.1182 -0.0473
 2429SOL     OW18919   0.146   0.322   9.247 -0.5827 -0.8286 -0.2642
 2429SOL    HW118920   0.155   0.335   9.153 -0.6930  0.6275 -0.0754
 2429SOL    HW218921   0.077   0.256   9.242  0.2400 -1.8243  1.1301
 2430SOL     OW18922   4.101   4.517   1.591 -0.9534 -0.6339 -0.5136
 2430SOL    HW118923   4.080   4.584   1.657  1.4426  0.2594 -0.6860
 2430SOL    HW218924   4.015   4.485   1.563 -2.2148  3.3846 -1.2523
 2431SOL     OW18925   1.431   4.204   8.539 -0.1406 -0.0758  0.3756
 2431SOL    HW118926   1.520   4.189   8.509  0.4329 -0.3227  2.2047
 2431SOL    HW218927   1.455   4.221   8.630  0.6869 -1.2152  0.3704
 2432SOL     OW18928   4.148   3.950   5.942 -0.6298  0.0226  0.0808
 2432SOL    HW118929   4.229   3.938   5.992 -0.1663  1.6922 -0.2842
 2432SOL    HW218930   4.116   3.861   5.954  0.6753 -0.7114 -1.7435
 2433SOL     OW18931   3.622   2.918  10.786 -0.2607  0.3593  0.1454
 2433SOL    HW118932   3.712   2.910  10.755  0.8714  2.3270  2.9258
 2433SOL    HW218933   3.624   2.854  10.858  1.1348 -2.2888 -2.2494
 2434SOL     OW18934   4.570   0.546   5.039 -0.0575  0.2197 -0.4257
 2434SOL    HW118935   4.483   0.519   5.012  0.3714  0.8178 -2.3874
 2434SOL    HW218936   4.616   0.462   5.037 -0.1789  0.1584 -0.6391
 2435SOL     OW18937   4.397   4.612  10.044  0.1697  0.0139 -0.5009
 2435SOL    HW118938   4.463   4.552  10.079 -0.8979 -1.1577 -0.5037
 2435SOL    HW218939   4.447   4.690  10.069 -0.4620  0.7992 -1.6239
 2436SOL     OW18940   3.953   1.726   5.320 -0.4092 -0.1315  0.1248
 2436SOL    HW118941   3.950   1.815   5.355 -0.9938 -1.1410  2.6743
 2436SOL    HW218942   3.886   1.674   5.364  0.8700 -0.1279  2.0479
 2437SOL     OW18943   1.214   0.336   0.686 -0.0792  0.4511  0.0586
 2437SOL    HW118944   1.299   0.297   0.708 -0.6876  0.5275  2.5351
 2437SOL    HW218945   1.246   0.404   0.627  1.2582 -0.6734 -0.5257
 2438SOL     OW18946   4.363   2.090   4.658 -0.1295  0.0987  0.6339
 2438SOL    HW118947   4.327   2.013   4.702 -2.2946  1.3995  1.1659
 2438SOL    HW218948   4.454   2.076   4.681 -0.9289 -1.9848  2.5369
 2439SOL     OW18949   2.310   2.284  10.287  0.3733 -0.1089 -0.0588
 2439SOL    HW118950   2.230   2.262  10.238 -0.5374 -1.5683  2.0673
 2439SOL    HW218951   2.281   2.286  10.378 -0.2395  1.4276 -0.2932
 2440SOL     OW18952   2.404   4.735  16.302 -0.0971  0.9285  0.3652
 2440SOL    HW118953   2.312   0.026  16.309 -0.6828 -0.7620 -0.9372
 2440SOL    HW218954   2.396   4.698  16.214 -0.7325  1.1790  0.3196
 2441SOL     OW18955   2.436   1.658   3.041  0.0620 -0.0722  0.1541
 2441SOL    HW118956   2.409   1.730   3.098  1.6372 -0.2610  1.1383
 2441SOL    HW218957   2.374   1.665   2.969  2.8623  1.2597 -2.1018
 2442SOL     OW18958   4.466   4.467   1.237  0.6407  0.1413  0.3138
 2442SOL    HW118959   4.481   4.528   1.309 -0.2679  0.3420  0.3378
 2442SOL    HW218960   4.399   4.418   1.285  0.9234 -0.8248 -0.2781
 2443SOL     OW18961   3.399   4.200   4.387 -0.3685  0.1643  0.4264
 2443SOL    HW118962   3.425   4.270   4.327  0.2550 -1.1642 -0.8351
 2443SOL    HW218963   3.338   4.245   4.445  1.7181  1.8143  1.3120
 2444SOL     OW18964   1.700   3.372   4.814  0.1434 -0.2844  0.0296
 2444SOL    HW118965   1.632   3.349   4.879  0.4076  2.9408  1.4396
 2444SOL    HW218966   1.777   3.381   4.871  0.0775  0.1022  0.0525
 2445SOL     OW18967   2.492   0.567   5.488  0.0542  0.8185  0.1083
 2445SOL    HW118968   2.565   0.591   5.545  1.0656 -1.0305 -0.4152
 2445SOL    HW218969   2.447   0.650   5.473  0.6279  0.9277 -0.9945
 2446SOL     OW18970   2.007   0.683   5.607  0.5666 -0.2388  0.0893
 2446SOL    HW118971   1.952   0.604   5.613 -0.6031  0.5811  0.2388
 2446SOL    HW218972   1.935   0.740   5.633 -0.1590 -1.7876  1.5032
 2447SOL     OW18973   0.806   0.876  11.278  0.4656  0.0415  0.8719
 2447SOL    HW118974   0.720   0.851  11.246  0.1356  1.6140  0.5307
 2447SOL    HW218975   0.840   0.894  11.191 -0.9629  0.9674  0.5076
 2448SOL     OW18976   1.606   3.988  15.679  0.0955  0.7197 -0.2886
 2448SOL    HW118977   1.621   3.895  15.697  1.1500  1.0384  0.5173
 2448SOL    HW218978   1.523   4.006  15.721  0.6612  2.2080  0.2001
 2449SOL     OW18979   3.725   0.512   2.244  0.4143 -0.4384  0.0938
 2449SOL    HW118980   3.729   0.592   2.191  1.7085 -1.2634 -1.0477
 2449SOL    HW218981   3.674   0.545   2.318  0.8287 -0.2439  0.2949
 2450SOL     OW18982   4.547   2.483   1.708 -0.3036  0.0537  0.4114
 2450SOL    HW118983   4.457   2.499   1.679 -0.0279  0.2036 -0.3524
 2450SOL    HW218984   4.566   2.547   1.775  0.0712 -0.1082  0.4582
 2451SOL     OW18985   4.672   3.357   6.913  0.4149  0.9291 -0.7042
 2451SOL    HW118986   4.681   3.324   6.823  1.4270 -0.0154 -0.2499
 2451SOL    HW218987   4.673   3.269   6.950  1.8421  0.6535 -1.3804
 2452SOL     OW18988   1.472   1.725   2.147  0.0924 -0.4184 -0.0344
 2452SOL    HW118989   1.518   1.805   2.170  3.7111 -1.9495 -2.0494
 2452SOL    HW218990   1.535   1.669   2.103  0.5394 -1.4226  1.9064
 2453SOL     OW18991   0.733   2.594   0.935 -0.2859 -0.1930  0.2914
 2453SOL    HW118992   0.665   2.624   0.875 -0.3992 -0.5892  0.2223
 2453SOL    HW218993   0.733   2.667   0.997 -1.4408  0.5066 -0.5421
 2454SOL     OW18994   2.996   0.591   3.436  0.5128  0.4819 -0.0075
 2454SOL    HW118995   2.923   0.595   3.498  1.6603 -1.6255  1.4520
 2454SOL    HW218996   3.015   0.498   3.431 -2.5710 -0.1535 -0.1350
 2455SOL     OW18997   2.690   3.848   9.851  0.1315  0.2711  0.1946
 2455SOL    HW118998   2.728   3.933   9.828 -3.2828  0.7609 -3.5863
 2455SOL    HW218999   2.699   3.842   9.946 -0.4252 -0.4192  0.2004
 2456SOL     OW19000   0.880   0.856  17.512 -0.0847  0.1951 -0.7538
 2456SOL    HW119001   0.818   0.925  17.537 -0.2718  0.3366 -1.6330
 2456SOL    HW219002   0.862   0.841  17.420  0.0024 -0.0640 -0.7299
 2457SOL     OW19003   1.746   2.102   0.905  0.0038 -0.5250 -0.1517
 2457SOL    HW119004   1.711   2.125   0.991  1.8462  1.9110 -0.0536
 2457SOL    HW219005   1.665   2.067   0.869 -0.7125  2.5242 -1.5005
 2458SOL     OW19006   1.492   4.608  10.661 -0.7025  0.2540 -0.4672
 2458SOL    HW119007   1.503   4.689  10.610 -2.1581  0.2004 -0.8538
 2458SOL    HW219008   1.471   4.641  10.748 -0.5040 -0.6093 -0.0930
 2459SOL     OW19009   3.250   2.699  11.551  0.1662  0.4835 -0.3068
 2459SOL    HW119010   3.282   2.754  11.622 -1.3603  0.1925  0.6159
 2459SOL    HW219011   3.165   2.679  11.591  0.0303 -0.0662 -0.8646
 2460SOL     OW19012   1.099   0.688   3.970  0.2025  0.0454  0.0038
 2460SOL    HW119013   1.158   0.635   4.024  1.8392  2.4193  0.6074
 2460SOL    HW219014   1.094   0.767   4.024 -0.5903 -0.6876  0.9977
 2461SOL     OW19015   0.103   2.574   1.982  0.1035 -0.3234 -0.0718
 2461SOL    HW119016   0.183   2.605   1.940 -0.6616  1.5794 -0.1334
 2461SOL    HW219017   0.097   2.635   2.056 -2.6859 -1.3203  0.5374
 2462SOL     OW19018   0.108   2.446  17.353  0.0516 -0.0254 -0.1617
 2462SOL    HW119019   0.179   2.384  17.341  0.8113  0.9173 -0.5957
 2462SOL    HW219020   0.103   2.483  17.265  2.0060 -0.3728 -0.4103
 2463SOL     OW19021   4.424   4.729   3.697  0.1689  0.0303 -0.4980
 2463SOL    HW119022   4.503   4.708   3.647  0.8296 -0.0911  0.5854
 2463SOL    HW219023   4.469   0.003   3.781  0.8194  1.2968 -0.9858
 2464SOL     OW19024   0.661   0.450   5.516 -0.1043 -0.5229  0.4670
 2464SOL    HW119025   0.656   0.366   5.471 -1.3851 -0.3856  0.3547
 2464SOL    HW219026   0.687   0.434   5.606  0.7461  0.9151  0.4816
 2465SOL     OW19027   1.028   1.086   1.761 -0.6979  0.3611 -0.4981
 2465SOL    HW119028   1.056   1.150   1.826 -2.5226 -0.3698  1.0137
 2465SOL    HW219029   0.945   1.056   1.799 -0.3873 -1.4570 -1.2860
 2466SOL     OW19030   3.644   0.686   3.504  0.1721  0.0480  0.0264
 2466SOL    HW119031   3.628   0.717   3.593  0.3719  1.7473 -0.5320
 2466SOL    HW219032   3.602   0.749   3.446 -1.5181  0.7070  1.9532
 2467SOL     OW19033   0.512   1.172   2.025 -0.0048  0.1927  0.3597
 2467SOL    HW119034   0.597   1.215   2.027 -0.2165  0.7178 -1.8851
 2467SOL    HW219035   0.537   1.086   1.990 -0.6303 -0.8608  2.4728
 2468SOL     OW19036   3.443   0.774   4.946 -0.0817 -0.1924  0.6295
 2468SOL    HW119037   3.386   0.808   5.014 -0.9331 -0.2460 -0.0634
 2468SOL    HW219038   3.527   0.743   4.982 -0.5710 -2.0440  0.1805
 2469SOL     OW19039   3.456   2.407   3.864  0.2489  0.0774 -0.2096
 2469SOL    HW119040   3.433   2.477   3.803  0.4571  0.1108 -0.2496
 2469SOL    HW219041   3.371   2.367   3.883 -0.5377  1.6170 -0.5109
 2470SOL     OW19042   0.358   2.912   8.295 -0.3056 -0.2692  0.4727
 2470SOL    HW119043   0.441   2.959   8.287 -0.2300 -0.3755  0.6213
 2470SOL    HW219044   0.312   2.974   8.351  2.1710  0.4195  1.7320
 2471SOL     OW19045   3.873   1.171  12.956  0.2286  0.5739  0.6184
 2471SOL    HW119046   3.818   1.210  13.024 -0.2654 -0.7188  0.9523
 2471SOL    HW219047   3.924   1.249  12.935  2.0001 -1.0844 -1.2514
 2472SOL     OW19048   4.441   0.241  15.015 -0.1451  0.6647 -0.3241
 2472SOL    HW119049   4.495   0.183  15.069 -0.0351  0.5233 -0.5889
 2472SOL    HW219050   4.397   0.169  14.970  3.1927 -1.2254 -0.5921
 2473SOL     OW19051   3.214   3.821   3.324 -0.0969 -0.5967 -0.0569
 2473SOL    HW119052   3.128   3.800   3.289  0.0866 -1.2235 -0.1299
 2473SOL    HW219053   3.205   3.916   3.310  2.7043 -0.2787  0.2692
 2474SOL     OW19054   2.900   3.611   2.503 -0.6243  0.0888  0.6302
 2474SOL    HW119055   2.953   3.656   2.437  1.6893 -1.8069  1.1981
 2474SOL    HW219056   2.884   3.682   2.565  0.4417  2.0177 -1.3415
 2475SOL     OW19057   3.947   3.074   6.308  0.4049 -0.2080 -0.6608
 2475SOL    HW119058   3.866   3.054   6.259 -0.9344  0.0354  1.4581
 2475SOL    HW219059   3.909   3.085   6.395  0.1745 -0.9647 -0.6624
 2476SOL     OW19060   4.544   1.639   0.967  0.2652 -0.3729 -0.3479
 2476SOL    HW119061   4.569   1.680   0.884  2.3221  0.0041  0.4640
 2476SOL    HW219062   4.624   1.658   1.016  0.0132 -0.4248  0.0870
 2477SOL     OW19063   1.703   4.145   5.373  0.2321 -0.3298  0.4203
 2477SOL    HW119064   1.688   4.169   5.465  2.0147 -0.0127  0.6473
 2477SOL    HW219065   1.777   4.084   5.377 -2.0377 -3.0881  0.1153
 2478SOL     OW19066   3.995   0.786  15.475  0.2530  0.4147  1.1965
 2478SOL    HW119067   3.997   0.861  15.534 -2.3371  1.5230 -0.0856
 2478SOL    HW219068   4.083   0.751  15.474 -0.8811 -2.2792 -2.0568
 2479SOL     OW19069   4.143   0.445   6.476  0.2993 -0.5125 -0.3790
 2479SOL    HW119070   4.061   0.490   6.458  1.2617  1.2075 -0.4874
 2479SOL    HW219071   4.125   0.398   6.557  0.1920 -0.3925 -0.3335
 2480SOL     OW19072   1.615   1.484   3.294 -0.3466 -0.3145  0.0856
 2480SOL    HW119073   1.635   1.527   3.377 -0.4232  0.8754 -0.5119
 2480SOL    HW219074   1.589   1.562   3.244 -0.5633  0.0803  0.8268
 2481SOL     OW19075   2.255   3.033   2.939  0.2050 -0.1173 -0.1324
 2481SOL    HW119076   2.283   3.041   2.848  1.1791  0.2307  0.1995
 2481SOL    HW219077   2.292   3.115   2.971 -1.1434  0.9657 -1.4042
 2482SOL     OW19078   0.662   1.715   5.695  0.6074  0.2905 -0.3262
 2482SOL    HW119079   0.631   1.794   5.739  1.8533  1.4360 -1.5200
 2482SOL    HW219080   0.658   1.659   5.773  1.1246  0.4827 -0.1574
 2483SOL     OW19081   3.372   2.482  10.190 -0.7579 -0.6060 -0.1188
 2483SOL    HW119082   3.424   2.402  10.189 -1.9750 -1.3409 -4.3582
 2483SOL    HW219083   3.298   2.459  10.134 -0.6732  0.8090 -0.8076
 2484SOL     OW19084   2.417   2.841  14.045 -0.2701 -0.6652 -0.5119
 2484SOL    HW119085   2.405   2.821  13.952  1.8278 -2.4303 -0.4097
 2484SOL    HW219086   2.445   2.933  14.039 -1.1773 -0.3328  0.3393
 2485SOL     OW19087   3.768   0.047   9.550 -0.1575 -0.2238  0.5490
 2485SOL    HW119088   3.761   0.097   9.631 -0.7172 -2.5994  1.9279
 2485SOL    HW219089   3.795   0.119   9.492  1.9882 -0.3012  1.4705
 2486SOL     OW19090   2.009   1.986   0.909  0.6103 -0.6263  0.0035
 2486SOL    HW119091   1.917   2.010   0.913  0.3790 -1.5076 -0.1546
 2486SOL    HW219092   2.042   2.068   0.872  1.6160 -0.3558  1.4733
 2487SOL     OW19093   3.025   4.569   4.900 -0.3820 -0.3309 -0.3808
 2487SOL    HW119094   2.977   4.650   4.915 -1.7456 -1.3192  0.4985
 2487SOL    HW219095   3.117   4.597   4.900 -0.5844  0.2852 -2.4183
 2488SOL     OW19096   1.432   0.557   7.729 -0.4633  0.7142 -0.0579
 2488SOL    HW119097   1.389   0.479   7.763 -1.2333  0.7135 -1.0056
 2488SOL    HW219098   1.523   0.533   7.716 -0.4098  1.3199 -0.8380
 2489SOL     OW19099   0.956   3.962   2.878 -0.2792 -0.6637  0.1622
 2489SOL    HW119100   1.030   3.901   2.879  0.4903  0.2664 -0.9187
 2489SOL    HW219101   0.897   3.930   2.809  0.3792  0.7068 -1.0268
 2490SOL     OW19102   0.191   1.026   3.358  0.3790 -0.0669 -0.1497
 2490SOL    HW119103   0.189   0.962   3.429 -0.3136  0.0524 -0.0649
 2490SOL    HW219104   0.193   1.108   3.407  1.1584 -1.1143  1.5894
 2491SOL     OW19105   1.825   2.293   7.632 -0.1520  0.5815 -0.2497
 2491SOL    HW119106   1.849   2.306   7.724 -2.0270  0.4997  0.2461
 2491SOL    HW219107   1.810   2.382   7.603 -0.5847  0.2567 -1.0152
 2492SOL     OW19108   1.941   0.368   0.727 -0.1603 -0.0466  0.6348
 2492SOL    HW119109   1.966   0.312   0.653 -1.6840  1.2247 -0.8303
 2492SOL    HW219110   2.025   0.370   0.773 -0.2637  0.9546  0.7741
 2493SOL     OW19111   4.389   0.178  13.083  0.5495 -0.3792 -0.1481
 2493SOL    HW119112   4.456   0.137  13.028  0.0518 -0.5191 -0.6501
 2493SOL    HW219113   4.422   0.264  13.106  0.1224 -0.2571 -0.0023
 2494SOL     OW19114   3.898   2.466   2.352  0.3128  0.2309 -0.0550
 2494SOL    HW119115   3.807   2.490   2.335 -0.2888 -1.5249  0.6222
 2494SOL    HW219116   3.938   2.476   2.266 -0.3478  0.9221 -0.2856
 2495SOL     OW19117   2.359   0.458   4.274 -0.1094 -0.0089 -0.1149
 2495SOL    HW119118   2.306   0.473   4.352  0.5869  0.3498  0.2847
 2495SOL    HW219119   2.359   0.547   4.238 -0.6717 -0.8448 -2.2406
 2496SOL     OW19120   1.777   0.053   8.892  0.2225  0.2648 -0.3749
 2496SOL    HW119121   1.855   0.102   8.918  0.4474 -0.7211  0.7976
 2496SOL    HW219122   1.763   0.068   8.798  0.1113  0.5032 -0.3193
 2497SOL     OW19123   3.551   0.228   5.716 -0.3051  0.0750 -0.5070
 2497SOL    HW119124   3.509   0.189   5.640  0.0308  0.5280 -0.9239
 2497SOL    HW219125   3.584   0.308   5.676  1.3834 -0.3911 -0.0816
 2498SOL     OW19126   3.636   0.378   3.150  0.0475  1.0077 -0.1147
 2498SOL    HW119127   3.636   0.442   3.222 -1.3640  0.5670  0.2975
 2498SOL    HW219128   3.722   0.337   3.157  0.2796  1.6542  0.8966
 2499SOL     OW19129   3.535   4.567   6.250  0.1324 -0.4062  0.5929
 2499SOL    HW119130   3.541   4.555   6.155 -1.8480 -0.9849  0.5372
 2499SOL    HW219131   3.501   4.481   6.275 -1.2449 -0.0493 -0.0388
 2500SOL     OW19132   4.643   2.320  12.504 -0.4928  0.1593  0.3528
 2500SOL    HW119133   4.686   2.296  12.586 -2.5465 -1.6722  0.8896
 2500SOL    HW219134   4.558   2.359  12.524 -0.1291  0.9354  0.4153
 2501SOL     OW19135   3.041   2.623  11.740  0.1825  0.2743 -0.3482
 2501SOL    HW119136   3.054   2.528  11.737  0.1052  0.1871  2.3611
 2501SOL    HW219137   2.946   2.632  11.750  0.0380 -2.5874  0.8523
 2502SOL     OW19138   1.842   2.420   2.378  0.2473 -0.0529  0.1595
 2502SOL    HW119139   1.922   2.425   2.325  0.2651 -2.8019 -0.1211
 2502SOL    HW219140   1.793   2.477   2.319 -1.7331  0.5395  2.4153
 2503SOL     OW19141   3.637   3.897   2.001 -0.1742  0.3983  0.2697
 2503SOL    HW119142   3.554   3.944   2.004 -0.0096  0.8207 -2.0490
 2503SOL    HW219143   3.623   3.819   2.054 -2.6480 -0.1211 -1.1350
 2504SOL     OW19144   2.266   2.887  15.281  0.0852 -0.0262  0.1022
 2504SOL    HW119145   2.188   2.851  15.239  2.2005 -1.5460 -2.5459
 2504SOL    HW219146   2.317   2.923  15.209  0.4333 -1.0492 -0.1569
 2505SOL     OW19147   3.212   2.406  14.629  0.1830  0.3684 -0.1586
 2505SOL    HW119148   3.180   2.391  14.540  2.0353  1.5142 -1.0207
 2505SOL    HW219149   3.294   2.450  14.605  0.6719  0.2286  1.2708
 2506SOL     OW19150   4.125   0.549   5.248 -0.6773 -0.0678 -1.0363
 2506SOL    HW119151   4.103   0.579   5.336  1.7252  0.8213 -0.7344
 2506SOL    HW219152   4.132   0.455   5.266 -0.5508  0.4878  1.8997
 2507SOL     OW19153   1.791   3.770   8.151 -0.4442  0.2393 -0.1999
 2507SOL    HW119154   1.873   3.767   8.200 -1.1037 -1.7899  0.7803
 2507SOL    HW219155   1.747   3.853   8.167  2.5572  1.9804 -0.9542
 2508SOL     OW19156   2.991   4.261   3.946  0.4139  0.1251  0.2549
 2508SOL    HW119157   2.907   4.245   3.904  1.0489 -2.6337  0.0227
 2508SOL    HW219158   3.023   4.334   3.893 -2.7398 -0.1314 -2.0179
 2509SOL     OW19159   4.050   2.166   2.002  0.2250  0.2582  0.5160
 2509SOL    HW119160   4.130   2.115   1.995 -0.5342 -1.0076  1.0229
 2509SOL    HW219161   4.015   2.156   1.913  2.1173 -0.0636 -0.1765
 2510SOL     OW19162   4.131   0.827   6.480 -0.0543 -0.3167  0.3730
 2510SOL    HW119163   4.166   0.892   6.418  0.6484 -2.8835 -1.9088
 2510SOL    HW219164   4.198   0.761   6.464 -2.2793 -1.9186 -2.4094
 2511SOL     OW19165   1.383   0.742   0.640  0.3637 -0.9424 -0.3417
 2511SOL    HW119166   1.457   0.683   0.656  0.3411 -1.2518 -1.3940
 2511SOL    HW219167   1.356   0.759   0.730  0.3464 -0.6217 -0.4069
 2512SOL     OW19168   3.956   4.547   6.805 -0.5446  0.3193 -0.8080
 2512SOL    HW119169   3.867   4.565   6.833  0.0719  0.3793  1.0938
 2512SOL    HW219170   3.984   4.496   6.881  0.2482 -0.9437 -1.9311
 2513SOL     OW19171   4.470   2.717   5.415  0.3556  0.1552  0.6618
 2513SOL    HW119172   4.426   2.768   5.483 -0.4469  0.7240 -0.2842
 2513SOL    HW219173   4.462   2.626   5.445  0.4895  0.5424  1.8839
 2514SOL     OW19174   0.623   4.509  10.792 -0.2549  0.5540  1.1174
 2514SOL    HW119175   0.696   4.449  10.806  0.4923  2.2244  4.4520
 2514SOL    HW219176   0.546   4.461  10.822  0.0792 -1.2748 -0.9464
 2515SOL     OW19177   2.327   2.520  14.049  0.4517 -0.1881  0.1962
 2515SOL    HW119178   2.295   2.432  14.067  1.0189 -0.1287  1.4566
 2515SOL    HW219179   2.337   2.502  13.955 -1.4700  3.5111 -0.7139
 2516SOL     OW19180   2.767   2.370  12.209 -0.1968  0.1456 -0.0074
 2516SOL    HW119181   2.682   2.334  12.232  0.4018  0.8272  3.1698
 2516SOL    HW219182   2.808   2.372  12.295 -1.1155 -0.9160  0.4614
 2517SOL     OW19183   4.242   0.033  12.658  0.3067 -0.6289  0.8589
 2517SOL    HW119184   4.206   0.100  12.599  3.0089 -0.9911 -1.2059
 2517SOL    HW219185   4.328   0.070  12.679  1.2606 -2.2715 -0.1527
 2518SOL     OW19186   1.559   3.792   3.009  0.3790  0.0031  0.7892
 2518SOL    HW119187   1.579   3.704   2.975 -1.1797  0.5810 -1.5966
 2518SOL    HW219188   1.605   3.849   2.947 -1.5095  0.8206  0.1714
 2519SOL     OW19189   1.102   4.048   4.354 -0.2441  0.0767  0.1607
 2519SOL    HW119190   1.129   3.960   4.327  1.4189  0.6443  0.0025
 2519SOL    HW219191   1.186   4.083   4.385 -0.6694  0.4857  0.8551
 2520SOL     OW19192   0.568   0.128   8.464  0.0062  0.1390 -0.5565
 2520SOL    HW119193   0.539   0.181   8.538 -0.4934  0.4126 -0.9517
 2520SOL    HW219194   0.575   0.042   8.507 -2.2309 -1.3281 -3.1092
 2521SOL     OW19195   0.026   4.674   0.279  0.1161  0.2661  0.3315
 2521SOL    HW119196   4.674   4.637   0.268 -0.2381  1.2017  0.0281
 2521SOL    HW219197   0.056   4.635   0.361  1.6403  2.2158  0.6955
 2522SOL     OW19198   3.870   3.936  11.720  0.3470  0.1670 -0.2082
 2522SOL    HW119199   3.801   3.874  11.695 -0.2067  0.1610  1.3428
 2522SOL    HW219200   3.821   4.018  11.714  0.3523  0.3479  2.4560
 2523SOL     OW19201   2.806   1.298  12.168 -0.2411  0.3699 -0.5861
 2523SOL    HW119202   2.875   1.254  12.119  0.3669  0.1304  0.5099
 2523SOL    HW219203   2.775   1.359  12.100 -1.1346  0.0835 -0.4307
 2524SOL     OW19204   3.954   2.803  10.403 -0.3852 -0.2401  0.4393
 2524SOL    HW119205   3.989   2.852  10.477 -0.8494  0.4433  0.2065
 2524SOL    HW219206   3.992   2.845  10.326 -2.0387  0.9309  0.2523
 2525SOL     OW19207   1.528   3.180  10.752 -0.1645 -0.2526 -0.2608
 2525SOL    HW119208   1.541   3.099  10.799 -4.4816 -1.8873 -1.8845
 2525SOL    HW219209   1.442   3.159  10.717 -0.5145 -1.4256  1.3643
 2526SOL     OW19210   2.659   2.934  16.874 -0.4415  0.9242  0.3037
 2526SOL    HW119211   2.613   3.016  16.897 -0.6879  0.7298  0.5080
 2526SOL    HW219212   2.695   2.912  16.960 -1.9311 -1.4632  0.3031
 2527SOL     OW19213   2.395   2.551   9.702  0.4527  0.4087  0.0637
 2527SOL    HW119214   2.315   2.586   9.742 -1.2168  0.3700 -3.1902
 2527SOL    HW219215   2.364   2.503   9.625 -0.6740 -0.6051  1.1469
 2528SOL     OW19216   1.548   0.586   2.487  0.0087  0.4148 -0.1227
 2528SOL    HW119217   1.629   0.599   2.438 -0.4243 -2.0722 -1.5280
 2528SOL    HW219218   1.588   0.547   2.565  2.1292 -0.9822 -1.9148
 2529SOL     OW19219   1.394   0.686   1.449 -0.1986 -0.2630  0.0639
 2529SOL    HW119220   1.357   0.725   1.370  1.3673 -1.5293 -1.2855
 2529SOL    HW219221   1.360   0.739   1.521 -0.9816  0.2665 -0.6972
 2530SOL     OW19222   2.970   2.926   5.486 -0.0856 -0.4438 -0.1705
 2530SOL    HW119223   2.954   2.989   5.556 -0.6901 -0.5895 -0.1725
 2530SOL    HW219224   2.943   2.847   5.533 -0.4830  1.6796  3.1776
 2531SOL     OW19225   0.969   0.206   2.561 -0.3344 -0.6483  0.6943
 2531SOL    HW119226   0.957   0.130   2.505 -2.0542 -0.3223  0.6292
 2531SOL    HW219227   0.942   0.271   2.495  0.0941 -1.0789  0.0913
 2532SOL     OW19228   2.627   3.705   5.697  0.0361  1.0204  0.4766
 2532SOL    HW119229   2.561   3.714   5.765 -1.6355 -1.9811 -0.7580
 2532SOL    HW219230   2.612   3.780   5.638 -0.3937 -0.6980 -1.6018
 2533SOL     OW19231   3.554   3.864   3.897 -0.3650 -1.0969 -0.5536
 2533SOL    HW119232   3.576   3.934   3.959  2.7027 -0.9359 -1.8506
 2533SOL    HW219233   3.460   3.845   3.886 -0.7937  0.4342  0.5172
 2534SOL     OW19234   3.169   4.011   7.862  0.4324  0.1725  0.0310
 2534SOL    HW119235   3.234   3.943   7.878 -0.3364 -0.2760  1.2275
 2534SOL    HW219236   3.217   4.088   7.831  0.9235 -0.9035 -1.9285
 2535SOL     OW19237   4.583   2.714  11.584 -0.3491 -0.2590  0.0110
 2535SOL    HW119238   4.573   2.740  11.492 -0.0093 -2.0694 -0.5368
 2535SOL    HW219239   4.621   2.791  11.627  1.1996  0.2646 -2.3142
 2536SOL     OW19240   1.808   0.622   6.057 -0.1643 -0.1543  0.0423
 2536SOL    HW119241   1.889   0.661   6.090 -0.0649  1.4884 -2.1740
 2536SOL    HW219242   1.735   0.646   6.115 -0.2761  0.4760 -0.3636
 2537SOL     OW19243   3.833   1.138   9.195  0.1189  0.1230 -0.1131
 2537SOL    HW119244   3.913   1.139   9.142  0.6326 -2.7119  0.6222
 2537SOL    HW219245   3.819   1.045   9.214  0.2303  0.1767  0.2271
 2538SOL     OW19246   3.367   1.520   9.784 -0.1181  0.2855  0.0722
 2538SOL    HW119247   3.385   1.533   9.690 -3.4064  0.5577 -0.4992
 2538SOL    HW219248   3.272   1.516   9.793  0.1689 -0.9918  2.4476
 2539SOL     OW19249   2.858   2.709   5.627 -0.5929  0.2316 -0.2125
 2539SOL    HW119250   2.780   2.693   5.573 -0.4229  1.8643 -0.9490
 2539SOL    HW219251   2.833   2.653   5.700  0.6657 -1.4298 -1.0847
 2540SOL     OW19252   3.994   2.940   2.258  0.1645 -0.6826  0.1477
 2540SOL    HW119253   4.075   2.928   2.307 -0.7879 -1.1837  1.6309
 2540SOL    HW219254   3.999   2.872   2.190  1.5142  0.9031 -1.3039
 2541SOL     OW19255   0.940   0.018  11.494 -0.3146  0.0625 -0.7214
 2541SOL    HW119256   0.987   0.003  11.576 -0.3868  1.5206 -0.4129
 2541SOL    HW219257   0.986   0.092  11.456  0.9421 -0.4881 -0.2575
 2542SOL     OW19258   1.910   1.214   5.006  0.6531  0.2914 -0.0236
 2542SOL    HW119259   1.928   1.175   4.920  0.9751 -2.4585  1.3170
 2542SOL    HW219260   1.871   1.138   5.049  3.8116 -0.2972  1.7041
 2543SOL     OW19261   1.081   2.978   1.983  0.0218  0.5679  0.5347
 2543SOL    HW119262   1.069   2.996   1.890  0.0408  0.3086  0.4806
 2543SOL    HW219263   1.028   3.055   2.001 -1.5834 -0.1382 -1.1672
 2544SOL     OW19264   3.353   2.533   5.374 -0.0945 -0.1462 -0.4738
 2544SOL    HW119265   3.265   2.566   5.354  0.4537  1.3518 -0.4089
 2544SOL    HW219266   3.384   2.623   5.383 -2.4963  0.6077  0.2470
 2545SOL     OW19267   3.576   1.105   0.760 -0.4524 -0.0735 -0.1677
 2545SOL    HW119268   3.572   1.200   0.773 -0.9348 -0.3362  1.6769
 2545SOL    HW219269   3.482   1.089   0.751 -0.1134 -0.9288 -2.1978
 2546SOL     OW19270   2.738   2.566  11.618 -0.2302  0.2337  0.4467
 2546SOL    HW119271   2.677   2.573  11.545 -0.5461  0.5743  0.7467
 2546SOL    HW219272   2.703   2.495  11.673  0.4075 -0.9318 -0.6421
 2547SOL     OW19273   4.554   3.082  10.574 -0.2920  0.0198 -0.5071
 2547SOL    HW119274   4.641   3.106  10.541 -1.3322  3.1237 -0.9952
 2547SOL    HW219275   4.582   3.055  10.661 -1.3094  1.6084  0.3137
 2548SOL     OW19276   0.787   4.567  16.165 -0.2320  0.4766 -0.2596
 2548SOL    HW119277   0.856   4.609  16.112  1.0033 -0.4159  0.6429
 2548SOL    HW219278   0.787   4.633  16.234  1.2616 -1.9200  2.0534
 2549SOL     OW19279   1.792   4.522  15.775 -0.0255  0.1048 -0.0079
 2549SOL    HW119280   1.777   4.475  15.693 -0.5433  0.3190 -0.0323
 2549SOL    HW219281   1.739   4.468  15.834 -0.1319 -0.8145 -0.9500
 2550SOL     OW19282   2.258   2.162  12.239  0.2544 -0.8121 -0.2180
 2550SOL    HW119283   2.203   2.085  12.238 -1.7017  0.5964 -0.6114
 2550SOL    HW219284   2.198   2.237  12.238  1.2645  0.0253  1.8579
 2551SOL     OW19285   1.804   0.898   2.925  0.1199  0.4149 -0.4538
 2551SOL    HW119286   1.767   0.986   2.925  0.8905  0.7375  0.8700
 2551SOL    HW219287   1.886   0.917   2.969 -1.3853 -0.2515  2.6217
 2552SOL     OW19288   1.261   2.291   0.682 -0.4848  0.6930  0.4330
 2552SOL    HW119289   1.185   2.271   0.736 -2.5351  1.1921 -2.2656
 2552SOL    HW219290   1.222   2.276   0.596  1.8809  1.7576 -0.8362
 2553SOL     OW19291   2.163   0.571  16.229  0.0801 -0.2735  0.0424
 2553SOL    HW119292   2.164   0.566  16.134  0.9780 -0.4919  0.0568
 2553SOL    HW219293   2.182   0.664  16.239 -2.3663  0.3154 -0.8683
 2554SOL     OW19294   3.419   4.545  16.671  0.4980  0.6508 -0.1311
 2554SOL    HW119295   3.382   4.549  16.760  0.2742  1.0960 -0.2418
 2554SOL    HW219296   3.368   4.467  16.651  0.1775  0.7135  0.4312
 2555SOL     OW19297   4.116   0.033   9.026 -0.2818 -0.2172 -0.1177
 2555SOL    HW119298   4.081   0.012   9.113 -0.6724 -0.1516 -0.2579
 2555SOL    HW219299   4.141   4.681   9.000  1.5120 -0.8155  3.5687
 2556SOL     OW19300   4.047   2.758   1.800  0.2227  0.3594 -0.0193
 2556SOL    HW119301   4.041   2.714   1.715 -1.9200  1.9353 -0.6767
 2556SOL    HW219302   3.960   2.797   1.803  0.2759  0.4093  0.8779
 2557SOL     OW19303   2.453   0.661   3.604  0.9866 -0.4229 -0.6809
 2557SOL    HW119304   2.465   0.691   3.514 -1.2578  0.5011 -0.6645
 2557SOL    HW219305   2.508   0.719   3.657 -0.7649  1.4158 -0.8742
 2558SOL     OW19306   0.941   3.118  16.680  0.2165  0.5789 -0.1138
 2558SOL    HW119307   0.886   3.086  16.608 -1.0368  0.2194  1.0056
 2558SOL    HW219308   1.028   3.112  16.641  0.3603  1.6257  0.0656
 2559SOL     OW19309   1.460   4.186   3.038  0.1148 -0.0860  0.3133
 2559SOL    HW119310   1.403   4.260   3.018 -0.0366  0.2292  1.9060
 2559SOL    HW219311   1.411   4.106   3.022 -1.9536  1.5219 -1.4030
 2560SOL     OW19312   0.599   2.468   1.729  0.1217 -0.0280  0.5441
 2560SOL    HW119313   0.546   2.474   1.809  0.7300  1.5594  0.8309
 2560SOL    HW219314   0.543   2.506   1.661  0.6312 -0.0638  0.1068
 2561SOL     OW19315   1.584   2.156   3.286 -0.5767  0.3189  0.7807
 2561SOL    HW119316   1.523   2.225   3.259  0.0629  0.8600  0.7178
 2561SOL    HW219317   1.670   2.197   3.292 -1.3321  1.8178  1.3372
 2562SOL     OW19318   0.064   3.959   6.163 -0.0273  0.0180  0.2077
 2562SOL    HW119319   0.121   3.886   6.188 -0.8477 -1.4566 -2.2199
 2562SOL    HW219320   0.094   3.974   6.073 -1.4349  0.6275 -0.1570
 2563SOL     OW19321   3.387   1.998   6.528  0.5082 -0.5403  0.3775
 2563SOL    HW119322   3.341   2.071   6.570 -0.6862 -0.8201 -0.4586
 2563SOL    HW219323   3.366   2.003   6.435 -0.8810  1.5720  0.7843
 2564SOL     OW19324   0.071   4.022   5.138  0.1080  0.6304 -0.2790
 2564SOL    HW119325   0.097   4.066   5.057  1.5744 -0.9871 -0.6875
 2564SOL    HW219326   4.717   3.995   5.116 -0.3888  1.4487  0.7357
 2565SOL     OW19327   0.166   0.827   3.555 -0.5715  0.0454 -0.3013
 2565SOL    HW119328   0.204   0.856   3.638  2.1159  0.4896 -1.6830
 2565SOL    HW219329   0.134   0.738   3.572 -1.4300  0.2121 -1.0036
 2566SOL     OW19330   4.428   0.722   3.007  0.6731 -0.3463  0.0802
 2566SOL    HW119331   4.378   0.803   3.019 -1.0186 -1.1530 -1.5762
 2566SOL    HW219332   4.409   0.700   2.916 -1.3660 -1.2539  0.7290
 2567SOL     OW19333   1.971   3.638  11.417  0.1655 -0.4498 -0.2816
 2567SOL    HW119334   1.878   3.656  11.430  0.0919 -2.3517  1.8307
 2567SOL    HW219335   2.013   3.724  11.427 -0.1317 -0.5625  1.9443
 2568SOL     OW19336   2.712   3.850   3.780  0.6401  0.6183 -0.5237
 2568SOL    HW119337   2.758   3.786   3.726  0.2159  0.7179 -1.0053
 2568SOL    HW219338   2.640   3.790   3.801  1.8681 -1.0529 -1.0929
 2569SOL     OW19339   2.360   4.169   2.177  0.0547  0.3636 -0.2284
 2569SOL    HW119340   2.290   4.231   2.155  0.3511  0.3932 -1.0883
 2569SOL    HW219341   2.339   4.094   2.120  0.6228 -0.4216  0.6040
 2570SOL     OW19342   4.617   2.619   2.631  0.1196 -0.5260 -0.2014
 2570SOL    HW119343   4.694   2.593   2.681  0.0853  0.8203  0.5330
 2570SOL    HW219344   4.556   2.566   2.683 -0.1403  0.1683  0.1948
 2571SOL     OW19345   2.603   2.353   8.644  0.1258  0.5464 -0.3751
 2571SOL    HW119346   2.534   2.412   8.674  2.8887  2.5729  1.9958
 2571SOL    HW219347   2.662   2.422   8.613  0.2682  0.6988  0.2445
 2572SOL     OW19348   0.264   2.408   9.822 -0.5700 -0.1138  0.0774
 2572SOL    HW119349   0.220   2.352   9.757  1.6747  0.3447 -1.8463
 2572SOL    HW219350   0.265   2.354   9.900  1.6174  0.0475  0.1429
 2573SOL     OW19351   0.159   0.096   8.508 -0.1169 -0.0372 -0.1466
 2573SOL    HW119352   0.120   0.039   8.574  1.3700 -0.7912  0.0796
 2573SOL    HW219353   0.236   0.131   8.553  1.3555  2.3826 -4.5178
 2574SOL     OW19354   4.430   2.490   2.055 -0.4000  0.0279 -0.4619
 2574SOL    HW119355   4.464   2.544   2.127  1.7677 -0.6264 -1.0098
 2574SOL    HW219356   4.470   2.537   1.981  1.5426 -2.0156 -0.6901
 2575SOL     OW19357   2.232   1.625   4.539 -0.5400  0.0750 -0.0431
 2575SOL    HW119358   2.170   1.625   4.612 -0.9815 -0.5129 -0.4092
 2575SOL    HW219359   2.178   1.685   4.488  0.6324  1.2098  0.0589
 2576SOL     OW19360   1.216   2.869  12.946 -0.3146 -0.4210 -0.6062
 2576SOL    HW119361   1.155   2.896  12.877 -0.5663 -4.8724 -2.1625
 2576SOL    HW219362   1.237   2.956  12.978  2.0833 -1.3034  0.1967
 2577SOL     OW19363   3.144   2.105  10.530  0.2522  0.3157  0.0736
 2577SOL    HW119364   3.155   2.181  10.473  0.5544  0.5482  0.4417
 2577SOL    HW219365   3.073   2.136  10.586 -2.3496 -0.9913 -2.5104
 2578SOL     OW19366   2.161   1.075  13.121 -0.2805 -0.0894 -0.0926
 2578SOL    HW119367   2.160   1.118  13.036 -0.8967  2.2636  1.1039
 2578SOL    HW219368   2.068   1.092  13.137  0.8759  3.2594  2.9354
 2579SOL     OW19369   4.697   2.258   1.644  0.0164  0.0833 -0.4572
 2579SOL    HW119370   4.649   2.335   1.675 -0.3607 -0.1518 -0.4594
 2579SOL    HW219371   0.022   2.246   1.717 -2.0242 -2.0369  0.8689
 2580SOL     OW19372   3.270   0.142   2.352  0.0057  0.0619  0.0503
 2580SOL    HW119373   3.335   0.073   2.337  0.9982  1.2430 -1.1213
 2580SOL    HW219374   3.216   0.131   2.274 -0.1241 -1.8196  0.3830
 2581SOL     OW19375   0.386   4.180   4.491  0.3488 -0.4407 -0.1538
 2581SOL    HW119376   0.321   4.220   4.549 -0.8568 -3.1807  0.3950
 2581SOL    HW219377   0.429   4.257   4.454  0.6359 -0.9888 -0.9528
 2582SOL     OW19378   3.566   2.526   9.727  0.1981  0.5640 -0.0458
 2582SOL    HW119379   3.531   2.576   9.653  0.8217  0.1198 -0.6396
 2582SOL    HW219380   3.504   2.542   9.798  0.0042 -2.3801  0.4436
 2583SOL     OW19381   0.927   1.882   8.878 -0.1550 -0.1742 -0.0943
 2583SOL    HW119382   0.970   1.967   8.885  3.3627 -2.0370  0.7823
 2583SOL    HW219383   0.896   1.864   8.966  1.6464 -0.3966  0.4920
 2584SOL     OW19384   0.016   2.245  13.246 -0.3139 -0.1578  0.7813
 2584SOL    HW119385   0.081   2.301  13.203  0.7441 -1.8140  0.1850
 2584SOL    HW219386   0.074   2.173  13.272  0.1464 -0.3613 -0.8191
 2585SOL     OW19387   1.700   1.193   4.468  0.1660  0.0417  0.4853
 2585SOL    HW119388   1.731   1.270   4.420  0.6082 -0.3653  0.1145
 2585SOL    HW219389   1.784   1.147   4.470  0.5428  0.7964  1.7913
 2586SOL     OW19390   3.434   2.771   7.557  0.6322 -0.6038 -0.3787
 2586SOL    HW119391   3.522   2.802   7.578 -0.1928  0.4107  1.5732
 2586SOL    HW219392   3.422   2.696   7.614  3.4460 -1.1766 -0.5609
 2587SOL     OW19393   0.665   4.686   0.165 -0.0853  0.2037  0.3672
 2587SOL    HW119394   0.623   4.613   0.120  1.7451 -1.1935  0.9398
 2587SOL    HW219395   0.610   4.691   0.244 -0.8043  2.2142 -0.2457
 2588SOL     OW19396   0.457   1.357  13.443 -0.0612  0.6091 -0.3522
 2588SOL    HW119397   0.394   1.412  13.489  0.4023  0.9140 -0.0749
 2588SOL    HW219398   0.445   1.269  13.476 -2.1333  1.4309  1.0852
 2589SOL     OW19399   2.152   3.237   7.828  0.2478 -0.3891 -0.0584
 2589SOL    HW119400   2.089   3.195   7.887 -2.6611  2.0191 -1.4553
 2589SOL    HW219401   2.232   3.210   7.874 -0.0192 -0.3235  0.4436
 2590SOL     OW19402   3.945   0.583   7.383  0.0828 -0.1601 -0.3350
 2590SOL    HW119403   3.952   0.533   7.301 -0.6796  2.3283 -1.9090
 2590SOL    HW219404   3.886   0.523   7.429  0.0477 -1.4110 -2.0216
 2591SOL     OW19405   1.240   1.971  11.359  0.2969 -0.4442  0.4063
 2591SOL    HW119406   1.154   1.998  11.392  0.2870  1.6691 -1.2924
 2591SOL    HW219407   1.243   1.881  11.391  1.4333  0.0200  1.6133
 2592SOL     OW19408   0.095   0.474   3.281  0.3571 -0.0604  0.3481
 2592SOL    HW119409   0.077   0.556   3.236  1.2473  0.0016  0.1085
 2592SOL    HW219410   0.189   0.467   3.265  0.5378  1.2312  0.8505
 2593SOL     OW19411   0.044   1.857   8.656  0.4794  0.0401 -0.0830
 2593SOL    HW119412   0.073   1.890   8.571  0.5970 -0.1831 -0.1299
 2593SOL    HW219413   0.003   1.773   8.636  0.2559  0.0631  0.2968
 2594SOL     OW19414   3.082   1.869  10.445  0.9451 -0.4316  0.5038
 2594SOL    HW119415   3.104   1.956  10.478 -0.2471  0.1425 -0.2030
 2594SOL    HW219416   3.169   1.835  10.425  0.7778 -0.3498 -0.3933
 2595SOL     OW19417   3.606   4.622   9.125 -0.3365  0.3053 -0.1073
 2595SOL    HW119418   3.545   4.693   9.145 -2.7552 -1.7001 -0.3630
 2595SOL    HW219419   3.560   4.553   9.173  1.6802  0.1603  1.6598
 2596SOL     OW19420   3.028   3.437   6.632 -0.0804 -0.1144 -0.1477
 2596SOL    HW119421   2.982   3.467   6.711  0.6051 -0.4439  0.3799
 2596SOL    HW219422   3.118   3.459   6.658 -0.1474  0.3386 -0.2989
 2597SOL     OW19423   2.320   3.149   1.956 -0.2324  0.3303 -0.3376
 2597SOL    HW119424   2.341   3.087   2.026 -0.0533  0.1306 -0.5685
 2597SOL    HW219425   2.239   3.107   1.929  0.0772 -0.7655  0.4398
 2598SOL     OW19426   4.302   0.734   4.997  0.4204  0.2277  0.0990
 2598SOL    HW119427   4.217   0.776   5.014  0.7003  0.5259  0.7553
 2598SOL    HW219428   4.336   0.763   4.912  2.0978 -0.2288  0.6190
 2599SOL     OW19429   3.918   1.067   3.665  0.1613 -0.0930  0.5913
 2599SOL    HW119430   3.857   1.077   3.738 -1.5783 -0.2927 -0.8311
 2599SOL    HW219431   3.999   1.102   3.703  0.6433 -0.3441 -0.1944
 2600SOL     OW19432   1.226   1.439   7.367 -0.0778  0.7436 -0.0954
 2600SOL    HW119433   1.299   1.444   7.306 -0.4621  0.3474 -0.5847
 2600SOL    HW219434   1.169   1.377   7.322  0.0399  0.1257  0.6031
 2601SOL     OW19435   2.679   1.075  14.049  0.2850 -0.3452  0.0644
 2601SOL    HW119436   2.656   1.163  14.077  1.2630  0.0446 -0.3490
 2601SOL    HW219437   2.650   1.072  13.958 -0.3296  1.8032  0.2006
 2602SOL     OW19438   0.328   1.798   3.423 -0.1640 -0.3561  0.1436
 2602SOL    HW119439   0.423   1.784   3.419  0.5269  4.1493  0.6377
 2602SOL    HW219440   0.312   1.789   3.517  3.2407 -3.8805  0.3792
 2603SOL     OW19441   2.617   1.967   7.364 -0.1595  0.1092  0.5819
 2603SOL    HW119442   2.528   1.956   7.395 -0.8422 -1.1927 -1.8158
 2603SOL    HW219443   2.666   1.903   7.415 -1.4663 -1.6204 -0.3642
 2604SOL     OW19444   1.434   4.091  15.874  0.2089  0.2197  0.2081
 2604SOL    HW119445   1.482   4.158  15.924 -0.2494  1.3349 -0.8484
 2604SOL    HW219446   1.369   4.142  15.827 -1.1312 -1.4068  0.3061
 2605SOL     OW19447   4.405   0.012   0.331  0.0110  0.0223 -0.5072
 2605SOL    HW119448   4.376   4.689   0.261 -0.8930 -1.1838  0.8598
 2605SOL    HW219449   4.351   4.700   0.395 -1.2180  2.6017  0.3701
 2606SOL     OW19450   1.803   1.477   7.812  0.3373 -0.3659  0.2736
 2606SOL    HW119451   1.779   1.392   7.775 -1.7056 -1.0148  3.0132
 2606SOL    HW219452   1.721   1.506   7.852  0.3113  1.0228 -0.7893
 2607SOL     OW19453   4.202   3.481   9.034 -0.0062  0.1826 -0.0269
 2607SOL    HW119454   4.140   3.490   8.962 -0.7176  5.6074  1.2891
 2607SOL    HW219455   4.251   3.562   9.024  0.4684  0.0230  1.0029
 2608SOL     OW19456   2.518   2.680   8.427 -0.2617  0.1071  0.0831
 2608SOL    HW119457   2.583   2.675   8.496 -1.2232 -0.6931  0.9331
 2608SOL    HW219458   2.449   2.723   8.478  1.6251  0.7230  2.1119
 2609SOL     OW19459   2.893   0.314   4.210  0.1382  0.2268  0.1474
 2609SOL    HW119460   2.917   0.404   4.189 -1.3941  0.8346  0.9360
 2609SOL    HW219461   2.916   0.310   4.303 -0.0829  1.5529  0.2570
 2610SOL     OW19462   3.900   3.094   9.065 -0.0416 -0.0503 -0.0774
 2610SOL    HW119463   3.854   3.104   9.148 -1.2129  2.4400 -1.0275
 2610SOL    HW219464   3.881   3.004   9.039  2.3100 -0.0840 -1.7330
 2611SOL     OW19465   1.411   1.206   4.180  0.8294  0.4414 -0.4996
 2611SOL    HW119466   1.507   1.207   4.181  0.8227  1.1403  0.0742
 2611SOL    HW219467   1.389   1.292   4.144 -2.7183  0.5446  1.9414
 2612SOL     OW19468   4.174   3.142   3.006 -0.1604  0.3036  0.0549
 2612SOL    HW119469   4.160   3.202   3.078  0.1836 -0.8080  1.0590
 2612SOL    HW219470   4.137   3.055   3.024 -0.6199  0.3553 -0.6267
 2613SOL     OW19471   4.548   4.227   3.639  0.1661 -0.0113 -0.0531
 2613SOL    HW119472   4.578   4.264   3.722  3.2250  2.4147 -2.2289
 2613SOL    HW219473   4.503   4.303   3.602 -2.5239 -0.5655  2.1162
 2614SOL     OW19474   1.695   1.246  17.203 -0.2740 -0.4665 -0.2284
 2614SOL    HW119475   1.718   1.271  17.293 -2.9231 -2.8781  1.1281
 2614SOL    HW219476   1.599   1.247  17.210 -0.2206  0.8157  0.3708
 2615SOL     OW19477   3.539   2.721   7.286  1.0184 -0.4754  0.9402
 2615SOL    HW119478   3.505   2.734   7.375 -0.0533  0.9515  0.3075
 2615SOL    HW219479   3.587   2.640   7.303  0.6486 -0.7269  0.7786
 2616SOL     OW19480   4.295   2.992   9.846  0.1051 -0.5942  0.1111
 2616SOL    HW119481   4.267   3.045   9.921  0.3620  0.2827 -0.4101
 2616SOL    HW219482   4.295   3.061   9.779  0.2678 -1.2742 -0.5951
 2617SOL     OW19483   3.139   1.688   5.169  0.2882  0.5120 -0.1145
 2617SOL    HW119484   3.181   1.702   5.084 -1.2021  3.3440 -0.3939
 2617SOL    HW219485   3.207   1.639   5.216  2.2973  1.7082 -1.7605
 2618SOL     OW19486   1.063   1.576   2.639 -0.4351 -0.4905 -0.6187
 2618SOL    HW119487   0.991   1.585   2.701  1.0547 -0.7800  1.1664
 2618SOL    HW219488   1.141   1.569   2.694 -1.6364 -0.6236  1.0410
 2619SOL     OW19489   0.950   2.586   3.114 -0.5256 -0.0871 -0.1359
 2619SOL    HW119490   1.040   2.554   3.121 -0.7905 -0.5582  1.2705
 2619SOL    HW219491   0.947   2.619   3.025 -1.3253 -1.2291 -0.5293
 2620SOL     OW19492   0.603   2.040   3.060 -0.2996  0.1109 -0.0276
 2620SOL    HW119493   0.658   2.113   3.031 -1.4240  0.5811 -0.9923
 2620SOL    HW219494   0.566   2.088   3.134  0.5984  0.8543 -0.0672
 2621SOL     OW19495   2.393   1.822  16.732 -0.2569  0.2189  0.4298
 2621SOL    HW119496   2.397   1.905  16.686 -3.7645  0.2826  0.2550
 2621SOL    HW219497   2.391   1.764  16.656 -1.3713  0.3690  0.3583
 2622SOL     OW19498   1.355   3.336  17.218 -0.1059 -0.3613  0.6796
 2622SOL    HW119499   1.423   3.394  17.184 -0.3197 -0.7920 -0.4677
 2622SOL    HW219500   1.284   3.343  17.154  0.2554 -0.5822  0.2521
 2623SOL     OW19501   2.815   4.286  10.887 -0.1936  0.1821  0.1610
 2623SOL    HW119502   2.825   4.352  10.956 -1.5591  0.1031  0.4416
 2623SOL    HW219503   2.904   4.271  10.854  0.0678  4.7382 -1.2284
 2624SOL     OW19504   2.109   2.153   8.771  0.1204  0.1011  0.4836
 2624SOL    HW119505   2.176   2.175   8.836  1.0230 -2.9696  0.5731
 2624SOL    HW219506   2.157   2.129   8.692  0.4120  0.0681  0.6704
 2625SOL     OW19507   2.541   1.561   5.201 -0.4157 -0.6359 -0.4002
 2625SOL    HW119508   2.536   1.517   5.286  1.3964 -0.5259 -0.2420
 2625SOL    HW219509   2.497   1.500   5.142  2.4596 -1.0897 -2.0590
 2626SOL     OW19510   4.652   3.172  17.390  0.5732 -0.1449  0.1399
 2626SOL    HW119511   4.589   3.217  17.334 -0.0569  0.3741  1.2659
 2626SOL    HW219512   4.683   3.101  17.335  1.7570  0.5609 -0.1117
 2627SOL     OW19513   3.403   0.187  11.139  0.5670 -0.1437  0.5034
 2627SOL    HW119514   3.488   0.150  11.161  0.5060  0.4949  1.8174
 2627SOL    HW219515   3.424   0.257  11.078  0.7235 -0.2469  0.4408
 2628SOL     OW19516   3.236   3.890   8.782 -0.1701 -0.8415  0.2427
 2628SOL    HW119517   3.179   3.840   8.840  1.0331  0.4782  2.5745
 2628SOL    HW219518   3.274   3.960   8.835 -1.4880 -0.6192  0.9017
 2629SOL     OW19519   0.704   4.584   2.938  0.0363  0.4316  0.1541
 2629SOL    HW119520   0.766   4.567   3.009 -0.5224  0.6003  0.6774
 2629SOL    HW219521   0.641   4.639   2.984  0.7701  0.8418  0.6692
 2630SOL     OW19522   2.009   3.768   2.157 -0.0885 -0.2330 -0.0045
 2630SOL    HW119523   2.077   3.716   2.114 -0.2880  0.9328 -1.7262
 2630SOL    HW219524   1.974   3.815   2.082 -1.2319 -0.6655  0.2537
 2631SOL     OW19525   4.139   0.964   7.545  0.4943 -0.0294 -0.3641
 2631SOL    HW119526   4.133   0.887   7.489  0.2190  0.0563 -0.4525
 2631SOL    HW219527   4.155   1.026   7.474 -0.2701  2.4078  1.5580
 2632SOL     OW19528   1.723   2.105  17.390  0.0244  0.2492 -0.1716
 2632SOL    HW119529   1.736   2.135  17.300  0.8494  2.2310  0.5984
 2632SOL    HW219530   1.631   2.078  17.390 -0.0979  0.6552  0.4189
 2633SOL     OW19531   3.557   4.160   7.346 -0.2720 -0.1392  0.4921
 2633SOL    HW119532   3.536   4.198   7.432 -1.1948  0.7414 -0.1266
 2633SOL    HW219533   3.518   4.074   7.360  1.6305 -1.0044  0.4703
 2634SOL     OW19534   2.577   0.486   0.417 -0.8534 -0.0781  0.0404
 2634SOL    HW119535   2.520   0.419   0.380  0.2697 -1.2074  0.3552
 2634SOL    HW219536   2.540   0.569   0.386  2.0643  1.9294  1.9077
 2635SOL     OW19537   4.675   0.553   8.624 -0.6648 -0.6827  0.0945
 2635SOL    HW119538   4.661   0.553   8.529  1.1793 -0.9755 -0.1926
 2635SOL    HW219539   4.707   0.642   8.640  0.9695 -1.4125  0.9003
 2636SOL     OW19540   2.572   1.256   2.256 -0.0520 -0.5252 -0.1041
 2636SOL    HW119541   2.612   1.188   2.310 -1.9656 -1.1125  0.5777
 2636SOL    HW219542   2.571   1.334   2.312 -0.9871 -2.0135  1.9699
 2637SOL     OW19543   2.682   0.127   4.216  0.2290 -0.3201 -0.1520
 2637SOL    HW119544   2.743   0.200   4.202 -0.0251  0.3389  2.2289
 2637SOL    HW219545   2.713   0.067   4.148  0.6262 -1.6562  1.2267
 2638SOL     OW19546   0.629   4.153   6.347  0.5353 -0.4839  0.7024
 2638SOL    HW119547   0.570   4.147   6.272 -0.7837  2.4407  1.5213
 2638SOL    HW219548   0.575   4.207   6.404 -0.9524 -2.0951  0.8310
 2639SOL     OW19549   0.040   3.470   4.824  0.5510  0.1222 -0.4018
 2639SOL    HW119550   0.044   3.376   4.841  1.5168  0.4108  0.8895
 2639SOL    HW219551   0.125   3.492   4.861  0.7029  1.8980 -1.7766
 2640SOL     OW19552   4.522   0.932   7.242 -0.2463  0.2219 -0.2161
 2640SOL    HW119553   4.574   0.907   7.318 -1.4345  0.1843  0.5800
 2640SOL    HW219554   4.467   0.854   7.248 -0.1306  0.0826 -0.9130
 2641SOL     OW19555   4.403   0.065   4.963 -0.2420  0.0684  0.0044
 2641SOL    HW119556   4.411   0.159   4.979  0.4533 -0.3031  1.8083
 2641SOL    HW219557   4.422   0.053   4.870  0.6094 -1.3553  0.3673
 2642SOL     OW19558   3.317   2.462   6.336 -0.2463  0.3791  0.0549
 2642SOL    HW119559   3.296   2.498   6.250 -1.3934  0.2079  0.2579
 2642SOL    HW219560   3.371   2.534   6.370  1.4547 -0.1160 -1.6094
 2643SOL     OW19561   1.679   3.648   3.235 -0.4518 -0.4775 -0.1192
 2643SOL    HW119562   1.635   3.699   3.167 -1.5002 -0.0848  0.8526
 2643SOL    HW219563   1.633   3.686   3.309  2.3335  0.8079  0.9503
 2644SOL     OW19564   1.422   3.875  14.577 -0.3038  0.0652  0.2936
 2644SOL    HW119565   1.507   3.911  14.603 -0.9126  2.7718 -1.4310
 2644SOL    HW219566   1.399   3.829  14.657 -0.6777 -0.5557 -0.1711
 2645SOL     OW19567   2.875   0.768   8.759  0.3304 -0.0320 -0.3429
 2645SOL    HW119568   2.856   0.806   8.845  1.3012 -0.6142  0.1300
 2645SOL    HW219569   2.918   0.845   8.723 -0.4635 -0.7915 -2.8905
 2646SOL     OW19570   0.989   2.727   2.113  0.0861 -0.6322 -0.2956
 2646SOL    HW119571   0.988   2.821   2.098 -2.6213 -1.0111 -2.5272
 2646SOL    HW219572   1.083   2.717   2.099  0.3783 -0.8286  1.7565
 2647SOL     OW19573   0.196   2.631   9.465 -0.2003  0.3616 -0.6006
 2647SOL    HW119574   0.115   2.664   9.425 -0.4053  0.5655 -0.0028
 2647SOL    HW219575   0.161   2.632   9.554 -1.8230 -1.4718 -1.2127
 2648SOL     OW19576   3.401   1.623   9.511 -0.2225 -0.0383 -0.2137
 2648SOL    HW119577   3.322   1.677   9.517 -0.6175 -0.4547 -1.6674
 2648SOL    HW219578   3.421   1.617   9.418 -4.3661  0.0639 -1.1035
 2649SOL     OW19579   0.119   2.307  15.820 -0.0433 -0.5533 -0.1772
 2649SOL    HW119580   0.052   2.245  15.790 -1.8450  1.3288 -0.1225
 2649SOL    HW219581   0.168   2.254  15.882  1.1559 -0.9081 -1.4236
 2650SOL     OW19582   0.231   1.847   8.856  0.2953 -0.1260 -0.0267
 2650SOL    HW119583   0.171   1.879   8.789 -0.6908 -0.8743  0.5094
 2650SOL    HW219584   0.288   1.801   8.794  0.0421 -1.0889  0.4542
 2651SOL     OW19585   0.017   1.425   7.065 -0.2183  0.4213  0.6138
 2651SOL    HW119586   0.006   1.335   7.096  2.3581  0.2301  0.9230
 2651SOL    HW219587   0.018   1.415   6.970  0.8733 -0.1011  0.6827
 2652SOL     OW19588   2.390   0.757   9.726 -0.5800 -0.2014 -0.8050
 2652SOL    HW119589   2.402   0.808   9.807 -0.0326 -1.5263 -0.0551
 2652SOL    HW219590   2.294   0.752   9.726 -0.4756 -2.2616 -3.5150
 2653SOL     OW19591   1.779   4.084  15.853  0.0991  0.3252 -0.0831
 2653SOL    HW119592   1.729   4.049  15.779  1.0349  1.2629 -1.1548
 2653SOL    HW219593   1.725   4.163  15.864  0.8804  0.8622 -0.1288
 2654SOL     OW19594   2.803   1.069   5.892 -0.2069  0.0206  0.7620
 2654SOL    HW119595   2.742   1.138   5.866 -0.7110 -0.6827  0.0646
 2654SOL    HW219596   2.824   1.031   5.806 -2.2857 -0.3790  0.4112
 2655SOL     OW19597   4.463   0.075   9.585  0.4043 -0.7776  0.3037
 2655SOL    HW119598   4.514   0.005   9.625  0.3938 -1.3326 -0.6550
 2655SOL    HW219599   4.385   0.028   9.555  0.1154  0.4766 -0.9322
 2656SOL     OW19600   1.089   1.653   4.176  0.2802 -0.1858 -0.0531
 2656SOL    HW119601   1.114   1.737   4.138  0.1225 -0.5960 -1.0737
 2656SOL    HW219602   0.996   1.673   4.190  0.1466 -0.6810 -0.2522
 2657SOL     OW19603   4.477   3.574  11.844 -0.1653 -0.6412 -0.2393
 2657SOL    HW119604   4.449   3.511  11.910  1.1425 -1.0710 -0.1015
 2657SOL    HW219605   4.563   3.540  11.820  0.8732  2.2915 -0.6769
 2658SOL     OW19606   4.167   4.427   5.122 -0.2815 -0.0559  0.8498
 2658SOL    HW119607   4.139   4.474   5.201  1.2453  1.4759  0.4791
 2658SOL    HW219608   4.259   4.453   5.118 -0.1863 -0.3082  1.3729
 2659SOL     OW19609   3.212   2.469   8.321 -0.0376 -0.0105  0.2442
 2659SOL    HW119610   3.252   2.414   8.388 -0.1574  0.6708  0.8856
 2659SOL    HW219611   3.149   2.526   8.367  0.0572 -1.9565  2.8088
 2660SOL     OW19612   0.569   2.815  11.078 -0.2073 -0.2361 -0.5356
 2660SOL    HW119613   0.577   2.885  11.143 -0.6747 -1.0581  0.4035
 2660SOL    HW219614   0.504   2.753  11.110 -2.1110  1.7810 -0.4765
 2661SOL     OW19615   1.699   0.446   5.364  0.7316 -0.4616 -0.4928
 2661SOL    HW119616   1.713   0.537   5.340 -0.8982  0.0264  0.4633
 2661SOL    HW219617   1.661   0.453   5.452  1.1922 -1.9382 -0.1612
 2662SOL     OW19618   3.916   3.024   3.352 -0.1960  0.2480 -0.6294
 2662SOL    HW119619   3.955   2.936   3.352 -1.6806 -0.4027 -2.1687
 2662SOL    HW219620   3.893   3.041   3.261 -1.9082  0.3667 -0.1656
 2663SOL     OW19621   1.033   3.824  12.482  0.5555 -1.1081 -0.2332
 2663SOL    HW119622   0.961   3.767  12.512  0.7826 -0.9826  0.5571
 2663SOL    HW219623   1.104   3.762  12.500  1.9478 -0.4629 -3.6246
 2664SOL     OW19624   2.872   1.225   2.985  1.0756 -0.2565 -0.6911
 2664SOL    HW119625   2.830   1.276   3.054  0.4354  1.0076 -2.0164
 2664SOL    HW219626   2.804   1.164   2.956 -0.3527  1.4733 -0.9807
 2665SOL     OW19627   3.313   2.456  16.795  0.3472  0.5356 -0.0258
 2665SOL    HW119628   3.376   2.383  16.796 -1.3696 -0.9719 -0.8286
 2665SOL    HW219629   3.238   2.401  16.816  0.2848  0.5291 -0.2581
 2666SOL     OW19630   2.736   4.657   8.773 -0.2039  0.1948 -0.2177
 2666SOL    HW119631   2.725   4.617   8.859 -1.4961  3.7559  1.2651
 2666SOL    HW219632   2.705   0.009   8.793  0.3226  0.0710  1.1787
 2667SOL     OW19633   0.689   3.677  14.478  0.3496 -0.0961 -0.1809
 2667SOL    HW119634   0.751   3.749  14.469  1.3218 -0.7755  1.0052
 2667SOL    HW219635   0.669   3.663  14.386  0.4430  0.1950 -0.2453
 2668SOL     OW19636   3.505   0.130   2.551  0.3293 -0.1216  0.3832
 2668SOL    HW119637   3.471   0.062   2.493 -0.2735 -0.2414  0.8850
 2668SOL    HW219638   3.565   0.172   2.489 -1.7237  0.8130 -0.9812
 2669SOL     OW19639   0.799   1.523  17.157 -0.5937  0.2410  0.5311
 2669SOL    HW119640   0.893   1.517  17.174 -0.5609 -2.5713 -0.7143
 2669SOL    HW219641   0.801   1.580  17.079 -1.3892  0.4668  0.6778
 2670SOL     OW19642   0.639   0.053  10.904 -0.2453 -0.2000 -0.4146
 2670SOL    HW119643   0.559   0.072  10.855  0.1833  2.7963  0.0152
 2670SOL    HW219644   0.666   4.702  10.874 -1.8810 -0.2988 -1.5811
 2671SOL     OW19645   4.665   3.602   6.546  0.4158  0.6766 -0.7176
 2671SOL    HW119646   4.679   3.688   6.507 -1.7144  2.7047  2.9722
 2671SOL    HW219647   4.661   3.552   6.465  2.2890 -0.3367 -0.1918
 2672SOL     OW19648   1.837   0.641  17.054 -0.1829  0.1255  0.5882
 2672SOL    HW119649   1.852   0.688  17.136 -1.7805 -0.5117  1.2412
 2672SOL    HW219650   1.900   0.569  17.062  0.2190  0.2405 -1.4087
 2673SOL     OW19651   2.395   1.067   5.794  0.2295 -0.0519 -0.1794
 2673SOL    HW119652   2.392   1.163   5.797 -0.9512 -0.0483 -1.5111
 2673SOL    HW219653   2.331   1.051   5.863  1.4983 -1.6580  0.6225
 2674SOL     OW19654   4.109   1.560  15.606 -0.1157  0.1841 -0.2352
 2674SOL    HW119655   4.195   1.594  15.581  0.2287  1.0311  2.0830
 2674SOL    HW219656   4.074   1.644  15.638 -2.1758 -0.3202 -1.1638
 2675SOL     OW19657   0.181   0.042   1.578  0.1190 -0.3928 -0.0287
 2675SOL    HW119658   0.226   0.115   1.620 -0.8679  0.5802 -0.6549
 2675SOL    HW219659   0.185   4.710   1.646  0.0314  0.1246  0.4974
 2676SOL     OW19660   3.440   1.528   4.991  0.1382  0.6624  0.3001
 2676SOL    HW119661   3.386   1.606   4.975  0.6256  0.3112 -3.1727
 2676SOL    HW219662   3.474   1.531   4.901 -1.1710 -1.8381 -0.2802
 2677SOL     OW19663   1.997   3.033   9.040  0.2642  0.0675 -0.1012
 2677SOL    HW119664   2.051   3.058   9.115  0.9684 -0.2419 -0.5033
 2677SOL    HW219665   2.062   2.981   8.993 -1.4687 -2.4050  0.2192
 2678SOL     OW19666   2.152   1.519  11.260 -0.2470 -0.1967 -0.2026
 2678SOL    HW119667   2.186   1.497  11.173 -2.8719 -0.0207 -1.2747
 2678SOL    HW219668   2.089   1.449  11.278 -0.4995  0.0894  0.0312
 2679SOL     OW19669   4.270   2.636   3.750 -0.1453 -0.2658  0.2707
 2679SOL    HW119670   4.332   2.563   3.747  0.6677  0.3723  1.6679
 2679SOL    HW219671   4.187   2.589   3.741 -0.3072  0.1460 -0.3110
 2680SOL     OW19672   4.059   3.964   4.154 -0.3745  0.1782  0.0356
 2680SOL    HW119673   3.999   3.932   4.086 -0.7612 -1.7442  1.2954
 2680SOL    HW219674   4.125   3.996   4.093 -1.5884  0.4298 -1.1548
 2681SOL     OW19675   4.626   1.528   5.926 -0.1577 -0.1658  0.4851
 2681SOL    HW119676   4.591   1.514   5.837  0.0469 -1.8469  0.6692
 2681SOL    HW219677   4.694   1.594   5.920 -0.5313 -0.0736 -3.3219
 2682SOL     OW19678   2.960   1.648  13.355 -0.0379 -0.1092  0.3435
 2682SOL    HW119679   2.923   1.732  13.383  2.7636  1.6376 -1.2412
 2682SOL    HW219680   2.888   1.624  13.296 -0.3145  2.6548 -0.4331
 2683SOL     OW19681   2.333   2.375   4.258 -0.4013 -0.1427 -0.1467
 2683SOL    HW119682   2.281   2.453   4.240  0.9829  0.8920  0.3333
 2683SOL    HW219683   2.383   2.363   4.178 -0.6836 -1.1452 -0.1716
 2684SOL     OW19684   0.552   4.248   1.856  0.1079 -0.3765  0.2364
 2684SOL    HW119685   0.457   4.255   1.859  0.0331 -1.7713  1.1894
 2684SOL    HW219686   0.570   4.282   1.944 -1.6854  2.1762 -0.3931
 2685SOL     OW19687   2.185   1.140   7.286 -0.3234  0.2738  0.2875
 2685SOL    HW119688   2.150   1.108   7.202  1.3624 -0.9831  0.0558
 2685SOL    HW219689   2.133   1.094   7.351 -0.3941  1.6813  1.2151
 2686SOL     OW19690   1.745   2.178   5.971 -0.0381  0.4635  0.1575
 2686SOL    HW119691   1.652   2.195   5.987  0.0624  0.3324  0.8996
 2686SOL    HW219692   1.786   2.246   6.024 -2.6039  0.6742  1.9090
 2687SOL     OW19693   2.390   3.022  10.557  0.0997 -0.0695 -0.1847
 2687SOL    HW119694   2.365   3.092  10.497  1.2510 -1.9141 -2.8163
 2687SOL    HW219695   2.445   3.062  10.625  1.1636  1.3328 -1.8686
 2688SOL     OW19696   2.346   4.233   8.703  0.3301  0.0376 -0.7127
 2688SOL    HW119697   2.416   4.167   8.705 -0.5255 -0.8562  0.5603
 2688SOL    HW219698   2.359   4.261   8.613 -1.3215  1.2669 -0.5558
 2689SOL     OW19699   4.389   4.252  10.182  0.0380 -0.5436 -0.0875
 2689SOL    HW119700   4.328   4.298  10.124  2.5936  0.4949 -1.9239
 2689SOL    HW219701   4.458   4.318  10.172  0.5497 -0.7985  1.7688
 2690SOL     OW19702   3.119   1.502   8.135 -0.0009  0.1610 -0.4442
 2690SOL    HW119703   3.132   1.408   8.124  0.9499 -0.1244  3.0033
 2690SOL    HW219704   3.056   1.508   8.207 -0.0063  0.9513 -0.5177
 2691SOL     OW19705   1.125   4.149  15.651 -0.1818  0.2327 -0.2871
 2691SOL    HW119706   1.100   4.092  15.724 -0.2554  0.3826 -0.1959
 2691SOL    HW219707   1.047   4.141  15.596 -0.2163  0.1957 -0.2333
 2692SOL     OW19708   0.977   3.588  12.273 -0.0080 -0.8422 -0.3128
 2692SOL    HW119709   0.934   3.657  12.324  0.2072 -0.2645 -0.9137
 2692SOL    HW219710   1.005   3.526  12.340  1.2211 -1.0165 -0.9900
 2693SOL     OW19711   0.422   4.162   1.535  0.0567 -0.0373  0.2182
 2693SOL    HW119712   0.499   4.129   1.580  0.2997  0.2883  0.0424
 2693SOL    HW219713   0.364   4.086   1.534 -0.7221  0.5144  1.8945
 2694SOL     OW19714   2.215   2.376   2.529 -0.4593  0.1446 -0.2682
 2694SOL    HW119715   2.207   2.281   2.519  0.5022 -0.1165  1.5342
 2694SOL    HW219716   2.311   2.376   2.536 -0.5652  0.7841  0.9988
 2695SOL     OW19717   4.700   0.835   8.338 -0.3111 -0.0861  0.1079
 2695SOL    HW119718   4.637   0.813   8.406 -1.1130  1.9372  0.0135
 2695SOL    HW219719   4.682   0.927   8.324 -0.8783 -0.5287 -2.0685
 2696SOL     OW19720   4.317   2.331   3.323  0.0919  0.4085  0.0251
 2696SOL    HW119721   4.365   2.252   3.299 -1.7686 -0.3424 -1.2061
 2696SOL    HW219722   4.229   2.308   3.294  0.7341 -0.4268 -1.2655
 2697SOL     OW19723   0.684   0.666   1.817  0.9906 -0.2089 -0.2096
 2697SOL    HW119724   0.741   0.731   1.777  0.6038  0.7955  0.8530
 2697SOL    HW219725   0.741   0.591   1.834 -0.9968 -1.9294 -1.0360
 2698SOL     OW19726   0.629   2.335   1.423 -0.2054 -0.2759  0.1875
 2698SOL    HW119727   0.554   2.358   1.479  0.2556  1.0099  0.2896
 2698SOL    HW219728   0.683   2.414   1.423  1.2960 -1.3162 -1.2994
 2699SOL     OW19729   2.141   3.770   4.941 -0.1265  0.2632 -0.3623
 2699SOL    HW119730   2.156   3.861   4.914 -1.3488  0.6087  0.0799
 2699SOL    HW219731   2.231   3.741   4.930 -0.7388 -2.2315  1.3563
 2700SOL     OW19732   2.720   1.121   5.060 -0.0055  0.2034  0.1175
 2700SOL    HW119733   2.730   1.213   5.082  0.5620  0.0852  0.3689
 2700SOL    HW219734   2.636   1.098   5.100 -0.7266  0.6492 -1.1557
 2701SOL     OW19735   2.268   0.724   0.961 -0.0044 -0.0651 -0.0938
 2701SOL    HW119736   2.257   0.757   0.872 -0.9766  0.8114  0.3576
 2701SOL    HW219737   2.358   0.691   0.968  0.8579  2.6676  1.8627
 2702SOL     OW19738   3.680   3.193  13.076 -0.0056  0.2395 -0.2952
 2702SOL    HW119739   3.592   3.226  13.093 -1.3068 -2.4128 -1.9593
 2702SOL    HW219740   3.725   3.234  13.151  2.0437 -1.0003 -0.8453
 2703SOL     OW19741   2.397   2.843  15.019 -0.2203 -0.6955  0.9186
 2703SOL    HW119742   2.463   2.828  14.953 -2.3630 -0.3948 -1.2862
 2703SOL    HW219743   2.421   2.924  15.064  2.5790 -1.3405  0.5733
 2704SOL     OW19744   1.304   1.671   5.929  0.4028 -0.1588  0.3942
 2704SOL    HW119745   1.344   1.752   5.899  0.4619  0.2863  1.6736
 2704SOL    HW219746   1.311   1.615   5.852  0.1723  0.1745  0.1310
 2705SOL     OW19747   2.828   2.465   3.376 -0.4676  0.1458  0.0358
 2705SOL    HW119748   2.881   2.542   3.353 -0.3997  0.3790  0.9929
 2705SOL    HW219749   2.745   2.486   3.335 -0.0027 -0.6489 -1.3101
 2706SOL     OW19750   0.307   3.928   7.428  0.1040 -0.3841 -0.2792
 2706SOL    HW119751   0.318   3.924   7.523  0.2199  1.6334 -0.2029
 2706SOL    HW219752   0.212   3.932   7.417  0.2264  1.6236 -0.5661
 2707SOL     OW19753   3.632   4.377  16.193 -0.8005 -0.3404  0.1261
 2707SOL    HW119754   3.696   4.448  16.197 -3.1852  1.7151  1.5329
 2707SOL    HW219755   3.622   4.352  16.285  0.6362 -0.8852  0.1449
 2708SOL     OW19756   3.368   1.919   7.073  0.4125  0.3571 -0.0943
 2708SOL    HW119757   3.453   1.963   7.075 -0.0923  1.3413 -0.2783
 2708SOL    HW219758   3.355   1.916   7.168 -0.2551  2.5334 -0.1084
 2709SOL     OW19759   4.094   2.487   9.965  0.1928 -0.6822  0.1086
 2709SOL    HW119760   4.160   2.554   9.982 -1.6324  1.1427 -0.0125
 2709SOL    HW219761   4.020   2.517  10.017  0.0457  0.9642 -1.0596
 2710SOL     OW19762   2.049   1.938   5.087 -0.6584  0.0758 -0.0014
 2710SOL    HW119763   2.020   1.916   5.175 -0.5281  3.0689  0.7905
 2710SOL    HW219764   2.069   2.031   5.096  0.5822 -0.0368 -1.6731
 2711SOL     OW19765   0.547   1.386   9.021  0.1772 -0.4383  0.2064
 2711SOL    HW119766   0.501   1.432   9.091 -1.4429 -0.5606 -0.7823
 2711SOL    HW219767   0.576   1.462   8.971 -2.8964  2.4840  2.9121
 2712SOL     OW19768   2.242   0.218  16.118 -0.0666  0.0254  0.0005
 2712SOL    HW119769   2.245   0.271  16.039 -1.9555  0.0395 -0.0569
 2712SOL    HW219770   2.224   0.130  16.086  2.3680  0.7462 -3.2679
 2713SOL     OW19771   1.688   2.720   6.372 -0.0479 -0.0357  0.6175
 2713SOL    HW119772   1.675   2.796   6.429  0.7795  0.1629  0.5381
 2713SOL    HW219773   1.704   2.648   6.432  0.8596 -1.9693 -1.9472
 2714SOL     OW19774   1.883   1.881  13.739 -0.3616  0.2893 -0.1761
 2714SOL    HW119775   1.793   1.851  13.732 -0.5041  0.6386  0.1137
 2714SOL    HW219776   1.923   1.816  13.797 -1.8882 -1.6760 -1.3540
 2715SOL     OW19777   0.927   2.227   1.917  0.4529 -0.0130  0.5477
 2715SOL    HW119778   0.871   2.258   1.845 -0.7962  1.4200  2.1365
 2715SOL    HW219779   0.882   2.146   1.941 -0.0992  0.1672  0.1308
 2716SOL     OW19780   3.429   1.812   7.338 -0.5676 -0.6028 -1.1622
 2716SOL    HW119781   3.358   1.749   7.351  0.4699 -1.4572  0.3906
 2716SOL    HW219782   3.445   1.857   7.421  0.7454 -0.2720 -1.5934
 2717SOL     OW19783   1.467   3.587  12.580 -0.4563 -0.3394 -0.6953
 2717SOL    HW119784   1.548   3.637  12.572  0.0171 -0.3288  4.4580
 2717SOL    HW219785   1.496   3.497  12.563  0.9977  0.0849 -0.5036
 2718SOL     OW19786   2.931   4.150   2.278 -0.3169 -0.6169  0.2891
 2718SOL    HW119787   2.849   4.119   2.317 -0.9944  0.2614 -0.4269
 2718SOL    HW219788   2.920   4.235   2.319 -1.1823 -0.5775 -0.0173
 2719SOL     OW19789   4.541   2.886  16.960  0.1992 -0.1522  0.1957
 2719SOL    HW119790   4.496   2.817  16.911  1.7584  0.7201 -2.4591
 2719SOL    HW219791   4.509   2.965  16.916 -1.4067 -1.4081 -0.9103
 2720SOL     OW19792   1.911   2.515   7.157  0.0718  0.1268  0.1009
 2720SOL    HW119793   1.945   2.604   7.155  1.8528 -0.5840 -1.4784
 2720SOL    HW219794   1.990   2.477   7.195 -0.4620  0.8565  1.8887
 2721SOL     OW19795   4.001   1.412   3.247 -0.1743 -0.2598 -0.1092
 2721SOL    HW119796   3.929   1.413   3.185  0.5030 -2.2979 -0.9091
 2721SOL    HW219797   3.985   1.331   3.294  0.2643 -0.2074  0.1288
 2722SOL     OW19798   4.046   4.348  14.377  0.5430 -0.4499 -0.1049
 2722SOL    HW119799   4.039   4.369  14.470 -0.3553 -1.3244  0.0266
 2722SOL    HW219800   4.103   4.418  14.346 -0.7379  0.9091  0.5847
 2723SOL     OW19801   1.208   1.891   3.313  0.0926 -0.4021 -0.3571
 2723SOL    HW119802   1.254   1.942   3.380 -0.1690 -0.4181 -0.1669
 2723SOL    HW219803   1.158   1.960   3.267  2.1701  1.1731 -0.2443
 2724SOL     OW19804   4.556   0.303   5.957  0.1397 -0.4422  0.3687
 2724SOL    HW119805   4.602   0.230   5.998  1.0629  0.4848  0.9767
 2724SOL    HW219806   4.497   0.343   6.021 -1.2720 -0.4741 -0.9017
 2725SOL     OW19807   3.687   3.007   7.764  0.3437  0.1959  0.2101
 2725SOL    HW119808   3.618   3.050   7.815  0.9472  0.6852  0.6094
 2725SOL    HW219809   3.692   2.936   7.827  0.2284 -1.4347 -1.6177
 2726SOL     OW19810   2.209   1.472   7.757  0.0378 -0.3469 -0.0910
 2726SOL    HW119811   2.285   1.423   7.725 -1.0436 -1.0928 -1.4833
 2726SOL    HW219812   2.151   1.471   7.681 -2.5066  0.6080  1.8345
 2727SOL     OW19813   4.322   3.767   3.390 -0.0671  0.1303  0.1720
 2727SOL    HW119814   4.227   3.769   3.378 -0.3629 -0.0410  2.5923
 2727SOL    HW219815   4.338   3.857   3.420  0.8356 -0.2380  0.7831
 2728SOL     OW19816   0.578   2.950  15.934 -0.2412  0.2574 -0.0321
 2728SOL    HW119817   0.513   3.020  15.927 -1.3648 -0.9239 -1.5107
 2728SOL    HW219818   0.565   2.918  16.024 -1.3652 -0.7144 -0.5456
 2729SOL     OW19819   2.455   2.957   3.688 -0.5344  0.2691  0.1891
 2729SOL    HW119820   2.402   2.878   3.690 -1.4880  0.8493 -1.7745
 2729SOL    HW219821   2.543   2.922   3.672  0.5225  3.5855 -1.4249
 2730SOL     OW19822   3.463   1.223   8.472 -0.4779 -0.1487  0.4632
 2730SOL    HW119823   3.435   1.286   8.538  3.4757  1.5538  0.5300
 2730SOL    HW219824   3.389   1.219   8.411  0.9313  1.4658 -1.3535
 2731SOL     OW19825   3.849   2.785  14.104  0.1337 -0.3300  0.2329
 2731SOL    HW119826   3.849   2.842  14.182  0.7397 -0.6680  0.4792
 2731SOL    HW219827   3.834   2.699  14.142 -1.2211 -0.3049 -0.2521
 2732SOL     OW19828   4.427   2.052   0.138  0.1608 -0.3592  1.1178
 2732SOL    HW119829   4.486   2.086   0.205  0.0915 -1.5886  1.8022
 2732SOL    HW219830   4.502   2.036   0.080 -1.2262 -0.5838 -0.5940
 2733SOL     OW19831   3.950   1.326   3.561  0.2613 -0.2621  0.0005
 2733SOL    HW119832   3.858   1.312   3.584 -0.4957  1.4914 -1.9280
 2733SOL    HW219833   3.971   1.232   3.565  0.9030 -0.1431 -0.6335
 2734SOL     OW19834   2.766   1.888  12.903  0.5644 -0.1655 -0.1622
 2734SOL    HW119835   2.816   1.850  12.830  1.3434 -2.1486  1.3763
 2734SOL    HW219836   2.750   1.980  12.884  0.8197 -0.2089 -0.5917
 2735SOL     OW19837   2.361   4.097   5.128 -0.5930  0.3774 -0.0991
 2735SOL    HW119838   2.287   4.116   5.070 -1.3123  0.5884  0.8876
 2735SOL    HW219839   2.335   4.028   5.189  0.6087  0.0190  0.0011
 2736SOL     OW19840   2.312   0.244   4.492  0.0357  0.3456 -0.2917
 2736SOL    HW119841   2.312   0.178   4.422  2.5296 -0.1454  0.1664
 2736SOL    HW219842   2.393   0.287   4.466  0.4696 -0.5943 -0.5204
 2737SOL     OW19843   2.031   1.010   7.483 -0.4319  0.4989 -0.1739
 2737SOL    HW119844   2.009   0.932   7.432 -1.5219 -0.1447  1.2934
 2737SOL    HW219845   1.939   1.035   7.489  0.0553  2.2593 -0.0949
 2738SOL     OW19846   4.712   0.268   0.912  0.4251 -0.1110  0.3280
 2738SOL    HW119847   4.619   0.276   0.929  0.5005  0.6193  0.3896
 2738SOL    HW219848   4.731   0.190   0.965  0.0572  0.2432  0.9800
 2739SOL     OW19849   2.190   4.175   4.132  0.1255  0.3162 -0.2608
 2739SOL    HW119850   2.137   4.118   4.187 -1.6160 -0.7948 -3.0572
 2739SOL    HW219851   2.206   4.242   4.198 -0.3723 -0.1521  0.3291
 2740SOL     OW19852   2.864   4.018   6.914 -0.5955 -0.0379  0.8472
 2740SOL    HW119853   2.922   3.945   6.894 -0.8145  0.1844 -0.5775
 2740SOL    HW219854   2.805   4.018   6.839  2.1504 -1.7775 -1.3096
 2741SOL     OW19855   3.717   2.476   4.294 -0.0775  0.7579 -0.1616
 2741SOL    HW119856   3.694   2.526   4.216  1.3868  0.9807 -0.4613
 2741SOL    HW219857   3.732   2.394   4.247  1.0433  1.6959 -1.4424
 2742SOL     OW19858   3.637   0.062   7.189  0.3102 -0.2735 -0.5027
 2742SOL    HW119859   3.551   0.103   7.188 -0.6463 -2.2339  0.3809
 2742SOL    HW219860   3.609   4.707   7.199 -1.0599  0.1463 -0.5861
 2743SOL     OW19861   4.282   1.170   4.014 -0.4639 -0.1624 -0.0566
 2743SOL    HW119862   4.329   1.130   3.941 -0.5316  0.4697 -0.4407
 2743SOL    HW219863   4.261   1.089   4.061 -0.4823 -0.1015  0.0397
 2744SOL     OW19864   3.067   0.046  16.219  0.2434 -0.2310  0.5299
 2744SOL    HW119865   2.998   0.092  16.267 -0.2987 -2.6872  2.1169
 2744SOL    HW219866   3.141   0.098  16.253  0.3419 -2.0893  3.2019
 2745SOL     OW19867   2.437   0.888   4.339  0.6163 -0.0003 -0.0596
 2745SOL    HW119868   2.385   0.809   4.350  2.6369 -0.8830  3.2536
 2745SOL    HW219869   2.390   0.943   4.276  1.1922 -1.3245 -1.6306
 2746SOL     OW19870   2.340   0.485   6.802  0.5978  0.5730 -0.1402
 2746SOL    HW119871   2.432   0.476   6.780  0.3462 -0.7438 -0.6279
 2746SOL    HW219872   2.310   0.401   6.768 -0.7635  1.0843 -0.2434
 2747SOL     OW19873   1.889   0.564  12.212  0.0888 -0.0629  0.0169
 2747SOL    HW119874   1.847   0.592  12.293 -2.5957 -0.9352 -1.0852
 2747SOL    HW219875   1.835   0.492  12.179  0.0567 -0.0061 -0.0538
 2748SOL     OW19876   0.375   1.096   8.174 -0.4325  0.6468 -0.1126
 2748SOL    HW119877   0.306   1.095   8.108 -0.7221 -0.0232  0.1973
 2748SOL    HW219878   0.329   1.054   8.246 -0.1397 -1.0205 -0.8904
 2749SOL     OW19879   4.546   2.709   7.702  0.2291 -0.3140  0.2511
 2749SOL    HW119880   4.629   2.688   7.659 -0.0746 -2.2320  0.6300
 2749SOL    HW219881   4.531   2.800   7.677 -1.9409 -0.7835 -0.0785
 2750SOL     OW19882   3.601   1.513   8.602 -0.3515  0.2142  0.0192
 2750SOL    HW119883   3.658   1.503   8.526  1.0669  2.6502  0.7560
 2750SOL    HW219884   3.565   1.597   8.576 -0.6754  0.8249  2.4064
 2751SOL     OW19885   4.312   1.631   1.828  0.4459  0.2314  0.7126
 2751SOL    HW119886   4.383   1.694   1.821  1.6037 -1.0999  0.3583
 2751SOL    HW219887   4.366   1.552   1.823 -0.0025 -0.0475  0.2831
 2752SOL     OW19888   4.158   0.915   5.586 -0.1851 -0.2198  0.1578
 2752SOL    HW119889   4.180   0.917   5.679  0.1543 -2.8292  0.1422
 2752SOL    HW219890   4.244   0.892   5.549  0.2613 -0.1715  1.1651
 2753SOL     OW19891   2.476   3.793   4.409 -0.1741  0.0602  0.2512
 2753SOL    HW119892   2.467   3.708   4.364  2.6780  0.3018 -0.7796
 2753SOL    HW219893   2.570   3.806   4.402 -0.1138 -0.2021  0.5519
 2754SOL     OW19894   4.549   3.437   5.613 -0.6475 -0.3962  0.3859
 2754SOL    HW119895   4.578   3.352   5.645 -0.4290 -0.4391  0.0761
 2754SOL    HW219896   4.454   3.425   5.617 -0.3058 -2.5852  1.6360
 2755SOL     OW19897   2.425   1.915   2.080 -0.0835  0.3848  0.2884
 2755SOL    HW119898   2.469   1.830   2.071 -1.9359 -0.5733  0.1979
 2755SOL    HW219899   2.334   1.894   2.060  0.5060 -1.9087  0.0211
 2756SOL     OW19900   2.963   0.903  13.802 -0.5611 -0.0534 -0.1340
 2756SOL    HW119901   2.938   0.831  13.745 -0.5465  0.8385 -1.2905
 2756SOL    HW219902   3.051   0.914  13.767 -1.2390 -0.4474 -1.9436
 2757SOL     OW19903   1.281   0.113   2.420  0.1286  0.1466  0.0628
 2757SOL    HW119904   1.202   0.103   2.368 -0.3746 -0.7517  0.9828
 2757SOL    HW219905   1.341   0.077   2.355  0.2985 -0.8054  0.7412
 2758SOL     OW19906   0.920   4.298   8.925 -0.0617 -0.4346 -0.0125
 2758SOL    HW119907   0.929   4.204   8.914 -1.2472 -0.4471 -0.9119
 2758SOL    HW219908   1.005   4.329   8.894 -1.1517  2.1521 -0.4679
 2759SOL     OW19909   4.440   2.560  11.938 -0.3800  0.6301 -0.5589
 2759SOL    HW119910   4.407   2.634  11.887  1.2725 -0.8021 -3.6849
 2759SOL    HW219911   4.409   2.490  11.881 -0.0897  0.8139 -0.9449
 2760SOL     OW19912   2.188   1.365   4.860  0.7983  0.0361 -0.3636
 2760SOL    HW119913   2.157   1.443   4.814  0.6595 -0.6928 -1.5367
 2760SOL    HW219914   2.116   1.354   4.922 -0.0773  0.6240 -1.2789
 2761SOL     OW19915   2.932   1.523   1.928  0.5938  0.3647  0.4679
 2761SOL    HW119916   2.903   1.431   1.926  2.3578 -0.2132  1.3186
 2761SOL    HW219917   2.983   1.535   1.848  1.4717  2.5528  1.3754
 2762SOL     OW19918   2.898   2.631   6.289  0.1658  0.5218 -0.2659
 2762SOL    HW119919   2.855   2.563   6.237 -0.1573 -0.1590  0.9154
 2762SOL    HW219920   2.899   2.594   6.377  0.0013 -0.6652 -0.7613
 2763SOL     OW19921   2.559   4.028   8.761  0.3162 -0.0503 -0.5915
 2763SOL    HW119922   2.614   4.073   8.697 -0.0946  0.2121 -0.7647
 2763SOL    HW219923   2.590   4.066   8.843 -0.3794 -0.3760 -0.1754
 2764SOL     OW19924   1.187   1.988   2.156 -0.8105  0.6289 -0.1861
 2764SOL    HW119925   1.159   2.080   2.156  0.6096  1.0519 -1.6827
 2764SOL    HW219926   1.214   1.965   2.245  0.3515 -1.0583 -0.9807
 2765SOL     OW19927   1.738   2.486   6.559 -0.5587  0.0951 -0.3113
 2765SOL    HW119928   1.743   2.403   6.513 -0.0682  0.0403 -0.1564
 2765SOL    HW219929   1.759   2.467   6.651 -2.8617  1.0080  0.4289
 2766SOL     OW19930   3.949   0.615   4.718  0.4990 -0.0036  0.2838
 2766SOL    HW119931   4.030   0.577   4.682 -0.0408 -1.0599  0.1780
 2766SOL    HW219932   3.976   0.655   4.800 -1.4331  0.7041  0.5700
 2767SOL     OW19933   1.269   4.527   1.181  0.4164  0.2966 -0.0217
 2767SOL    HW119934   1.326   4.450   1.172 -0.9155 -0.9015  1.7674
 2767SOL    HW219935   1.229   4.511   1.267  0.4611 -1.1705 -0.2775
 2768SOL     OW19936   3.461   1.452  12.908  0.3336  0.5583  0.0657
 2768SOL    HW119937   3.488   1.470  12.999 -0.2441  1.5620  0.0311
 2768SOL    HW219938   3.520   1.510  12.860  0.0067  0.9911  0.1863
 2769SOL     OW19939   4.017   3.166   7.291 -0.5206  0.4252  0.0615
 2769SOL    HW119940   4.060   3.241   7.333 -1.2398  2.0969 -2.2150
 2769SOL    HW219941   4.092   3.111   7.267 -1.8064 -1.4055  0.2640
 2770SOL     OW19942   0.093   3.486   8.210  0.2295  0.5190  0.5166
 2770SOL    HW119943   0.002   3.457   8.210 -0.1551  1.7363  0.1700
 2770SOL    HW219944   0.125   3.438   8.287  0.8673 -0.1961 -0.1981
 2771SOL     OW19945   2.989   0.845   4.167 -0.0368  0.5213  0.3508
 2771SOL    HW119946   3.024   0.934   4.163  1.8159 -0.1638  1.3951
 2771SOL    HW219947   3.012   0.807   4.082 -2.0657  1.1638 -0.4722
 2772SOL     OW19948   1.903   0.795   8.599  0.0039 -0.5417  0.8709
 2772SOL    HW119949   1.840   0.775   8.530 -0.7165  0.0018  1.3865
 2772SOL    HW219950   1.890   0.721   8.659 -0.6304 -0.1063  1.2683
 2773SOL     OW19951   0.234   1.590   9.891 -0.5318  0.0802  0.6230
 2773SOL    HW119952   0.206   1.584   9.982  1.4076 -0.5438  1.1901
 2773SOL    HW219953   0.208   1.677   9.861 -0.0339  0.0317  0.0546
 2774SOL     OW19954   0.865   1.641   2.801  0.1243  0.3059 -0.2127
 2774SOL    HW119955   0.808   1.714   2.825  0.8875  0.3151  1.6072
 2774SOL    HW219956   0.803   1.571   2.780 -0.8687  1.5219 -1.2954
 2775SOL     OW19957   4.219   3.436   4.480  0.2960  0.2720 -0.3542
 2775SOL    HW119958   4.131   3.426   4.444  0.2202 -2.2244  0.4905
 2775SOL    HW219959   4.216   3.364   4.543 -1.1198  1.6629  1.1887
 2776SOL     OW19960   2.887   0.375   4.826 -0.4602 -0.1656  0.3257
 2776SOL    HW119961   2.959   0.408   4.880 -0.5800  0.9578 -0.2131
 2776SOL    HW219962   2.810   0.377   4.883 -0.4635 -2.4680  0.4186
 2777SOL     OW19963   1.018   1.418   4.836  0.1218 -0.0206  0.0225
 2777SOL    HW119964   1.066   1.388   4.914  0.7454  0.1141 -0.3049
 2777SOL    HW219965   1.087   1.472   4.798 -0.9564  0.8550 -0.6910
 2778SOL     OW19966   4.092   3.163  15.570 -0.4412  0.3179  0.3146
 2778SOL    HW119967   4.108   3.179  15.477 -0.1123 -0.3885  0.2517
 2778SOL    HW219968   4.013   3.216  15.580  0.4570  1.0535  3.4963
 2779SOL     OW19969   1.219   0.948   0.337  0.0486  1.3554  0.4249
 2779SOL    HW119970   1.299   0.961   0.388 -0.0642  0.1488  0.9276
 2779SOL    HW219971   1.243   0.885   0.269  0.6312  1.2697  0.7022
 2780SOL     OW19972   3.135   2.741   6.597 -0.0712 -0.3644 -0.5803
 2780SOL    HW119973   3.179   2.658   6.618  1.0096 -0.1381 -1.9705
 2780SOL    HW219974   3.172   2.804   6.658 -1.9980 -0.3424  0.5754
 2781SOL     OW19975   0.525   4.712   4.080 -0.0113 -0.6543  0.1696
 2781SOL    HW119976   0.584   4.700   4.006 -1.4125 -2.5969 -0.6571
 2781SOL    HW219977   0.514   4.620   4.107 -0.1162 -0.6563  0.1199
 2782SOL     OW19978   4.254   4.225   2.357  0.0184 -0.2382 -0.1485
 2782SOL    HW119979   4.236   4.287   2.286  2.5582 -1.3942 -1.8054
 2782SOL    HW219980   4.163   4.197   2.371 -0.7337  2.2868 -0.0089
 2783SOL     OW19981   1.942   1.545   8.946  0.3149 -0.3009  0.4483
 2783SOL    HW119982   2.012   1.598   8.907  2.1504 -2.8885  0.2006
 2783SOL    HW219983   1.878   1.615   8.951  0.3500 -0.0921 -1.7615
 2784SOL     OW19984   0.878   4.438   3.372 -0.0045 -0.0810 -0.0422
 2784SOL    HW119985   0.849   4.529   3.382 -2.4542 -0.8282 -0.2383
 2784SOL    HW219986   0.918   4.419   3.457 -0.5799 -2.2350 -0.2612
 2785SOL     OW19987   0.287   2.087   7.387  0.2515 -0.4930  0.2363
 2785SOL    HW119988   0.314   2.136   7.465 -0.9060 -1.9491  1.5422
 2785SOL    HW219989   0.370   2.045   7.364 -0.6410 -0.0673 -3.7096
 2786SOL     OW19990   3.489   4.096   2.223 -0.0726 -0.0774  0.2078
 2786SOL    HW119991   3.442   4.106   2.140  0.2269 -1.0342 -0.0761
 2786SOL    HW219992   3.558   4.163   2.220  0.4235 -0.6683 -1.6156
 2787SOL     OW19993   2.617   4.193   9.582  0.1259 -0.3758  0.0214
 2787SOL    HW119994   2.612   4.189   9.486  4.2313  0.3607 -0.2458
 2787SOL    HW219995   2.543   4.253   9.593  0.3581  0.0505 -0.7275
 2788SOL     OW19996   3.506   4.301   8.966  0.8878  0.4448  0.0944
 2788SOL    HW119997   3.574   4.315   9.032  1.9648  0.6425 -1.0621
 2788SOL    HW219998   3.554   4.333   8.890 -3.3572  0.3985 -2.6296
 2789SOL     OW19999   2.549   0.363   1.777  0.2067  0.4930  0.0750
 2789SOL    HW120000   2.554   0.406   1.692 -0.6299 -1.5267 -0.9880
 2789SOL    HW220001   2.545   0.269   1.757 -1.8959 -0.0034  2.7819
 2790SOL     OW20002   3.445   4.200   3.987  0.6025 -0.5966 -0.3575
 2790SOL    HW120003   3.512   4.156   4.039 -1.1517  0.4519  2.7327
 2790SOL    HW220004   3.375   4.136   3.975  0.8350 -0.7765 -0.7572
 2791SOL     OW20005   2.291   0.738  10.088 -0.7997 -0.0150 -0.0556
 2791SOL    HW120006   2.298   0.825  10.126  0.2787  0.1575 -0.6415
 2791SOL    HW220007   2.215   0.709  10.138 -0.1341 -0.4087  0.7356
 2792SOL     OW20008   2.428   4.259   8.413  0.2123 -0.9035 -0.5500
 2792SOL    HW120009   2.458   4.264   8.323  2.2921  1.5886  0.3052
 2792SOL    HW220010   2.366   4.331   8.423 -0.5328 -1.7656  1.0276
 2793SOL     OW20011   2.556   4.239   9.318  0.0149 -0.0220 -1.0302
 2793SOL    HW120012   2.581   4.297   9.246  0.1678 -3.0837 -3.4838
 2793SOL    HW220013   2.463   4.226   9.296 -0.1546 -0.8747  0.2251
 2794SOL     OW20014   2.003   1.265  15.977 -0.4419  0.4958 -0.4969
 2794SOL    HW120015   2.066   1.278  16.048 -0.4798 -2.8835  0.1627
 2794SOL    HW220016   1.921   1.287  16.020 -0.0447 -0.3994  0.7120
 2795SOL     OW20017   2.717   0.594   2.580  0.0321  0.6707 -0.2295
 2795SOL    HW120018   2.641   0.625   2.530  0.2357 -1.0817 -1.6558
 2795SOL    HW220019   2.774   0.575   2.505  0.2219  3.0133 -0.6727
 2796SOL     OW20020   0.357   4.324  12.125  0.0090  0.6838 -0.0814
 2796SOL    HW120021   0.430   4.297  12.181  0.4961 -0.7303 -1.4066
 2796SOL    HW220022   0.335   4.239  12.087  1.8418 -0.2582  0.9055
 2797SOL     OW20023   4.441   4.045   2.261 -0.1777  0.0025 -0.3660
 2797SOL    HW120024   4.399   4.123   2.299 -0.5677 -0.2689 -0.2481
 2797SOL    HW220025   4.468   4.016   2.349  1.8233  2.2682 -0.2299
 2798SOL     OW20026   0.015   3.775   7.678  0.0680 -0.5887  0.4141
 2798SOL    HW120027   0.040   3.861   7.710 -1.0825 -0.2965  0.5152
 2798SOL    HW220028   4.660   3.796   7.654  1.2673 -0.9976 -4.6098
 2799SOL     OW20029   0.605   3.747   0.668 -0.0325  0.1853  0.0950
 2799SOL    HW120030   0.520   3.790   0.661 -0.4767 -0.8017 -0.5534
 2799SOL    HW220031   0.667   3.809   0.630 -0.4621  0.3808 -0.2834
 2800SOL     OW20032   3.528   2.585   6.729  0.0717 -0.0160  0.1618
 2800SOL    HW120033   3.531   2.678   6.753 -0.2701  0.0352  0.0049
 2800SOL    HW220034   3.560   2.540   6.807  1.0915  0.1090 -0.1785
 2801SOL     OW20035   3.828   4.330   2.890 -0.0419  0.0481  0.0315
 2801SOL    HW120036   3.858   4.248   2.851 -3.3494 -0.8485 -0.5955
 2801SOL    HW220037   3.855   4.322   2.982  1.9504  0.0759 -0.5422
 2802SOL     OW20038   4.461   3.685   4.231 -0.3243 -0.3997 -0.2062
 2802SOL    HW120039   4.366   3.697   4.221 -0.3106  0.0232  0.2110
 2802SOL    HW220040   4.470   3.640   4.146  1.8082  0.5483 -0.4844
 2803SOL     OW20041   4.102   2.823   1.236  0.1468 -0.4192  0.1887
 2803SOL    HW120042   4.191   2.843   1.266  0.0178 -1.7573  1.4399
 2803SOL    HW220043   4.066   2.804   1.322 -0.9923 -2.0866 -0.6578
 2804SOL     OW20044   1.451   2.643   5.746 -0.5643 -0.6504 -0.6911
 2804SOL    HW120045   1.388   2.671   5.680  0.9117  1.5833 -1.1607
 2804SOL    HW220046   1.451   2.713   5.812 -2.0040 -0.4487 -0.9071
 2805SOL     OW20047   4.215   1.916   6.454 -0.0414 -0.2605  0.3663
 2805SOL    HW120048   4.169   1.951   6.530 -0.9658  0.2001 -0.3937
 2805SOL    HW220049   4.305   1.932   6.481 -1.0620  1.0793  2.9632
 2806SOL     OW20050   3.770   3.474   3.343 -0.6702 -0.2701  0.2589
 2806SOL    HW120051   3.752   3.560   3.381 -2.2529 -0.9681  1.0982
 2806SOL    HW220052   3.683   3.436   3.358 -0.9204 -0.3295 -1.3249
 2807SOL     OW20053   4.598   1.594   3.014  0.3483  0.3686  0.2292
 2807SOL    HW120054   4.691   1.589   3.034  0.7659 -0.2420 -1.9493
 2807SOL    HW220055   4.574   1.501   3.017  0.5706  0.2105 -2.9268
 2808SOL     OW20056   1.906   0.899   5.861  0.4035 -0.7459  0.0767
 2808SOL    HW120057   1.850   0.860   5.793 -0.4581 -0.7576  0.7872
 2808SOL    HW220058   1.844   0.936   5.925  1.8980  2.8261 -0.5253
 2809SOL     OW20059   1.164   1.491   1.783  0.5088  0.3745 -0.5133
 2809SOL    HW120060   1.167   1.440   1.703  1.2346  2.5033 -1.8317
 2809SOL    HW220061   1.080   1.474   1.826  0.4570  1.8135 -0.0444
 2810SOL     OW20062   4.609   0.562   8.371 -0.2004 -0.5255 -0.2129
 2810SOL    HW120063   4.527   0.522   8.341  0.2691  0.2095 -2.4638
 2810SOL    HW220064   4.622   0.638   8.315  1.2826 -0.7394 -0.1580
 2811SOL     OW20065   4.577   4.488  13.445 -0.4181 -0.2563 -0.3081
 2811SOL    HW120066   4.528   4.476  13.363  0.1940 -2.3887 -0.3687
 2811SOL    HW220067   4.581   4.395  13.467  1.2281 -0.2371 -0.4979
 2812SOL     OW20068   0.104   0.466   7.622  0.7093  0.2805  0.0188
 2812SOL    HW120069   0.127   0.528   7.552 -2.3769  1.9052  0.4860
 2812SOL    HW220070   0.192   0.442   7.651  0.5886  1.0775  1.0208
 2813SOL     OW20071   2.625   1.137   1.113  0.1571  0.5989 -0.1584
 2813SOL    HW120072   2.541   1.160   1.074 -1.3398 -2.6253  1.2494
 2813SOL    HW220073   2.602   1.120   1.204  1.4830  0.1960  0.1075
 2814SOL     OW20074   4.512   1.401   1.892  0.4845  0.3227  0.2565
 2814SOL    HW120075   4.597   1.367   1.865  0.9554  1.8044 -0.1158
 2814SOL    HW220076   4.467   1.316   1.891  0.4577  0.3327  0.5690
 2815SOL     OW20077   2.159   4.548  12.294  0.0210  0.3029 -0.5051
 2815SOL    HW120078   2.171   4.584  12.382  0.6686  0.9788 -0.8700
 2815SOL    HW220079   2.182   4.623  12.239  1.7918  2.0472  2.6354
 2816SOL     OW20080   4.069   1.968   7.297 -0.3371 -0.1981  0.3195
 2816SOL    HW120081   4.020   2.018   7.233 -0.6569  0.6406  1.2221
 2816SOL    HW220082   4.062   2.017   7.379 -2.4352 -2.0065  1.2263
 2817SOL     OW20083   3.921   2.653   2.855 -0.6624 -0.1274  0.0851
 2817SOL    HW120084   3.934   2.560   2.875  2.5815  0.0235 -1.2983
 2817SOL    HW220085   3.829   2.666   2.876 -0.7048 -1.2109  0.5643
 2818SOL     OW20086   4.317   1.304   4.658  0.1397 -0.5450  0.2679
 2818SOL    HW120087   4.231   1.328   4.624 -0.1286  1.2818  2.2703
 2818SOL    HW220088   4.305   1.258   4.740  1.0750 -4.6470 -1.8887
 2819SOL     OW20089   1.073   3.218   4.164  0.1440  0.4581  0.1531
 2819SOL    HW120090   0.994   3.170   4.188  1.8795 -4.2708 -3.5508
 2819SOL    HW220091   1.086   3.280   4.235 -1.3234  1.6345 -0.5963
 2820SOL     OW20092   4.240   2.051  10.743 -0.4757 -0.5831 -0.1002
 2820SOL    HW120093   4.220   2.129  10.795  1.0929  1.7907 -3.0187
 2820SOL    HW220094   4.293   2.082  10.670 -1.4708 -0.3789 -0.7331
 2821SOL     OW20095   3.887   2.559  17.655  0.0117 -0.4361  0.4946
 2821SOL    HW120096   3.865   2.647  17.627 -1.2567 -0.5794  1.0241
 2821SOL    HW220097   3.828   2.505  17.602  2.5985 -1.2647 -1.5118
 2822SOL     OW20098   4.236   4.565   0.502 -0.0547  0.5068 -0.8976
 2822SOL    HW120099   4.168   4.614   0.548  0.8127 -0.2938  1.2280
 2822SOL    HW220100   4.185   4.488   0.476 -1.0156  1.7726 -2.7392
 2823SOL     OW20101   0.157   0.773   6.042  0.4303  0.0298  0.2622
 2823SOL    HW120102   0.199   0.822   5.971 -2.2391  2.5948  0.4719
 2823SOL    HW220103   0.083   0.732   5.996 -0.4828  0.6190  1.2069
 2824SOL     OW20104   2.189   0.517   9.918 -0.3155  0.8131  0.2556
 2824SOL    HW120105   2.131   0.576   9.870 -0.6017  1.9541  1.9885
 2824SOL    HW220106   2.237   0.577   9.975 -0.4745  1.7339 -0.5861
 2825SOL     OW20107   2.283   0.449   4.709 -0.8806 -0.2169  0.1360
 2825SOL    HW120108   2.234   0.398   4.773  0.2083 -0.7056  0.5950
 2825SOL    HW220109   2.258   0.403   4.629  0.9839 -0.3139 -0.3955
 2826SOL     OW20110   2.131   0.087  15.628 -0.1147  0.0228  0.2813
 2826SOL    HW120111   2.048   0.133  15.616  0.2240  0.9570  1.4613
 2826SOL    HW220112   2.106   0.009  15.677  0.3004 -0.2535  0.0479
 2827SOL     OW20113   3.615   4.530   3.000  0.0382 -0.0803  0.0082
 2827SOL    HW120114   3.677   4.458   2.987  0.4003  0.3042 -0.3747
 2827SOL    HW220115   3.660   4.589   2.940  3.2980 -0.2097  2.3498
 2828SOL     OW20116   1.774   0.101  17.559  0.4004 -0.3896  0.3262
 2828SOL    HW120117   1.706   0.162  17.589  0.6367 -1.0348  2.1468
 2828SOL    HW220118   1.787   0.128  17.468 -0.5781  0.0252  0.3091
 2829SOL     OW20119   2.594   4.400  13.890 -0.2214  0.6424  0.2167
 2829SOL    HW120120   2.574   4.446  13.808 -0.3970 -0.4536 -0.3424
 2829SOL    HW220121   2.609   4.313  13.855 -0.8294  0.7179 -0.2315
 2830SOL     OW20122   1.121   4.296   7.643 -0.5111  0.2738  0.4111
 2830SOL    HW120123   1.196   4.253   7.602  0.8913  1.5860  1.5483
 2830SOL    HW220124   1.074   4.316   7.562  0.7753 -0.7407 -0.5774
 2831SOL     OW20125   4.674   0.442  15.672 -0.7259 -0.5355 -0.4560
 2831SOL    HW120126   4.729   0.364  15.670  0.3202  0.2735 -3.0264
 2831SOL    HW220127   4.686   0.474  15.762  2.8279  0.3349 -1.2386
 2832SOL     OW20128   0.922   3.960   6.342  0.0999  0.5018 -0.8533
 2832SOL    HW120129   0.871   3.966   6.262 -2.5915  1.8107  0.9640
 2832SOL    HW220130   1.007   3.933   6.307 -0.2350  0.6909 -1.8104
 2833SOL     OW20131   0.758   2.469   0.604 -0.1701  0.2372 -0.1264
 2833SOL    HW120132   0.692   2.539   0.606  0.5248  0.7980  3.5004
 2833SOL    HW220133   0.754   2.442   0.512 -1.5002  0.2495 -0.0723
 2834SOL     OW20134   1.592   0.163   6.774 -0.9267 -0.1565  0.0152
 2834SOL    HW120135   1.658   0.097   6.751 -0.8606  0.2276 -0.9048
 2834SOL    HW220136   1.583   0.217   6.695  1.5738  0.3812  0.0963
 2835SOL     OW20137   2.082   1.741   1.738 -0.0855  0.0785 -0.0241
 2835SOL    HW120138   2.126   1.666   1.777  0.0311 -0.3029 -0.8751
 2835SOL    HW220139   2.013   1.764   1.801 -0.1606 -1.7489  0.5432
 2836SOL     OW20140   0.726   0.240   8.294  0.7144 -0.3454  0.5941
 2836SOL    HW120141   0.651   0.205   8.341  0.1595  0.4607  0.2983
 2836SOL    HW220142   0.788   0.253   8.366 -0.8962  1.7758  1.6012
 2837SOL     OW20143   2.373   4.051   9.691  0.9268  0.4924 -0.6459
 2837SOL    HW120144   2.445   4.114   9.688  0.3385  1.2191  0.6181
 2837SOL    HW220145   2.312   4.094   9.751 -1.6123 -0.4410 -2.5583
 2838SOL     OW20146   2.995   4.211   5.442 -0.0179 -0.7429  0.3670
 2838SOL    HW120147   3.008   4.121   5.470 -0.9107 -0.4382  1.7754
 2838SOL    HW220148   2.965   4.255   5.521 -2.7629 -2.0612  0.0701
 2839SOL     OW20149   3.758   1.966   2.559 -0.1213 -0.5590 -0.3641
 2839SOL    HW120150   3.722   1.988   2.645  2.2336 -1.6555  0.8990
 2839SOL    HW220151   3.754   1.871   2.561 -0.0241 -0.6085 -3.1301
 2840SOL     OW20152   3.313   3.522  17.229 -0.8673  0.1908 -0.1885
 2840SOL    HW120153   3.350   3.482  17.308 -0.0831 -1.2291 -1.2560
 2840SOL    HW220154   3.289   3.610  17.259 -0.0332  0.5532 -0.5788
 2841SOL     OW20155   3.391   3.343   5.645 -0.2000  0.1243 -0.3562
 2841SOL    HW120156   3.477   3.305   5.662 -0.0182  0.8064  0.2575
 2841SOL    HW220157   3.374   3.328   5.552 -3.3419  0.1551  0.2130
 2842SOL     OW20158   2.196   3.288   8.354 -0.3963  0.3268  0.2043
 2842SOL    HW120159   2.176   3.196   8.366 -0.5866  0.3450  0.0370
 2842SOL    HW220160   2.266   3.312   8.414 -1.1486 -0.4185  1.3837
 2843SOL     OW20161   0.102   4.298   9.247  0.4992 -0.2452 -0.2588
 2843SOL    HW120162   0.007   4.289   9.236  0.5688 -0.0419 -1.0468
 2843SOL    HW220163   0.111   4.393   9.244  0.3698 -0.1409  3.4017
 2844SOL     OW20164   2.108   3.095   2.669 -0.6277  0.0621 -0.7712
 2844SOL    HW120165   2.020   3.131   2.674 -1.1639 -1.3228 -0.1812
 2844SOL    HW220166   2.088   3.001   2.669  0.4762 -0.1699 -0.9638
 2845SOL     OW20167   1.447   4.653   4.975 -0.3376  0.4251 -0.0617
 2845SOL    HW120168   1.403   4.669   4.891 -1.7782  1.4645  0.8830
 2845SOL    HW220169   1.388   4.700   5.034 -1.4561 -0.3530 -0.5514
 2846SOL     OW20170   3.636   4.120   4.609 -0.0865 -0.4659  0.6301
 2846SOL    HW120171   3.553   4.078   4.634 -1.7280  2.1439 -0.4616
 2846SOL    HW220172   3.633   4.106   4.515 -1.1049  1.6904  0.3461
 2847SOL     OW20173   4.309   3.927   9.413 -0.4810  0.1673 -0.0096
 2847SOL    HW120174   4.335   3.971   9.493  2.0278  0.4489 -1.0076
 2847SOL    HW220175   4.341   3.988   9.347 -0.1946  0.4810  0.4260
 2848SOL     OW20176   1.138   2.699  16.542  0.1003 -0.1383 -0.5174
 2848SOL    HW120177   1.108   2.728  16.629 -0.9656  0.7362 -1.1739
 2848SOL    HW220178   1.058   2.673  16.497  0.0887  2.2206 -1.8359
 2849SOL     OW20179   0.633   1.673   7.760  0.2838 -0.0069  0.5216
 2849SOL    HW120180   0.552   1.679   7.710  0.3774 -1.2598  0.2025
 2849SOL    HW220181   0.665   1.763   7.770 -3.3460  1.1196  1.7545
 2850SOL     OW20182   4.259   3.575   6.928  0.0829  0.2497  0.8785
 2850SOL    HW120183   4.296   3.628   6.999 -0.5514  1.1303  0.5485
 2850SOL    HW220184   4.291   3.627   6.855  0.4884  0.1965  1.0193
 2851SOL     OW20185   0.466   2.294   4.891 -0.2681  0.3798  0.0783
 2851SOL    HW120186   0.445   2.229   4.825  0.5884  0.6932 -0.4996
 2851SOL    HW220187   0.380   2.282   4.933 -1.2032  0.1978 -1.8744
 2852SOL     OW20188   1.254   2.715   3.716 -0.1865 -0.1504  0.6760
 2852SOL    HW120189   1.315   2.788   3.718 -0.8511  0.4549 -0.9625
 2852SOL    HW220190   1.303   2.653   3.770 -0.0890 -1.2001 -0.5906
 2853SOL     OW20191   3.617   3.020  16.505 -0.0851 -0.4367  0.2318
 2853SOL    HW120192   3.539   2.982  16.463 -1.3551  1.7191  0.6321
 2853SOL    HW220193   3.578   3.083  16.566 -2.0353 -2.8298  1.4128
 2854SOL     OW20194   4.031   4.204   8.903  0.0128 -0.1153  0.1277
 2854SOL    HW120195   4.111   4.179   8.950 -1.0811 -2.8736  0.5452
 2854SOL    HW220196   3.962   4.150   8.941 -0.2977  0.4540  0.3678
 2855SOL     OW20197   0.901   1.277   8.571  0.6450  0.6189 -0.3110
 2855SOL    HW120198   0.867   1.197   8.610  1.2140  0.0287 -1.0098
 2855SOL    HW220199   0.868   1.279   8.481  0.6316  2.5640 -0.2612
 2856SOL     OW20200   0.783   3.552   7.364 -0.9339  0.0688 -0.2601
 2856SOL    HW120201   0.732   3.486   7.410 -0.2267 -0.3033 -0.0180
 2856SOL    HW220202   0.711   3.573   7.305 -1.6584 -1.2011  0.1769
 2857SOL     OW20203   3.413   3.332   8.189  0.5805  0.0779 -0.4563
 2857SOL    HW120204   3.407   3.403   8.124 -0.6833  0.5618  0.2013
 2857SOL    HW220205   3.506   3.308   8.191  1.2084  2.4074 -1.5791
 2858SOL     OW20206   1.567   0.152   1.848 -0.8246 -0.2127  0.1970
 2858SOL    HW120207   1.550   0.059   1.831 -1.4072  0.1701 -1.2926
 2858SOL    HW220208   1.536   0.185   1.764 -0.8252 -0.4818  0.0919
 2859SOL     OW20209   1.709   1.967  13.371  0.1762  0.0924  0.0034
 2859SOL    HW120210   1.772   1.900  13.347  0.6346  0.5664 -0.1158
 2859SOL    HW220211   1.678   1.939  13.457  0.6565 -0.1296  0.1018
 2860SOL     OW20212   1.250   4.212   1.341 -0.0732 -0.1027 -0.7072
 2860SOL    HW120213   1.204   4.128   1.332  1.0397 -1.0730  2.6761
 2860SOL    HW220214   1.172   4.268   1.338 -0.3327 -0.3750  1.0103
 2861SOL     OW20215   1.050   1.272   7.238  0.2449 -0.2902  0.3979
 2861SOL    HW120216   1.067   1.193   7.291 -1.1125 -1.0654 -0.3273
 2861SOL    HW220217   0.956   1.284   7.250 -0.3496 -3.5994 -0.7919
 2862SOL     OW20218   4.523   0.892   8.589 -0.0151  0.3269  0.2172
 2862SOL    HW120219   4.433   0.912   8.565 -0.0555 -1.4463 -1.0920
 2862SOL    HW220220   4.516   0.878   8.684 -1.4333 -1.2170 -0.1212
 2863SOL     OW20221   1.636   2.862   7.805 -0.4400  0.4771  0.2007
 2863SOL    HW120222   1.594   2.809   7.873  1.4385 -0.3585  0.7004
 2863SOL    HW220223   1.592   2.827   7.727 -2.5496  1.0639  1.1135
 2864SOL     OW20224   3.898   3.354   9.622 -0.1494  0.2801 -0.0287
 2864SOL    HW120225   3.812   3.312   9.616  0.5170 -1.0394 -0.3002
 2864SOL    HW220226   3.883   3.391   9.709  3.3322 -0.0215  0.7026
 2865SOL     OW20227   2.867   0.011   9.004  0.0223 -0.6226 -0.9140
 2865SOL    HW120228   2.834   0.099   9.021 -1.4531 -1.4638  0.5605
 2865SOL    HW220229   2.919   0.031   8.925  2.4327  0.0455  0.8535
 2866SOL     OW20230   1.413   1.467   8.611  0.8611 -0.3260  0.6591
 2866SOL    HW120231   1.358   1.396   8.643  2.1633 -2.3373 -1.5232
 2866SOL    HW220232   1.504   1.437   8.605  0.4469 -1.0396 -1.8743
 2867SOL     OW20233   3.651   2.923   2.478  0.5584  0.4609  0.0807
 2867SOL    HW120234   3.672   2.986   2.547 -0.2659  0.0056  0.7495
 2867SOL    HW220235   3.616   2.989   2.419 -2.8812 -0.5109  1.0695
 2868SOL     OW20236   1.007   3.227   2.874 -0.1774  0.0522 -0.0501
 2868SOL    HW120237   0.966   3.245   2.789 -0.4547  0.0236  0.0786
 2868SOL    HW220238   0.934   3.233   2.934 -0.1737  0.2247 -0.0627
 2869SOL     OW20239   0.252   0.530   6.918  0.3163 -0.1167 -0.1564
 2869SOL    HW120240   0.290   0.561   6.836  2.1863 -2.3729 -0.1484
 2869SOL    HW220241   0.317   0.550   6.985  0.0810  0.3301 -0.0644
 2870SOL     OW20242   3.352   4.520  14.336  0.3655 -0.7868  0.1788
 2870SOL    HW120243   3.276   4.573  14.314  1.1851  0.7112  1.0108
 2870SOL    HW220244   3.390   4.512  14.248 -0.8368 -1.2452 -0.3004
 2871SOL     OW20245   0.674   2.266   8.214 -0.1845 -0.7044  0.6816
 2871SOL    HW120246   0.595   2.233   8.256 -1.8386  1.3364 -0.8437
 2871SOL    HW220247   0.744   2.243   8.275 -1.5274 -1.1764  2.0459
 2872SOL     OW20248   1.883   1.218  14.315 -0.8334  0.4500 -0.2135
 2872SOL    HW120249   1.843   1.178  14.238 -3.0311  0.0292  1.1568
 2872SOL    HW220250   1.851   1.308  14.306 -0.2584  0.4367 -2.4725
 2873SOL     OW20251   3.961   4.612   0.109  0.2666  0.5747  0.1824
 2873SOL    HW120252   3.883   4.667   0.099 -0.4739 -0.8289 -1.6796
 2873SOL    HW220253   3.924   4.553   0.174  1.8880  1.5867  2.0148
 2874SOL     OW20254   3.872   0.661  15.122 -0.2204 -0.2102  0.3477
 2874SOL    HW120255   3.966   0.648  15.136 -0.0071 -0.6219 -1.4588
 2874SOL    HW220256   3.838   0.575  15.144  0.8765  0.1957  3.5457
 2875SOL     OW20257   3.579   1.174   3.152 -0.1321 -0.6216 -0.5237
 2875SOL    HW120258   3.640   1.177   3.226 -0.2889 -0.9592 -0.3803
 2875SOL    HW220259   3.568   1.079   3.150  1.4560 -0.7918 -1.3119
 2876SOL     OW20260   4.493   2.127   8.750  0.3812  0.8251  0.6297
 2876SOL    HW120261   4.499   2.218   8.720 -0.5669  0.7697  0.2828
 2876SOL    HW220262   4.587   2.109   8.755  0.4140  0.5827 -1.0250
 2877SOL     OW20263   4.408   4.173   6.536  0.3417  0.0451 -0.6917
 2877SOL    HW120264   4.379   4.224   6.460 -0.8268  1.0319  0.4149
 2877SOL    HW220265   4.380   4.234   6.604  2.2641  0.0682  0.0920
 2878SOL     OW20266   2.827   1.358   6.592  0.6923  0.0352 -0.4371
 2878SOL    HW120267   2.910   1.394   6.562  0.6269 -1.4052 -2.3855
 2878SOL    HW220268   2.781   1.433   6.630  1.2813 -1.3830  3.0071
 2879SOL     OW20269   2.628   0.296  14.664 -0.6347 -0.3105 -0.1278
 2879SOL    HW120270   2.699   0.336  14.714 -1.5778 -0.6148  1.4459
 2879SOL    HW220271   2.642   0.205  14.689 -0.0206 -0.1213  0.2239
 2880SOL     OW20272   0.781   2.869   7.804 -0.2417 -0.1578  0.3154
 2880SOL    HW120273   0.851   2.851   7.868  0.1591 -1.8586 -0.5996
 2880SOL    HW220274   0.709   2.838   7.859 -0.4113 -0.9960 -0.3855
 2881SOL     OW20275   3.746   3.199  15.315 -0.3852  0.2728 -0.3376
 2881SOL    HW120276   3.701   3.230  15.237 -0.7634  0.1638 -0.1614
 2881SOL    HW220277   3.827   3.183  15.267 -0.5799  0.4670 -0.7317
 2882SOL     OW20278   2.291   4.714   7.697 -0.7912  0.0925  0.5475
 2882SOL    HW120279   2.311   4.639   7.641 -1.9105 -1.0216  1.6101
 2882SOL    HW220280   2.265   4.662   7.774  0.4329  0.7375  1.4044
 2883SOL     OW20281   2.062   2.702  13.786 -0.4516  0.4740  0.1200
 2883SOL    HW120282   1.999   2.770  13.763 -1.0545 -0.4110 -0.9035
 2883SOL    HW220283   2.013   2.622  13.804  0.8976  0.4669  3.6997
 2884SOL     OW20284   2.661   0.917  10.477  0.3022  0.0729  0.0984
 2884SOL    HW120285   2.605   0.845  10.447 -1.5270  1.0730  1.0782
 2884SOL    HW220286   2.746   0.874  10.469 -0.4653 -1.2870 -0.8078
 2885SOL     OW20287   0.155   2.854   7.546  0.6181 -0.2319 -0.4763
 2885SOL    HW120288   0.131   2.913   7.617 -0.0327 -0.0959 -0.8089
 2885SOL    HW220289   0.077   2.800   7.530 -0.5182  0.7718  1.7238
 2886SOL     OW20290   1.353   2.143   5.976 -0.0096 -0.2049 -0.9679
 2886SOL    HW120291   1.392   2.128   6.062  0.6871  2.2023 -0.8687
 2886SOL    HW220292   1.262   2.115   5.989 -0.7217  2.3967 -0.4208
 2887SOL     OW20293   3.272   2.923   2.490 -0.2067  0.0174  0.1864
 2887SOL    HW120294   3.264   2.828   2.483 -3.1660  0.2722  0.0451
 2887SOL    HW220295   3.186   2.945   2.453 -1.7431 -1.6800  2.7053
 2888SOL     OW20296   1.044   1.621   5.755  0.2687  0.0311  0.2508
 2888SOL    HW120297   1.030   1.587   5.667  1.8722 -1.9666  0.7354
 2888SOL    HW220298   1.138   1.637   5.746  0.3316  0.2305  1.2085
 2889SOL     OW20299   1.945   4.104   7.828  0.0023  0.0359  0.1486
 2889SOL    HW120300   1.922   4.084   7.919 -1.0165 -0.7261 -0.2756
 2889SOL    HW220301   1.967   4.194   7.851  2.4005 -0.7875  1.1132
 2890SOL     OW20302   3.914   4.573   5.253 -0.0087 -0.2592  0.2504
 2890SOL    HW120303   3.850   4.549   5.186 -0.9717  0.3322  0.9595
 2890SOL    HW220304   3.866   4.557   5.334 -0.3501 -0.1288  0.0717
 2891SOL     OW20305   0.021   4.361   7.972  0.0565  0.4602 -0.0700
 2891SOL    HW120306   4.734   4.277   8.012  0.6437  1.2534  1.9259
 2891SOL    HW220307   0.116   4.348   7.964  0.1105  0.9241 -0.1631
 2892SOL     OW20308   2.299   4.390  12.864 -0.0672  0.1225  0.4619
 2892SOL    HW120309   2.334   4.306  12.893 -0.6768  0.3037  1.7298
 2892SOL    HW220310   2.244   4.408  12.940  1.0581 -0.9635  1.5174
 2893SOL     OW20311   0.843   0.636   6.900 -0.7133  0.3366  0.1617
 2893SOL    HW120312   0.801   0.722   6.898  1.1959  1.2787  0.4183
 2893SOL    HW220313   0.935   0.653   6.876 -0.3119  0.8261  2.0413
 2894SOL     OW20314   1.106   2.919   9.151  0.5113  0.3377  0.5570
 2894SOL    HW120315   1.109   2.943   9.244  1.2286 -3.1197  1.4314
 2894SOL    HW220316   1.171   2.849   9.155 -0.9567 -0.9916  1.4749
 2895SOL     OW20317   4.032   2.235   6.304 -0.2090 -0.4617 -0.3005
 2895SOL    HW120318   4.076   2.320   6.309  0.5074 -0.7803 -1.2182
 2895SOL    HW220319   3.943   2.262   6.328 -0.7253 -2.5125  0.0209
 2896SOL     OW20320   2.251   2.953   4.850 -0.0382  0.1534 -0.6620
 2896SOL    HW120321   2.212   3.039   4.864 -1.1074 -0.6460  1.2879
 2896SOL    HW220322   2.314   2.970   4.781 -0.6263 -1.6819 -1.6633
 2897SOL     OW20323   3.970   1.418   7.176 -0.0733 -0.0333  0.1084
 2897SOL    HW120324   4.029   1.493   7.170 -0.3426  0.0698 -1.3327
 2897SOL    HW220325   3.887   1.456   7.145 -0.4382 -2.1124 -1.4371
 2898SOL     OW20326   2.640   2.753   7.769 -0.2955 -0.3126  0.5472
 2898SOL    HW120327   2.702   2.824   7.788  1.4288 -1.5189 -0.5623
 2898SOL    HW220328   2.668   2.675   7.817  1.3828  0.0677  0.2032
 2899SOL     OW20329   0.086   2.975   0.643 -0.0831  0.2732  0.5551
 2899SOL    HW120330   0.098   3.059   0.598  2.3753  0.1231  0.9214
 2899SOL    HW220331   0.008   2.943   0.599  0.2916  0.7834 -0.4798
 2900SOL     OW20332   3.228   3.702   6.474  0.2869 -0.0884 -0.1785
 2900SOL    HW120333   3.188   3.672   6.393 -1.2071  1.0899  0.1092
 2900SOL    HW220334   3.310   3.737   6.439  0.2341  2.0945  1.8148
 2901SOL     OW20335   3.597   4.125  15.507 -0.2696 -0.2066 -0.4880
 2901SOL    HW120336   3.667   4.109  15.445  0.1195  1.1918 -0.3984
 2901SOL    HW220337   3.526   4.068  15.478 -0.8403  0.2378  0.0274
 2902SOL     OW20338   2.756   3.179   3.621 -0.3598  0.0937  0.2278
 2902SOL    HW120339   2.674   3.200   3.577  0.6171  1.5314 -0.8867
 2902SOL    HW220340   2.722   3.170   3.711 -0.6616 -3.0764 -0.2182
 2903SOL     OW20341   0.795   2.541   2.716  0.3391  0.0109  0.1538
 2903SOL    HW120342   0.722   2.560   2.657  1.1421 -1.5828 -1.3676
 2903SOL    HW220343   0.840   2.481   2.656  0.1106 -1.0562  1.0424
 2904SOL     OW20344   1.772   1.037   5.139  0.0202  0.1158 -0.4315
 2904SOL    HW120345   1.698   0.983   5.111 -0.9908  0.1204  2.1940
 2904SOL    HW220346   1.725   1.114   5.172 -0.0532 -0.1429  0.0677
 2905SOL     OW20347   3.765   1.355   2.148 -0.1416 -0.5532 -0.2090
 2905SOL    HW120348   3.757   1.330   2.056 -0.2627 -3.3850  0.5717
 2905SOL    HW220349   3.846   1.307   2.167 -0.3201 -0.2726  1.2571
 2906SOL     OW20350   2.285   1.195   6.034  0.4249  0.2439 -0.3714
 2906SOL    HW120351   2.327   1.278   6.056 -0.2422 -0.1783  2.4974
 2906SOL    HW220352   2.193   1.207   6.055  0.6434 -2.5735  2.0746
 2907SOL     OW20353   3.689   2.156   4.510 -0.7543 -0.2951 -0.2361
 2907SOL    HW120354   3.650   2.237   4.542 -1.7014 -0.2373 -1.5308
 2907SOL    HW220355   3.663   2.110   4.589 -2.1898 -0.6050 -0.8855
 2908SOL     OW20356   2.252   4.162  17.065 -0.9604 -0.2302 -0.1587
 2908SOL    HW120357   2.241   4.070  17.089 -0.3765 -0.1614  0.3638
 2908SOL    HW220358   2.167   4.196  17.091  0.1231  1.1050  1.5857
 2909SOL     OW20359   0.389   3.471   7.396 -0.5185  0.3242 -0.5222
 2909SOL    HW120360   0.312   3.515   7.361 -0.7440  0.4462  0.1202
 2909SOL    HW220361   0.403   3.401   7.332  1.3360 -0.7843  1.0972
 2910SOL     OW20362   2.525   0.098   7.410  0.1004  0.0143 -0.0636
 2910SOL    HW120363   2.507   0.008   7.383  0.6622 -0.7687  2.1480
 2910SOL    HW220364   2.597   0.085   7.471  1.4106  3.9902 -0.7683
 2911SOL     OW20365   3.949   1.286   7.443  0.3219  0.2125  0.6374
 2911SOL    HW120366   4.036   1.259   7.415 -0.1781 -1.6714  0.9376
 2911SOL    HW220367   3.935   1.359   7.382  0.7718  0.4230  0.7841
 2912SOL     OW20368   2.163   0.866  16.261 -0.2233 -0.2470  0.2905
 2912SOL    HW120369   2.178   0.955  16.230 -0.0464 -0.0553  0.9205
 2912SOL    HW220370   2.102   0.877  16.334  0.7883 -0.9676  1.2430
 2913SOL     OW20371   2.622   3.843   3.117 -1.1448  0.0499  0.0372
 2913SOL    HW120372   2.603   3.842   3.023  0.0221  2.3409 -0.2176
 2913SOL    HW220373   2.717   3.855   3.115 -0.8519 -2.1517  0.3818
 2914SOL     OW20374   3.192   2.027   3.187  0.4951 -0.0572  0.2633
 2914SOL    HW120375   3.262   1.966   3.163 -1.3237 -1.8412 -0.5000
 2914SOL    HW220376   3.125   2.013   3.120  1.0675 -2.3285  0.1864
 2915SOL     OW20377   2.716   3.908   8.319  0.5298  0.2991 -0.0386
 2915SOL    HW120378   2.797   3.876   8.278 -0.3367 -1.5407 -0.3108
 2915SOL    HW220379   2.750   3.944   8.401 -2.5736  0.3392  1.2068
 2916SOL     OW20380   1.509   2.693  14.530 -0.1438  0.6476  0.1133
 2916SOL    HW120381   1.473   2.611  14.495  1.0180 -0.4322  1.4372
 2916SOL    HW220382   1.523   2.678  14.624 -0.1058 -0.5794 -0.0953
 2917SOL     OW20383   4.632   1.560   7.257  0.0868 -0.4679  0.0627
 2917SOL    HW120384   4.676   1.532   7.176  0.1991 -0.3963  0.0988
 2917SOL    HW220385   4.636   1.654   7.240  0.0458 -0.5566 -0.4425
 2918SOL     OW20386   2.656   1.450   4.830  0.3797 -0.3023  0.1323
 2918SOL    HW120387   2.621   1.373   4.785  0.5590  0.2818 -0.9930
 2918SOL    HW220388   2.593   1.513   4.795 -0.7944 -0.6666  1.6040
 2919SOL     OW20389   4.014   3.959   3.412  0.7432 -0.4701 -0.2717
 2919SOL    HW120390   3.999   3.946   3.506  0.7688 -0.7346 -0.3034
 2919SOL    HW220391   3.934   3.917   3.381 -1.4369  3.8054 -0.3980
 2920SOL     OW20392   1.740   2.091   5.322  0.4838  0.5534 -0.5680
 2920SOL    HW120393   1.726   2.143   5.243  1.9243  1.4441 -0.2389
 2920SOL    HW220394   1.728   2.002   5.288  1.2074 -0.8954  2.9110
 2921SOL     OW20395   3.385   0.715   5.386  0.0315 -0.2714 -0.9177
 2921SOL    HW120396   3.334   0.751   5.459  1.1448 -0.3974 -0.0702
 2921SOL    HW220397   3.471   0.709   5.428 -0.1332  0.2929 -0.5075
 2922SOL     OW20398   2.276   1.216   2.378  0.0740  0.0939 -0.5182
 2922SOL    HW120399   2.221   1.249   2.308  0.7042 -1.0296 -1.5522
 2922SOL    HW220400   2.362   1.211   2.335  0.9198 -1.9585  1.4242
 2923SOL     OW20401   4.603   3.692   5.579  0.5019  0.0522  0.9196
 2923SOL    HW120402   4.657   3.728   5.650  0.4292 -1.3586  1.6816
 2923SOL    HW220403   4.594   3.605   5.618  2.7032 -1.0174 -0.9169
 2924SOL     OW20404   1.041   1.017   5.197  0.0167 -0.2971  0.3117
 2924SOL    HW120405   1.007   1.024   5.286  0.5612 -0.7717  0.5585
 2924SOL    HW220406   1.023   0.924   5.185  0.1648 -0.3556  0.5490
 2925SOL     OW20407   0.496   0.288   3.244 -0.9545  0.0770  0.3815
 2925SOL    HW120408   0.429   0.238   3.196 -1.7267  0.3912  1.1229
 2925SOL    HW220409   0.503   0.238   3.325 -2.5290  0.1816  0.5886
 2926SOL     OW20410   0.131   2.894   9.624  0.2238 -0.4222 -0.2836
 2926SOL    HW120411   0.086   2.812   9.643 -2.9892  1.7800  1.7467
 2926SOL    HW220412   0.204   2.892   9.686  0.2538 -1.3897 -0.3553
 2927SOL     OW20413   1.810   1.636   2.502 -0.1364  0.6264  0.0804
 2927SOL    HW120414   1.801   1.732   2.506 -0.0810  0.5906  1.0105
 2927SOL    HW220415   1.808   1.623   2.407  1.1404 -0.4118  0.1963
 2928SOL     OW20416   0.540   1.809   5.355  0.3257 -0.3998  0.3408
 2928SOL    HW120417   0.569   1.888   5.308 -0.8573  1.0449  2.0388
 2928SOL    HW220418   0.584   1.742   5.303 -0.7078 -0.7770 -0.0410
 2929SOL     OW20419   4.326   0.140   5.399  0.1732  0.0017  0.4773
 2929SOL    HW120420   4.405   0.108   5.356 -1.3447 -3.1539  0.0092
 2929SOL    HW220421   4.260   0.135   5.329  0.5006  0.6070  0.1239
 2930SOL     OW20422   3.666   1.787   5.199  0.1988 -0.3839  0.3309
 2930SOL    HW120423   3.599   1.737   5.246 -1.0701  1.2395  0.2608
 2930SOL    HW220424   3.688   1.719   5.136  0.4902  2.1204 -2.2922
 2931SOL     OW20425   4.044   1.709   2.676  0.1691  0.1062 -0.5607
 2931SOL    HW120426   4.135   1.682   2.665  0.2486 -0.2619  0.9197
 2931SOL    HW220427   3.999   1.685   2.595 -0.0970 -1.3735  0.0168
 2932SOL     OW20428   1.258   0.054   5.508  0.2222 -0.0151 -0.0320
 2932SOL    HW120429   1.188   0.065   5.444  0.9326  1.8718 -0.5085
 2932SOL    HW220430   1.295   4.707   5.478 -1.0041 -0.7997  0.6359
 2933SOL     OW20431   1.524   3.570   0.138  0.1947 -0.1455  0.0357
 2933SOL    HW120432   1.508   3.657   0.176 -1.4427 -0.7511  0.7305
 2933SOL    HW220433   1.503   3.572   0.044  0.4716  0.5152 -0.0108
 2934SOL     OW20434   0.859   2.805   5.610  0.5491 -0.0011 -0.3553
 2934SOL    HW120435   0.833   2.837   5.696  1.8986  2.1623 -0.7709
 2934SOL    HW220436   0.780   2.812   5.555  2.0073  0.0995 -2.4364
 2935SOL     OW20437   3.429   4.542   4.633 -0.2536  0.7423 -0.4495
 2935SOL    HW120438   3.389   4.463   4.668 -2.4219  1.2906 -1.6431
 2935SOL    HW220439   3.402   4.538   4.541 -1.6791  0.8734 -0.0352
 2936SOL     OW20440   2.929   4.724   4.576 -0.1389 -0.1122  0.1466
 2936SOL    HW120441   3.014   0.016   4.612 -0.7265  1.6507  0.1577
 2936SOL    HW220442   2.899   0.067   4.532  0.0666 -0.2476 -0.2359
 2937SOL     OW20443   2.726   4.068   8.986  0.2837  0.3404 -0.0618
 2937SOL    HW120444   2.673   4.033   9.057  0.4023  1.2506  0.4752
 2937SOL    HW220445   2.809   4.095   9.027  1.2099  0.7649 -2.2325
 2938SOL     OW20446   4.244   0.848   7.049  0.1124  0.4095  0.2359
 2938SOL    HW120447   4.253   0.763   7.007  2.1643  0.6383  0.2294
 2938SOL    HW220448   4.313   0.827   7.112  0.5069  3.9238  0.9852
 2939SOL     OW20449   0.537   4.487   3.766 -1.1471 -0.3908 -0.1816
 2939SOL    HW120450   0.464   4.545   3.746  0.0427  0.7049 -1.3696
 2939SOL    HW220451   0.605   4.554   3.781  0.3378 -1.7258 -0.9852
 2940SOL     OW20452   2.154   0.106   1.349  0.1932 -0.2001 -0.1256
 2940SOL    HW120453   2.077   0.121   1.404  0.1379 -1.8821  0.2689
 2940SOL    HW220454   2.223   0.069   1.404  0.7541 -0.3970 -0.9668
 2941SOL     OW20455   4.111   0.539  11.862 -0.3145 -0.0175 -0.3381
 2941SOL    HW120456   4.120   0.448  11.835  1.3258 -0.4422  1.6159
 2941SOL    HW220457   4.027   0.558  11.821 -0.0250  0.2593 -0.7988
 2942SOL     OW20458   3.178   4.148   8.650 -0.2832  0.7392 -0.0055
 2942SOL    HW120459   3.129   4.073   8.616  1.7329 -0.2320 -0.8121
 2942SOL    HW220460   3.261   4.105   8.671 -0.5615  0.5626  0.7309
 2943SOL     OW20461   0.144   1.745   7.524 -0.0376  0.2351  0.6360
 2943SOL    HW120462   0.075   1.789   7.573 -0.6038 -0.4192  0.4375
 2943SOL    HW220463   0.138   1.792   7.441  0.1577 -0.9732 -0.0624
 2944SOL     OW20464   4.483   2.260   2.700  0.3315 -0.5845  0.0812
 2944SOL    HW120465   4.505   2.310   2.622 -1.6581  1.4260  0.7846
 2944SOL    HW220466   4.444   2.184   2.658 -1.6279 -0.4064  1.5296
 2945SOL     OW20467   3.053   1.625   3.628  0.1505  0.0983 -0.2785
 2945SOL    HW120468   3.059   1.684   3.703 -0.5574 -2.1678  1.5417
 2945SOL    HW220469   2.961   1.638   3.606  0.2959  0.1343 -0.8655
 2946SOL     OW20470   2.358   0.495   9.002  0.0804 -0.2405  0.2913
 2946SOL    HW120471   2.333   0.485   9.094 -0.0553 -1.6997  0.0914
 2946SOL    HW220472   2.453   0.484   9.008 -0.0098 -1.3283 -0.3402
 2947SOL     OW20473   4.046   3.223   8.840  0.1083 -0.3806 -0.3228
 2947SOL    HW120474   4.020   3.314   8.851  0.4860 -0.3250  0.1007
 2947SOL    HW220475   3.994   3.183   8.911  0.1235  0.7115  0.3035
 2948SOL     OW20476   2.455   1.201   3.695  0.5553  0.1211 -0.7346
 2948SOL    HW120477   2.493   1.256   3.627  1.4920 -0.1151 -0.3923
 2948SOL    HW220478   2.456   1.111   3.660 -0.9542 -0.3760  0.4996
 2949SOL     OW20479   0.238   0.419   4.069 -0.2548 -0.3896  0.0698
 2949SOL    HW120480   0.302   0.436   3.999  0.6345 -2.0869  0.4767
 2949SOL    HW220481   0.251   0.325   4.072  0.0123 -0.3691 -0.4942
 2950SOL     OW20482   2.502   1.104   1.347  0.2205  0.4658 -0.3963
 2950SOL    HW120483   2.431   1.100   1.411  0.7822 -2.2103  0.0768
 2950SOL    HW220484   2.551   1.178   1.382  0.2230 -0.7100  2.0881
 2951SOL     OW20485   1.648   2.168   6.766 -0.4208  0.0734 -0.4889
 2951SOL    HW120486   1.596   2.207   6.837 -0.4443 -0.8183 -0.0198
 2951SOL    HW220487   1.725   2.224   6.772 -0.2680 -0.1846 -0.0449
 2952SOL     OW20488   3.429   3.519   2.240  0.3103 -0.1515 -0.6377
 2952SOL    HW120489   3.394   3.445   2.290  1.8686  0.1795  0.9494
 2952SOL    HW220490   3.362   3.553   2.181  0.2009 -1.5743 -1.3408
 2953SOL     OW20491   2.686   0.506   6.071 -0.1290 -0.1403  0.0698
 2953SOL    HW120492   2.745   0.556   6.126 -0.0413 -1.0626  0.8125
 2953SOL    HW220493   2.621   0.566   6.034  0.3485  0.2634 -0.1130
 2954SOL     OW20494   4.690   3.918  16.754  0.1003  0.0609 -0.1808
 2954SOL    HW120495   4.726   3.899  16.667  1.1641  4.5495 -0.7202
 2954SOL    HW220496   4.621   3.983  16.742 -0.0005  0.3087  1.7440
 2955SOL     OW20497   1.163   2.768  17.064 -0.4836  0.0752  0.0041
 2955SOL    HW120498   1.159   2.792  17.157  1.9624  0.4022  0.0224
 2955SOL    HW220499   1.130   2.850  17.028 -0.5749  0.3850  0.7755
 2956SOL     OW20500   4.465   3.838  14.871 -0.2114  0.8266  0.3852
 2956SOL    HW120501   4.393   3.892  14.904  0.0270  0.0069  2.2540
 2956SOL    HW220502   4.501   3.840  14.960 -0.2543 -1.0269  0.4466
 2957SOL     OW20503   4.602   1.911   9.477  0.6924  0.6892 -0.7327
 2957SOL    HW120504   4.586   1.884   9.386  0.2064 -1.9876  0.1442
 2957SOL    HW220505   4.523   1.964   9.492 -0.7853 -1.1298 -2.0414
 2958SOL     OW20506   3.980   3.351   4.325 -0.3563 -0.3672  1.1191
 2958SOL    HW120507   4.036   3.385   4.255  0.1742 -0.3416  1.5589
 2958SOL    HW220508   3.951   3.267   4.290  0.9879 -0.8215  1.1206
 2959SOL     OW20509   0.659   0.510   2.820  0.1757 -0.0611 -0.4710
 2959SOL    HW120510   0.741   0.559   2.819 -0.1612  0.5004 -0.2347
 2959SOL    HW220511   0.698   0.425   2.799 -0.0748 -0.6680  1.5030
 2960SOL     OW20512   0.293   2.998   3.548  0.4061 -0.1894  0.0708
 2960SOL    HW120513   0.237   2.933   3.506  2.7428 -1.1783 -1.5337
 2960SOL    HW220514   0.244   3.027   3.624 -0.9990  0.8464 -1.2250
 2961SOL     OW20515   3.932   4.552   6.145 -0.0834  0.2394  0.1272
 2961SOL    HW120516   3.878   4.557   6.224 -1.0168  0.7892 -0.5404
 2961SOL    HW220517   3.865   4.560   6.078 -0.2196 -0.9306  0.1316
 2962SOL     OW20518   4.225   0.173   2.240  0.3136 -0.2359  0.3931
 2962SOL    HW120519   4.257   0.254   2.279 -0.2810  0.8658 -1.4257
 2962SOL    HW220520   4.271   0.174   2.156 -0.9693 -0.1062 -0.3113
 2963SOL     OW20521   0.931   2.879   8.500  0.4671  0.0676 -0.0883
 2963SOL    HW120522   1.019   2.852   8.474  0.6681 -0.8305  1.5434
 2963SOL    HW220523   0.941   2.896   8.593  0.2250 -1.0387  0.1410
 2964SOL     OW20524   1.035   0.515  16.587  0.3773  0.2309 -0.7828
 2964SOL    HW120525   1.013   0.564  16.666 -0.3887  0.0467 -0.8850
 2964SOL    HW220526   1.005   0.578  16.521 -2.8920 -0.2312  0.2626
 2965SOL     OW20527   3.890   0.988  10.001 -0.5805  0.0316  0.6356
 2965SOL    HW120528   3.942   0.966   9.924 -1.5987 -0.8444  0.2087
 2965SOL    HW220529   3.839   1.065   9.978 -0.5776 -1.1207 -3.2379
 2966SOL     OW20530   2.809   3.645   2.189  0.1847  0.5764 -0.4933
 2966SOL    HW120531   2.784   3.553   2.192 -0.0740  0.5479 -3.3569
 2966SOL    HW220532   2.801   3.666   2.096  3.2059 -0.9198 -1.1094
 2967SOL     OW20533   2.950   2.715  16.267 -0.5438 -0.8312 -0.2812
 2967SOL    HW120534   2.933   2.810  16.265  0.0374 -0.7293 -0.4013
 2967SOL    HW220535   2.957   2.690  16.175  0.5330 -0.9391 -0.1697
 2968SOL     OW20536   1.518   3.393   5.006 -0.3114  0.0638  0.1299
 2968SOL    HW120537   1.459   3.468   4.996  1.7771  2.0483  2.9708
 2968SOL    HW220538   1.481   3.351   5.084  3.1355 -0.1907  1.6190
 2969SOL     OW20539   1.373   1.479   3.656 -0.6364 -0.1575  0.4510
 2969SOL    HW120540   1.334   1.499   3.741  0.6489  0.4065  0.9063
 2969SOL    HW220541   1.463   1.491   3.686 -0.0985 -3.7855  0.3464
 2970SOL     OW20542   2.950   1.008   8.670  0.1473 -1.0583  0.1201
 2970SOL    HW120543   2.927   1.013   8.577 -0.3084  0.4259  0.3246
 2970SOL    HW220544   3.039   1.043   8.667 -0.4654  0.5490  1.1887
 2971SOL     OW20545   2.002   1.609   3.482  0.5436  0.0142  0.2806
 2971SOL    HW120546   1.967   1.605   3.393 -0.6184 -2.5326  0.8442
 2971SOL    HW220547   1.948   1.679   3.520 -3.5012 -2.0524 -1.5751
 2972SOL     OW20548   4.022   3.491  15.498  0.1053 -0.3291 -0.0059
 2972SOL    HW120549   3.931   3.504  15.523  0.6286  2.6703  0.2943
 2972SOL    HW220550   4.017   3.453  15.411  0.3329  0.9492 -0.5653
 2973SOL     OW20551   2.332   2.114   5.363 -0.0520 -0.4563  0.2871
 2973SOL    HW120552   2.388   2.039   5.382  0.2302 -0.1591  0.6471
 2973SOL    HW220553   2.323   2.152   5.451  0.2472 -1.3723  0.7099
 2974SOL     OW20554   3.712   1.591   6.816 -0.3311  0.1282  0.5563
 2974SOL    HW120555   3.661   1.569   6.738  0.4924  3.7605 -1.0134
 2974SOL    HW220556   3.758   1.672   6.794 -0.8530  0.5883  1.1449
 2975SOL     OW20557   2.135   4.341   7.681 -0.5125 -0.1383  0.5482
 2975SOL    HW120558   2.090   4.350   7.765  0.1531  0.6889  0.8230
 2975SOL    HW220559   2.157   4.247   7.684 -0.5281 -0.1649 -0.3486
 2976SOL     OW20560   1.326   1.455   0.015  0.2716 -0.4084 -0.5082
 2976SOL    HW120561   1.296   1.438   0.105  0.6793  0.9845 -0.1091
 2976SOL    HW220562   1.415   1.482   0.035  0.3896  0.2744 -1.9867
 2977SOL     OW20563   4.045   3.612  16.974  0.4811 -0.0495 -0.0632
 2977SOL    HW120564   4.004   3.608  17.061 -1.6841 -1.6685 -1.1630
 2977SOL    HW220565   4.036   3.702  16.941 -1.3488 -0.4690 -0.6853
 2978SOL     OW20566   1.502   4.522   4.055 -0.6818 -0.3518 -0.0957
 2978SOL    HW120567   1.524   4.431   4.035  0.3656  0.1413 -1.1199
 2978SOL    HW220568   1.554   4.565   3.987 -0.8399 -0.0267 -0.0130
 2979SOL     OW20569   0.502   0.106   7.705 -0.0111 -0.2313  0.6084
 2979SOL    HW120570   0.441   0.096   7.777 -0.3140 -0.5143  0.3137
 2979SOL    HW220571   0.544   0.019   7.705 -0.6595 -0.5460 -2.0636
 2980SOL     OW20572   1.967   0.834   2.424 -0.5713  0.3903  0.0879
 2980SOL    HW120573   1.937   0.845   2.334 -2.1118 -2.1385  0.3073
 2980SOL    HW220574   1.919   0.906   2.464  0.6033  0.1830  1.8812
 2981SOL     OW20575   4.310   3.542  17.105  0.3856 -0.2295 -0.3347
 2981SOL    HW120576   4.224   3.569  17.073  0.1940 -0.0380  0.3364
 2981SOL    HW220577   4.360   3.604  17.052 -1.4134  1.3653 -0.1230
 2982SOL     OW20578   1.812   1.536   4.091  0.0867  0.1967 -0.0421
 2982SOL    HW120579   1.822   1.441   4.105  2.3324  0.4498 -0.0580
 2982SOL    HW220580   1.896   1.554   4.051  1.0917 -0.4075  1.8055
 2983SOL     OW20581   4.569   1.501  16.050 -0.0382 -0.3131 -0.4995
 2983SOL    HW120582   4.605   1.589  16.038  2.2105 -0.9015  1.9109
 2983SOL    HW220583   4.478   1.519  16.029  0.8028  2.7398 -1.5222
 2984SOL     OW20584   2.518   0.257   3.580  0.4615 -0.8604  0.0152
 2984SOL    HW120585   2.533   0.219   3.666 -0.1325 -1.5056 -0.1627
 2984SOL    HW220586   2.476   0.179   3.543 -0.2247 -0.9015  0.8896
 2985SOL     OW20587   3.152   1.961  16.734  0.5405 -0.2808 -0.6126
 2985SOL    HW120588   3.168   1.941  16.642  1.2568 -0.0552 -0.5420
 2985SOL    HW220589   3.131   1.873  16.767 -0.9651  0.8067  1.2982
 2986SOL     OW20590   4.085   0.310   6.713 -0.1757  0.0435 -0.3926
 2986SOL    HW120591   3.997   0.274   6.705 -0.2405  0.5271 -1.8206
 2986SOL    HW220592   4.124   0.259   6.783 -0.2801  1.1509  0.4733
 2987SOL     OW20593   1.369   3.495   1.411  0.3405 -0.6290 -0.0178
 2987SOL    HW120594   1.444   3.543   1.446 -0.8998  1.7338 -0.5861
 2987SOL    HW220595   1.393   3.407   1.440 -0.4954 -0.5441  0.9384
 2988SOL     OW20596   4.398   2.949   6.151 -0.3585 -0.2372  0.2627
 2988SOL    HW120597   4.419   2.917   6.063 -1.2761  0.0337 -0.0591
 2988SOL    HW220598   4.438   2.877   6.200  2.5534  0.4245 -1.1510
 2989SOL     OW20599   4.522   0.412   2.952  0.1631 -0.1344  0.8038
 2989SOL    HW120600   4.526   0.435   2.859 -0.8774 -0.8898  0.5716
 2989SOL    HW220601   4.577   0.476   2.996  0.3831 -1.2636  2.1902
 2990SOL     OW20602   1.409   1.019  15.553 -0.3501 -0.0126  0.6270
 2990SOL    HW120603   1.482   0.956  15.555  1.4117  2.0104 -0.4543
 2990SOL    HW220604   1.444   1.097  15.511 -2.9811 -0.1200 -1.7918
 2991SOL     OW20605   3.539   4.558   3.912  0.1665  0.3106 -0.2087
 2991SOL    HW120606   3.457   4.583   3.870  0.4391  0.5764 -0.5770
 2991SOL    HW220607   3.588   4.513   3.843  1.3502  0.1551  0.7433
 2992SOL     OW20608   0.897   1.897  16.772 -0.2645  0.4390 -0.4150
 2992SOL    HW120609   0.893   1.901  16.676  3.1066 -1.0966 -0.5999
 2992SOL    HW220610   0.987   1.867  16.768  0.4069  2.4208 -0.3173
 2993SOL     OW20611   3.717   0.570   4.255 -0.2864  0.8180 -0.0862
 2993SOL    HW120612   3.806   0.603   4.245 -0.1480  0.7375  0.8811
 2993SOL    HW220613   3.702   0.602   4.344  0.5983 -1.1541  0.7607
 2994SOL     OW20614   0.573   1.238   8.562 -0.0924 -0.0504 -0.5938
 2994SOL    HW120615   0.515   1.198   8.498  0.3072 -0.7861 -0.5003
 2994SOL    HW220616   0.607   1.158   8.603  0.4488  0.7775  0.5926
 2995SOL     OW20617   3.218   1.612   3.174  0.3395  0.2768 -0.5490
 2995SOL    HW120618   3.182   1.689   3.131  1.6770  1.0673 -0.2727
 2995SOL    HW220619   3.216   1.552   3.100  0.6801 -0.0957 -0.2602
 2996SOL     OW20620   2.660   3.958   6.677 -0.3744 -0.1465  0.1070
 2996SOL    HW120621   2.613   4.015   6.616  1.3591  1.6177  0.4407
 2996SOL    HW220622   2.727   3.919   6.620  1.1150  1.9349  0.4559
 2997SOL     OW20623   1.107   0.506  12.698  0.4566 -0.5262 -0.6099
 2997SOL    HW120624   1.071   0.439  12.640 -0.8586 -0.3521  0.0048
 2997SOL    HW220625   1.044   0.577  12.686  1.2396  0.4475  1.0367
 2998SOL     OW20626   1.396   1.087   8.652 -0.3409  0.0956  0.3561
 2998SOL    HW120627   1.415   1.128   8.737 -2.2938 -0.3978  1.0461
 2998SOL    HW220628   1.481   1.057   8.622 -1.2502  0.3304 -2.4151
 2999SOL     OW20629   2.518   1.395   5.441  0.2046 -0.3509 -0.0165
 2999SOL    HW120630   2.588   1.459   5.454 -0.3957 -0.0695  1.8982
 2999SOL    HW220631   2.552   1.314   5.478  1.7113  1.4557  2.5978
 3000SOL     OW20632   0.584   0.903   6.677  0.0464  0.4070 -0.0384
 3000SOL    HW120633   0.573   0.962   6.602 -0.9966 -0.8880 -0.8962
 3000SOL    HW220634   0.673   0.929   6.702  0.8467  0.0395 -2.4483
 3001SOL     OW20635   3.649   3.633  17.293 -0.2690 -0.0148  0.3621
 3001SOL    HW120636   3.598   3.623  17.373 -1.2115  2.9556  0.1044
 3001SOL    HW220637   3.597   3.700  17.249  0.9789  0.0001 -1.0887
 3002SOL     OW20638   1.667   0.998  17.588 -0.1789  0.2842 -0.1939
 3002SOL    HW120639   1.574   1.017  17.599 -0.4484 -1.3072  0.3109
 3002SOL    HW220640   1.667   0.916  17.538  0.7264 -1.2534  2.3042
 3003SOL     OW20641   0.288   1.439   9.454 -0.1043  0.0456  0.1074
 3003SOL    HW120642   0.374   1.413   9.421  0.9814  0.6744  2.4287
 3003SOL    HW220643   0.318   1.501   9.521 -0.6628 -1.1768  1.4585
 3004SOL     OW20644   3.543   2.873  12.883 -0.3088 -0.2305  0.3680
 3004SOL    HW120645   3.638   2.884  12.888 -0.0618 -1.8153 -0.7031
 3004SOL    HW220646   3.537   2.839  12.793 -0.5680 -2.0081  1.0625
 3005SOL     OW20647   2.609   0.441   3.050  0.1460 -0.3382 -0.6619
 3005SOL    HW120648   2.612   0.346   3.035  0.0454 -0.2625 -1.1613
 3005SOL    HW220649   2.598   0.478   2.963 -2.9051 -0.6735 -0.4130
 3006SOL     OW20650   3.560   4.044  17.068 -0.2731  0.4619 -0.5055
 3006SOL    HW120651   3.598   4.091  16.994  0.3967 -0.1508 -0.5430
 3006SOL    HW220652   3.549   4.112  17.135  0.2413  1.1440 -1.1215
 3007SOL     OW20653   4.272   0.217   3.857  0.5697 -0.0126  0.1185
 3007SOL    HW120654   4.262   0.142   3.915 -1.9672  1.7438  1.9386
 3007SOL    HW220655   4.364   0.233   3.879  0.8326 -0.3549 -0.7030
 3008SOL     OW20656   4.001   0.121   6.116 -0.1119 -0.5348  0.1369
 3008SOL    HW120657   4.063   0.049   6.105  1.1467  0.6441 -0.6235
 3008SOL    HW220658   3.924   0.097   6.065  0.8987 -0.7925 -1.2889
 3009SOL     OW20659   1.292   2.612  15.345  0.0162  0.0886 -0.6498
 3009SOL    HW120660   1.332   2.643  15.264  0.9341 -0.2009 -0.2994
 3009SOL    HW220661   1.228   2.682  15.362 -1.3941 -0.7498 -2.4343
 3010SOL     OW20662   1.198   3.677   5.999 -0.7368 -0.0611 -0.4748
 3010SOL    HW120663   1.196   3.738   6.073  0.7016 -0.2275 -0.2958
 3010SOL    HW220664   1.175   3.744   5.935 -1.7447  0.8207  0.8006
 3011SOL     OW20665   3.451   2.958  16.972  0.3701  0.3334 -0.6947
 3011SOL    HW120666   3.433   2.965  16.878 -2.3118 -0.3380 -0.2343
 3011SOL    HW220667   3.414   2.870  16.981  0.5042  0.5311  1.6781
 3012SOL     OW20668   0.578   4.530   7.034 -0.3254 -0.1147 -0.2183
 3012SOL    HW120669   0.501   4.514   7.088  0.4211 -2.3992  0.1661
 3012SOL    HW220670   0.547   4.616   7.005 -2.7747 -1.2163 -0.8717
 3013SOL     OW20671   3.786   2.324   5.868  0.2516  0.0674  0.0268
 3013SOL    HW120672   3.810   2.400   5.921  0.1858 -0.1363  0.3499
 3013SOL    HW220673   3.793   2.364   5.781  0.6886  0.6841  0.3513
 3014SOL     OW20674   1.846   1.196  10.039 -0.5824  0.0359  0.3218
 3014SOL    HW120675   1.769   1.215   9.985 -0.5868  0.2671  0.4121
 3014SOL    HW220676   1.908   1.261  10.007  0.9205 -1.6731 -0.2425
 3015SOL     OW20677   3.707   4.509   5.036  0.7174 -0.5071  0.3388
 3015SOL    HW120678   3.615   4.534   5.043  1.2229  1.0028  1.5183
 3015SOL    HW220679   3.724   4.536   4.945  0.7590 -1.3612  0.0901
 3016SOL     OW20680   4.632   3.236   4.365 -0.3037 -0.1420 -0.2282
 3016SOL    HW120681   4.560   3.297   4.351 -1.9015 -2.2892 -1.3284
 3016SOL    HW220682   4.579   3.168   4.407  1.1418  0.4772  2.6206
 3017SOL     OW20683   0.017   0.832  13.162  0.2329  0.5315 -0.3662
 3017SOL    HW120684   0.087   0.895  13.182 -0.8634  1.1485  1.5484
 3017SOL    HW220685   4.708   0.875  13.089 -0.8712  1.9672  1.1557
 3018SOL     OW20686   1.695   1.621   2.027 -0.5956 -0.7066  0.3264
 3018SOL    HW120687   1.756   1.675   1.978  0.1402 -0.6272  1.3244
 3018SOL    HW220688   1.706   1.531   1.996 -0.6228 -1.1703  1.6284
 3019SOL     OW20689   1.185   3.300   7.425 -0.0047 -0.0974  0.1058
 3019SOL    HW120690   1.089   3.303   7.429  0.0584 -0.0234  1.6498
 3019SOL    HW220691   1.207   3.386   7.389 -2.6330 -0.1960 -1.7467
 3020SOL     OW20692   1.027   3.964   9.522 -0.1815 -0.5045 -0.0755
 3020SOL    HW120693   0.967   4.039   9.516 -0.6890 -0.7940  1.4566
 3020SOL    HW220694   0.963   3.892   9.528 -1.5020  0.7581  1.0006
 3021SOL     OW20695   1.649   2.352  13.669 -0.2135 -0.0785 -0.0181
 3021SOL    HW120696   1.713   2.284  13.648 -0.1087  0.1937 -0.6052
 3021SOL    HW220697   1.586   2.336  13.598 -0.3542 -2.2016  0.5988
 3022SOL     OW20698   3.297   1.660   0.743 -0.1172  0.0095 -0.0836
 3022SOL    HW120699   3.335   1.663   0.831  0.8930  0.1661 -0.5173
 3022SOL    HW220700   3.379   1.665   0.693 -1.2773  0.5347 -1.9386
 3023SOL     OW20701   4.245   2.400   1.126  0.4165  0.3828  0.0731
 3023SOL    HW120702   4.321   2.358   1.167 -0.1608 -1.0767 -0.3555
 3023SOL    HW220703   4.274   2.489   1.106  1.7835 -0.2866 -0.9238
 3024SOL     OW20704   3.567   3.557   4.906 -0.1733  0.7703  0.4912
 3024SOL    HW120705   3.498   3.510   4.860 -0.5747  0.5330  1.3477
 3024SOL    HW220706   3.523   3.578   4.988  1.7658  1.5802  1.3136
 3025SOL     OW20707   1.174   1.205  15.477  0.0416  0.3274  0.1783
 3025SOL    HW120708   1.166   1.190  15.383 -3.1976  0.4208  0.4460
 3025SOL    HW220709   1.178   1.116  15.513 -0.8004  0.3336  0.2790
 3026SOL     OW20710   2.739   4.487   8.273 -0.1211  0.4519  0.1869
 3026SOL    HW120711   2.704   4.576   8.281  1.0917  0.9422  0.1241
 3026SOL    HW220712   2.724   4.451   8.360  2.0253 -1.9771 -0.4421
 3027SOL     OW20713   4.651   0.862   5.450 -1.2063 -0.4124 -0.1911
 3027SOL    HW120714   4.707   0.787   5.472 -0.5871  0.5364  1.4521
 3027SOL    HW220715   4.650   0.874   5.355  0.1893 -0.5593 -0.2222
 3028SOL     OW20716   2.910   4.348   6.951  0.7489 -0.1910  0.1518
 3028SOL    HW120717   2.914   4.254   6.965  0.4608 -0.3215 -0.6327
 3028SOL    HW220718   2.867   4.380   7.031  1.4334  0.6505  0.1834
 3029SOL     OW20719   3.846   2.749  15.879  0.1469 -0.3332  0.1290
 3029SOL    HW120720   3.767   2.708  15.845 -0.2762  0.3156  0.3514
 3029SOL    HW220721   3.874   2.815  15.816 -0.4632 -1.2859 -1.1431
 3030SOL     OW20722   1.809   2.226  11.798  0.2607  0.1161  0.1368
 3030SOL    HW120723   1.838   2.309  11.760  0.1983 -0.2455 -0.7033
 3030SOL    HW220724   1.764   2.178  11.728  0.8093  0.3138 -0.3504
 3031SOL     OW20725   4.169   4.013  10.699 -0.0730 -0.1959  0.0122
 3031SOL    HW120726   4.170   3.944  10.765 -4.3313  0.5093  0.8065
 3031SOL    HW220727   4.123   4.087  10.738  0.3967 -1.3421  2.6841
 3032SOL     OW20728   3.219   1.867   9.276 -0.2584  0.1836  0.4372
 3032SOL    HW120729   3.307   1.853   9.239  0.4992  1.8671  1.6083
 3032SOL    HW220730   3.209   1.961   9.292 -0.2818  0.1664  0.5259
 3033SOL     OW20731   1.730   0.847   7.040 -0.1519  0.0735 -0.2263
 3033SOL    HW120732   1.708   0.913   7.106 -0.3217 -0.0833 -0.1264
 3033SOL    HW220733   1.823   0.846   7.062  0.1265  0.1663 -1.4257
 3034SOL     OW20734   1.264   3.389   3.994  0.0591  0.0764  0.4204
 3034SOL    HW120735   1.208   3.331   4.046  1.5968 -1.6225  0.1840
 3034SOL    HW220736   1.260   3.343   3.910  1.7236  1.8931 -0.6502
 3035SOL     OW20737   1.062   2.805  15.358 -0.3573  0.1211  0.0107
 3035SOL    HW120738   1.022   2.825  15.442  0.3300  1.9139 -0.1010
 3035SOL    HW220739   0.993   2.759  15.309 -0.8378 -1.1327  1.8681
 3036SOL     OW20740   4.593   0.392   2.584 -0.0852 -0.0493  0.0526
 3036SOL    HW120741   4.644   0.423   2.509  0.2583  1.8887  1.0646
 3036SOL    HW220742   4.668   0.376   2.641  0.0463  1.6750  0.3767
 3037SOL     OW20743   4.038   2.151   9.375  0.2371  0.8255 -0.2464
 3037SOL    HW120744   4.071   2.225   9.426 -1.8087  1.7965 -0.3434
 3037SOL    HW220745   4.105   2.142   9.307 -0.1408  0.4622 -0.5708
 3038SOL     OW20746   2.299   1.540  15.056  0.6021  0.4916 -0.5802
 3038SOL    HW120747   2.364   1.546  15.126 -0.3884  2.3058  0.1798
 3038SOL    HW220748   2.334   1.585  14.979 -0.8619  1.7774 -0.4920
 3039SOL     OW20749   2.100   0.766   9.531  0.1487  0.1691  0.0539
 3039SOL    HW120750   2.150   0.746   9.453 -2.2890  2.1278 -2.0055
 3039SOL    HW220751   2.009   0.782   9.504 -0.5600 -0.7209  1.8966
 3040SOL     OW20752   3.379   3.886   2.898  0.3844 -0.3049  0.0424
 3040SOL    HW120753   3.453   3.901   2.838  0.3955  0.6078  0.2806
 3040SOL    HW220754   3.380   3.790   2.899  1.4991 -0.3186 -1.5304
 3041SOL     OW20755   2.534   1.389   3.502 -0.6001  0.2044 -0.1278
 3041SOL    HW120756   2.508   1.457   3.565  2.8286  0.7454  0.6924
 3041SOL    HW220757   2.469   1.411   3.435  1.7479  0.0762 -2.4638
 3042SOL     OW20758   4.163   3.027   4.507  0.1442  0.0100  0.5579
 3042SOL    HW120759   4.175   3.111   4.550 -1.0590 -0.4053  1.7086
 3042SOL    HW220760   4.069   3.012   4.510 -0.4568  3.2573 -2.4036
 3043SOL     OW20761   3.617   4.044   7.648 -0.8275 -0.2712  0.5137
 3043SOL    HW120762   3.608   4.014   7.738  0.8549  1.7510  1.3545
 3043SOL    HW220763   3.611   4.138   7.662 -0.3243 -0.1835  0.1512
 3044SOL     OW20764   1.993   0.739   7.979  0.6227 -0.2130  0.1731
 3044SOL    HW120765   1.973   0.754   7.887  0.9273  2.6384  0.5776
 3044SOL    HW220766   1.909   0.706   8.010  1.7430 -1.4369  1.9589
 3045SOL     OW20767   1.216   3.206   6.300  0.1220 -0.6587 -0.2509
 3045SOL    HW120768   1.216   3.200   6.396  1.1956 -0.3268 -0.2257
 3045SOL    HW220769   1.203   3.299   6.284  0.9890 -0.4454  0.2626
 3046SOL     OW20770   0.562   2.966   3.592 -0.0260 -0.1124 -0.1524
 3046SOL    HW120771   0.469   2.988   3.585 -0.5598 -2.9470 -2.1911
 3046SOL    HW220772   0.584   3.018   3.669 -0.2903  1.2282 -0.9756
 3047SOL     OW20773   0.001   2.957  16.272  0.1066  0.5994  0.4438
 3047SOL    HW120774   0.023   2.908  16.351 -4.7257 -1.0915  0.7523
 3047SOL    HW220775   4.644   2.977  16.288 -0.0199 -0.3923  0.9567
 3048SOL     OW20776   4.214   0.887   5.870  0.7140 -0.3627  0.0441
 3048SOL    HW120777   4.245   0.971   5.836  1.0523 -0.4375  0.1622
 3048SOL    HW220778   4.186   0.914   5.958 -2.6699 -0.4581 -1.0252
 3049SOL     OW20779   4.618   4.329   3.908 -0.3926  0.2500  0.2591
 3049SOL    HW120780   4.527   4.356   3.917  0.0930  1.6965  0.8288
 3049SOL    HW220781   4.632   4.254   3.966  1.1980 -0.3673 -0.9070
 3050SOL     OW20782   1.510   1.547  12.313  0.1340  0.5153 -0.0592
 3050SOL    HW120783   1.439   1.590  12.266 -0.4805  0.4726  0.8093
 3050SOL    HW220784   1.543   1.477  12.257 -0.8967  0.2999 -0.3886
 3051SOL     OW20785   1.204   0.565   4.234  0.2540  0.4579 -0.4988
 3051SOL    HW120786   1.283   0.565   4.289 -1.0947  0.4653  1.4347
 3051SOL    HW220787   1.151   0.560   4.314 -0.0893  0.4728 -0.7273
 3052SOL     OW20788   3.674   1.687   2.568 -0.1680 -0.1364  0.1034
 3052SOL    HW120789   3.714   1.676   2.481 -0.9474 -1.0469 -0.1425
 3052SOL    HW220790   3.584   1.709   2.545  0.8231  3.0960 -0.7205
 3053SOL     OW20791   2.196   1.663   8.903  0.3609 -0.0375 -0.3962
 3053SOL    HW120792   2.231   1.577   8.925  0.3237  0.5392  1.8427
 3053SOL    HW220793   2.265   1.695   8.845  0.4522  1.5871  0.6228
 3054SOL     OW20794   4.519   0.992  10.581 -0.1208 -0.2566 -0.0715
 3054SOL    HW120795   4.470   1.040  10.514  0.7590 -1.4297 -1.5456
 3054SOL    HW220796   4.589   1.051  10.608  0.4430 -1.1346  0.3589
 3055SOL     OW20797   2.690   0.334   5.018  0.2894 -0.3673 -0.0261
 3055SOL    HW120798   2.614   0.313   4.964 -1.6573  2.4017  1.6479
 3055SOL    HW220799   2.646   0.342   5.102 -1.3459 -1.5839 -0.7691
 3056SOL     OW20800   0.513   2.117   6.900  0.4256  0.5153  0.2137
 3056SOL    HW120801   0.477   2.114   6.812 -1.2609  1.0883  0.8950
 3056SOL    HW220802   0.466   2.040   6.932  1.7644 -0.5626 -0.3990
 3057SOL     OW20803   3.363   0.024   6.193  0.1151  0.4251 -0.2937
 3057SOL    HW120804   3.436   4.700   6.210 -1.6702 -1.6254  0.2577
 3057SOL    HW220805   3.370   0.017   6.098 -0.9780  0.6314 -0.3840
 3058SOL     OW20806   0.639   3.115   4.194  0.4951 -0.2544 -0.4177
 3058SOL    HW120807   0.626   3.192   4.250 -1.1271  0.0610 -1.2384
 3058SOL    HW220808   0.570   3.140   4.132 -1.4887  0.2385  1.9918
 3059SOL     OW20809   0.714   2.519   7.241 -0.0154 -0.2365  0.4637
 3059SOL    HW120810   0.640   2.525   7.180  0.9481  1.1931 -0.5616
 3059SOL    HW220811   0.686   2.558   7.324 -1.7362 -1.2046  0.3518
 3060SOL     OW20812   1.628   2.735   6.753 -0.1207  0.2696  0.0490
 3060SOL    HW120813   1.606   2.817   6.798 -2.1078 -0.2157 -0.0590
 3060SOL    HW220814   1.684   2.693   6.818 -0.8746  1.7360  1.6464
 3061SOL     OW20815   2.686   1.777   9.031  0.5411  0.0836  0.3489
 3061SOL    HW120816   2.726   1.698   9.066  0.9035  0.3160  0.4671
 3061SOL    HW220817   2.623   1.805   9.097 -0.6853  2.2644 -1.7225
 3062SOL     OW20818   1.172   2.421   7.438 -0.2274 -0.6938 -0.0108
 3062SOL    HW120819   1.122   2.342   7.461 -1.4207  0.2013  0.4223
 3062SOL    HW220820   1.099   2.479   7.416  0.3723  0.8349  2.0683
 3063SOL     OW20821   4.166   3.282  12.360  0.2683 -0.3701  0.5917
 3063SOL    HW120822   4.230   3.237  12.305 -0.4373  0.4270 -0.8640
 3063SOL    HW220823   4.177   3.373  12.334 -1.5655 -0.8901 -1.9847
 3064SOL     OW20824   2.272   3.966  13.115 -0.4696  0.0352 -0.3758
 3064SOL    HW120825   2.362   3.936  13.130  0.3114  0.8828 -3.3176
 3064SOL    HW220826   2.288   4.061  13.109 -1.8462  0.3101  0.4452
 3065SOL     OW20827   4.375   4.377   7.882 -0.4613 -0.4010  0.3621
 3065SOL    HW120828   4.296   4.404   7.836  0.5538 -0.1165 -1.2370
 3065SOL    HW220829   4.368   4.425   7.964 -0.8814 -2.5829  1.5812
 3066SOL     OW20830   3.028   1.925   6.656 -0.3941 -0.9620 -0.3879
 3066SOL    HW120831   3.090   1.912   6.584  2.4009 -1.8609  2.1260
 3066SOL    HW220832   3.079   1.960   6.730  0.8949 -0.8346 -1.3239
 3067SOL     OW20833   1.501   3.274  16.859  0.2107  0.0858  0.0456
 3067SOL    HW120834   1.470   3.363  16.877  1.2362  0.0259  2.1270
 3067SOL    HW220835   1.574   3.283  16.797  0.8823  1.5857  1.0404
 3068SOL     OW20836   3.749   4.211   5.589  0.0475 -0.2294  0.2867
 3068SOL    HW120837   3.693   4.169   5.524  0.2654  1.3889 -0.9443
 3068SOL    HW220838   3.819   4.235   5.528 -1.1483 -0.2663 -1.0867
 3069SOL     OW20839   4.007   2.050  11.363  0.5754  0.3549 -0.2776
 3069SOL    HW120840   4.100   2.063  11.383  0.6740 -1.6323  0.5787
 3069SOL    HW220841   3.996   1.965  11.407 -1.8114  0.3361 -0.8891
 3070SOL     OW20842   1.519   4.029  10.323 -0.1276  0.1785 -0.3533
 3070SOL    HW120843   1.573   3.994  10.252 -1.2536  1.2620 -1.7454
 3070SOL    HW220844   1.473   3.949  10.350  0.4995 -0.4517 -1.1465
 3071SOL     OW20845   1.258   1.947   2.423 -0.1314  0.2616  0.4701
 3071SOL    HW120846   1.326   1.911   2.480 -1.1330 -1.2851  0.6672
 3071SOL    HW220847   1.174   1.924   2.463 -0.0923 -0.0223  0.3836
 3072SOL     OW20848   2.713   1.619  12.526  0.5003  0.2593 -0.4122
 3072SOL    HW120849   2.664   1.694  12.493  2.9877  0.8814 -2.6795
 3072SOL    HW220850   2.711   1.564  12.447 -1.7862 -0.3512  0.0652
 3073SOL     OW20851   0.802   4.402   8.176 -0.0668 -0.2222 -0.1068
 3073SOL    HW120852   0.768   4.313   8.163 -2.4730  0.8964 -1.4599
 3073SOL    HW220853   0.721   4.452   8.164 -0.5051 -1.4305 -2.1227
 3074SOL     OW20854   2.835   2.494  13.866  0.3314  0.4664  0.0932
 3074SOL    HW120855   2.748   2.514  13.899  0.3065 -1.2445  1.0352
 3074SOL    HW220856   2.820   2.526  13.777  1.1407 -1.3963 -0.7307
 3075SOL     OW20857   3.718   3.645   6.431  0.7520  0.2501  0.0009
 3075SOL    HW120858   3.721   3.726   6.380 -0.9690  0.1757 -0.2033
 3075SOL    HW220859   3.637   3.613   6.393  0.1583  1.2635  0.3888
 3076SOL     OW20860   3.622   0.705   7.169 -0.1498  0.4175  0.3232
 3076SOL    HW120861   3.650   0.797   7.166 -2.5267  0.9685 -4.0785
 3076SOL    HW220862   3.667   0.671   7.092 -2.1193 -0.6361 -0.3505
 3077SOL     OW20863   2.669   4.458   6.481 -0.7920  0.2932 -0.0653
 3077SOL    HW120864   2.693   4.523   6.548  0.1972 -1.2019  1.0183
 3077SOL    HW220865   2.592   4.508   6.453  0.1575 -0.1081 -3.4177
 3078SOL     OW20866   0.323   3.408   4.250  0.3340  0.0041 -0.0198
 3078SOL    HW120867   0.413   3.379   4.264  0.5647 -0.6448 -2.8553
 3078SOL    HW220868   0.321   3.459   4.330  0.0902 -1.2559  0.7767
 3079SOL     OW20869   1.090   3.068   5.941  0.2988 -0.5501 -0.7786
 3079SOL    HW120870   0.996   3.075   5.959  0.4928  0.0256  0.0066
 3079SOL    HW220871   1.118   3.159   5.944  1.2962 -0.8883  0.1978
 3080SOL     OW20872   0.034   0.581   3.920 -0.5132 -0.3829 -0.0362
 3080SOL    HW120873   0.083   0.518   3.867 -1.3568 -0.5964 -0.5734
 3080SOL    HW220874   0.103   0.602   3.982 -1.4702  0.1825  0.8301
 3081SOL     OW20875   4.029   3.932  10.094  0.1230  0.2609 -0.3034
 3081SOL    HW120876   4.065   3.950  10.181 -3.5363  1.0198  1.0261
 3081SOL    HW220877   3.997   3.843  10.110 -0.4260  0.8724  2.0735
 3082SOL     OW20878   2.170   3.872   7.227  0.0255  0.2997  0.1438
 3082SOL    HW120879   2.200   3.943   7.171 -0.4743  1.9676  1.9712
 3082SOL    HW220880   2.240   3.863   7.292  1.1563 -0.0426 -1.1246
 3083SOL     OW20881   0.961   4.259  10.353 -0.5619 -0.8693  0.3113
 3083SOL    HW120882   1.022   4.189  10.328 -0.7457 -1.2142  0.8150
 3083SOL    HW220883   0.932   4.229  10.439  0.8140 -0.2534  0.9891
 3084SOL     OW20884   4.585   4.262   1.600 -0.0160  0.0034  0.2763
 3084SOL    HW120885   4.640   4.311   1.537 -0.0465  0.2761  0.4609
 3084SOL    HW220886   4.561   4.333   1.660  0.2564  0.1517  0.2135
 3085SOL     OW20887   3.751   2.915  10.129  0.5869 -0.4379  0.0150
 3085SOL    HW120888   3.666   2.923  10.173  1.1745  1.4108  0.8016
 3085SOL    HW220889   3.722   2.891  10.041 -0.2895  0.8423 -0.0417
 3086SOL     OW20890   0.065   1.626   4.347 -0.2224 -0.7180  0.0616
 3086SOL    HW120891   0.095   1.564   4.414  0.7927 -0.3833 -0.0867
 3086SOL    HW220892   4.712   1.592   4.335  0.4919 -2.2346 -0.9260
 3087SOL     OW20893   4.534   0.266   4.376  0.0799 -0.1600  0.3641
 3087SOL    HW120894   4.499   0.210   4.307  1.2426 -0.8461  0.3248
 3087SOL    HW220895   4.466   0.250   4.442  0.8965 -2.2904  0.6880
 3088SOL     OW20896   1.026   1.864   5.274 -0.3167  0.2690 -0.6181
 3088SOL    HW120897   0.955   1.801   5.279 -1.9539  2.1163 -0.8129
 3088SOL    HW220898   1.090   1.824   5.334 -1.7229  0.0687  0.7360
 3089SOL     OW20899   2.098   3.158  13.004 -0.0265 -0.3150  0.1573
 3089SOL    HW120900   2.186   3.169  13.041 -0.1983  0.6985  0.2711
 3089SOL    HW220901   2.045   3.117  13.073  0.3983  1.4945  1.5584
 3090SOL     OW20902   4.046   1.516   0.614 -0.2094  1.0197  0.2545
 3090SOL    HW120903   3.987   1.473   0.675  0.9784  0.6947  1.1911
 3090SOL    HW220904   3.984   1.509   0.542  0.4056  3.9335 -0.5925
 3091SOL     OW20905   4.036   1.718   7.187  0.5642  0.5320 -0.5866
 3091SOL    HW120906   3.945   1.729   7.159  0.2814 -2.0349 -0.6445
 3091SOL    HW220907   4.054   1.805   7.223  0.6623 -0.5964  2.0730
 3092SOL     OW20908   3.202   2.957   6.835  0.3368 -0.5058  0.4551
 3092SOL    HW120909   3.124   3.007   6.811  1.6537  0.9211 -0.7831
 3092SOL    HW220910   3.163   2.923   6.916 -0.1364  0.1161  0.4906
 3093SOL     OW20911   2.585   3.782   6.099  0.9510  0.4548  1.0811
 3093SOL    HW120912   2.623   3.695   6.093 -0.2782 -0.2054  2.8626
 3093SOL    HW220913   2.634   3.812   6.176  3.2512 -0.0568 -0.1757
 3094SOL     OW20914   2.522   3.586   9.369  0.1758 -0.6118 -0.0929
 3094SOL    HW120915   2.524   3.660   9.429 -1.4039  1.7155 -2.9363
 3094SOL    HW220916   2.434   3.583   9.333  0.2638 -0.1656 -0.3340
 3095SOL     OW20917   0.290   3.152  12.440 -0.2071 -0.1096 -0.2974
 3095SOL    HW120918   0.368   3.103  12.415  0.2965  0.4360  0.1999
 3095SOL    HW220919   0.219   3.090  12.423 -1.1845  0.9298 -0.0351
 3096SOL     OW20920   1.067   1.740   6.496 -0.0457  0.2899 -0.0124
 3096SOL    HW120921   1.060   1.762   6.403  0.5151  0.1313 -0.0901
 3096SOL    HW220922   1.104   1.815   6.541  0.4744  0.4812 -0.7541
 3097SOL     OW20923   3.702   4.519   6.928  0.6716  0.0874 -0.6707
 3097SOL    HW120924   3.720   4.457   6.999  1.9065  1.5418  0.2731
 3097SOL    HW220925   3.608   4.499   6.922 -0.0557  3.2189  0.3731
 3098SOL     OW20926   2.674   4.210   8.589  0.0122 -0.4318  0.1632
 3098SOL    HW120927   2.630   4.214   8.505  0.4187  1.9717  0.0750
 3098SOL    HW220928   2.685   4.305   8.595  0.2738 -0.3941 -0.9507
 3099SOL     OW20929   0.505   2.400   7.992 -0.5073  0.0228  1.0909
 3099SOL    HW120930   0.535   2.405   8.083 -0.2434  1.7043  0.9171
 3099SOL    HW220931   0.466   2.488   7.987 -0.2717 -0.0876 -3.1158
 3100SOL     OW20932   3.536   2.022   5.190  0.4959 -0.1464 -1.0678
 3100SOL    HW120933   3.506   2.050   5.277  3.3379 -2.4194  0.6460
 3100SOL    HW220934   3.594   1.948   5.209  0.1607  0.1828  1.2991
 3101SOL     OW20935   0.787   1.114  13.365  0.1362  0.5389 -0.2145
 3101SOL    HW120936   0.852   1.068  13.313  0.7913  1.8184 -0.5383
 3101SOL    HW220937   0.847   1.144  13.433  1.3350  1.4149 -1.6619
 3102SOL     OW20938   2.771   2.537   7.896  0.1646  0.6754  0.7769
 3102SOL    HW120939   2.774   2.542   7.991  0.5524 -1.0241  0.8676
 3102SOL    HW220940   2.865   2.531   7.883 -0.1372 -0.8996 -0.7911
 3103SOL     OW20941   0.365   2.915   3.269 -0.2619  0.3331 -0.2689
 3103SOL    HW120942   0.330   2.993   3.226 -0.2262  0.9056  0.7371
 3103SOL    HW220943   0.416   2.963   3.334 -0.5229  2.3607 -1.5540
 3104SOL     OW20944   3.976   2.343  11.483  0.5215  0.8693  0.1612
 3104SOL    HW120945   4.059   2.318  11.522  0.6132 -0.3463 -0.8145
 3104SOL    HW220946   3.917   2.299  11.545  0.0231  0.8676 -0.3124
 3105SOL     OW20947   0.059   3.473   9.497 -0.2259 -0.3623 -0.5558
 3105SOL    HW120948   0.099   3.403   9.548  1.3789 -0.6616 -2.2251
 3105SOL    HW220949   4.707   3.489   9.532  1.4111  1.7460  2.6295
 3106SOL     OW20950   4.324   0.652   6.447  0.3887 -0.8299 -0.1987
 3106SOL    HW120951   4.269   0.574   6.435  1.9696 -1.9978  0.1862
 3106SOL    HW220952   4.380   0.629   6.520 -0.7023 -1.1559  0.5433
 3107SOL     OW20953   0.259   3.505   6.446  0.1243 -0.0102  0.1336
 3107SOL    HW120954   0.208   3.577   6.483 -1.1951 -0.8802  0.0179
 3107SOL    HW220955   0.298   3.468   6.525 -3.2142  0.8474  2.1872
 3108SOL     OW20956   3.244   3.222  14.078  0.0001  0.9769  0.3525
 3108SOL    HW120957   3.320   3.185  14.034 -1.1387  1.4427 -2.0124
 3108SOL    HW220958   3.229   3.156  14.146 -0.5945 -1.1625 -1.8304
 3109SOL     OW20959   3.496   3.371  17.114  0.0573  0.0859 -0.5170
 3109SOL    HW120960   3.418   3.419  17.140 -0.1277 -0.7756  0.5174
 3109SOL    HW220961   3.556   3.374  17.188  0.9306 -2.0328 -1.1263
 3110SOL     OW20962   2.180   1.562   7.311  0.3183 -0.7319 -0.0679
 3110SOL    HW120963   2.255   1.525   7.356  0.5045  0.6010  0.7239
 3110SOL    HW220964   2.103   1.524   7.354  1.5835 -1.0642  1.8620
 3111SOL     OW20965   0.407   2.542  14.781  0.0127  0.4922 -0.5720
 3111SOL    HW120966   0.425   2.469  14.722 -1.3271 -1.9222  2.0436
 3111SOL    HW220967   0.312   2.540  14.782 -0.0030  1.7454  0.1868
 3112SOL     OW20968   2.322   0.488   2.279  0.2275  0.5190 -0.1702
 3112SOL    HW120969   2.372   0.555   2.325  0.0090  1.0246 -0.6648
 3112SOL    HW220970   2.236   0.501   2.320  0.2491  1.2926 -0.3646
 3113SOL     OW20971   3.692   3.099   2.149  0.3305 -0.4831 -0.2553
 3113SOL    HW120972   3.754   3.071   2.216  1.5215 -1.2739 -1.6939
 3113SOL    HW220973   3.609   3.100   2.197  1.4959  0.7179  1.6798
 3114SOL     OW20974   3.017   0.049   0.776 -1.2893 -0.3083 -0.1432
 3114SOL    HW120975   3.064   0.131   0.788 -0.7489 -0.8266  1.3483
 3114SOL    HW220976   2.943   0.086   0.728 -1.6642 -1.4885 -0.4755
 3115SOL     OW20977   0.378   2.624   2.264  0.4036 -0.2354 -0.2988
 3115SOL    HW120978   0.283   2.632   2.259  0.2372 -2.0728 -0.3349
 3115SOL    HW220979   0.398   2.664   2.349 -2.2756 -0.3062  0.3491
 3116SOL     OW20980   2.910   0.849   1.088  0.1772  0.0677  0.2445
 3116SOL    HW120981   2.986   0.816   1.041 -0.8533 -0.7654 -0.8266
 3116SOL    HW220982   2.940   0.938   1.105  0.3461 -0.2559  1.6422
 3117SOL     OW20983   4.621   2.883   2.284 -0.0444  0.6346  0.3437
 3117SOL    HW120984   4.600   2.911   2.194 -0.5419 -0.1310  0.2280
 3117SOL    HW220985   4.613   2.969   2.327 -0.2798 -0.1195  1.7902
 3118SOL     OW20986   0.780   4.204   0.585 -0.5462  0.1686  0.4515
 3118SOL    HW120987   0.830   4.285   0.575  2.4238 -1.9409 -1.6187
 3118SOL    HW220988   0.694   4.246   0.581  0.0213  1.3791  1.0332
 3119SOL     OW20989   1.699   2.222   5.090  0.2591  0.2470  0.3400
 3119SOL    HW120990   1.768   2.246   5.029 -0.3924 -0.7174 -0.7827
 3119SOL    HW220991   1.623   2.273   5.062  0.5995 -0.0787 -1.1743
 3120SOL     OW20992   2.432   2.450   8.200  0.1205 -0.4291 -0.0418
 3120SOL    HW120993   2.522   2.465   8.228  0.4254 -1.2682 -0.5832
 3120SOL    HW220994   2.404   2.366   8.236  2.6523 -0.2797  2.2422
 3121SOL     OW20995   0.446   2.563  15.060 -0.3423  0.7074 -0.1987
 3121SOL    HW120996   0.455   2.564  14.965  1.2949  0.7970 -0.0367
 3121SOL    HW220997   0.361   2.606  15.073 -0.1209  1.0298  0.1688
 3122SOL     OW20998   1.057   3.774   5.483 -0.1794  0.2249 -0.2287
 3122SOL    HW120999   0.998   3.802   5.412  0.2691  0.8646 -0.3493
 3122SOL    HW221000   0.989   3.740   5.542  0.2381  1.2580  0.8474
 3123SOL     OW21001   3.919   0.137   7.304  1.0534  0.1684  0.5439
 3123SOL    HW121002   3.865   0.082   7.247  1.4559 -0.1785  0.5001
 3123SOL    HW221003   3.989   0.072   7.311  0.7223 -0.2014  0.4692
 3124SOL     OW21004   4.586   4.371   9.777  0.0088  0.0012  0.6121
 3124SOL    HW121005   4.498   4.333   9.782 -0.4388  0.9172 -0.2813
 3124SOL    HW221006   4.638   4.308   9.827  0.8286 -0.9320 -1.4460
 3125SOL     OW21007   3.563   2.033   6.014  0.1250  0.3630 -0.4550
 3125SOL    HW121008   3.569   2.005   6.106 -0.2102  2.7489  0.2846
 3125SOL    HW221009   3.658   2.032   6.001  0.1263  3.2175 -0.6143
 3126SOL     OW21010   3.429   1.813   6.694 -0.2902 -0.7530 -0.2911
 3126SOL    HW121011   3.523   1.794   6.685  0.3655  1.9400  1.0884
 3126SOL    HW221012   3.416   1.874   6.621 -1.5155  2.1586  2.3929
 3127SOL     OW21013   0.807   3.094   7.675  0.0517  0.7924  0.4894
 3127SOL    HW121014   0.834   3.041   7.600 -0.3958  0.4315  0.5858
 3127SOL    HW221015   0.788   3.021   7.733  0.3366  0.2013 -0.1680
 3128SOL     OW21016   0.952   2.903   3.572  0.4919  0.0050 -0.2642
 3128SOL    HW121017   0.991   2.909   3.659 -0.3254 -0.5958  0.1351
 3128SOL    HW221018   1.016   2.953   3.521 -0.1027 -0.2494 -1.2535
 3129SOL     OW21019   2.421   0.385   5.883 -0.4723  1.0142  0.7023
 3129SOL    HW121020   2.464   0.438   5.951  1.9124  1.6220 -1.2797
 3129SOL    HW221021   2.462   0.302   5.906  0.2317  1.0002 -0.6273
 3130SOL     OW21022   0.553   4.297   9.216 -0.1245 -0.4753  0.3672
 3130SOL    HW121023   0.643   4.314   9.187 -0.5934 -0.8975 -1.3330
 3130SOL    HW221024   0.559   4.303   9.311  0.2100  0.2896  0.2984
 3131SOL     OW21025   4.005   4.048   8.553 -0.0852 -0.1065 -0.1912
 3131SOL    HW121026   4.004   3.969   8.607 -2.5378 -0.5238 -0.8255
 3131SOL    HW221027   3.943   4.108   8.594 -0.0904 -1.1949  1.3945
 3132SOL     OW21028   3.696   3.530   2.264  0.6055  0.1251  0.0760
 3132SOL    HW121029   3.605   3.501   2.263  1.1892 -1.6820 -0.0848
 3132SOL    HW221030   3.720   3.480   2.342  0.7047  0.9250  0.5549
 3133SOL     OW21031   2.019   3.034   5.747 -0.7463 -0.0097 -0.4974
 3133SOL    HW121032   2.050   3.083   5.671  0.7525 -1.7352 -0.9908
 3133SOL    HW221033   1.924   3.040   5.738 -1.1060 -3.4310  0.7599
 3134SOL     OW21034   0.801   0.166   6.973  0.5861  0.0012 -0.4144
 3134SOL    HW121035   0.832   0.216   6.898 -0.5360  1.3787  0.0343
 3134SOL    HW221036   0.870   0.188   7.036 -0.4056 -1.0583  1.0313
 3135SOL     OW21037   1.078   0.481   4.465  0.1445 -0.0237 -0.8108
 3135SOL    HW121038   1.100   0.515   4.551  0.1317 -1.1933 -0.3449
 3135SOL    HW221039   1.001   0.427   4.484  0.3051 -0.7430 -2.1629
 3136SOL     OW21040   1.303   0.192   4.132 -0.1507  0.5577 -0.2548
 3136SOL    HW121041   1.298   0.285   4.109 -1.3609  0.8907  1.3263
 3136SOL    HW221042   1.351   0.191   4.215  1.5060  0.0268 -1.2326
 3137SOL     OW21043   0.904   3.871   3.923  0.3718 -0.2833  0.3081
 3137SOL    HW121044   0.931   3.789   3.964  2.1099  0.8907  1.5067
 3137SOL    HW221045   0.878   3.842   3.835  1.5552  0.5029 -0.3005
 3138SOL     OW21046   0.911   0.053   1.840  0.3208  0.2340 -0.4929
 3138SOL    HW121047   0.831   0.015   1.877  1.1312 -1.9830 -1.0035
 3138SOL    HW221048   0.876   0.129   1.794 -1.0836  0.0800  0.3145
 3139SOL     OW21049   1.506   1.843   2.569  0.1639 -0.3097  0.6945
 3139SOL    HW121050   1.548   1.799   2.496 -1.2839  0.8282 -0.8327
 3139SOL    HW221051   1.562   1.917   2.594  1.9560 -1.2989 -0.4563
 3140SOL     OW21052   3.660   0.147  12.157 -0.1786 -0.2971 -0.2751
 3140SOL    HW121053   3.591   0.209  12.181  0.2129  0.1767 -0.3945
 3140SOL    HW221054   3.718   0.201  12.104 -0.4925 -0.3988 -0.7267
 3141SOL     OW21055   0.760   1.054   8.675  0.3821 -0.0364 -0.2925
 3141SOL    HW121056   0.703   1.071   8.749  0.9801 -0.5386  0.2871
 3141SOL    HW221057   0.781   0.963   8.700 -1.4455 -0.1000  0.9750
 3142SOL     OW21058   2.158   2.546   2.873 -0.2448  0.4212 -0.5272
 3142SOL    HW121059   2.106   2.481   2.920  1.0399 -0.2800 -0.0544
 3142SOL    HW221060   2.088   2.592   2.829 -0.3754 -1.3631 -2.1983
 3143SOL     OW21061   0.604   1.040   5.939 -0.2374  0.4909 -0.7056
 3143SOL    HW121062   0.582   0.955   5.977  3.2126 -0.6147 -1.2511
 3143SOL    HW221063   0.553   1.105   5.989 -0.2895  0.6240 -0.9330
 3144SOL     OW21064   2.136   0.403   2.458  0.3263  0.3270 -0.4661
 3144SOL    HW121065   2.100   0.386   2.545  2.1205 -1.5204 -0.0935
 3144SOL    HW221066   2.078   0.356   2.399  0.8624  0.1255 -0.8271
 3145SOL     OW21067   2.814   4.556  17.575 -0.0789 -0.7159 -0.0885
 3145SOL    HW121068   2.730   4.525  17.609 -0.0612 -1.2046 -0.4802
 3145SOL    HW221069   2.867   4.552  17.654  0.1094 -2.2726 -0.2945
 3146SOL     OW21070   1.749   3.851   7.749 -0.4259  0.3658 -0.4203
 3146SOL    HW121071   1.842   3.843   7.727 -0.3806 -0.1376 -0.0531
 3146SOL    HW221072   1.737   3.786   7.818  0.2124  1.6556  0.9063
 3147SOL     OW21073   4.721   2.215  17.090 -0.1133 -0.2648 -0.7496
 3147SOL    HW121074   4.658   2.231  17.021 -1.1536 -0.5552  0.1253
 3147SOL    HW221075   0.068   2.252  17.058 -1.0487  2.5082  0.0679
 3148SOL     OW21076   3.093   2.542   7.824 -0.1492 -0.1109  0.3682
 3148SOL    HW121077   3.097   2.564   7.731  0.2623  0.5462  0.5365
 3148SOL    HW221078   3.123   2.451   7.821 -0.2090 -0.0657 -1.3644
 3149SOL     OW21079   2.659   0.660   2.005 -0.1552 -0.7935 -0.1883
 3149SOL    HW121080   2.678   0.651   1.911 -1.2093  0.5340 -0.5192
 3149SOL    HW221081   2.568   0.688   2.004 -0.0313 -0.3807  0.1300
 3150SOL     OW21082   3.213   3.734   6.040 -0.1069  0.5189 -0.1064
 3150SOL    HW121083   3.262   3.707   5.963 -0.0714  1.7252 -0.5029
 3150SOL    HW221084   3.132   3.699   6.005  0.6970  0.2242 -1.6575
 3151SOL     OW21085   2.111   2.103   7.155 -0.4603 -0.2956  0.4851
 3151SOL    HW121086   2.127   2.128   7.246  0.0963  1.0580  0.0135
 3151SOL    HW221087   2.077   2.185   7.121  0.8492 -0.9306 -2.3137
 3152SOL     OW21088   2.547   4.077   7.677  0.7681  0.1590 -0.1094
 3152SOL    HW121089   2.629   4.037   7.707  1.0318 -0.2793 -1.4543
 3152SOL    HW221090   2.550   4.057   7.584  0.0046 -0.5532  0.0252
 3153SOL     OW21091   2.285   3.937   3.632  0.3342  0.4469 -0.4735
 3153SOL    HW121092   2.351   4.001   3.657  2.3169 -0.6788 -2.9390
 3153SOL    HW221093   2.203   3.987   3.625  0.4518  0.3034 -2.6600
 3154SOL     OW21094   2.545   0.867   3.825 -0.2962 -0.3189  0.4994
 3154SOL    HW121095   2.629   0.899   3.860 -0.9090  2.0961 -0.3120
 3154SOL    HW221096   2.538   0.918   3.745 -1.4840 -2.4646 -0.7791
 3155SOL     OW21097   4.095   0.476   2.967  0.5956  0.4175 -0.5500
 3155SOL    HW121098   4.108   0.517   3.052  0.5351 -2.5828  0.9135
 3155SOL    HW221099   4.170   0.418   2.956 -0.7023 -1.5741  1.2630
 3156SOL     OW21100   4.375   1.846   8.117  0.6934 -0.7345 -0.4384
 3156SOL    HW121101   4.332   1.931   8.104 -0.7823 -0.8450  3.6905
 3156SOL    HW221102   4.345   1.830   8.206  0.5100  2.7194  0.1186
 3157SOL     OW21103   3.412   3.481   7.602  0.2364  0.0961  0.2607
 3157SOL    HW121104   3.359   3.427   7.543 -0.0311  1.4605 -0.7493
 3157SOL    HW221105   3.364   3.479   7.685 -0.2151  2.0767  0.0543
 3158SOL     OW21106   1.460   2.380   2.304  0.3824 -0.2513  0.3486
 3158SOL    HW121107   1.372   2.416   2.315 -0.1035 -0.7312 -2.0234
 3158SOL    HW221108   1.445   2.313   2.237 -0.9684  2.9811 -2.5239
 3159SOL     OW21109   1.849   1.370   9.742 -0.5201  0.0541  0.3373
 3159SOL    HW121110   1.778   1.427   9.770 -1.6090 -1.1988  0.1509
 3159SOL    HW221111   1.908   1.380   9.817 -1.0380  0.2115  0.7238
 3160SOL     OW21112   2.720   4.078   5.411 -0.3739 -0.2476  0.4577
 3160SOL    HW121113   2.775   4.044   5.482  2.4396  1.9963 -0.6349
 3160SOL    HW221114   2.650   4.013   5.412  1.6851 -2.4613 -0.9238
 3161SOL     OW21115   1.692   3.352   5.424  0.2006  0.7301  0.1438
 3161SOL    HW121116   1.601   3.348   5.452  0.4323  0.5603  0.8741
 3161SOL    HW221117   1.732   3.362   5.510  0.3094  0.2866  0.1462
 3162SOL     OW21118   1.373   0.915   4.102 -0.3408 -0.0510  0.3818
 3162SOL    HW121119   1.282   0.944   4.094 -0.0880  0.7197  0.2706
 3162SOL    HW221120   1.407   1.003   4.120 -2.0766  1.1736 -2.3138
 3163SOL     OW21121   4.421   3.197   4.109 -0.2100  0.2528 -0.2925
 3163SOL    HW121122   4.420   3.274   4.166 -0.6891 -1.2582  1.7516
 3163SOL    HW221123   4.401   3.132   4.177 -0.5795  0.6220 -0.0508
 3164SOL     OW21124   1.057   0.611  12.940 -0.3478  0.0070  0.8239
 3164SOL    HW121125   1.055   0.536  12.881  1.9603  0.2212  0.4496
 3164SOL    HW221126   1.150   0.630  12.929 -0.5490  0.2270 -0.4411
 3165SOL     OW21127   4.437   4.186   5.148  0.1543  0.4117 -0.1952
 3165SOL    HW121128   4.457   4.097   5.178 -0.0598  0.4383  0.0271
 3165SOL    HW221129   4.468   4.225   5.229  0.5123  1.7929 -1.0046
 3166SOL     OW21130   1.418   0.761   2.656  0.3186  0.4711 -0.0319
 3166SOL    HW121131   1.462   0.705   2.721  1.1527  0.2762 -0.7624
 3166SOL    HW221132   1.430   0.713   2.574  2.1263  1.9403 -0.6284
 3167SOL     OW21133   0.743   0.843  12.753 -0.3888 -0.5949  0.0913
 3167SOL    HW121134   0.740   0.934  12.725  0.0698 -0.1530  1.4697
 3167SOL    HW221135   0.758   0.861  12.846  3.3869 -2.0404 -0.2347
 3168SOL     OW21136   4.731   0.051   4.392  0.5446  0.5754 -0.5810
 3168SOL    HW121137   4.650   0.102   4.393  1.1319  1.4548  1.6975
 3168SOL    HW221138   4.694   4.713   4.441  0.2630  0.3628 -1.1108
 3169SOL     OW21139   4.562   2.018   2.947 -0.1208 -0.2128  0.0873
 3169SOL    HW121140   4.597   1.985   3.030 -2.2350  0.5069  1.2816
 3169SOL    HW221141   4.517   1.946   2.903 -2.5609  1.4892 -0.2093
 3170SOL     OW21142   2.468   0.816   3.352 -0.6399  0.5091  0.2485
 3170SOL    HW121143   2.438   0.738   3.304  0.6655 -0.3474  0.8428
 3170SOL    HW221144   2.471   0.881   3.282 -1.2590 -0.5625 -0.7863
 3171SOL     OW21145   3.937   3.580   5.232  0.1378 -0.3979  0.1592
 3171SOL    HW121146   4.000   3.548   5.297  0.3291  0.1748  0.2632
 3171SOL    HW221147   3.992   3.565   5.155 -0.4290 -3.0313  0.2748
 3172SOL     OW21148   2.005   1.067   4.228 -0.0573 -0.1899 -0.1855
 3172SOL    HW121149   2.091   1.100   4.254  0.7647 -1.1678 -1.6670
 3172SOL    HW221150   2.030   0.978   4.205 -0.7004 -0.7496  1.2692
 3173SOL     OW21151   3.439   3.405   9.298 -0.3505 -0.7146 -0.1711
 3173SOL    HW121152   3.513   3.352   9.270  1.2294  1.5531 -0.2583
 3173SOL    HW221153   3.454   3.432   9.389 -2.8909  2.0842 -0.5807
 3174SOL     OW21154   1.286   3.514   5.542  0.9350 -0.0545 -0.0345
 3174SOL    HW121155   1.295   3.608   5.532  0.0481 -0.0374 -0.7418
 3174SOL    HW221156   1.297   3.506   5.636 -1.2074 -0.2893  0.1973
 3175SOL     OW21157   1.684   0.085   3.166 -0.1273 -0.0835  0.2243
 3175SOL    HW121158   1.614   0.141   3.200 -0.3469  0.3919 -1.0215
 3175SOL    HW221159   1.747   0.106   3.235 -0.4184 -0.2366  0.5352
 3176SOL     OW21160   3.108   3.393   9.877 -0.2606  0.0600  0.7231
 3176SOL    HW121161   3.043   3.456   9.910  0.5521  0.9761  0.5677
 3176SOL    HW221162   3.094   3.309   9.920  0.3352  0.2650  1.3110
 3177SOL     OW21163   2.148   0.310  16.362 -0.4472  0.1437 -0.1473
 3177SOL    HW121164   2.186   0.242  16.306 -0.5040  0.5361 -0.6689
 3177SOL    HW221165   2.169   0.392  16.317 -1.3875  0.2564 -0.3960
 3178SOL     OW21166   0.458   1.870   9.280  0.5870  0.2415 -0.4151
 3178SOL    HW121167   0.427   1.811   9.211 -0.5592 -0.0251  0.3045
 3178SOL    HW221168   0.516   1.925   9.228  1.1701 -2.1463 -2.3028
 3179SOL     OW21169   2.339   4.241  13.124  0.1201  0.3854  0.1412
 3179SOL    HW121170   2.406   4.208  13.063 -1.0803 -3.1925  0.7994
 3179SOL    HW221171   2.374   4.313  13.177  2.2871 -0.6144  0.1039
 3180SOL     OW21172   4.310   1.403   7.275  0.6549  0.4928  0.1722
 3180SOL    HW121173   4.396   1.444   7.286 -0.0392  1.5425  1.6370
 3180SOL    HW221174   4.254   1.470   7.314 -1.7437 -0.4306 -1.7138
 3181SOL     OW21175   0.230   4.694   6.630 -0.0752  0.2164 -0.2516
 3181SOL    HW121176   0.277   4.628   6.681 -0.1302 -1.1231 -1.9111
 3181SOL    HW221177   0.196   4.639   6.559 -1.4173 -0.5249  0.9784
 3182SOL     OW21178   3.881   2.236   3.601  0.3282  0.0598 -0.3829
 3182SOL    HW121179   3.804   2.251   3.656  1.1300  2.4356  0.0985
 3182SOL    HW221180   3.873   2.141   3.595 -3.4197  0.4456 -1.5859
 3183SOL     OW21181   2.697   1.698   6.315  0.6383 -0.1138  0.3300
 3183SOL    HW121182   2.628   1.706   6.381 -0.1619 -1.5834 -0.3250
 3183SOL    HW221183   2.708   1.792   6.300  0.8005 -0.4154 -1.4326
 3184SOL     OW21184   4.198   3.881  16.997 -0.0867  0.0196  0.1946
 3184SOL    HW121185   4.175   3.889  17.089 -0.3160 -0.1541  0.1542
 3184SOL    HW221186   4.236   3.968  16.988 -0.7557  0.4307  1.3839
 3185SOL     OW21187   2.866   0.312   1.573 -0.6351 -0.2239 -0.0241
 3185SOL    HW121188   2.941   0.266   1.535 -1.1420  0.3966 -1.7701
 3185SOL    HW221189   2.901   0.401   1.576  1.8705 -1.2386  0.6228
 3186SOL     OW21190   3.182   0.241   4.447  0.1039 -0.2132  0.4888
 3186SOL    HW121191   3.237   0.238   4.369 -0.2169 -2.0912  0.3277
 3186SOL    HW221192   3.246   0.253   4.517 -0.0870  1.5583  0.3611
 3187SOL     OW21193   0.514   4.560   1.858  0.2362  0.1169 -0.6819
 3187SOL    HW121194   0.598   4.514   1.847  1.0729  1.9397 -1.9160
 3187SOL    HW221195   0.548   4.649   1.851  0.5773  0.0664  0.2778
 3188SOL     OW21196   3.573   0.942   4.176  0.0993 -0.7625  0.9357
 3188SOL    HW121197   3.545   0.892   4.099 -2.6996 -0.0746  1.4995
 3188SOL    HW221198   3.552   1.028   4.140 -2.9958 -1.4453  1.1121
 3189SOL     OW21199   2.785   3.880   4.695 -0.2627 -0.2112  0.2440
 3189SOL    HW121200   2.783   3.975   4.698 -0.8098 -0.2218  0.2589
 3189SOL    HW221201   2.830   3.879   4.610  0.2617  0.1873  0.5133
 3190SOL     OW21202   3.163   3.381  13.188 -0.8118 -0.1916  0.4346
 3190SOL    HW121203   3.251   3.345  13.178 -0.8794  0.1843 -1.5320
 3190SOL    HW221204   3.149   3.436  13.111  0.3474 -0.4424  0.0413
 3191SOL     OW21205   4.493   4.089  10.713 -0.6979 -0.1084  0.4281
 3191SOL    HW121206   4.416   4.033  10.721  0.3025 -1.2647  1.8620
 3191SOL    HW221207   4.485   4.126  10.625 -2.0111 -1.3274  0.0438
 3192SOL     OW21208   3.009   1.060   1.247 -0.0924  0.1976 -0.0188
 3192SOL    HW121209   2.962   0.995   1.299  1.2372 -1.4734 -0.9011
 3192SOL    HW221210   3.081   1.074   1.309 -2.1806 -0.4013  2.5393
 3193SOL     OW21211   4.297   4.276  14.128 -0.0027 -0.2745  0.0932
 3193SOL    HW121212   4.299   4.199  14.186 -1.7606  1.8768  2.9658
 3193SOL    HW221213   4.263   4.237  14.047 -0.5575 -4.1283  2.2003
 3194SOL     OW21214   4.673   2.580   5.613 -0.0431 -0.3306 -0.1371
 3194SOL    HW121215   4.656   2.511   5.549  0.4718  0.5347 -1.2145
 3194SOL    HW221216   4.582   2.606   5.628  0.3062  0.6141  0.3904
 3195SOL     OW21217   2.355   3.045   6.467  0.6486 -0.5384 -0.0503
 3195SOL    HW121218   2.279   2.999   6.502  0.4669  1.8020  2.5860
 3195SOL    HW221219   2.423   3.015   6.528  0.2149  0.2906  0.8389
 3196SOL     OW21220   3.253   4.713   9.007 -0.1564  0.3023  0.2831
 3196SOL    HW121221   3.266   4.623   9.037  0.2441  0.2658  0.0007
 3196SOL    HW221222   3.237   4.682   8.918 -1.2335 -1.4924  1.1002
 3197SOL     OW21223   0.011   3.852   7.360 -0.3793 -0.0477 -0.1265
 3197SOL    HW121224   4.673   3.842   7.301 -0.2741  3.1381 -0.7782
 3197SOL    HW221225   4.701   3.878   7.440 -0.1446 -1.1431  0.3597
 3198SOL     OW21226   3.856   2.566  10.106  0.0448 -0.7343 -0.4798
 3198SOL    HW121227   3.891   2.533  10.188  0.0089 -1.6085 -0.8152
 3198SOL    HW221228   3.770   2.596  10.135  0.9076  0.1443  1.1551
 3199SOL     OW21229   2.410   2.743   4.009 -0.2142  0.0124 -0.5949
 3199SOL    HW121230   2.444   2.731   3.921  1.0381 -0.7273 -0.0096
 3199SOL    HW221231   2.468   2.683   4.057  3.4594  1.9316 -2.6729
 3200SOL     OW21232   2.903   0.554  15.627 -0.2632  0.6146 -0.3237
 3200SOL    HW121233   2.838   0.551  15.698 -0.3171  0.9093 -0.3600
 3200SOL    HW221234   2.918   0.460  15.620 -0.0265  0.5527  1.0280
 3201SOL     OW21235   1.205   2.503   2.277  0.4162 -0.1499  0.3522
 3201SOL    HW121236   1.180   2.415   2.306 -0.6111 -0.7721 -2.5051
 3201SOL    HW221237   1.162   2.498   2.192  0.6294 -0.4903  0.2631
 3202SOL     OW21238   3.509   2.178   7.349 -0.3119  0.3356 -0.2189
 3202SOL    HW121239   3.415   2.193   7.358 -0.2961  0.0343  0.3996
 3202SOL    HW221240   3.538   2.181   7.440 -0.3196  0.2805 -0.2145
 3203SOL     OW21241   4.431   4.085   2.946 -0.2421 -0.6723 -0.5666
 3203SOL    HW121242   4.515   4.096   2.901  0.0752 -0.7625  0.0050
 3203SOL    HW221243   4.464   4.057   3.031  0.2109  2.0034  0.1442
 3204SOL     OW21244   0.842   0.757   2.543  1.0877 -0.4254  0.0532
 3204SOL    HW121245   0.755   0.742   2.578  1.7245 -0.5345  1.5931
 3204SOL    HW221246   0.865   0.839   2.587  1.6039 -0.5832  0.0767
 3205SOL     OW21247   2.490   1.880  15.707 -0.3231  0.3499 -0.1135
 3205SOL    HW121248   2.501   1.956  15.651  0.4432 -0.2212 -0.7383
 3205SOL    HW221249   2.523   1.811  15.649 -2.5169  0.8046 -1.8757
 3206SOL     OW21250   4.143   3.738   1.012 -0.3568  0.1226 -0.3220
 3206SOL    HW121251   4.133   3.795   0.936  1.7233 -0.1090 -0.7581
 3206SOL    HW221252   4.101   3.781   1.087 -1.8862  0.8593 -1.6051
 3207SOL     OW21253   3.393   0.813   7.632  0.0848 -0.6933  0.2135
 3207SOL    HW121254   3.463   0.785   7.573  2.2960 -0.1620  2.5428
 3207SOL    HW221255   3.392   0.748   7.702  0.1283 -2.2953 -1.2836
 3208SOL     OW21256   1.763   0.070   2.082  0.0310  0.7067  0.5683
 3208SOL    HW121257   1.742   4.733   2.023  1.0578  0.7874  0.1003
 3208SOL    HW221258   1.708   0.132   2.036  1.8188  1.1451 -0.9970
 3209SOL     OW21259   0.161   4.310   4.397  0.0102  0.5754  0.4611
 3209SOL    HW121260   0.165   4.401   4.367 -1.0787  0.6822  0.6214
 3209SOL    HW221261   0.231   4.270   4.345 -0.2726  1.4603 -0.6051
 3210SOL     OW21262   0.355   2.593   9.035 -0.3272  0.1114 -0.0272
 3210SOL    HW121263   0.433   2.547   9.063  0.0089  0.1324 -0.9480
 3210SOL    HW221264   0.287   2.560   9.094 -1.3684  0.2337 -1.1630
 3211SOL     OW21265   1.849   0.000   5.170 -0.0735 -0.0884  0.0038
 3211SOL    HW121266   1.874   0.087   5.139 -1.4085  0.0284 -0.7594
 3211SOL    HW221267   1.898   4.691   5.101  1.0728  1.1141  0.0234
 3212SOL     OW21268   4.252   4.280   2.893 -0.1011  0.1709 -0.0111
 3212SOL    HW121269   4.299   4.359   2.921 -0.9107  0.7971 -0.4193
 3212SOL    HW221270   4.324   4.217   2.896 -0.2608  0.0354  1.1259
 3213SOL     OW21271   3.829   1.867   4.655 -0.3300  0.2678 -0.2064
 3213SOL    HW121272   3.742   1.870   4.614 -0.5366 -0.2346  0.1987
 3213SOL    HW221273   3.808   1.877   4.747  0.6877  0.1056  0.0429
 3214SOL     OW21274   2.066   1.533   7.036  0.0148  0.0085 -0.3965
 3214SOL    HW121275   2.094   1.538   7.127  1.3380 -1.3626 -0.7321
 3214SOL    HW221276   2.080   1.442   7.012  1.7491 -0.1414  1.1760
 3215SOL     OW21277   1.626   2.056   7.308 -0.1129  0.3450 -0.0900
 3215SOL    HW121278   1.571   1.995   7.356 -0.1074  1.3308  1.1627
 3215SOL    HW221279   1.646   2.001   7.232  0.3598  0.4540 -0.0480
 3216SOL     OW21280   3.378   2.861   3.470 -0.5063  0.6742 -0.2710
 3216SOL    HW121281   3.468   2.841   3.495  0.3438  0.7314 -3.2435
 3216SOL    HW221282   3.365   2.931   3.533 -0.8577 -2.0508  2.6942
 3217SOL     OW21283   0.989   0.762   5.109  0.2846 -0.0701  0.5251
 3217SOL    HW121284   1.001   0.712   5.028 -0.6206 -0.7085  0.7829
 3217SOL    HW221285   0.912   0.722   5.149  0.8680 -1.7082 -0.0031
 3218SOL     OW21286   0.139   2.068  17.404  0.3365  0.0778  0.0284
 3218SOL    HW121287   0.160   2.158  17.377  1.1871 -0.1805 -0.1773
 3218SOL    HW221288   0.044   2.077  17.417  0.0772 -4.6179  1.4548
 3219SOL     OW21289   4.168   0.686   8.729 -0.0065 -0.0576  0.3473
 3219SOL    HW121290   4.185   0.721   8.641  0.9676  1.6537  1.2005
 3219SOL    HW221291   4.219   0.608   8.707 -0.1692 -0.7552  2.4532
 3220SOL     OW21292   2.654   4.305   9.974  0.0695 -0.3597  0.2354
 3220SOL    HW121293   2.644   4.250  10.052  3.3291 -0.1061  0.8411
 3220SOL    HW221294   2.657   4.235   9.909  0.2261 -0.8072  0.7180
 3221SOL     OW21295   0.964   1.289   9.341 -0.1109 -0.5211  0.0787
 3221SOL    HW121296   0.890   1.250   9.294 -0.0265 -0.1335 -0.3803
 3221SOL    HW221297   1.029   1.301   9.272 -0.6771 -1.6588 -0.6591
 3222SOL     OW21298   2.090   1.882   0.251  0.1256  0.1921  0.0275
 3222SOL    HW121299   2.107   1.929   0.333 -1.2342 -0.7017  0.8453
 3222SOL    HW221300   2.051   1.805   0.293  0.2198 -0.2946 -0.7757
 3223SOL     OW21301   2.940   3.717   3.273 -0.3112  0.0615 -0.1547
 3223SOL    HW121302   2.928   3.645   3.334  3.2760 -0.5990 -0.2032
 3223SOL    HW221303   2.898   3.790   3.317 -1.2854  1.0159 -2.6847
 3224SOL     OW21304   1.767   0.855  12.170 -0.0119  0.4927  0.1890
 3224SOL    HW121305   1.787   0.858  12.076  1.1993  3.1718  0.5302
 3224SOL    HW221306   1.794   0.768  12.200 -0.9578  0.2329  0.2813
 3225SOL     OW21307   4.180   1.311  11.284 -0.0578  0.1403  0.1722
 3225SOL    HW121308   4.223   1.396  11.297  0.6375 -0.3856  1.3170
 3225SOL    HW221309   4.122   1.320  11.209 -1.4366 -0.1863  1.2076
 3226SOL     OW21310   1.298   3.522   5.815 -0.0771  0.6379 -0.1897
 3226SOL    HW121311   1.339   3.462   5.878  1.1908 -0.4008 -2.0381
 3226SOL    HW221312   1.252   3.579   5.878  0.7465  1.8230 -0.6618
 3227SOL     OW21313   0.647   4.216   3.956 -0.2816  0.6905  0.1484
 3227SOL    HW121314   0.576   4.159   3.926  0.5458  0.5299 -1.5030
 3227SOL    HW221315   0.714   4.157   3.990 -2.1348 -1.7037 -0.3785
 3228SOL     OW21316   0.541   4.328   9.505  0.3806 -0.3034  0.0567
 3228SOL    HW121317   0.533   4.420   9.533  1.0472 -0.0345 -0.6392
 3228SOL    HW221318   0.473   4.288   9.560 -0.0645 -0.3396 -0.5227
 3229SOL     OW21319   3.113   0.699   2.655  0.8697 -0.4291 -0.3398
 3229SOL    HW121320   3.129   0.670   2.745  0.0153  2.2493  0.6553
 3229SOL    HW221321   3.060   0.777   2.664  1.8574  0.5081 -2.5056
 3230SOL     OW21322   3.423   0.061   5.272  0.0369 -0.9173 -0.7281
 3230SOL    HW121323   3.350   0.005   5.245  1.0478 -2.8473  0.5586
 3230SOL    HW221324   3.412   0.136   5.214 -1.7475 -1.3364 -0.9537
 3231SOL     OW21325   3.763   0.706   6.615 -0.8234 -0.0207  0.2249
 3231SOL    HW121326   3.691   0.716   6.677 -1.7329  1.0108 -1.0028
 3231SOL    HW221327   3.828   0.654   6.663 -0.1904 -0.2017 -0.8329
 3232SOL     OW21328   3.370   3.008   3.039  0.7012 -0.1453 -0.2710
 3232SOL    HW121329   3.324   3.048   2.966  0.6123 -1.0213 -0.6989
 3232SOL    HW221330   3.376   2.914   3.020  2.5976 -0.5041  2.0213
 3233SOL     OW21331   2.296   0.376  13.202 -0.5001  0.1121 -1.0112
 3233SOL    HW121332   2.373   0.358  13.257 -0.5183  4.2005  0.3752
 3233SOL    HW221333   2.282   0.464  13.239  1.0435 -0.9801  2.2211
 3234SOL     OW21334   0.323   2.550   4.378 -0.4002  0.2017 -0.7621
 3234SOL    HW121335   0.272   2.600   4.441 -0.4682  1.9100 -2.1615
 3234SOL    HW221336   0.253   2.525   4.319 -0.7654 -1.1210  0.2251
 3235SOL     OW21337   4.696   3.278   3.350 -0.1028 -0.3725  0.4047
 3235SOL    HW121338   4.721   3.355   3.300 -2.6038  0.3484  0.2258
 3235SOL    HW221339   4.623   3.311   3.403  0.7800 -2.3762  2.9006
 3236SOL     OW21340   2.777   2.762   1.781  0.3143 -0.4221  0.3181
 3236SOL    HW121341   2.771   2.698   1.710 -1.4574  1.7129 -1.4277
 3236SOL    HW221342   2.733   2.709   1.848  1.9941 -1.8946  0.2423
 3237SOL     OW21343   0.201   3.005   8.032 -0.7550  0.3279  0.5591
 3237SOL    HW121344   0.116   3.008   8.076 -1.3790  2.4540 -0.7946
 3237SOL    HW221345   0.248   2.946   8.091  1.2685  0.0406 -1.3707
 3238SOL     OW21346   2.010   1.219  11.094  0.4984  0.2806  0.6106
 3238SOL    HW121347   2.005   1.289  11.029 -0.7909  0.4293  0.8538
 3238SOL    HW221348   1.976   1.257  11.175 -0.6582 -0.7916  0.6247
 3239SOL     OW21349   1.989   2.473   2.613 -0.3079 -0.1650 -1.0035
 3239SOL    HW121350   1.935   2.490   2.535 -1.2905 -2.6421 -0.8402
 3239SOL    HW221351   2.072   2.442   2.575 -0.8499 -2.0798 -0.6126
 3240SOL     OW21352   0.562   1.107   4.798 -0.2997  0.2771  0.0167
 3240SOL    HW121353   0.618   1.040   4.759 -1.6922 -0.6898 -0.3070
 3240SOL    HW221354   0.564   1.169   4.725 -2.2166  1.2495  0.7790
 3241SOL     OW21355   3.776   3.192   7.149  0.1955  0.2628  0.5032
 3241SOL    HW121356   3.845   3.171   7.086 -0.0179 -1.2491  0.7727
 3241SOL    HW221357   3.836   3.203   7.222  0.1489  0.2702  0.5405
 3242SOL     OW21358   0.022   3.029  13.160 -0.1875  0.4056 -0.0152
 3242SOL    HW121359   4.699   3.092  13.202  0.6546  2.2751 -1.5946
 3242SOL    HW221360   4.695   2.964  13.129 -1.0473  0.7211  1.0543
 3243SOL     OW21361   0.832   3.761   9.534 -0.2461 -0.1260  0.1082
 3243SOL    HW121362   0.821   3.673   9.499  2.2060 -0.3625 -0.0273
 3243SOL    HW221363   0.746   3.798   9.514  0.9860  2.1810 -0.8341
 3244SOL     OW21364   2.885   0.523   5.262 -0.4084 -0.1954  0.6747
 3244SOL    HW121365   2.807   0.470   5.244 -1.1561  1.2416 -0.2799
 3244SOL    HW221366   2.840   0.607   5.273 -2.0281 -0.9471 -0.1971
 3245SOL     OW21367   2.511   2.123  15.563 -0.5172 -0.1851  0.7871
 3245SOL    HW121368   2.551   2.129  15.477 -2.4057 -2.0004 -0.2144
 3245SOL    HW221369   2.418   2.142  15.549  0.4327  2.4236 -1.7290
 3246SOL     OW21370   1.091   2.541   8.045  0.0569  0.0528  0.6556
 3246SOL    HW121371   1.169   2.584   8.012  0.3654 -0.1908  1.0680
 3246SOL    HW221372   1.076   2.477   7.975  0.5373  0.1983  0.4241
 3247SOL     OW21373   4.581   1.923  10.903 -0.1745  0.5829  0.2649
 3247SOL    HW121374   4.497   1.878  10.902  0.9592 -1.4793 -1.1332
 3247SOL    HW221375   4.598   1.926  10.809  0.0346 -0.7725  0.2569
 3248SOL     OW21376   3.143   2.123   3.574  0.1288  0.3217  0.1826
 3248SOL    HW121377   3.050   2.145   3.568  0.1237  1.1795  3.3480
 3248SOL    HW221378   3.163   2.130   3.667  1.6235  0.7457 -0.1677
 3249SOL     OW21379   2.323   0.116   8.554  0.0411 -0.1698  0.0774
 3249SOL    HW121380   2.295   0.080   8.470  0.4166 -0.9107  0.2674
 3249SOL    HW221381   2.388   0.176   8.519  0.0191 -0.5041 -0.5270
 3250SOL     OW21382   0.456   0.833  13.152 -0.3135  0.2414  0.3506
 3250SOL    HW121383   0.458   0.917  13.107  0.0210 -0.4629 -0.9696
 3250SOL    HW221384   0.548   0.825  13.178 -0.0743  0.7027 -0.3554
 3251SOL     OW21385   1.804   1.825   1.900 -0.6452 -0.4815  0.3915
 3251SOL    HW121386   1.798   1.910   1.943 -2.6624 -0.1431 -0.5721
 3251SOL    HW221387   1.740   1.844   1.832 -1.8139  2.6621  2.3634
 3252SOL     OW21388   4.581   1.360   4.621 -0.6954 -0.1820 -0.1039
 3252SOL    HW121389   4.621   1.279   4.652 -0.9144  0.6055  2.2448
 3252SOL    HW221390   4.489   1.335   4.627 -0.9909  0.6826 -0.9036
 3253SOL     OW21391   2.461   1.666   9.827 -0.5862  0.1545 -0.3315
 3253SOL    HW121392   2.553   1.663   9.802 -0.3228 -0.1774  0.6853
 3253SOL    HW221393   2.466   1.747   9.876  0.3066 -0.6513  0.9194
 3254SOL     OW21394   3.394   1.015   3.760  0.0368 -0.6899  0.2719
 3254SOL    HW121395   3.411   0.977   3.846 -2.1094 -1.0847  0.5319
 3254SOL    HW221396   3.414   1.107   3.774  1.5798 -0.9748 -0.1063
 3255SOL     OW21397   0.624   3.557   3.229 -0.2120  0.2709  0.3270
 3255SOL    HW121398   0.678   3.633   3.208 -0.0945  0.1890  0.3286
 3255SOL    HW221399   0.539   3.598   3.211 -0.9677 -1.7183 -0.7419
 3256SOL     OW21400   1.712   1.254   0.022  0.6899 -0.3206  0.7205
 3256SOL    HW121401   1.670   1.169   0.031 -0.0091  0.2241  2.4607
 3256SOL    HW221402   1.799   1.220   0.044  0.3386 -1.0011  1.0215
 3257SOL     OW21403   2.972   2.209   2.818  0.1511  0.0958  0.4078
 3257SOL    HW121404   3.062   2.228   2.794  0.3012 -1.8058 -0.4918
 3257SOL    HW221405   2.973   2.269   2.893  0.1534 -1.2515  1.4947
 3258SOL     OW21406   2.213   1.922  13.705 -0.0449 -0.7412 -0.5260
 3258SOL    HW121407   2.257   2.001  13.737 -0.9908  0.9051 -3.3449
 3258SOL    HW221408   2.285   1.858  13.711 -2.8497 -3.6767  1.7430
 3259SOL     OW21409   4.155   2.912   0.995 -0.4164 -0.0235  0.0336
 3259SOL    HW121410   4.114   2.882   1.076 -0.2192  2.7569  1.1762
 3259SOL    HW221411   4.220   2.972   1.031  0.0272 -0.1975 -0.4815
 3260SOL     OW21412   2.433   3.818  15.594 -0.5213  0.1889 -0.0067
 3260SOL    HW121413   2.513   3.777  15.562 -0.4060 -0.8061  1.5768
 3260SOL    HW221414   2.421   3.885  15.527  2.4155 -1.5963 -2.3034
 3261SOL     OW21415   2.523   0.140  10.706  0.5092 -0.4071  0.4609
 3261SOL    HW121416   2.513   0.045  10.717 -2.1899  0.3156  4.1966
 3261SOL    HW221417   2.447   0.170  10.656  0.4353  1.9783  2.0508
 3262SOL     OW21418   2.235   3.085  12.087 -0.0771 -0.6011 -0.1344
 3262SOL    HW121419   2.206   3.128  12.167  0.9849 -2.2685  1.1487
 3262SOL    HW221420   2.235   3.156  12.022  0.6092 -0.9656 -0.5430
 3263SOL     OW21421   3.547   0.991  16.751  0.3210 -0.1539 -0.1248
 3263SOL    HW121422   3.456   1.022  16.752  0.1397 -0.7041  0.3175
 3263SOL    HW221423   3.529   0.936  16.828  0.1716  0.0434 -0.0170
 3264SOL     OW21424   0.629   0.408   0.385  0.6304  0.1306 -0.1440
 3264SOL    HW121425   0.700   0.345   0.372 -0.2930 -1.0293  0.4425
 3264SOL    HW221426   0.645   0.471   0.315 -1.3779  0.6926 -0.0896
 3265SOL     OW21427   2.617   0.752   3.005  0.3031 -0.5712  0.8023
 3265SOL    HW121428   2.646   0.703   3.081 -1.0152 -1.2471  0.8702
 3265SOL    HW221429   2.688   0.743   2.942  1.2314  1.2738  1.5912
 3266SOL     OW21430   2.407   2.813   5.321  0.5346 -0.1825 -0.0664
 3266SOL    HW121431   2.499   2.840   5.319  0.9647 -1.5342  1.9048
 3266SOL    HW221432   2.414   2.733   5.268  0.2747 -1.3914  1.7243
 3267SOL     OW21433   1.886   3.378  12.964  0.0883  0.2686  0.1053
 3267SOL    HW121434   1.806   3.341  12.927 -0.3057 -0.2690  1.4924
 3267SOL    HW221435   1.897   3.325  13.043  2.2157 -0.7385 -0.8462
 3268SOL     OW21436   3.899   2.425  12.306 -0.2303 -0.4015 -0.1503
 3268SOL    HW121437   3.881   2.424  12.400  0.2587  0.8991 -0.0432
 3268SOL    HW221438   3.972   2.487  12.295  0.5299 -0.9357  1.7156
 3269SOL     OW21439   0.053   2.283   7.282 -0.0240 -0.2917 -0.1984
 3269SOL    HW121440   4.716   2.238   7.239  0.9837 -1.0928 -1.0586
 3269SOL    HW221441   0.116   2.212   7.275 -1.4153 -1.6247  0.7363
 3270SOL     OW21442   4.104   4.297   0.355 -0.1821 -0.6002  0.3601
 3270SOL    HW121443   4.130   4.259   0.439  0.3280  1.8406  1.3250
 3270SOL    HW221444   4.136   4.232   0.293 -1.3859  0.9944 -1.9210
 3271SOL     OW21445   3.587   3.471   1.459  0.1544  0.1579 -0.1439
 3271SOL    HW121446   3.663   3.514   1.420 -0.9796  1.0821 -1.3241
 3271SOL    HW221447   3.624   3.382   1.462  0.5501  0.2491 -2.4964
 3272SOL     OW21448   1.656   2.288  15.457  0.2118  0.0256 -0.3659
 3272SOL    HW121449   1.590   2.347  15.495  1.2655  0.1702  1.2779
 3272SOL    HW221450   1.690   2.347  15.391  2.4394 -0.6675  0.1727
 3273SOL     OW21451   2.732   0.627   7.017  0.2756 -0.2879 -0.4670
 3273SOL    HW121452   2.802   0.690   7.035 -0.0999 -0.2828  0.9740
 3273SOL    HW221453   2.742   0.567   7.091 -0.0308 -0.0643 -0.2487
 3274SOL     OW21454   2.508   0.704  10.355  0.1507  0.1170  0.4203
 3274SOL    HW121455   2.446   0.775  10.335  2.6814  2.7633  1.9060
 3274SOL    HW221456   2.528   0.670  10.268  2.7235  2.5015  0.0716
 3275SOL     OW21457   1.403   2.703  15.107  0.1406  0.4116 -0.7439
 3275SOL    HW121458   1.365   2.659  15.031 -0.8903  2.1356 -1.2265
 3275SOL    HW221459   1.494   2.677  15.101 -0.1113 -0.6892  0.1669
 3276SOL     OW21460   3.355   0.421  13.035  0.0070  0.2982 -0.2228
 3276SOL    HW121461   3.328   0.489  12.973  2.5905  1.8367  0.3135
 3276SOL    HW221462   3.385   0.354  12.974  0.9647 -0.3603  0.9635
 3277SOL     OW21463   1.007   4.469   9.352  0.6127 -0.6614 -0.3461
 3277SOL    HW121464   0.936   4.442   9.294 -0.3311  0.9333  0.0820
 3277SOL    HW221465   0.985   4.546   9.404 -1.4250 -0.7417 -1.1044
 3278SOL     OW21466   1.800   3.212   5.228 -0.0041  0.1806  0.2260
 3278SOL    HW121467   1.748   3.263   5.289  0.0041  3.0795 -2.1500
 3278SOL    HW221468   1.826   3.145   5.290  0.5407  0.2115  0.0358
 3279SOL     OW21469   3.436   2.214  16.500 -0.1649 -0.1947  0.1478
 3279SOL    HW121470   3.392   2.207  16.584  0.8600  1.7762  0.8481
 3279SOL    HW221471   3.442   2.121  16.477 -2.4709 -0.4041  0.4084
 3280SOL     OW21472   4.020   4.219   6.064 -0.3930 -0.5961  0.2889
 3280SOL    HW121473   4.062   4.204   5.979  2.0947 -1.6528  1.6888
 3280SOL    HW221474   4.101   4.245   6.108 -0.2351 -0.8685  0.1611
 3281SOL     OW21475   4.538   2.499   6.795  0.0742  0.1539 -0.6446
 3281SOL    HW121476   4.629   2.525   6.777  0.6738 -1.6601 -0.2316
 3281SOL    HW221477   4.532   2.516   6.889  1.5788  1.1262 -0.7190
 3282SOL     OW21478   0.549   4.696   9.840 -0.4141 -0.1601 -0.1696
 3282SOL    HW121479   0.610   4.637   9.885  0.1426 -0.4273 -1.2723
 3282SOL    HW221480   0.495   4.634   9.792 -1.0795 -1.3125  2.0841
 3283SOL     OW21481   2.478   1.538   9.086 -0.1956  0.0257 -0.3095
 3283SOL    HW121482   2.396   1.497   9.060 -1.2391  2.1191 -0.2688
 3283SOL    HW221483   2.544   1.491   9.035 -2.1947 -1.0327 -1.8790
 3284SOL     OW21484   3.368   0.394   9.641 -0.3940 -0.2931  0.3974
 3284SOL    HW121485   3.372   0.463   9.707 -0.1044  1.9701 -2.0010
 3284SOL    HW221486   3.278   0.403   9.613  0.5513  1.9032 -1.8494
 3285SOL     OW21487   1.790   3.344   4.433  0.3246 -0.2106  0.9438
 3285SOL    HW121488   1.715   3.378   4.483 -1.3387 -1.0895 -0.9563
 3285SOL    HW221489   1.816   3.274   4.493 -1.5534 -2.2534 -0.5984
 3286SOL     OW21490   3.751   1.596   8.350 -0.0779  0.3046  0.0032
 3286SOL    HW121491   3.688   1.559   8.288  1.0272  0.1972 -1.0723
 3286SOL    HW221492   3.834   1.559   8.321  0.8019  0.9514  1.7213
 3287SOL     OW21493   2.674   1.223   0.243 -0.1861 -0.1068  0.7157
 3287SOL    HW121494   2.580   1.228   0.228  0.0763 -0.4293 -1.0409
 3287SOL    HW221495   2.696   1.314   0.262 -1.1451 -0.4363  3.3737
 3288SOL     OW21496   0.462   3.171   2.938  0.5223  0.4227  0.6564
 3288SOL    HW121497   0.501   3.084   2.931 -0.8485 -0.1999  0.9382
 3288SOL    HW221498   0.407   3.147   3.012 -0.2722 -1.4431 -0.5430
 3289SOL     OW21499   0.793   2.364   2.508  0.0065  0.0595 -0.3289
 3289SOL    HW121500   0.858   2.307   2.547  0.1330 -0.6561 -1.5731
 3289SOL    HW221501   0.848   2.406   2.442  0.6592  0.6200  0.5862
 3290SOL     OW21502   4.321   1.456  16.763  0.3560 -0.0831 -0.4696
 3290SOL    HW121503   4.296   1.546  16.786  1.0706  0.2857 -1.1604
 3290SOL    HW221504   4.408   1.452  16.801  0.5949  0.3596 -0.9756
 3291SOL     OW21505   0.171   0.007   0.740  0.0808  0.6871  0.5689
 3291SOL    HW121506   0.105   4.723   0.806 -2.5628  1.9461 -1.7046
 3291SOL    HW221507   0.243   4.683   0.762 -1.6925 -2.0983 -1.1195
 3292SOL     OW21508   1.811   2.785   8.796  0.2302 -0.5091  0.2757
 3292SOL    HW121509   1.805   2.720   8.726  1.9089 -0.0700 -0.2945
 3292SOL    HW221510   1.906   2.786   8.812  0.3516 -1.8048 -0.3397
 3293SOL     OW21511   0.873   4.444  15.728  0.3102  0.3969  0.5328
 3293SOL    HW121512   0.876   4.368  15.670  0.3713  0.7606  0.0642
 3293SOL    HW221513   0.942   4.410  15.785  0.2116  1.5418  1.3246
 3294SOL     OW21514   1.074   2.602   7.128 -0.2398  0.2720 -0.2686
 3294SOL    HW121515   1.166   2.626   7.139 -0.6151  1.1045  1.0322
 3294SOL    HW221516   1.040   2.627   7.214 -1.5746 -4.4949  0.5769
 3295SOL     OW21517   0.806   2.089   5.796 -0.7735  0.0474 -0.1167
 3295SOL    HW121518   0.776   2.142   5.870 -1.0381  0.0289 -0.2109
 3295SOL    HW221519   0.727   2.070   5.747 -1.3531  1.2851  0.3289
 3296SOL     OW21520   1.597   3.219   2.958  0.3063 -0.6722  0.4230
 3296SOL    HW121521   1.649   3.299   2.960 -0.8674  0.1493 -2.5389
 3296SOL    HW221522   1.662   3.158   2.922  1.1880 -0.0100  0.8938
 3297SOL     OW21523   3.043   2.746  10.553  0.2645 -0.6431  0.2136
 3297SOL    HW121524   2.991   2.666  10.549 -0.3005 -0.3684  2.2802
 3297SOL    HW221525   3.130   2.710  10.570  2.1477  3.8785  0.3494
 3298SOL     OW21526   2.029   0.871   0.704  0.0535 -0.3679  0.0511
 3298SOL    HW121527   1.950   0.915   0.673  1.4457  0.7618 -1.8491
 3298SOL    HW221528   2.050   0.835   0.618  0.4094  1.6606 -0.6900
 3299SOL     OW21529   1.622   1.197   2.988  0.1418 -0.2505  0.4780
 3299SOL    HW121530   1.587   1.194   3.076 -1.4845 -0.9233 -0.1958
 3299SOL    HW221531   1.705   1.243   2.999  0.8581 -1.3462 -0.2597
 3300SOL     OW21532   1.183   2.093   8.455 -0.3187 -0.1471  0.4163
 3300SOL    HW121533   1.142   2.075   8.370 -2.0009  1.4529  0.9013
 3300SOL    HW221534   1.258   2.034   8.457  1.0258  1.5772  0.9757
 3301SOL     OW21535   2.458   2.158   0.012 -0.4491  0.4643 -0.0561
 3301SOL    HW121536   2.412   2.228   0.057 -0.5931 -0.9504  1.9781
 3301SOL    HW221537   2.421   2.080   0.053 -2.0482  2.2027  1.8148
 3302SOL     OW21538   2.593   1.846   7.121  0.2504  0.6789 -0.3715
 3302SOL    HW121539   2.498   1.842   7.136  0.2829 -1.2109 -0.6217
 3302SOL    HW221540   2.628   1.903   7.190 -2.5322  1.0569  0.7552
 3303SOL     OW21541   2.262   3.710  17.691 -0.1872  0.3962 -0.3063
 3303SOL    HW121542   2.325   3.676   0.013 -1.4081 -1.4573 -0.0839
 3303SOL    HW221543   2.225   3.626  17.663  1.8812 -0.0529 -1.6585
 3304SOL     OW21544   4.036   3.652   2.415  0.5526 -0.0271  0.3838
 3304SOL    HW121545   4.129   3.658   2.437  0.4221 -0.8181  1.1369
 3304SOL    HW221546   4.031   3.560   2.388  0.9389  0.3607 -1.0255
 3305SOL     OW21547   1.024   2.473   3.941 -0.2715 -0.4804 -0.0095
 3305SOL    HW121548   1.010   2.470   4.036 -1.1546 -0.2101 -0.1252
 3305SOL    HW221549   0.965   2.544   3.916  0.8654  0.1107 -0.9968
 3306SOL     OW21550   3.509   2.421   8.408 -0.2844 -0.0251  0.4924
 3306SOL    HW121551   3.484   2.330   8.395 -0.5554  0.3329 -1.5118
 3306SOL    HW221552   3.601   2.411   8.384 -0.2368 -2.1025  1.5940
 3307SOL     OW21553   1.914   3.796   9.673 -0.3113 -0.0697 -0.0284
 3307SOL    HW121554   1.823   3.773   9.691 -0.6499  0.8089 -0.6326
 3307SOL    HW221555   1.951   3.822   9.758 -1.6237  1.0643  0.1997
 3308SOL     OW21556   2.657   3.831  16.047 -0.2296  0.2195  0.3399
 3308SOL    HW121557   2.739   3.873  16.023  0.7419  0.8042  4.6060
 3308SOL    HW221558   2.651   3.771  15.973 -0.6090  0.2971  0.3059
 3309SOL     OW21559   4.098   0.364   4.056  0.5548  0.3176  0.2922
 3309SOL    HW121560   4.014   0.354   4.010  1.6971  2.1933 -2.1943
 3309SOL    HW221561   4.154   0.328   3.987 -0.6187 -1.7766  0.4062
 3310SOL     OW21562   4.241   0.872   9.561 -0.8812 -0.0060 -0.2642
 3310SOL    HW121563   4.181   0.810   9.603 -1.4246  0.6410 -0.0763
 3310SOL    HW221564   4.181   0.946   9.548  1.8691  2.6457  2.0602
 3311SOL     OW21565   3.817   0.827   2.929  0.0186 -0.0772 -0.6659
 3311SOL    HW121566   3.737   0.872   2.956  0.4413 -0.5075  1.3395
 3311SOL    HW221567   3.781   0.774   2.858 -1.7729  0.7489 -0.3750
 3312SOL     OW21568   1.229   4.287  14.221 -0.7052 -0.0717  0.4196
 3312SOL    HW121569   1.317   4.306  14.252 -0.4395 -0.7483  0.0867
 3312SOL    HW221570   1.222   4.199  14.258 -2.1723 -0.0466  0.2142
 3313SOL     OW21571   2.531   1.855   7.947  0.3198  0.7273 -0.2540
 3313SOL    HW121572   2.589   1.785   7.977  0.4979 -0.2501 -2.9317
 3313SOL    HW221573   2.453   1.813   7.912 -1.1425  2.0838  1.3604
 3314SOL     OW21574   1.173   1.585   2.149 -0.3466  0.1053  0.1668
 3314SOL    HW121575   1.100   1.640   2.120 -1.4346 -1.3007  0.2559
 3314SOL    HW221576   1.247   1.641   2.126 -1.0995  0.6990 -0.8518
 3315SOL     OW21577   4.227   2.742   0.298  0.0752  0.4957  0.1731
 3315SOL    HW121578   4.243   2.662   0.347  1.0951  0.3726 -0.3523
 3315SOL    HW221579   4.198   2.708   0.214 -0.8038 -2.0219  1.5037
 3316SOL     OW21580   2.837   1.032   7.692 -0.4345 -0.1778 -0.0743
 3316SOL    HW121581   2.872   1.121   7.688 -2.2112  0.4844 -0.9844
 3316SOL    HW221582   2.846   1.017   7.787  0.7642  1.2580  0.0279
 3317SOL     OW21583   4.582   4.606   8.443 -0.2152 -0.3321 -0.6416
 3317SOL    HW121584   4.621   4.572   8.362  1.4528  0.8763 -0.3596
 3317SOL    HW221585   4.572   4.526   8.494  0.5500  1.7165  2.7426
 3318SOL     OW21586   0.004   1.750   6.812 -0.0095  0.0116  0.2808
 3318SOL    HW121587   4.667   1.804   6.780  1.7928  3.2398  1.6817
 3318SOL    HW221588   4.692   1.669   6.796 -1.9592  0.9161  1.5090
 3319SOL     OW21589   1.705   3.734  17.330 -0.1877 -0.1207  0.1084
 3319SOL    HW121590   1.674   3.647  17.353 -0.8577 -0.3355 -1.5991
 3319SOL    HW221591   1.708   3.726  17.235  3.7323 -0.6894  0.2726
 3320SOL     OW21592   0.911   0.385  12.409 -0.0469 -0.4797  0.3866
 3320SOL    HW121593   0.990   0.423  12.372  0.5163 -0.7169  1.3523
 3320SOL    HW221594   0.884   0.322  12.342  0.7117  0.7199 -1.0436
 3321SOL     OW21595   1.383   3.906  16.090 -0.1067 -0.1075  0.5557
 3321SOL    HW121596   1.422   3.955  16.163  0.1169 -0.6477  0.7943
 3321SOL    HW221597   1.378   3.966  16.015 -4.6182 -0.2848  0.7506
 3322SOL     OW21598   2.740   2.637   9.705  0.1684 -0.3734  0.3882
 3322SOL    HW121599   2.679   2.607   9.772  2.1425  0.1996  2.4586
 3322SOL    HW221600   2.825   2.630   9.750  1.5617  0.3533 -2.1260
 3323SOL     OW21601   1.194   1.227   9.172  0.2298 -0.2744 -0.4924
 3323SOL    HW121602   1.280   1.209   9.134  0.4836 -1.7525  0.7988
 3323SOL    HW221603   1.190   1.158   9.238  1.2793  0.6955  0.5806
 3324SOL     OW21604   0.076   3.558   2.820  0.0775  0.0481 -0.3886
 3324SOL    HW121605   0.137   3.622   2.858  1.0490 -0.2259 -1.4655
 3324SOL    HW221606   4.726   3.579   2.857 -0.1732 -1.0998 -0.3125
 3325SOL     OW21607   3.570   4.153   2.755 -0.1485 -0.4536  0.1032
 3325SOL    HW121608   3.491   4.139   2.702  0.2096  0.5908 -0.6967
 3325SOL    HW221609   3.603   4.239   2.730  0.1115 -0.3827  0.6803
 3326SOL     OW21610   3.408   2.820  16.753 -0.0050 -0.0923  0.3840
 3326SOL    HW121611   3.339   2.789  16.811  2.4854  1.0402  3.9163
 3326SOL    HW221612   3.365   2.834  16.668 -0.1148 -1.6969  0.1728
 3327SOL     OW21613   3.464   3.919   6.487  0.1508 -0.2565  0.0452
 3327SOL    HW121614   3.389   3.903   6.430 -0.7547  1.1032  0.8485
 3327SOL    HW221615   3.519   3.990   6.454 -0.9326  0.0960 -0.9753
 3328SOL     OW21616   3.147   0.901   0.910 -0.1752  0.3826  0.2199
 3328SOL    HW121617   3.122   0.993   0.903  1.7303  0.7054 -2.1418
 3328SOL    HW221618   3.224   0.903   0.968 -2.4649  0.8268  3.2635
 3329SOL     OW21619   1.887   0.002  15.505 -0.6545  0.3469  0.7269
 3329SOL    HW121620   1.836   4.690  15.439 -0.3001  2.0783 -0.7940
 3329SOL    HW221621   1.955   0.042  15.450  0.3573  0.3977  2.0223
 3330SOL     OW21622   4.003   1.123   6.852  0.1692  0.4101  0.2671
 3330SOL    HW121623   3.985   1.201   6.799  0.3902 -0.2389 -0.7717
 3330SOL    HW221624   4.018   1.052   6.788  1.6584  0.1831  0.8795
 3331SOL     OW21625   2.788   0.488  13.991  0.4384  0.2099 -0.9832
 3331SOL    HW121626   2.874   0.496  13.950  1.0014  1.7541  0.4841
 3331SOL    HW221627   2.745   0.570  13.966 -2.1866 -1.0743 -0.6804
 3332SOL     OW21628   3.248   3.642  12.579  0.0698 -0.0316  0.0190
 3332SOL    HW121629   3.178   3.625  12.516  0.4742 -1.9248  0.0789
 3332SOL    HW221630   3.306   3.574  12.546 -0.4907 -0.1323 -0.7494
 3333SOL     OW21631   3.503   0.613   6.291 -0.0991  0.1438  0.0557
 3333SOL    HW121632   3.581   0.662   6.318 -2.4025  1.9109  3.6379
 3333SOL    HW221633   3.543   0.540   6.245  1.5429  0.1490  1.4588
 3334SOL     OW21634   3.090   1.560   6.932 -0.5792 -0.3877  0.4069
 3334SOL    HW121635   3.013   1.616   6.929 -0.1283  0.2753  1.5702
 3334SOL    HW221636   3.164   1.617   6.913 -1.3962  0.4022 -0.3443
 3335SOL     OW21637   3.442   3.426   2.641  0.2659  0.3773  0.5278
 3335SOL    HW121638   3.379   3.415   2.712 -0.0525 -0.6109  0.0933
 3335SOL    HW221639   3.449   3.519   2.621 -0.4209  0.7208  1.9032
 3336SOL     OW21640   0.126   4.223   6.550 -0.3929  0.0410  0.2792
 3336SOL    HW121641   0.061   4.168   6.594 -2.2651 -0.2255 -2.7724
 3336SOL    HW221642   0.186   4.229   6.624 -1.4018 -2.3707  1.2907
 3337SOL     OW21643   1.331   1.128  14.791  0.1159 -0.2466 -0.9042
 3337SOL    HW121644   1.343   1.222  14.803 -0.9238 -0.5768  2.6322
 3337SOL    HW221645   1.424   1.105  14.789  0.7016  2.1514 -0.7520
 3338SOL     OW21646   1.320   1.725  12.169  0.0043 -0.3192  0.0535
 3338SOL    HW121647   1.319   1.711  12.074 -1.6303  0.0520  0.0201
 3338SOL    HW221648   1.328   1.821  12.172 -2.9641 -0.0777 -0.0309
 3339SOL     OW21649   0.307   0.415  12.796 -0.1950  0.3557  0.1120
 3339SOL    HW121650   0.397   0.381  12.785 -0.3576  0.2343 -0.8802
 3339SOL    HW221651   0.326   0.494  12.846 -0.5415  0.2008  0.4837
 3340SOL     OW21652   2.123   1.508   6.571  0.3266 -0.6603  0.2268
 3340SOL    HW121653   2.165   1.438   6.621  1.5214  0.0326  0.1867
 3340SOL    HW221654   2.196   1.533   6.516 -2.0193  0.2395 -2.4805
 3341SOL     OW21655   1.689   2.114   2.646  0.4505  0.2071 -0.2391
 3341SOL    HW121656   1.775   2.121   2.605  0.8860  0.2547  0.6807
 3341SOL    HW221657   1.661   2.204   2.626  0.4188  0.6733  1.9199
 3342SOL     OW21658   3.836   0.147  16.965  0.6074  0.1178  0.5126
 3342SOL    HW121659   3.930   0.154  16.984  0.5427  0.7648  0.5886
 3342SOL    HW221660   3.844   0.143  16.870  0.7867  2.2494  0.4335
 3343SOL     OW21661   3.395   0.941   7.977 -0.4347 -0.0239  0.1601
 3343SOL    HW121662   3.353   0.892   8.048 -1.6215  1.7715  0.7093
 3343SOL    HW221663   3.471   0.982   8.018 -0.8524 -0.7605  1.6794
 3344SOL     OW21664   1.421   2.107  14.279 -0.5910  0.1501  0.0172
 3344SOL    HW121665   1.503   2.094  14.230  0.1380 -2.6862  1.9859
 3344SOL    HW221666   1.415   2.019  14.317  1.2088 -0.8348 -1.9456
 3345SOL     OW21667   4.534   3.819  10.451 -0.0622 -0.3884 -0.9687
 3345SOL    HW121668   4.623   3.843  10.478 -0.3247  0.0722 -0.5178
 3345SOL    HW221669   4.558   3.772  10.371 -1.6144  0.2707 -1.8212
 3346SOL     OW21670   3.651   3.743   7.041  0.4322 -0.4449 -0.1016
 3346SOL    HW121671   3.648   3.825   7.090 -1.3236 -1.4000  1.4374
 3346SOL    HW221672   3.737   3.752   7.001  0.1422  0.3568 -0.5471
 3347SOL     OW21673   3.118   3.302   8.886  0.0954  0.5794  0.2895
 3347SOL    HW121674   3.047   3.327   8.945 -0.3394 -1.2664  0.5559
 3347SOL    HW221675   3.084   3.217   8.860  0.9670  0.3897 -0.2339
 3348SOL     OW21676   3.232   2.336   6.988  0.1727 -0.1242  0.7768
 3348SOL    HW121677   3.264   2.404   7.048 -1.8645  0.3033  1.3926
 3348SOL    HW221678   3.165   2.292   7.041 -0.4947  0.1980  0.2019
 3349SOL     OW21679   0.914   3.173   2.065 -0.0723 -0.2417  0.3565
 3349SOL    HW121680   0.868   3.115   2.125 -0.2930 -1.3568 -0.9095
 3349SOL    HW221681   0.851   3.227   2.017 -1.7175 -0.6135  2.0739
 3350SOL     OW21682   1.149   0.076   2.013 -0.1045 -0.7413 -0.3157
 3350SOL    HW121683   1.209   0.079   1.939 -0.5499 -0.0720 -0.6565
 3350SOL    HW221684   1.067   0.045   1.973  0.7553 -0.5931 -2.1973
 3351SOL     OW21685   0.137   3.221   8.697 -0.4278 -0.0579 -0.1925
 3351SOL    HW121686   0.180   3.230   8.782  0.1427  0.3756 -0.5231
 3351SOL    HW221687   0.127   3.316   8.683 -1.0581 -0.1656 -0.4623
 3352SOL     OW21688   0.397   4.153   2.768  0.1588 -0.1559  0.3077
 3352SOL    HW121689   0.491   4.135   2.766 -0.4660 -3.2442 -1.7472
 3352SOL    HW221690   0.357   4.125   2.685 -0.0220 -1.9309  1.0016
 3353SOL     OW21691   0.803   4.704   9.666  0.5337 -0.1923  0.7238
 3353SOL    HW121692   0.879   4.709   9.609  1.5204 -1.4856  1.9388
 3353SOL    HW221693   0.797   4.611   9.687 -0.9922 -0.2169  0.2215
 3354SOL     OW21694   3.784   2.007   0.234 -0.3198 -0.8053  0.0582
 3354SOL    HW121695   3.849   2.070   0.204  0.0515 -1.0812  0.2783
 3354SOL    HW221696   3.723   2.062   0.283  1.0430  0.9270 -0.1611
 3355SOL     OW21697   0.780   4.494   4.241 -0.1552  0.0037  0.4362
 3355SOL    HW121698   0.813   4.404   4.245 -0.3739 -0.1179 -0.5646
 3355SOL    HW221699   0.858   4.546   4.261  0.8151 -0.6958 -1.5926
 3356SOL     OW21700   4.297   1.749   2.119  0.0153 -0.1534  0.2907
 3356SOL    HW121701   4.215   1.753   2.069  0.0893 -0.0683  0.1737
 3356SOL    HW221702   4.313   1.844   2.124  0.4620 -0.2175  0.0684
 3357SOL     OW21703   3.710   1.753  10.305  0.7242  0.3983 -0.1603
 3357SOL    HW121704   3.801   1.742  10.335  0.7110 -1.2983 -0.7324
 3357SOL    HW221705   3.677   1.817  10.369  1.8670  2.1808 -1.3581
 3358SOL     OW21706   1.058   0.366   8.325  0.8658 -0.0682  0.1369
 3358SOL    HW121707   1.097   0.395   8.408  1.1925 -2.7826  0.9509
 3358SOL    HW221708   1.013   0.447   8.305 -1.4803 -1.4919 -0.3666
 3359SOL     OW21709   1.392   3.922   3.534 -0.8124  0.0268 -0.1158
 3359SOL    HW121710   1.343   3.874   3.467 -0.1446  1.2625 -1.5024
 3359SOL    HW221711   1.336   3.998   3.551 -1.4514 -0.3800 -0.3646
 3360SOL     OW21712   0.026   2.534  15.929  0.2254 -0.3931 -0.1690
 3360SOL    HW121713   0.033   2.574  15.842  0.4381  1.1582  0.5521
 3360SOL    HW221714   0.069   2.450  15.916 -0.0468 -0.6432  0.5564
 3361SOL     OW21715   3.009   1.602   9.714 -0.2698 -0.2983  0.1643
 3361SOL    HW121716   2.986   1.512   9.690 -2.1791  0.1123  0.4182
 3361SOL    HW221717   3.034   1.640   9.630 -0.5968 -0.1176  0.1456
 3362SOL     OW21718   2.684   3.549   6.058  0.3749 -0.6800  0.9448
 3362SOL    HW121719   2.660   3.473   6.005 -1.6863 -0.7364  1.9627
 3362SOL    HW221720   2.702   3.498   6.137 -0.4219  1.8697  2.7607
 3363SOL     OW21721   4.597   1.941   4.011 -0.1867 -0.1086  0.2841
 3363SOL    HW121722   4.642   1.919   4.093  1.9726 -3.4985 -1.8451
 3363SOL    HW221723   4.661   2.004   3.978 -0.0881 -0.2610  0.1884
 3364SOL     OW21724   3.896   3.629   4.614 -0.0486  0.8368  0.0335
 3364SOL    HW121725   3.814   3.666   4.647  0.6896  3.3101 -0.8701
 3364SOL    HW221726   3.944   3.708   4.588 -0.3048  1.4782  1.5055
 3365SOL     OW21727   2.159   0.997   7.908 -0.0780  0.3155  0.0672
 3365SOL    HW121728   2.093   0.929   7.891 -0.5507  0.3929  1.6770
 3365SOL    HW221729   2.207   1.000   7.825 -1.1239 -1.2883 -0.6088
 3366SOL     OW21730   4.007   1.316   5.639 -0.6371 -0.2067  0.0189
 3366SOL    HW121731   4.095   1.301   5.672 -0.0693  1.2889 -0.8318
 3366SOL    HW221732   3.969   1.228   5.632  1.8186 -1.1697 -1.4185
 3367SOL     OW21733   0.858   3.683   3.441  0.0388 -0.3173 -0.3043
 3367SOL    HW121734   0.815   3.756   3.486  2.1432  1.5231 -1.2867
 3367SOL    HW221735   0.936   3.671   3.495 -1.1182  0.7013  1.6124
 3368SOL     OW21736   4.248   2.251  11.581  0.2007  0.1950 -0.0864
 3368SOL    HW121737   4.283   2.178  11.632 -3.1350  0.3793  2.4908
 3368SOL    HW221738   4.279   2.326  11.632 -0.2379  0.6081 -0.4361
 3369SOL     OW21739   4.005   2.143   8.887  0.3337  0.4475 -0.6511
 3369SOL    HW121740   3.938   2.081   8.915 -0.2207  2.4153  2.4106
 3369SOL    HW221741   4.062   2.148   8.964  0.1126  0.6004 -0.4958
 3370SOL     OW21742   0.615   1.485   6.859 -0.6225 -0.0061 -0.2076
 3370SOL    HW121743   0.560   1.436   6.798  1.8798 -1.0357 -1.6341
 3370SOL    HW221744   0.701   1.444   6.847  0.1189  1.5886 -0.5065
 3371SOL     OW21745   0.334   0.417  13.088 -0.1954  0.0880 -0.3131
 3371SOL    HW121746   0.317   0.504  13.125  3.1142 -0.9311  3.4657
 3371SOL    HW221747   0.356   0.366  13.165  0.6414  3.2154  1.5025
 3372SOL     OW21748   4.130   3.519  12.239  0.3854  0.0933  0.0908
 3372SOL    HW121749   4.073   3.534  12.164  1.0946  2.2748 -0.0016
 3372SOL    HW221750   4.069   3.559  12.301  2.3512  3.5404 -0.2166
 3373SOL     OW21751   1.233   3.766   6.866  0.2748  0.1470 -0.2280
 3373SOL    HW121752   1.176   3.783   6.791  0.3511 -1.0055 -0.5588
 3373SOL    HW221753   1.302   3.826   6.837 -1.1737  2.0996  0.3732
 3374SOL     OW21754   3.637   1.005   2.233  0.1576  0.1800  0.0249
 3374SOL    HW121755   3.716   1.054   2.209  1.3101 -1.0981  1.2158
 3374SOL    HW221756   3.617   0.958   2.152 -2.9030  2.0174 -0.3057
 3375SOL     OW21757   3.861   2.402   2.719  0.3388 -0.1770 -0.3542
 3375SOL    HW121758   3.819   2.324   2.755 -1.2592  1.6742  1.8008
 3375SOL    HW221759   3.828   2.397   2.630  0.3200 -0.5602 -0.3260
 3376SOL     OW21760   1.239   2.428  11.200  0.4128 -0.6081 -0.8530
 3376SOL    HW121761   1.272   2.339  11.202 -0.4553 -0.8402  2.8910
 3376SOL    HW221762   1.243   2.442  11.105  1.8767 -2.4979 -1.0666
 3377SOL     OW21763   4.453   1.752   5.536 -0.4399 -0.0163 -0.4518
 3377SOL    HW121764   4.444   1.846   5.524 -1.1178  0.0397  0.4923
 3377SOL    HW221765   4.396   1.723   5.465 -1.9069  1.0348  0.2987
 3378SOL     OW21766   4.471   3.001   3.205 -0.3105 -0.4591 -0.3648
 3378SOL    HW121767   4.403   2.972   3.144 -1.6524  0.1691  0.8338
 3378SOL    HW221768   4.420   3.023   3.283 -0.9030  0.2919 -0.9657
 3379SOL     OW21769   4.098   1.013   2.466  0.0502  0.0920 -0.0625
 3379SOL    HW121770   4.042   0.941   2.492  0.4626 -0.7569 -1.5183
 3379SOL    HW221771   4.042   1.079   2.507 -0.4180  0.2198 -0.8905
 3380SOL     OW21772   0.480   3.046   4.747  0.2199 -0.1074 -0.0019
 3380SOL    HW121773   0.551   2.992   4.711  0.6485 -0.3049  1.1560
 3380SOL    HW221774   0.398   3.026   4.700 -0.4996  2.7737  0.0059
 3381SOL     OW21775   3.663   4.213   9.199  0.0781  0.3194 -0.5546
 3381SOL    HW121776   3.591   4.157   9.228  1.5614 -2.7224 -2.7464
 3381SOL    HW221777   3.666   4.276   9.271  2.0585  0.2387 -0.5732
 3382SOL     OW21778   3.835   3.087  11.851  0.6073 -0.0799 -0.3052
 3382SOL    HW121779   3.789   3.034  11.917 -0.5778 -0.5961 -1.5404
 3382SOL    HW221780   3.822   3.031  11.775 -0.2061 -0.0878 -0.1627
 3383SOL     OW21781   2.884   4.400   7.844  0.1624 -0.0057  0.1986
 3383SOL    HW121782   2.892   4.333   7.912 -1.5086  0.1675  0.5826
 3383SOL    HW221783   2.912   4.352   7.767 -1.1625  1.0416 -0.9361
 3384SOL     OW21784   3.849   4.120   2.731 -0.4415  0.1677 -0.1467
 3384SOL    HW121785   3.768   4.108   2.682 -0.6851  1.6321 -0.1055
 3384SOL    HW221786   3.865   4.030   2.758  0.7923  0.5248  0.3115
 3385SOL     OW21787   0.432   4.505  10.344  0.0510  0.5678  0.5185
 3385SOL    HW121788   0.526   4.491  10.357  0.3392  1.8411 -0.2009
 3385SOL    HW221789   0.404   4.483  10.433 -2.4758  2.8759  0.3233
 3386SOL     OW21790   2.468   4.317   7.811 -0.3277 -0.4022  0.2471
 3386SOL    HW121791   2.521   4.330   7.889  0.2662 -1.0324 -0.0535
 3386SOL    HW221792   2.513   4.249   7.761  1.6417  0.5774  0.6986
 3387SOL     OW21793   3.223   3.021   5.395  0.4207 -0.1557 -0.2106
 3387SOL    HW121794   3.258   2.994   5.480 -0.2638  0.8754  0.3926
 3387SOL    HW221795   3.136   2.984   5.407  0.0706  0.9547  0.6474
 3388SOL     OW21796   2.726   0.737   1.254  0.4118  0.3033  0.0902
 3388SOL    HW121797   2.800   0.746   1.194  0.3875 -1.2303 -0.1679
 3388SOL    HW221798   2.761   0.774   1.335  1.5398 -0.5517 -0.0100
 3389SOL     OW21799   3.139   2.743   0.242  0.4086 -0.2073 -0.0682
 3389SOL    HW121800   3.094   2.686   0.305 -2.0130  1.5336 -0.2475
 3389SOL    HW221801   3.200   2.689   0.193 -0.7863 -1.1158 -0.5583
 3390SOL     OW21802   4.090   2.750   3.291 -0.2820  0.0233  0.4489
 3390SOL    HW121803   4.071   2.665   3.251  1.1420 -0.2997  0.4635
 3390SOL    HW221804   4.125   2.722   3.376 -0.8646  1.7778  1.2750
 3391SOL     OW21805   1.666   2.411   2.001 -0.1140 -0.6989  0.2872
 3391SOL    HW121806   1.684   2.486   1.945 -1.3126  0.7487  1.8307
 3391SOL    HW221807   1.731   2.348   1.969  1.5453  1.1283  0.0532
 3392SOL     OW21808   0.374   1.069   2.629 -0.1837 -0.2616 -0.2838
 3392SOL    HW121809   0.352   1.158   2.602  0.3727  0.2403  0.9078
 3392SOL    HW221810   0.312   1.057   2.701  1.2984  0.7368  1.1384
 3393SOL     OW21811   0.193   0.929   4.546  0.0278 -0.1921  0.2500
 3393SOL    HW121812   0.237   0.890   4.621  2.0795 -1.6864 -1.7476
 3393SOL    HW221813   0.262   0.985   4.511  0.4109  0.0182  1.3245
 3394SOL     OW21814   3.084   4.437   3.734  0.5819 -0.6485  0.1642
 3394SOL    HW121815   3.173   4.471   3.727  1.0023 -1.7975 -0.0261
 3394SOL    HW221816   3.040   4.479   3.660 -0.6411  0.3107  1.4534
 3395SOL     OW21817   2.887   1.182   6.787  0.3580  0.4881 -0.2452
 3395SOL    HW121818   2.820   1.222   6.842  1.4963 -0.3940  1.7893
 3395SOL    HW221819   2.887   1.238   6.710 -0.5509 -0.0593 -0.6461
 3396SOL     OW21820   3.112   2.143   6.304  0.3120  0.2913 -0.4147
 3396SOL    HW121821   3.195   2.138   6.350 -0.8869  1.1777  1.8471
 3396SOL    HW221822   3.132   2.221   6.252  2.2299  0.4175  0.5127
 3397SOL     OW21823   2.776   2.123   4.926 -0.2032  0.4418 -0.4299
 3397SOL    HW121824   2.682   2.137   4.920 -0.1593  0.8568 -0.1819
 3397SOL    HW221825   2.780   2.027   4.926 -0.3280  0.4309  0.5667
 3398SOL     OW21826   3.410   3.967   7.070  0.5131 -0.7808  0.9645
 3398SOL    HW121827   3.402   3.919   6.988  0.8687 -1.3935  1.2951
 3398SOL    HW221828   3.326   3.950   7.112  0.3108  0.0398  0.9022
 3399SOL     OW21829   1.391   4.259   1.950 -0.5074  0.2361  0.7480
 3399SOL    HW121830   1.415   4.345   1.985 -2.0311  0.0835  2.1614
 3399SOL    HW221831   1.320   4.228   2.005 -0.5956  0.6427  0.8615
 3400SOL     OW21832   2.985   2.304   7.549 -0.7882 -0.5210 -0.2898
 3400SOL    HW121833   3.056   2.288   7.487 -0.0658 -1.7915  0.8691
 3400SOL    HW221834   3.005   2.395   7.569 -1.0355 -0.7581  1.0412
 3401SOL     OW21835   1.772   2.773   5.273  0.8798 -0.1023 -0.2247
 3401SOL    HW121836   1.750   2.680   5.274 -1.7108  0.5218  1.0923
 3401SOL    HW221837   1.814   2.777   5.187 -1.5696 -0.8408 -1.4841
 3402SOL     OW21838   1.931   0.169   1.497  0.0828 -0.0917 -0.1841
 3402SOL    HW121839   1.915   0.126   1.581 -1.4174 -1.1619 -1.0266
 3402SOL    HW221840   1.844   0.190   1.463 -0.5076  2.1498  2.7530
 3403SOL     OW21841   2.626   0.598   4.467  0.1056 -0.2051 -0.1313
 3403SOL    HW121842   2.633   0.509   4.433  0.0716 -0.2847  0.0690
 3403SOL    HW221843   2.681   0.587   4.545  2.7770 -1.0883 -2.1578
 3404SOL     OW21844   2.609   1.463   3.107 -0.1870 -0.0011 -0.0790
 3404SOL    HW121845   2.567   1.548   3.095 -1.9630 -0.9226 -0.4353
 3404SOL    HW221846   2.577   1.411   3.033 -0.6607  0.2000 -0.0111
 3405SOL     OW21847   2.872   2.533   3.712 -0.2074 -0.1841 -0.6593
 3405SOL    HW121848   2.932   2.604   3.691 -0.7839  0.8876  1.3796
 3405SOL    HW221849   2.794   2.543   3.657  0.2978  0.8510 -1.1952
 3406SOL     OW21850   0.383   3.895   6.756  0.5153  0.1608  0.2226
 3406SOL    HW121851   0.409   3.899   6.664  0.2372  0.3057  0.1505
 3406SOL    HW221852   0.288   3.903   6.747  0.4998 -0.3120 -0.0480
 3407SOL     OW21853   1.512   1.967  13.027 -0.0198  0.2919 -0.1118
 3407SOL    HW121854   1.427   1.994  12.991 -0.5121 -1.2061 -0.0898
 3407SOL    HW221855   1.566   1.971  12.948  1.0157 -0.3205  0.5695
 3408SOL     OW21856   4.143   3.190   3.299  0.2539  0.4245  0.0508
 3408SOL    HW121857   4.068   3.135   3.320  1.2723 -0.4674  1.3800
 3408SOL    HW221858   4.206   3.152   3.360 -0.1546 -3.3287 -1.8801
 3409SOL     OW21859   4.594   3.456   7.470  0.0580 -0.4612  0.0708
 3409SOL    HW121860   4.574   3.426   7.558 -1.1723  3.1250  1.0209
 3409SOL    HW221861   4.688   3.441   7.457  0.0301  1.2253 -2.0859
 3410SOL     OW21862   1.525   2.055   6.532 -0.4576  0.1108  0.3304
 3410SOL    HW121863   1.584   2.125   6.561  0.4918  0.4396 -2.4294
 3410SOL    HW221864   1.458   2.108   6.488 -0.2895 -0.2659 -0.3743
 3411SOL     OW21865   0.815   4.385   9.185 -0.3072 -0.2511  0.2039
 3411SOL    HW121866   0.842   4.361   9.096  0.2886 -0.8732  0.5556
 3411SOL    HW221867   0.764   4.462   9.160 -1.6081 -0.9567  0.6735
 3412SOL     OW21868   4.070   0.891  16.226 -0.2369 -0.1353  0.0528
 3412SOL    HW121869   4.032   0.936  16.301 -2.1150 -0.5228 -0.6685
 3412SOL    HW221870   3.997   0.833  16.203  1.1323 -1.4065 -1.0802
 3413SOL     OW21871   0.361   1.918   2.552  0.4684 -0.0805  0.5680
 3413SOL    HW121872   0.380   1.984   2.618 -0.4291 -1.1166  1.8499
 3413SOL    HW221873   0.279   1.880   2.584 -0.5035 -0.0733 -1.9009
 3414SOL     OW21874   4.088   1.213  14.721 -0.1182  0.0292  0.8955
 3414SOL    HW121875   4.090   1.134  14.667 -1.6787  1.7795 -1.7390
 3414SOL    HW221876   4.168   1.257  14.692  0.6134  0.3796  3.4655
 3415SOL     OW21877   1.392   1.221   7.476 -0.9072  0.1894 -0.4533
 3415SOL    HW121878   1.376   1.315   7.472 -0.1969  0.4120  1.7845
 3415SOL    HW221879   1.443   1.218   7.557  1.8760  0.2538 -2.1922
 3416SOL     OW21880   2.824   3.407  14.327 -0.1755 -0.1513 -0.3245
 3416SOL    HW121881   2.896   3.384  14.269  2.4700  0.8166  2.6223
 3416SOL    HW221882   2.769   3.459  14.267 -0.5074 -0.4538 -0.2833
 3417SOL     OW21883   3.931   2.968  15.713  0.1365  0.3251  0.2294
 3417SOL    HW121884   4.003   3.006  15.662 -0.6357 -0.4793 -1.4636
 3417SOL    HW221885   3.895   3.049  15.748  0.6619  0.2939  0.8451
 3418SOL     OW21886   4.577   3.608   9.265  0.4071  0.0319  0.1639
 3418SOL    HW121887   4.663   3.640   9.238  0.3930  0.1151  0.2197
 3418SOL    HW221888   4.602   3.516   9.272 -2.5927 -0.8066 -0.3100
 3419SOL     OW21889   2.158   2.790   5.690  0.1674  0.1827 -0.2606
 3419SOL    HW121890   2.113   2.874   5.681 -2.2877 -0.9009  1.9860
 3419SOL    HW221891   2.252   2.810   5.679  0.3684  0.1528  1.4241
 3420SOL     OW21892   2.870   3.417  16.881  0.1864 -0.3145  0.4776
 3420SOL    HW121893   2.894   3.333  16.843 -1.1562 -0.9512  1.0092
 3420SOL    HW221894   2.927   3.427  16.957 -1.6710  0.5268  1.7820
 3421SOL     OW21895   3.418   3.036  10.681 -0.0039 -0.3727 -0.0276
 3421SOL    HW121896   3.368   3.007  10.758  0.0746  0.9551  0.5349
 3421SOL    HW221897   3.505   3.015  10.714  0.2712 -2.3273 -1.9946
 3422SOL     OW21898   3.779   1.972  11.927  0.1589  0.8989  0.1085
 3422SOL    HW121899   3.840   1.950  11.997  0.4991  0.3496 -0.3550
 3422SOL    HW221900   3.698   1.963  11.978  0.3254  1.9900  0.5574
 3423SOL     OW21901   2.275   4.477   2.896  0.5293 -0.7752  0.6897
 3423SOL    HW121902   2.307   4.560   2.862 -0.2031 -0.5017  0.6676
 3423SOL    HW221903   2.294   4.493   2.988 -1.0364 -0.0725  0.8796
 3424SOL     OW21904   0.227   3.400   3.036 -0.4261 -0.1212  0.0197
 3424SOL    HW121905   0.149   3.372   2.988  1.9954 -2.0382 -2.7448
 3424SOL    HW221906   0.247   3.489   3.005  0.8465  0.3821  2.2606
 3425SOL     OW21907   3.215   0.550   9.871 -0.4584  0.4069 -0.3798
 3425SOL    HW121908   3.309   0.565   9.877 -0.3087 -1.5630  2.3817
 3425SOL    HW221909   3.179   0.619   9.927  0.2592 -0.2568  0.9103
 3426SOL     OW21910   1.849   0.150   4.268 -0.1281  0.2847  0.0545
 3426SOL    HW121911   1.789   0.225   4.268 -0.2719  0.1690 -0.1264
 3426SOL    HW221912   1.814   0.083   4.327 -0.5538 -0.8762 -1.5453
 3427SOL     OW21913   1.832   3.975  12.333  0.1487 -0.1475 -0.2584
 3427SOL    HW121914   1.886   3.905  12.370 -0.2236 -0.2048  0.1715
 3427SOL    HW221915   1.745   3.937  12.338  0.4492 -1.3080 -4.2377
 3428SOL     OW21916   2.350   3.998   8.425  0.0984 -0.3696  0.8122
 3428SOL    HW121917   2.306   3.962   8.348  2.2474 -1.8460  0.2767
 3428SOL    HW221918   2.387   4.084   8.405 -1.7531  0.5758  1.4817
 3429SOL     OW21919   2.718   0.579   8.952 -0.0034  0.1804 -0.2160
 3429SOL    HW121920   2.752   0.536   9.031  1.0397  0.5016 -0.4835
 3429SOL    HW221921   2.772   0.658   8.954 -1.3712  1.1034 -0.0206
 3430SOL     OW21922   2.775   3.595  14.110  0.1055  0.3014 -0.0264
 3430SOL    HW121923   2.728   3.667  14.068  0.0447 -0.3475 -1.0743
 3430SOL    HW221924   2.854   3.642  14.135 -0.3881  2.0845 -1.8648
 3431SOL     OW21925   1.028   2.525   6.491  0.3331 -0.2176  0.4662
 3431SOL    HW121926   0.963   2.558   6.554 -0.6347 -1.6507  0.2132
 3431SOL    HW221927   0.965   2.499   6.424  1.8912 -0.2253 -0.9923
 3432SOL     OW21928   1.215   1.314   2.790  0.3188 -0.3143 -0.3709
 3432SOL    HW121929   1.295   1.366   2.777  0.1140  0.2123  0.4566
 3432SOL    HW221930   1.168   1.385   2.834  0.5411  0.5272 -1.4817
 3433SOL     OW21931   0.221   3.653   1.513  0.7365 -0.1079  0.1157
 3433SOL    HW121932   0.189   3.618   1.596  0.4771  0.7368  0.3769
 3433SOL    HW221933   0.294   3.596   1.488 -0.9773 -1.6058 -1.4276
 3434SOL     OW21934   0.043   4.637  13.285 -0.6978  0.0573  0.6048
 3434SOL    HW121935   0.018   4.602  13.199  1.4967  0.6926 -0.3126
 3434SOL    HW221936   4.698   4.677  13.317  0.3871  1.5904  1.4252
 3435SOL     OW21937   2.226   0.596   7.587  0.3326  0.3217 -0.5623
 3435SOL    HW121938   2.174   0.549   7.521  0.3234  0.1932 -0.4643
 3435SOL    HW221939   2.308   0.549   7.569  0.6173  0.7494 -0.3651
 3436SOL     OW21940   2.471   0.478   9.308 -0.0101  0.3752 -0.2702
 3436SOL    HW121941   2.467   0.512   9.397 -0.5979 -1.1263  0.2715
 3436SOL    HW221942   2.380   0.470   9.278 -0.1491 -3.8199  1.3413
 3437SOL     OW21943   4.274   0.295   9.482 -0.2966  0.8872  0.4290
 3437SOL    HW121944   4.330   0.217   9.489 -1.5445 -0.2108 -1.7627
 3437SOL    HW221945   4.193   0.250   9.504 -0.4898  0.6372 -0.7898
 3438SOL     OW21946   4.167   0.022  12.998 -0.7786  0.7876 -0.3106
 3438SOL    HW121947   4.132   0.078  12.929 -0.2022  1.3618 -0.1391
 3438SOL    HW221948   4.237   0.077  13.034  0.5263 -2.7102  2.5149
 3439SOL     OW21949   0.690   0.225   5.371 -0.1538 -0.0323 -0.8646
 3439SOL    HW121950   0.724   0.139   5.395  1.6880  1.2242  1.1006
 3439SOL    HW221951   0.740   0.234   5.290 -1.1768  1.0363 -1.3677
 3440SOL     OW21952   0.709   2.123   1.243  0.2003 -0.1141 -0.1342
 3440SOL    HW121953   0.712   2.205   1.293 -1.5924 -0.8961  1.2628
 3440SOL    HW221954   0.673   2.070   1.315 -1.4768 -0.0311 -0.9246
 3441SOL     OW21955   4.699   4.517   5.207  0.1325 -0.3364  0.1706
 3441SOL    HW121956   0.048   4.553   5.231  1.3674 -1.8057 -2.0093
 3441SOL    HW221957   4.699   4.445   5.270 -2.5508 -1.0447 -0.6156
 3442SOL     OW21958   0.806   4.475   6.521  0.3748 -0.1514  0.4093
 3442SOL    HW121959   0.854   4.517   6.593  0.9146  1.9298 -1.1446
 3442SOL    HW221960   0.727   4.450   6.569 -0.8425  1.7107 -0.6413
 3443SOL     OW21961   0.236   0.813   6.568  0.1372  0.0375  0.0813
 3443SOL    HW121962   0.250   0.833   6.475  1.4597  0.3710  0.3534
 3443SOL    HW221963   0.199   0.894   6.602  2.9935  0.0393  3.1674
 3444SOL     OW21964   4.048   1.355   4.653 -0.4389 -0.5431  0.6605
 3444SOL    HW121965   4.006   1.371   4.737 -1.5366 -1.3869  0.2727
 3444SOL    HW221966   4.052   1.446   4.624 -0.8690 -0.0989  2.0421
 3445SOL     OW21967   0.713   2.597   4.712  0.1836  0.1230  0.3160
 3445SOL    HW121968   0.754   2.511   4.704 -0.0363 -0.2243  3.0206
 3445SOL    HW221969   0.733   2.620   4.803  2.4169 -0.9177  0.0920
 3446SOL     OW21970   2.750   4.607   5.093 -0.2372 -0.3767 -0.4390
 3446SOL    HW121971   2.792   4.676   5.042  0.2048 -1.6611 -1.8024
 3446SOL    HW221972   2.689   4.568   5.031  0.9743 -2.4625 -0.3016
 3447SOL     OW21973   1.293   4.456   7.397 -0.0531 -0.3835 -1.2957
 3447SOL    HW121974   1.209   4.502   7.400  0.7709  0.9257  1.8987
 3447SOL    HW221975   1.351   4.512   7.449  0.0773 -1.4478 -0.2740
 3448SOL     OW21976   0.867   0.557   8.307  0.1706  0.8903 -0.0216
 3448SOL    HW121977   0.844   0.620   8.238 -2.1604  0.9702  0.8056
 3448SOL    HW221978   0.825   0.594   8.385 -0.1775 -0.2417  0.3191
 3449SOL     OW21979   4.616   3.612   3.031  0.3775 -0.9192  0.0156
 3449SOL    HW121980   4.645   3.590   3.119 -0.4994  0.4650  0.6524
 3449SOL    HW221981   4.528   3.574   3.029  0.9532 -2.4381  3.8817
 3450SOL     OW21982   2.871   2.349  15.288 -0.2709 -0.0067 -0.0632
 3450SOL    HW121983   2.912   2.300  15.217 -1.5401  0.1482 -0.8884
 3450SOL    HW221984   2.888   2.441  15.270 -0.5607 -0.1374 -0.9631
 3451SOL     OW21985   2.584   3.468   1.718 -0.2530 -0.1937 -0.1131
 3451SOL    HW121986   2.660   3.523   1.702 -0.2236 -0.1132  0.3138
 3451SOL    HW221987   2.628   3.411   1.781 -2.2610 -1.5705  0.0546
 3452SOL     OW21988   3.464   2.723  10.601 -0.0450 -0.9708  0.7790
 3452SOL    HW121989   3.551   2.745  10.567 -0.8434 -0.1073 -0.7228
 3452SOL    HW221990   3.404   2.761  10.536  0.6057 -2.0557 -0.4457
 3453SOL     OW21991   1.617   1.249   5.294  0.4821 -0.2909  0.6842
 3453SOL    HW121992   1.682   1.294   5.348  0.5466 -0.8306  1.0664
 3453SOL    HW221993   1.555   1.243   5.367 -1.2160 -1.5340 -0.8613
 3454SOL     OW21994   2.822   2.073  14.756  0.3619  0.1684  0.2946
 3454SOL    HW121995   2.827   2.087  14.662 -2.2778  3.1048  0.5907
 3454SOL    HW221996   2.905   2.115  14.778  1.1826 -0.3747 -1.8037
 3455SOL     OW21997   1.989   0.967   0.282  0.2554  0.0975  0.0260
 3455SOL    HW121998   1.957   0.882   0.251  1.2186  0.0678 -0.8762
 3455SOL    HW221999   1.909   1.003   0.321 -0.6793  0.5017 -2.2717
 3456SOL     OW22000   3.560   0.100   3.325 -0.0507 -0.1459 -0.0073
 3456SOL    HW122001   3.592   0.148   3.249  0.2783  3.2939  2.3226
 3456SOL    HW222002   3.494   0.049   3.278  0.1288  0.6236 -1.1007
 3457SOL     OW22003   3.000   3.015   8.629  0.2099 -0.4037  0.1607
 3457SOL    HW122004   2.916   2.981   8.660  0.9466 -1.0263  1.4814
 3457SOL    HW222005   2.979   3.108   8.621  2.2458 -0.0464 -0.9945
 3458SOL     OW22006   2.867   1.661   3.064  0.1525  0.4583  0.0989
 3458SOL    HW122007   2.874   1.569   3.089 -0.7067  0.5312  0.5972
 3458SOL    HW222008   2.917   1.697   3.138 -1.6534  0.7775  1.1649
 3459SOL     OW22009   1.556   1.203   3.265  0.2227 -0.2764  0.1117
 3459SOL    HW122010   1.579   1.169   3.352 -3.1456  2.5524  2.1044
 3459SOL    HW222011   1.596   1.290   3.270  0.8247 -0.6425  1.8361
 3460SOL     OW22012   0.680   1.562   5.918 -0.4124 -0.0562 -0.7100
 3460SOL    HW122013   0.765   1.520   5.908 -0.4567 -0.6737  1.6236
 3460SOL    HW222014   0.677   1.580   6.012 -1.9281 -1.7188 -0.4372
 3461SOL     OW22015   3.144   2.687  12.029  0.1791 -0.0279  1.0498
 3461SOL    HW122016   3.127   2.714  11.939  0.4063 -0.5953  0.8374
 3461SOL    HW222017   3.060   2.644  12.047 -0.3409 -1.0110 -3.6512
 3462SOL     OW22018   4.383   4.558   6.323 -0.4110 -0.1196  0.4952
 3462SOL    HW122019   4.343   4.583   6.406 -1.2581  1.4430 -0.3843
 3462SOL    HW222020   4.311   4.582   6.263 -0.7082 -1.0886  0.4523
 3463SOL     OW22021   3.239   4.193   5.201 -0.5470  0.5990 -0.1270
 3463SOL    HW122022   3.156   4.216   5.242 -0.7711  1.1607 -0.8782
 3463SOL    HW222023   3.230   4.233   5.114 -0.2798 -0.9783 -0.8683
 3464SOL     OW22024   1.188   1.035   2.820 -0.2487 -0.2275  0.4952
 3464SOL    HW122025   1.280   1.025   2.845 -0.0480 -1.0176 -0.5870
 3464SOL    HW222026   1.176   1.129   2.802 -0.3044 -0.2029  0.6532
 3465SOL     OW22027   4.373   1.665   3.262  0.0921  0.4490 -0.3361
 3465SOL    HW122028   4.387   1.697   3.351 -1.5706 -2.6649  1.0274
 3465SOL    HW222029   4.446   1.693   3.207  0.4751 -1.5944 -0.8835
 3466SOL     OW22030   3.269   0.885   5.138 -0.7410  0.1110 -0.0288
 3466SOL    HW122031   3.269   0.822   5.210  2.2033 -0.4159 -0.5200
 3466SOL    HW222032   3.337   0.949   5.158  0.2093 -1.2880  1.1479
 3467SOL     OW22033   0.036   2.541   7.220  0.2430 -0.0964  0.5365
 3467SOL    HW122034   0.064   2.452   7.241  0.1318  0.2339  2.0431
 3467SOL    HW222035   0.123   2.574   7.200 -0.5448  1.1137 -0.9163
 3468SOL     OW22036   3.756   1.039   2.526  0.0784 -0.0403 -0.2063
 3468SOL    HW122037   3.734   0.946   2.539  2.2201 -0.6133 -0.6077
 3468SOL    HW222038   3.684   1.071   2.472 -1.1252 -0.0493  1.3638
 3469SOL     OW22039   0.583   2.627   7.460 -0.4733  0.5195 -0.4268
 3469SOL    HW122040   0.606   2.600   7.549 -0.1811 -1.3173 -1.0575
 3469SOL    HW222041   0.488   2.629   7.476 -0.6220 -0.5950 -1.1772
 3470SOL     OW22042   1.467   1.885   7.031 -0.5374  0.1596 -0.6791
 3470SOL    HW122043   1.519   1.848   6.959 -0.4254 -1.0633  0.0219
 3470SOL    HW222044   1.409   1.936   6.975 -0.8803 -0.0531 -0.5211
 3471SOL     OW22045   1.738   2.054   3.645 -0.2533  0.5408 -0.0865
 3471SOL    HW122046   1.731   2.087   3.735  0.0287  0.7447 -0.1408
 3471SOL    HW222047   1.644   2.046   3.632  0.0112 -3.5216  0.2320
 3472SOL     OW22048   1.736   4.519   8.823  0.1472 -0.0779 -0.3240
 3472SOL    HW122049   1.786   4.599   8.841 -0.5155  0.0303  1.0144
 3472SOL    HW222050   1.788   4.462   8.879 -0.1394  1.6468  1.7117
 3473SOL     OW22051   0.922   4.352   7.276  0.2569  0.8307 -0.3250
 3473SOL    HW122052   0.996   4.360   7.216  0.1401 -0.3145 -0.6272
 3473SOL    HW222053   0.887   4.439   7.256 -0.0784  0.1492 -2.6573
 3474SOL     OW22054   3.823   2.538   3.887 -0.1069  0.3253 -0.1057
 3474SOL    HW122055   3.912   2.506   3.902  0.0417  1.7226  2.0572
 3474SOL    HW222056   3.818   2.608   3.952 -3.0589  0.4668 -0.5206
 3475SOL     OW22057   1.661   3.077  13.228 -0.1513 -0.0578  0.3767
 3475SOL    HW122058   1.739   3.083  13.172  0.9012  0.7912  1.9483
 3475SOL    HW222059   1.660   2.982  13.230 -2.0069 -0.0241  1.1754
 3476SOL     OW22060   4.624   4.018  13.169 -0.4851  0.2836  0.4839
 3476SOL    HW122061   4.581   4.099  13.143 -0.4177  0.6511  1.4894
 3476SOL    HW222062   4.562   3.955  13.134 -0.6066  0.0267  1.1603
 3477SOL     OW22063   3.917   0.374   9.110  0.0155 -0.0793  0.4378
 3477SOL    HW122064   3.856   0.303   9.129 -0.0263 -0.1456  0.0645
 3477SOL    HW222065   3.884   0.382   9.020 -1.3942 -2.2379  0.7563
 3478SOL     OW22066   3.152   3.089   8.007 -0.6671  0.3741  0.5799
 3478SOL    HW122067   3.206   3.093   7.929  0.5106  0.2841  1.4002
 3478SOL    HW222068   3.190   3.010   8.046 -2.0063  0.1749  1.5025
 3479SOL     OW22069   1.465   1.037   2.547  0.5579 -0.5476  0.2918
 3479SOL    HW122070   1.528   1.072   2.609 -1.5722  1.6220  1.2470
 3479SOL    HW222071   1.448   0.953   2.589 -1.3787 -0.6982 -0.7796
 3480SOL     OW22072   2.663   4.554  10.043  0.1013 -0.3516 -0.3075
 3480SOL    HW122073   2.658   4.465  10.008  0.2436 -0.7905  0.8007
 3480SOL    HW222074   2.630   4.600   9.966 -1.5935 -0.6478  0.2534
 3481SOL     OW22075   0.400   1.949   7.995  0.4347  0.1470  0.0848
 3481SOL    HW122076   0.309   1.922   7.986  0.7499 -0.7232 -0.4825
 3481SOL    HW222077   0.405   1.950   8.090  1.8592 -0.2867  0.0122
 3482SOL     OW22078   3.005   3.268  17.628  0.5793  0.1334  0.3121
 3482SOL    HW122079   2.945   3.323  17.678 -0.0185 -1.7555  1.6784
 3482SOL    HW222080   3.003   3.202  17.697  0.6230  1.6743  1.7944
 3483SOL     OW22081   3.629   2.264   5.096 -0.0990  0.4531 -0.0555
 3483SOL    HW122082   3.698   2.254   5.030 -0.2373 -0.7837 -0.0117
 3483SOL    HW222083   3.617   2.179   5.138  1.5525  0.9865  1.4716
 3484SOL     OW22084   0.768   0.400   8.054  0.7293  0.0636 -0.4869
 3484SOL    HW122085   0.810   0.461   8.115 -0.3405 -1.9942  2.2950
 3484SOL    HW222086   0.752   0.335   8.122 -1.3655  0.7441 -0.2988
 3485SOL     OW22087   1.733   4.493   5.249  0.0161 -0.1759 -0.3719
 3485SOL    HW122088   1.754   4.584   5.228  0.0827  0.1112  0.9637
 3485SOL    HW222089   1.762   4.490   5.340 -1.0136  0.3061 -0.0284
 3486SOL     OW22090   2.782   4.003   2.632  0.3808  0.6277  0.3397
 3486SOL    HW122091   2.832   4.065   2.685  0.1662 -1.1052  2.6186
 3486SOL    HW222092   2.827   3.924   2.663  0.6202  1.5101  2.2770
 3487SOL     OW22093   3.725   1.241  16.994  0.3238 -0.1205  0.2052
 3487SOL    HW122094   3.654   1.249  17.058 -1.6295 -1.6924 -1.7734
 3487SOL    HW222095   3.798   1.258  17.055  2.3408  0.4061 -2.3567
 3488SOL     OW22096   1.587   3.870   1.628  0.1603  0.0733  0.0336
 3488SOL    HW122097   1.575   3.934   1.699 -0.3491  1.4216 -1.2836
 3488SOL    HW222098   1.529   3.911   1.564  0.7376  2.2061  0.8662
 3489SOL     OW22099   3.479   2.437   4.457  0.2428  0.1844 -0.5400
 3489SOL    HW122100   3.562   2.431   4.410  0.8212 -1.4145  0.6864
 3489SOL    HW222101   3.498   2.390   4.538 -3.6021 -0.4370  0.0133
 3490SOL     OW22102   0.626   2.491  15.606  0.5488 -0.0604  0.0589
 3490SOL    HW122103   0.630   2.441  15.525 -0.7719 -0.6481  0.3474
 3490SOL    HW222104   0.716   2.485  15.636  0.3249  2.4223  1.2309
 3491SOL     OW22105   1.959   0.365  16.154  0.6441  0.3793  0.7504
 3491SOL    HW122106   2.014   0.315  16.094  0.6875  0.4150  0.7600
 3491SOL    HW222107   2.021   0.390  16.223  1.6194 -0.5454  0.2097
 3492SOL     OW22108   0.075   2.640  17.543 -0.1763  0.0459 -0.6735
 3492SOL    HW122109   0.085   2.568  17.481 -1.7318 -0.2069 -0.6319
 3492SOL    HW222110   0.168   2.664  17.539  0.4849 -2.3249  0.9207
 3493SOL     OW22111   4.719   3.723   1.437  0.0387  0.6880  0.6262
 3493SOL    HW122112   0.064   3.690   1.477  0.6920  2.0221  0.4008
 3493SOL    HW222113   4.723   3.683   1.350 -0.5448  1.3177  0.3107
 3494SOL     OW22114   0.574   2.618   6.206  0.4431 -0.1267  0.7042
 3494SOL    HW122115   0.531   2.702   6.223 -0.6708 -0.9242  1.9042
 3494SOL    HW222116   0.651   2.639   6.155 -0.0781  0.8136  0.3058
 3495SOL     OW22117   2.775   1.859   5.432  0.5860 -0.3354  0.6512
 3495SOL    HW122118   2.821   1.884   5.352  1.1805 -0.2296  1.0262
 3495SOL    HW222119   2.806   1.922   5.497  0.9517  0.4013 -0.2513
 3496SOL     OW22120   4.461   2.288  11.158  0.7415  0.0759 -0.4148
 3496SOL    HW122121   4.524   2.222  11.129  1.1021 -0.1891  0.9592
 3496SOL    HW222122   4.462   2.342  11.079 -1.1756 -1.6266 -1.5797
 3497SOL     OW22123   2.138   3.686   4.070  0.1236 -0.2431  0.4928
 3497SOL    HW122124   2.060   3.702   4.123  0.8960 -2.1219  2.2019
 3497SOL    HW222125   2.137   3.759   4.008 -0.2418 -0.8549 -0.2307
 3498SOL     OW22126   2.440   1.515   8.365 -0.2701 -0.4515 -0.6186
 3498SOL    HW122127   2.452   1.536   8.458  0.7004 -0.7463 -0.6770
 3498SOL    HW222128   2.396   1.597   8.343  0.3507  0.3466  1.0743
 3499SOL     OW22129   3.202   0.613  12.421  0.0323 -0.6289  0.5071
 3499SOL    HW122130   3.118   0.574  12.397 -0.0632 -1.0996  1.6058
 3499SOL    HW222131   3.236   0.543  12.477  0.1069  0.0438  1.3052
 3500SOL     OW22132   2.891   0.514   2.368 -0.1512  0.2987 -0.6754
 3500SOL    HW122133   2.936   0.598   2.356 -0.8842  0.5891 -1.4239
 3500SOL    HW222134   2.865   0.489   2.279 -3.2391 -1.3322  0.6970
 3501SOL     OW22135   3.787   3.592   5.597  0.2898 -0.3269  0.0014
 3501SOL    HW122136   3.806   3.685   5.598 -0.8400 -0.0881 -1.3605
 3501SOL    HW222137   3.756   3.585   5.506 -0.3739 -1.2841  0.2925
 3502SOL     OW22138   2.568   2.753  16.688 -0.4205  0.2203 -0.4818
 3502SOL    HW122139   2.600   2.796  16.767 -2.9405  1.0782  0.0666
 3502SOL    HW222140   2.479   2.736  16.717 -0.7783 -0.3439 -1.9409
 3503SOL     OW22141   0.573   4.116   7.430  0.4534  0.6700 -0.8570
 3503SOL    HW122142   0.548   4.025   7.441 -1.2551  1.1814 -0.4477
 3503SOL    HW222143   0.492   4.164   7.444 -0.8917 -1.5049 -1.3411
 3504SOL     OW22144   3.468   0.317   5.154 -0.1592 -0.0405 -0.0425
 3504SOL    HW122145   3.440   0.377   5.084  0.2459  1.3132  0.9571
 3504SOL    HW222146   3.556   0.350   5.170 -0.4044 -0.5163  2.2260
 3505SOL     OW22147   4.236   2.285   5.900 -0.3450 -0.5387  0.4463
 3505SOL    HW122148   4.238   2.363   5.956 -2.6377 -0.9611  1.1088
 3505SOL    HW222149   4.301   2.229   5.942 -1.4857 -0.2133  2.6802
 3506SOL     OW22150   3.056   1.130   4.870  0.2199 -0.3434  0.1401
 3506SOL    HW122151   3.150   1.134   4.851  0.3474  0.6437  0.9748
 3506SOL    HW222152   3.015   1.204   4.824 -0.5871 -0.8537  0.0524
 3507SOL     OW22153   3.842   3.972   6.013 -0.4325  0.0849  0.0036
 3507SOL    HW122154   3.778   4.035   5.980  1.7848  2.3861  0.1317
 3507SOL    HW222155   3.911   4.034   6.035 -1.9155  2.7026 -2.7757
 3508SOL     OW22156   0.469   0.368   6.001 -0.0407  0.5052  0.2661
 3508SOL    HW122157   0.530   0.312   6.048  0.6864  0.3369 -0.8927
 3508SOL    HW222158   0.403   0.315   5.957 -0.2678  0.4613  0.6545
 3509SOL     OW22159   0.921   2.495   3.510 -0.3525 -0.3531 -0.6979
 3509SOL    HW122160   0.949   2.437   3.439  2.2351  0.1688 -0.1040
 3509SOL    HW222161   1.003   2.521   3.552 -0.7498 -0.5497  0.2245
 3510SOL     OW22162   1.734   1.919  10.014  0.3258 -0.1186  0.1524
 3510SOL    HW122163   1.649   1.896  10.052 -1.1615  3.5099 -0.9307
 3510SOL    HW222164   1.692   1.951   9.934 -0.8763 -2.2905 -0.0845
 3511SOL     OW22165   0.670   3.575   0.928  0.4482  0.2734  0.5945
 3511SOL    HW122166   0.622   3.600   1.007  0.3371  0.1960  0.5517
 3511SOL    HW222167   0.715   3.656   0.904 -0.8113  1.4657  2.2764
 3512SOL     OW22168   2.661   4.729  16.392  0.2188  0.0658  0.0133
 3512SOL    HW122169   2.652   4.634  16.398 -3.3009  0.2971 -1.1595
 3512SOL    HW222170   2.572   0.015  16.363  0.5005  2.8724  1.2307
 3513SOL     OW22171   0.007   0.609  13.321 -0.1595  0.4854 -1.1486
 3513SOL    HW122172   0.100   0.611  13.298  0.8227 -0.2150  2.8056
 3513SOL    HW222173   4.716   0.676  13.258  1.5924  0.7640 -1.5994
 3514SOL     OW22174   4.271   1.707   8.659 -0.7605  0.5048  0.6472
 3514SOL    HW122175   4.176   1.704   8.648 -0.5490  0.3405 -1.2107
 3514SOL    HW222176   4.298   1.799   8.654 -0.3700  0.4926  2.5781
 3515SOL     OW22177   0.859   4.370   3.884  0.4281 -0.3292 -0.0740
 3515SOL    HW122178   0.780   4.357   3.936  0.6683 -2.9994 -0.3943
 3515SOL    HW222179   0.867   4.285   3.841  1.1390  0.3994 -1.3846
 3516SOL     OW22180   4.638   1.820   9.193 -0.4002 -0.2770 -0.5360
 3516SOL    HW122181   4.628   1.808   9.099  0.9203 -2.5754 -0.3862
 3516SOL    HW222182   4.724   1.779   9.204 -0.1059  0.1381 -1.3327
 3517SOL     OW22183   3.199   2.233  17.076 -0.0027 -0.9746 -0.8299
 3517SOL    HW122184   3.173   2.141  17.084  1.5409 -1.1578  2.1180
 3517SOL    HW222185   3.283   2.209  17.039  0.4619 -1.4425  0.5144
 3518SOL     OW22186   1.537   4.650   3.793  0.3650 -0.2266  0.0058
 3518SOL    HW122187   1.453   4.695   3.804  0.6988  0.7267 -1.3731
 3518SOL    HW222188   1.578   4.703   3.725 -1.3482  0.6237 -0.3875
 3519SOL     OW22189   0.275   1.812   6.672 -0.4657  0.1034  0.6558
 3519SOL    HW122190   0.204   1.776   6.727 -0.4757  1.8696  1.7729
 3519SOL    HW222191   0.350   1.766   6.709  0.1596 -0.3898 -1.2366
 3520SOL     OW22192   3.175   2.670   2.126 -0.1128 -0.3237  0.4856
 3520SOL    HW122193   3.174   2.741   2.062  0.3334  0.2331  1.0928
 3520SOL    HW222194   3.142   2.599   2.071 -1.7121  2.5198 -2.1777
 3521SOL     OW22195   4.596   2.863   4.294  0.5250  0.1979 -0.6439
 3521SOL    HW122196   4.631   2.783   4.332 -1.2661 -0.4792 -0.4183
 3521SOL    HW222197   4.621   2.857   4.202  0.4617 -0.8535 -0.5896
 3522SOL     OW22198   2.848   3.580   9.548 -0.3573  0.4002  0.7327
 3522SOL    HW122199   2.782   3.563   9.616 -0.2141  2.6148  1.4490
 3522SOL    HW222200   2.795   3.557   9.472  0.7985  0.2008 -0.0116
 3523SOL     OW22201   1.048   2.856   1.192 -0.0177 -0.5254  0.0716
 3523SOL    HW122202   1.107   2.790   1.155  1.8448  2.2728 -1.9075
 3523SOL    HW222203   1.106   2.931   1.202 -0.2302 -0.0439 -2.3806
 3524SOL     OW22204   3.821   0.185   8.923 -0.3751  0.1415  0.2502
 3524SOL    HW122205   3.728   0.206   8.913 -0.2155 -0.3559 -2.1312
 3524SOL    HW222206   3.807   0.096   8.955 -1.9389  1.0593  2.1092
 3525SOL     OW22207   3.914   2.672   4.377  0.2191  0.0622 -0.2638
 3525SOL    HW122208   3.863   2.592   4.383  0.2722 -0.1350 -2.4958
 3525SOL    HW222209   3.857   2.724   4.433 -2.9223  1.5492 -4.8574
 3526SOL     OW22210   1.687   3.783   6.533  0.2094 -0.5568 -0.0153
 3526SOL    HW122211   1.698   3.779   6.438  2.8093  1.1210  0.2280
 3526SOL    HW222212   1.630   3.859   6.546 -1.6979 -2.4572  2.6829
 3527SOL     OW22213   3.261   1.902   3.439  0.9954 -0.1075  0.5568
 3527SOL    HW122214   3.227   1.971   3.382 -0.4615 -0.2272  1.2870
 3527SOL    HW222215   3.237   1.936   3.525  2.5641  1.4131  0.3976
 3528SOL     OW22216   4.236   1.805  15.507  0.4033 -0.0791 -0.0090
 3528SOL    HW122217   4.158   1.810  15.452 -0.5763 -0.0205  1.4033
 3528SOL    HW222218   4.274   1.893  15.505 -0.5268  0.2860 -1.6885
 3529SOL     OW22219   2.584   3.538   6.643 -0.2051  0.4091 -0.0915
 3529SOL    HW122220   2.514   3.515   6.705 -1.4160  2.9775 -0.5126
 3529SOL    HW222221   2.577   3.464   6.583 -0.4551 -0.1036  0.5593
 3530SOL     OW22222   2.735   3.813  14.473  0.2155  0.0390  0.0204
 3530SOL    HW122223   2.781   3.868  14.410 -0.2814  0.1030 -0.2865
 3530SOL    HW222224   2.796   3.740  14.483  0.2490  0.2159  1.1062
 3531SOL     OW22225   4.270   3.754   6.715  0.2188  0.4889  0.7171
 3531SOL    HW122226   4.176   3.752   6.736 -0.0908  0.8444 -0.6204
 3531SOL    HW222227   4.280   3.816   6.643 -0.4682 -1.1464 -0.7825
 3532SOL     OW22228   1.347   2.339   4.110  0.5346  0.0363  0.1210
 3532SOL    HW122229   1.341   2.420   4.161  1.6289  2.0117 -2.9245
 3532SOL    HW222230   1.330   2.276   4.180 -0.9451  0.9328  0.5632
 3533SOL     OW22231   3.493   0.428   8.447 -0.4184 -0.2909 -0.1843
 3533SOL    HW122232   3.542   0.346   8.454 -0.5294 -0.3028  0.4510
 3533SOL    HW222233   3.507   0.453   8.538 -1.5413 -1.8651  0.4166
 3534SOL     OW22234   1.313   0.631   8.239  0.4168  0.3039 -0.5594
 3534SOL    HW122235   1.228   0.665   8.268  0.7415  1.9724 -1.5597
 3534SOL    HW222236   1.370   0.661   8.310 -0.9814  0.5919  0.4421
 3535SOL     OW22237   3.421   1.736   4.659  0.0159 -0.8128 -0.1245
 3535SOL    HW122238   3.386   1.803   4.718 -0.3686  0.2112 -1.5050
 3535SOL    HW222239   3.472   1.793   4.601 -0.9408 -1.5059 -1.6214
 3536SOL     OW22240   0.703   2.915   6.853 -0.3516  0.5196 -0.2928
 3536SOL    HW122241   0.782   2.898   6.802 -0.3862 -0.4022 -0.0515
 3536SOL    HW222242   0.630   2.922   6.791  0.2140 -1.7929 -1.2294
 3537SOL     OW22243   2.918   3.901   9.360 -0.1692  0.3115 -0.6602
 3537SOL    HW122244   2.986   3.968   9.360 -0.8207  0.9779 -0.3610
 3537SOL    HW222245   2.972   3.825   9.383 -2.1278 -0.5704  1.0592
 3538SOL     OW22246   1.682   0.510   3.700  0.2136  0.0803  0.7152
 3538SOL    HW122247   1.774   0.533   3.713  0.2856  0.3243 -0.1897
 3538SOL    HW222248   1.641   0.556   3.772 -1.1967 -0.0003 -0.0333
 3539SOL     OW22249   4.379   1.607  11.865  0.2288  0.5291 -0.1002
 3539SOL    HW122250   4.417   1.583  11.780 -0.4803 -1.1200  0.0430
 3539SOL    HW222251   4.316   1.535  11.872  0.0787  0.6413 -0.2875
 3540SOL     OW22252   4.210   0.817   9.275  0.0830 -0.6485 -0.0114
 3540SOL    HW122253   4.261   0.879   9.327 -2.7102  1.7717 -0.1170
 3540SOL    HW222254   4.126   0.861   9.292  0.2754  0.5109 -2.0939
 3541SOL     OW22255   3.877   4.422  17.648 -0.7335 -0.0134 -0.0614
 3541SOL    HW122256   3.864   4.350  17.710 -2.5166  0.1279 -0.2761
 3541SOL    HW222257   3.907   4.488  17.711  0.2245  2.0021 -2.6272
 3542SOL     OW22258   1.390   2.937  10.920  0.3042 -0.2486 -0.4757
 3542SOL    HW122259   1.393   3.028  10.949 -2.0875  0.5071 -2.6632
 3542SOL    HW222260   1.348   2.934  10.834  0.6925  0.0078 -0.6788
 3543SOL     OW22261   1.394   3.491   0.443 -0.3436  0.0623 -0.0614
 3543SOL    HW122262   1.431   3.550   0.507  0.7363  0.4089 -1.0060
 3543SOL    HW222263   1.345   3.425   0.492  0.7783 -0.4702  0.3356
 3544SOL     OW22264   3.282   4.549   6.554 -0.2103  0.2032 -0.0420
 3544SOL    HW122265   3.226   4.616   6.594  0.7927  1.1703 -0.2521
 3544SOL    HW222266   3.271   4.571   6.462  0.6671 -0.4325 -0.3064
 3545SOL     OW22267   3.674   2.019   2.820  0.0392 -0.9226  0.4225
 3545SOL    HW122268   3.728   2.059   2.889 -1.1970  0.3403  0.6563
 3545SOL    HW222269   3.600   1.988   2.872 -1.1636 -0.6257 -1.1210
 3546SOL     OW22270   0.177   2.561  10.494 -0.2492  0.2443  0.5373
 3546SOL    HW122271   0.246   2.603  10.545 -0.7566  1.1967  0.4352
 3546SOL    HW222272   0.103   2.620  10.510 -1.5407 -1.4888  0.9222
 3547SOL     OW22273   1.796   2.855   9.321 -0.4743  0.4169  0.5543
 3547SOL    HW122274   1.789   2.849   9.225  2.5950 -0.5477  0.3924
 3547SOL    HW222275   1.891   2.844   9.331 -0.5277 -0.2159  0.3835
 3548SOL     OW22276   1.942   1.817  13.266 -0.2832  0.0338 -0.6871
 3548SOL    HW122277   1.975   1.811  13.355 -1.0527  1.0123 -0.3362
 3548SOL    HW222278   2.020   1.841  13.217  0.2041  0.1884  0.1717
 3549SOL     OW22279   2.923   4.493   6.697  0.6829 -0.2048 -0.4452
 3549SOL    HW122280   2.965   4.489   6.783 -0.6624  0.0795  0.2245
 3549SOL    HW222281   2.859   4.422   6.706  1.1060 -0.7859 -2.0548
 3550SOL     OW22282   0.288   3.438  12.390  0.3378 -0.1404  0.5348
 3550SOL    HW122283   0.295   3.345  12.411  2.1042  0.2727  1.7377
 3550SOL    HW222284   0.331   3.453  12.306 -1.4116 -1.5688 -0.6306
 3551SOL     OW22285   1.987   4.534  17.585 -0.2148 -0.3542 -0.5096
 3551SOL    HW122286   1.905   4.513  17.540 -0.3076 -2.5063  0.6756
 3551SOL    HW222287   1.999   4.454  17.637  0.8404 -1.6256 -2.7133
 3552SOL     OW22288   2.935   4.480   8.633  0.8207 -0.4217 -0.1741
 3552SOL    HW122289   2.968   4.417   8.569  0.4497 -2.8508  2.0174
 3552SOL    HW222290   2.844   4.479   8.605  0.1461  0.3991  1.9936
 3553SOL     OW22291   2.913   1.932   1.381  0.2605  0.4111  0.3748
 3553SOL    HW122292   2.978   1.905   1.446  0.6248 -0.7010 -0.4575
 3553SOL    HW222293   2.888   2.016   1.420  2.6264  1.0332  0.5893
 3554SOL     OW22294   3.871   0.701  14.011 -0.1177  0.1380 -0.2784
 3554SOL    HW122295   3.964   0.708  14.030 -0.2507 -0.4294  0.5612
 3554SOL    HW222296   3.843   0.660  14.093 -1.2506  0.5328 -0.4648
 3555SOL     OW22297   0.153   2.709   5.670  0.4713  0.2017 -0.5287
 3555SOL    HW122298   0.194   2.638   5.620  1.1811  0.3164 -0.1130
 3555SOL    HW222299   0.060   2.689   5.657  0.3043  1.2808 -0.9594
 3556SOL     OW22300   2.028   4.558   9.737 -0.3556  0.0456 -0.2387
 3556SOL    HW122301   2.027   4.547   9.642 -0.2088  0.7415 -0.3224
 3556SOL    HW222302   2.055   4.649   9.743 -0.4768  0.0083  0.8600
 3557SOL     OW22303   0.360   1.898   8.270  0.2752 -0.3398  0.1052
 3557SOL    HW122304   0.405   1.859   8.345 -1.8836  0.4536  1.8144
 3557SOL    HW222305   0.269   1.887   8.297  0.4666  0.1517  0.9504
 3558SOL     OW22306   3.838   3.429   9.881  0.1635  0.0125  0.8590
 3558SOL    HW122307   3.754   3.469   9.905  0.8389  1.3757  0.9526
 3558SOL    HW222308   3.854   3.367   9.953  0.3506  0.2555  1.0260
 3559SOL     OW22309   0.173   4.218  10.855  0.2094 -0.6005  0.3568
 3559SOL    HW122310   0.142   4.261  10.775  0.1039  0.6746  1.1015
 3559SOL    HW222311   0.120   4.138  10.855  0.3445 -0.6830  1.8959
 3560SOL     OW22312   0.640   4.355   2.798  0.0165  0.1143  0.3069
 3560SOL    HW122313   0.640   4.448   2.821  1.6358  0.6007 -1.6967
 3560SOL    HW222314   0.642   4.310   2.883 -2.6413 -2.3619 -0.9643
 3561SOL     OW22315   4.639   3.229   6.655  0.3519 -0.4318 -0.8433
 3561SOL    HW122316   4.636   3.308   6.601  2.3492  0.2197  0.0345
 3561SOL    HW222317   4.554   3.185   6.647  0.4711 -0.8032 -0.0871
 3562SOL     OW22318   1.243   3.717   1.322 -0.4405 -0.2229  0.4591
 3562SOL    HW122319   1.301   3.644   1.342 -0.4838 -0.1203  0.9773
 3562SOL    HW222320   1.200   3.731   1.407 -0.5427  0.9936  0.2004
 3563SOL     OW22321   4.503   1.971  12.551 -0.3012 -0.7843 -0.3513
 3563SOL    HW122322   4.499   1.911  12.476 -3.4118 -0.9861 -0.0057
 3563SOL    HW222323   4.432   2.028  12.520 -1.4227 -1.5069  0.9070
 3564SOL     OW22324   1.380   3.154  15.930 -0.0173 -0.1762 -0.2533
 3564SOL    HW122325   1.403   3.158  15.837 -0.2066 -0.0432 -0.2930
 3564SOL    HW222326   1.398   3.244  15.955 -1.0414  0.3071 -1.2620
 3565SOL     OW22327   1.817   2.128  12.657 -0.3130  0.1114  0.3659
 3565SOL    HW122328   1.793   2.209  12.612  1.9283  1.9373  2.4645
 3565SOL    HW222329   1.891   2.159  12.709  0.4642 -0.9212 -0.1105
 3566SOL     OW22330   1.650   1.498  14.073  0.1053 -0.5654 -0.4050
 3566SOL    HW122331   1.719   1.467  14.131  1.6569 -0.1320 -2.0033
 3566SOL    HW222332   1.573   1.493  14.129  1.3311  0.1586  1.3510
 3567SOL     OW22333   4.439   2.249   6.529 -0.3599 -0.5201 -0.2905
 3567SOL    HW122334   4.472   2.159   6.526  0.6874 -0.1176 -0.5916
 3567SOL    HW222335   4.391   2.248   6.446 -0.8219  2.4202 -0.0377
 3568SOL     OW22336   1.565   1.229   3.795  0.5766  0.0180  0.0036
 3568SOL    HW122337   1.529   1.316   3.812  2.4913  0.1283  3.4871
 3568SOL    HW222338   1.644   1.254   3.746  1.3259 -2.5763 -0.1054
 3569SOL     OW22339   2.834   1.268   6.206 -0.7995 -0.5177 -0.1427
 3569SOL    HW122340   2.802   1.236   6.290 -0.1725 -0.1057  0.2544
 3569SOL    HW222341   2.758   1.316   6.174 -1.0816 -0.9662 -0.1364
 3570SOL     OW22342   1.957   3.626  10.359  0.3559 -0.2299 -0.1581
 3570SOL    HW122343   1.898   3.681  10.307  0.3344  0.0648  0.1823
 3570SOL    HW222344   1.931   3.650  10.448 -2.4517  2.0127 -1.5912
 3571SOL     OW22345   4.732   3.516   0.027 -0.1672  0.0924  0.3386
 3571SOL    HW122346   4.662   3.458  17.741  1.5901 -0.8551 -2.1413
 3571SOL    HW222347   4.688   3.549   0.106  0.2319 -2.3017  1.5620
 3572SOL     OW22348   4.101   2.778   5.400 -0.7330  0.0131  0.1649
 3572SOL    HW122349   4.066   2.859   5.436 -3.9302  0.2737 -3.6147
 3572SOL    HW222350   4.171   2.752   5.461  0.0519  1.1626 -0.2521
 3573SOL     OW22351   1.497   3.133   4.109  0.6466  0.4593  0.1453
 3573SOL    HW122352   1.512   3.083   4.189 -1.6184 -2.0321 -1.0127
 3573SOL    HW222353   1.577   3.186   4.112  1.1104 -0.2158 -0.2995
 3574SOL     OW22354   0.665   3.826   8.364 -0.0861 -0.6587  0.9162
 3574SOL    HW122355   0.584   3.779   8.382 -0.9534 -0.1781 -1.6658
 3574SOL    HW222356   0.642   3.875   8.285  0.5705  1.6661  2.1804
 3575SOL     OW22357   3.126   3.401   4.119  0.3580  0.4992 -0.1472
 3575SOL    HW122358   3.135   3.382   4.212  0.4979  1.7835  0.1007
 3575SOL    HW222359   3.201   3.459   4.106  0.6883 -0.2944 -1.9049
 3576SOL     OW22360   0.937   4.439   2.484  0.4518  0.5375 -0.6707
 3576SOL    HW122361   0.931   4.497   2.559 -0.4462  2.3965 -2.1738
 3576SOL    HW222362   0.908   4.352   2.513 -0.1397  0.6928 -0.7916
 3577SOL     OW22363   1.905   2.292  15.629 -0.0771  0.3677 -0.0392
 3577SOL    HW122364   1.827   2.290  15.574  0.9715 -0.7654 -1.4920
 3577SOL    HW222365   1.949   2.366  15.588  1.7060 -0.9720 -0.5828
 3578SOL     OW22366   1.865   4.072   6.586  0.1865  0.3827  0.0408
 3578SOL    HW122367   1.806   4.042   6.656  1.8618 -1.2734  0.7442
 3578SOL    HW222368   1.922   4.130   6.637  0.0653  1.6169 -1.2449
 3579SOL     OW22369   4.338   2.513   6.405 -0.1521  0.0785  0.0906
 3579SOL    HW122370   4.393   2.457   6.460 -3.0366 -3.3703 -0.5738
 3579SOL    HW222371   4.258   2.518   6.458  0.3070  1.9080  0.6163
 3580SOL     OW22372   1.284   4.274   5.401 -0.0025 -0.2026  0.4670
 3580SOL    HW122373   1.354   4.256   5.338 -1.4591  2.6458 -1.9884
 3580SOL    HW222374   1.335   4.302   5.477 -0.6266 -1.9822  1.5427
 3581SOL     OW22375   0.623   3.619   8.935 -0.1287 -0.0525 -0.4613
 3581SOL    HW122376   0.691   3.674   8.897 -0.1599 -0.4903 -1.1532
 3581SOL    HW222377   0.652   3.529   8.921 -0.2924 -0.2869  0.7358
 3582SOL     OW22378   2.242   3.489   3.186 -0.5797  0.2223 -0.1057
 3582SOL    HW122379   2.181   3.543   3.236 -0.6465  0.4556 -0.4423
 3582SOL    HW222380   2.281   3.443   3.260 -0.0508 -0.1542 -0.6203
 3583SOL     OW22381   3.416   4.120  11.875  0.4569 -1.0604  0.2523
 3583SOL    HW122382   3.456   4.200  11.910 -0.3710 -0.8877  0.7874
 3583SOL    HW222383   3.392   4.065  11.949 -1.4095  1.0169  1.1713
 3584SOL     OW22384   1.266   1.138   5.090  0.0593  0.0043  0.0261
 3584SOL    HW122385   1.261   1.225   5.050  0.0573 -0.3220 -0.6787
 3584SOL    HW222386   1.172   1.123   5.105  0.1359 -1.7746 -1.3290
 3585SOL     OW22387   0.670   4.122  12.526  0.1776 -0.4748 -0.7293
 3585SOL    HW122388   0.668   4.037  12.482  0.9892  0.0908 -1.8464
 3585SOL    HW222389   0.657   4.176  12.448 -2.1126  1.9922  1.3664
 3586SOL     OW22390   4.450   1.776  15.943 -0.6731  0.0684  0.2249
 3586SOL    HW122391   4.406   1.861  15.950 -2.6766 -0.9788  0.4239
 3586SOL    HW222392   4.375   1.732  15.904  0.2787 -0.1135 -1.4002
 3587SOL     OW22393   3.087   4.220   2.054 -0.3030 -0.3459 -0.1552
 3587SOL    HW122394   3.035   4.178   2.123 -0.2340 -0.1804 -0.0039
 3587SOL    HW222395   3.018   4.246   1.992 -0.2296 -0.3286 -0.2294
 3588SOL     OW22396   2.866   3.349   4.121 -0.4105 -0.2811  0.4635
 3588SOL    HW122397   2.848   3.443   4.116  0.2966 -0.3144 -2.5880
 3588SOL    HW222398   2.961   3.352   4.127 -0.2263 -1.1570 -2.0254
 3589SOL     OW22399   1.514   3.485   2.570  0.3837 -0.6242  0.0925
 3589SOL    HW122400   1.485   3.548   2.505  0.6206 -0.5683  0.0402
 3589SOL    HW222401   1.561   3.540   2.632  0.3547  0.5228 -0.9125
 3590SOL     OW22402   3.185   0.787   3.861  0.0556 -0.2045 -0.3706
 3590SOL    HW122403   3.119   0.731   3.903  0.5644  0.5986  1.5324
 3590SOL    HW222404   3.131   0.853   3.819 -0.0733 -0.3203 -0.3864
 3591SOL     OW22405   0.534   3.708   7.768 -0.3435  0.3239 -0.4871
 3591SOL    HW122406   0.605   3.651   7.741 -0.2793 -0.0861  0.5401
 3591SOL    HW222407   0.535   3.692   7.863  0.1161  0.3243 -0.4930
 3592SOL     OW22408   3.581   1.167  15.254  0.3929  0.7940  0.1765
 3592SOL    HW122409   3.637   1.243  15.273  2.7002 -0.9495  0.4077
 3592SOL    HW222410   3.624   1.135  15.174  2.3666  2.2863  0.6479
 3593SOL     OW22411   2.467   2.098   0.380  0.1451 -0.1856 -0.2478
 3593SOL    HW122412   2.548   2.053   0.404 -0.1178  1.1011  3.0536
 3593SOL    HW222413   2.412   2.099   0.458  0.1392  2.0494 -0.2963
 3594SOL     OW22414   3.002   0.313  15.423 -0.1386  0.1288 -0.0097
 3594SOL    HW122415   3.015   0.309  15.517 -0.4121  1.9749  0.0950
 3594SOL    HW222416   2.908   0.323  15.407  0.4286  5.0599 -0.0494
 3595SOL     OW22417   3.767   0.591   8.341  0.4195  0.1291  0.5321
 3595SOL    HW122418   3.817   0.668   8.312 -1.8447  0.9381 -1.2695
 3595SOL    HW222419   3.770   0.600   8.436 -1.1159 -1.0006  0.6850
 3596SOL     OW22420   2.691   0.746   7.877 -0.1700 -0.7688  0.1096
 3596SOL    HW122421   2.764   0.684   7.869 -0.7986 -1.6392  1.0185
 3596SOL    HW222422   2.730   0.820   7.923  2.0536 -2.0163  0.2335
 3597SOL     OW22423   0.717   0.877   4.940  0.1044 -0.0751  0.0688
 3597SOL    HW122424   0.669   0.921   5.010 -0.2820 -0.2950 -0.0591
 3597SOL    HW222425   0.788   0.941   4.939  0.4619 -0.3628  4.8466
 3598SOL     OW22426   3.399   1.320   3.479 -0.0417  0.0052 -0.0179
 3598SOL    HW122427   3.408   1.413   3.462  1.9169 -0.2964 -0.6699
 3598SOL    HW222428   3.304   1.315   3.487 -0.2195  0.3936 -1.8006
 3599SOL     OW22429   2.999   3.739   3.015 -0.0853  0.2948  0.3303
 3599SOL    HW122430   3.080   3.790   3.010  1.1302 -1.7822 -1.0492
 3599SOL    HW222431   2.989   3.719   3.108  2.0136  0.7623  0.6694
 3600SOL     OW22432   1.243   4.649   4.142  0.5621 -0.3080 -0.4568
 3600SOL    HW122433   1.316   4.607   4.097  1.3553  0.4706  0.1073
 3600SOL    HW222434   1.266   0.006   4.133  0.3653 -0.2132  0.0130
 3601SOL     OW22435   4.302   1.533  13.604  0.1537 -0.1019  0.2551
 3601SOL    HW122436   4.369   1.558  13.541  0.8230 -0.7428  0.7187
 3601SOL    HW222437   4.324   1.441  13.621  1.1800 -0.3185 -2.2757
 3602SOL     OW22438   4.526   4.022   2.511 -0.1102  0.4034 -0.0001
 3602SOL    HW122439   4.478   4.086   2.564  0.2972  0.8897 -0.2174
 3602SOL    HW222440   4.565   3.978   2.587 -1.9190 -0.4246  0.4425
 3603SOL     OW22441   2.541   1.198   1.968  0.6581 -0.2300  0.2926
 3603SOL    HW122442   2.467   1.258   1.960  1.8289  1.3147  1.0538
 3603SOL    HW222443   2.559   1.206   2.062 -0.8709 -1.7959  0.7150
 3604SOL     OW22444   3.551   2.538   0.180 -0.3572  0.9368  0.3012
 3604SOL    HW122445   3.562   2.618   0.232  0.9931  1.4586 -0.8004
 3604SOL    HW222446   3.469   2.565   0.140  0.7222 -0.1720 -2.6427
 3605SOL     OW22447   1.584   3.330  12.528  0.1462  0.4754 -0.8042
 3605SOL    HW122448   1.614   3.276  12.455  1.2189  0.6808 -0.5100
 3605SOL    HW222449   1.587   3.278  12.608  1.4666  2.5105  0.4469
 3606SOL     OW22450   2.852   3.408  15.090 -0.2544  0.1300 -0.5597
 3606SOL    HW122451   2.922   3.392  15.154 -1.2293  1.2303  0.7823
 3606SOL    HW222452   2.816   3.493  15.115  0.6921  0.3300  0.1045
 3607SOL     OW22453   1.069   0.675   7.462 -0.6508 -0.1345  0.0483
 3607SOL    HW122454   1.073   0.588   7.500 -0.3552 -1.1747 -2.3797
 3607SOL    HW222455   1.052   0.721   7.544 -1.4274  0.9141 -0.6929
 3608SOL     OW22456   0.642   1.785   2.884  0.0602  0.5276 -0.0713
 3608SOL    HW122457   0.579   1.834   2.936 -2.4175  0.1752 -2.7417
 3608SOL    HW222458   0.661   1.836   2.806 -0.7856 -0.4771 -0.9428
 3609SOL     OW22459   3.836   4.124   6.719 -0.0255  0.2954 -0.3853
 3609SOL    HW122460   3.760   4.182   6.716 -0.5481 -0.4151 -1.0143
 3609SOL    HW222461   3.808   4.062   6.651 -1.5794  1.0686 -0.4566
 3610SOL     OW22462   2.159   0.928   5.910  0.1451 -0.0354  0.5383
 3610SOL    HW122463   2.068   0.930   5.881  0.0382 -2.0433  0.7599
 3610SOL    HW222464   2.146   0.872   5.986 -1.4226  1.3771  1.3131
 3611SOL     OW22465   1.387   0.558   0.225 -0.4925  0.1183 -0.4200
 3611SOL    HW122466   1.424   0.471   0.213 -0.2213  0.2728 -0.6951
 3611SOL    HW222467   1.359   0.547   0.316  1.6175  1.8264  0.4606
 3612SOL     OW22468   3.261   3.926   5.536  0.0296  0.7291 -0.8509
 3612SOL    HW122469   3.333   3.888   5.487  1.8957  0.2509  2.2464
 3612SOL    HW222470   3.283   4.018   5.525 -0.3833  0.8624 -0.5971
 3613SOL     OW22471   2.915   2.200  14.534 -0.3792 -0.0580 -0.2197
 3613SOL    HW122472   2.873   2.283  14.510 -0.1432  0.6637  1.8257
 3613SOL    HW222473   2.997   2.201  14.485  0.0465  2.6621  0.5674
 3614SOL     OW22474   2.029   3.426   3.797 -0.3694  0.4057 -0.2546
 3614SOL    HW122475   2.052   3.391   3.711 -0.4971 -1.5532  0.5268
 3614SOL    HW222476   2.014   3.517   3.772  2.7695  1.6197  2.2615
 3615SOL     OW22477   2.670   2.168  15.348 -0.0868  0.2609 -0.5174
 3615SOL    HW122478   2.708   2.245  15.306  0.7467  0.3180  0.3424
 3615SOL    HW222479   2.674   2.104  15.277  1.3833 -1.2858  0.9444
 3616SOL     OW22480   0.561   1.612  12.471 -0.5268  0.1111  0.5810
 3616SOL    HW122481   0.494   1.571  12.526 -0.1077  1.1637  1.8748
 3616SOL    HW222482   0.498   1.652  12.411 -1.0891 -2.6806 -0.6838
 3617SOL     OW22483   3.136   2.971   4.841 -0.0864  0.5646 -0.7425
 3617SOL    HW122484   3.070   2.955   4.908 -1.0182 -1.1031 -2.0476
 3617SOL    HW222485   3.108   2.907   4.776 -1.7373 -0.7868  1.2711
 3618SOL     OW22486   4.049   0.163   8.323  0.2579  0.2814  0.4996
 3618SOL    HW122487   4.055   0.194   8.413  1.7661  0.6215  0.2865
 3618SOL    HW222488   4.098   0.081   8.327 -3.6988 -2.0918 -0.2533
 3619SOL     OW22489   2.977   1.633   4.176 -1.1043 -0.0649  0.4692
 3619SOL    HW122490   2.975   1.546   4.215  0.9441  0.1343  0.9972
 3619SOL    HW222491   2.890   1.664   4.203 -0.8471  1.1398 -0.0912
 3620SOL     OW22492   2.393   1.073   7.054  0.0489 -0.0624 -0.2039
 3620SOL    HW122493   2.467   1.015   7.035 -1.1310 -1.2602 -1.1564
 3620SOL    HW222494   2.333   1.018   7.106  0.2074  1.6314  1.7976
 3621SOL     OW22495   1.612   1.255   6.628 -0.4179 -0.0273  0.5672
 3621SOL    HW122496   1.705   1.269   6.614 -0.7825 -1.0330 -2.8387
 3621SOL    HW222497   1.612   1.245   6.723 -1.0693 -0.5823  0.5123
 3622SOL     OW22498   2.542   4.097   7.364 -0.1159 -0.3387  0.3097
 3622SOL    HW122499   2.521   4.004   7.376 -0.7546 -0.2130  0.1694
 3622SOL    HW222500   2.454   4.133   7.370  0.9401  2.1295  0.8290
 3623SOL     OW22501   4.358   3.575   1.253  0.0079  0.2973 -0.0590
 3623SOL    HW122502   4.363   3.656   1.303  1.3595  0.3532 -0.2702
 3623SOL    HW222503   4.451   3.553   1.242 -0.2861 -0.8500 -0.2594
 3624SOL     OW22504   2.048   4.301   7.210 -0.3541 -0.2749  0.3596
 3624SOL    HW122505   2.016   4.337   7.293 -1.4134  0.2663 -0.2944
 3624SOL    HW222506   2.048   4.373   7.147 -0.0654  1.1848  2.0017
 3625SOL     OW22507   2.935   2.620  17.051 -0.1346 -0.3644  0.2672
 3625SOL    HW122508   3.015   2.604  17.101 -1.6870 -0.1615  2.7841
 3625SOL    HW222509   2.966   2.610  16.961 -0.7254  0.1907 -0.0005
 3626SOL     OW22510   2.380   4.030   4.390 -0.3688 -0.2403  0.1119
 3626SOL    HW122511   2.431   4.069   4.319  0.0178 -1.5598 -0.3186
 3626SOL    HW222512   2.411   3.940   4.388 -2.9417 -1.1025 -1.3682
 3627SOL     OW22513   1.482   3.640   3.458  0.2026  0.3660 -0.2209
 3627SOL    HW122514   1.560   3.593   3.486  1.2662  1.0840 -2.0036
 3627SOL    HW222515   1.437   3.650   3.542 -0.4786 -2.0322 -0.2981
 3628SOL     OW22516   4.520   3.216   9.386 -0.0332  0.0096 -0.2346
 3628SOL    HW122517   4.448   3.272   9.357  0.4321 -1.0115 -3.4358
 3628SOL    HW222518   4.494   3.188   9.473  0.5484  2.2082  0.6492
 3629SOL     OW22519   2.834   4.282  11.317 -0.0464 -0.1280  0.3192
 3629SOL    HW122520   2.786   4.263  11.237  0.2202  0.1531  0.0943
 3629SOL    HW222521   2.798   4.369  11.337 -1.3136 -0.6741  0.4514
 3630SOL     OW22522   1.350   1.987   4.874 -0.4081  0.1322 -0.0951
 3630SOL    HW122523   1.413   1.974   4.944  1.4675  3.1585 -1.1817
 3630SOL    HW222524   1.263   1.980   4.913  0.0326  1.8185  1.1821
 3631SOL     OW22525   1.694   4.560   2.230  0.1577 -0.1017  0.6422
 3631SOL    HW122526   1.727   4.647   2.250 -0.3018  0.2740 -0.2262
 3631SOL    HW222527   1.714   4.519   2.314  1.5433  2.1544  1.4237
 3632SOL     OW22528   0.960   2.608   7.380 -0.4260 -0.6263  0.0734
 3632SOL    HW122529   0.876   2.569   7.359  1.2101 -3.4645 -1.2718
 3632SOL    HW222530   0.938   2.654   7.461  3.9738 -0.4866  1.2015
 3633SOL     OW22531   1.878   0.037   7.324  0.5605  0.6825  0.6255
 3633SOL    HW122532   1.953   0.063   7.271  0.0710 -0.5991 -0.7356
 3633SOL    HW222533   1.921   4.731   7.398  1.4622 -0.3450 -0.4649
 3634SOL     OW22534   3.190   0.488   4.662  0.0540 -0.1485 -0.2947
 3634SOL    HW122535   3.245   0.498   4.585  0.7876 -3.9503 -0.2345
 3634SOL    HW222536   3.187   0.578   4.694  1.4478 -0.8004  1.6282
 3635SOL     OW22537   4.089   0.407   3.284 -0.2850 -0.1519 -0.2445
 3635SOL    HW122538   4.147   0.479   3.259 -0.1770 -0.8032 -1.8697
 3635SOL    HW222539   4.024   0.450   3.340  0.5704 -1.8372  2.0505
 3636SOL     OW22540   3.566   2.841   9.867 -0.0755 -0.2561  0.6521
 3636SOL    HW122541   3.552   2.758   9.913  1.6801 -0.4550  0.8142
 3636SOL    HW222542   3.478   2.878   9.877 -0.0510  0.3187 -1.1529
 3637SOL     OW22543   2.870   2.405   4.983  0.3743 -0.5089  0.8916
 3637SOL    HW122544   2.869   2.319   4.941 -2.1915  0.2962 -0.6232
 3637SOL    HW222545   2.964   2.425   4.981  0.1916  0.5152  2.3200
 3638SOL     OW22546   3.697   2.352   9.078  0.0381  0.2245 -0.2089
 3638SOL    HW122547   3.747   2.328   9.157  1.2947 -1.2518 -1.4487
 3638SOL    HW222548   3.760   2.386   9.015  1.0471  0.3906  0.8989
 3639SOL     OW22549   0.386   3.036   4.450 -0.6071  0.8018  0.5378
 3639SOL    HW122550   0.343   2.980   4.515 -0.4383  1.3955  1.1566
 3639SOL    HW222551   0.307   3.051   4.399 -1.5791 -2.3453  1.0928
 3640SOL     OW22552   0.339   2.817   5.175  0.1762  0.5231 -0.1077
 3640SOL    HW122553   0.434   2.804   5.183  0.3197 -0.0403 -2.6428
 3640SOL    HW222554   0.311   2.726   5.171 -2.6606  1.3409  1.0961
 3641SOL     OW22555   2.093   1.306  13.812 -0.9650  0.2575 -0.5162
 3641SOL    HW122556   2.112   1.371  13.879  1.9131 -0.1519 -0.9567
 3641SOL    HW222557   2.118   1.355  13.733 -1.8422  1.0053 -0.3383
 3642SOL     OW22558   4.656   0.232   5.106 -0.3539 -0.3414  0.1365
 3642SOL    HW122559   4.644   0.256   5.014  0.7895 -0.7543 -0.1135
 3642SOL    HW222560   0.004   0.186   5.109  1.0508  2.2029  0.5775
 3643SOL     OW22561   2.774   0.056   9.568 -0.5780 -0.2453 -0.1323
 3643SOL    HW122562   2.712   0.071   9.496 -0.6959  0.9885  0.2382
 3643SOL    HW222563   2.857   0.083   9.529 -0.9529  0.7406 -0.2395
 3644SOL     OW22564   1.433   3.103   9.708  0.2553 -0.3735  0.6395
 3644SOL    HW122565   1.482   3.114   9.627  0.5953  2.0244  1.1850
 3644SOL    HW222566   1.349   3.132   9.673 -0.1145  0.8076  2.4977
 3645SOL     OW22567   2.398   2.460   6.013  0.5751  0.1103 -0.2863
 3645SOL    HW122568   2.309   2.467   5.979  1.2010  0.2925 -1.8852
 3645SOL    HW222569   2.404   2.544   6.059  1.6186  0.1327 -0.4742
 3646SOL     OW22570   0.005   3.994  10.603  0.0533 -0.1148 -0.6372
 3646SOL    HW122571   4.656   4.031  10.629  0.2905  0.0358 -0.0731
 3646SOL    HW222572   4.723   3.911  10.647  1.3579  0.0260  0.1591
 3647SOL     OW22573   0.471   1.163   7.801  0.0927 -0.1043 -0.1841
 3647SOL    HW122574   0.557   1.138   7.836  0.3445 -1.5253 -1.7917
 3647SOL    HW222575   0.475   1.256   7.779 -0.1972  0.5441  2.4928
 3648SOL     OW22576   4.338   1.255   5.629  0.3839  0.8764 -0.2789
 3648SOL    HW122577   4.383   1.300   5.558  3.1279  0.3803  1.1631
 3648SOL    HW222578   4.414   1.238   5.684 -0.3026 -0.1973  0.3523
 3649SOL     OW22579   4.545   3.188   1.896  0.2730 -0.1203  0.1996
 3649SOL    HW122580   4.489   3.179   1.819  3.1334 -1.0684 -1.7613
 3649SOL    HW222581   4.500   3.258   1.943 -0.4532 -0.2303 -0.3221
 3650SOL     OW22582   4.367   2.828   1.712  0.0593  0.1351 -0.4754
 3650SOL    HW122583   4.355   2.735   1.693 -0.0205  0.1400 -0.4478
 3650SOL    HW222584   4.279   2.853   1.741  0.4208  0.7988  0.0386
 3651SOL     OW22585   1.046   0.565   7.121  0.3191  0.7803  0.2347
 3651SOL    HW122586   0.966   0.600   7.083 -1.3122 -2.7128  0.4283
 3651SOL    HW222587   1.108   0.636   7.108 -0.2343  1.3099  0.5070
 3652SOL     OW22588   0.355   4.480   2.050 -0.7691 -0.4573  0.2458
 3652SOL    HW122589   0.420   4.516   2.111  0.0134  0.1960 -0.9602
 3652SOL    HW222590   0.412   4.490   1.974  0.8220  1.0541  1.6198
 3653SOL     OW22591   4.713   1.818   2.101  0.2659  0.2308  0.3716
 3653SOL    HW122592   4.686   1.831   2.010  0.2601  2.2471  0.6543
 3653SOL    HW222593   4.663   1.738   2.117  0.4339  0.4470  1.9753
 3654SOL     OW22594   3.126   3.564   6.262 -0.2646  0.0959 -0.5547
 3654SOL    HW122595   3.081   3.495   6.213 -0.3819  0.1907 -0.5799
 3654SOL    HW222596   3.194   3.597   6.204 -1.0998  1.6872 -0.6276
 3655SOL     OW22597   0.430   1.930   4.168 -0.1566  0.6585 -0.0480
 3655SOL    HW122598   0.389   1.892   4.245  0.8141  0.7991  0.5358
 3655SOL    HW222599   0.500   1.867   4.155 -0.8836 -0.1954  0.1717
 3656SOL     OW22600   3.464   1.887   5.812 -0.0802 -0.5719  0.3774
 3656SOL    HW122601   3.519   1.929   5.879  0.5247 -0.1629 -0.3830
 3656SOL    HW222602   3.477   1.794   5.833  0.9100  0.0525  2.5595
 3657SOL     OW22603   0.900   4.688   8.360 -0.4607  0.5804 -0.7461
 3657SOL    HW122604   0.953   4.626   8.410 -1.7055  0.2901  0.2388
 3657SOL    HW222605   0.875   0.014   8.429  1.7685  0.9165 -0.2582
 3658SOL     OW22606   4.202   3.414   1.931 -0.0565  0.1967  0.2283
 3658SOL    HW122607   4.249   3.472   1.872  1.3087 -1.6602 -0.5167
 3658SOL    HW222608   4.109   3.434   1.916  0.0448  0.7563  0.3496
 3659SOL     OW22609   0.374   3.388   6.674  0.1624  0.8084  0.3000
 3659SOL    HW122610   0.359   3.303   6.716 -1.7805 -0.1288 -2.3594
 3659SOL    HW222611   0.458   3.406   6.717  0.1084 -0.4113  0.9149
 3660SOL     OW22612   2.731   0.055  16.088 -0.7685  0.4219  0.0408
 3660SOL    HW122613   2.708   4.703  16.117 -1.2968  0.5511  0.0164
 3660SOL    HW222614   2.761   0.102  16.166 -1.9004 -0.0423  0.7478
 3661SOL     OW22615   1.193   0.193   6.072  0.1594 -0.1038  0.2910
 3661SOL    HW122616   1.266   0.152   6.117  0.4395 -2.8767 -2.7232
 3661SOL    HW222617   1.240   0.261   6.024  1.0790 -0.9240  0.0380
 3662SOL     OW22618   2.964   4.028   7.483  0.8618 -0.0858  0.1047
 3662SOL    HW122619   2.911   3.972   7.427 -0.7514  0.3492  1.1796
 3662SOL    HW222620   3.055   4.010   7.459  0.7395 -0.9585  0.2963
 3663SOL     OW22621   1.914   3.895  13.012  0.0543 -0.1421  0.2459
 3663SOL    HW122622   1.935   3.937  12.929 -0.1904  0.7528  0.6339
 3663SOL    HW222623   1.873   3.812  12.989 -0.7586 -0.1782  1.7662
 3664SOL     OW22624   4.050   4.303   2.695  0.3407  0.0318  0.4675
 3664SOL    HW122625   3.982   4.237   2.710  1.0763 -0.7802  0.2554
 3664SOL    HW222626   4.103   4.303   2.775  0.4272  0.7524  0.4055
 3665SOL     OW22627   4.575   4.442  10.148  0.0440  0.2686 -0.2757
 3665SOL    HW122628   4.604   4.501  10.217 -0.5730 -0.7471  0.8593
 3665SOL    HW222629   4.657   4.435  10.099  0.6715  0.4044  0.7479
 3666SOL     OW22630   0.827   4.620   6.994 -0.0250  0.4721 -0.2256
 3666SOL    HW122631   0.739   4.588   7.017  0.5793  0.4251  2.0775
 3666SOL    HW222632   0.805   4.711   6.976 -0.4113  0.5972  0.8833
 3667SOL     OW22633   1.270   0.879   6.165  0.5514  0.0321  0.4792
 3667SOL    HW122634   1.288   0.902   6.074  2.5545  0.8567  1.0892
 3667SOL    HW222635   1.218   0.954   6.194  1.2310  0.8181 -0.3208
 3668SOL     OW22636   3.707   4.501   8.501 -0.0670 -0.0719 -0.0617
 3668SOL    HW122637   3.792   4.466   8.476  0.0284  0.6418 -0.7048
 3668SOL    HW222638   3.727   4.581   8.550  1.0804  0.5401 -1.5493
 3669SOL     OW22639   0.328   1.414   6.977  0.4044  0.0445  0.0930
 3669SOL    HW122640   0.257   1.389   6.919  0.4793 -1.1479  0.5100
 3669SOL    HW222641   0.391   1.452   6.915 -1.3172 -0.0952 -1.7424
 3670SOL     OW22642   1.641   3.108   6.721 -0.7718  0.2673  0.0152
 3670SOL    HW122643   1.626   3.106   6.815  2.4361 -0.3319  0.5334
 3670SOL    HW222644   1.730   3.143   6.724 -1.1186  1.1818 -0.4822
 3671SOL     OW22645   4.358   0.195   8.500 -0.2450  0.5267 -0.1680
 3671SOL    HW122646   4.264   0.204   8.516  0.0874  0.5628  1.7720
 3671SOL    HW222647   4.380   0.151   8.582 -0.5612  1.5510  0.4596
 3672SOL     OW22648   4.132   3.476   1.138  0.2671 -0.1466  0.5091
 3672SOL    HW122649   4.203   3.509   1.192 -0.2466  1.1855  0.3753
 3672SOL    HW222650   4.121   3.543   1.070  1.5376 -2.0263 -1.5569
 3673SOL     OW22651   2.545   1.113   6.106 -0.0913 -0.9144 -0.3119
 3673SOL    HW122652   2.531   1.156   6.191  2.0057 -1.4285  0.2987
 3673SOL    HW222653   2.458   1.101   6.070 -0.5173  0.9172  0.0860
 3674SOL     OW22654   2.221   1.345   4.094 -0.4036  0.5728  0.0528
 3674SOL    HW122655   2.282   1.308   4.031 -0.8021  0.4558 -0.2638
 3674SOL    HW222656   2.162   1.402   4.045 -1.6758 -1.5335 -0.8448
 3675SOL     OW22657   3.592   2.450   1.100  0.0073 -0.1700  0.0002
 3675SOL    HW122658   3.547   2.473   1.018 -0.8683  0.8745  0.7894
 3675SOL    HW222659   3.677   2.481   1.071  0.0530 -1.3175 -1.1209
 3676SOL     OW22660   1.045   3.607  14.291 -0.1766 -0.6077 -0.1402
 3676SOL    HW122661   0.968   3.652  14.326  0.1017 -1.3637  1.4477
 3676SOL    HW222662   1.114   3.655  14.335 -1.4574  1.8878 -0.8501
 3677SOL     OW22663   1.153   0.939   8.817 -0.0650 -0.5288 -0.4037
 3677SOL    HW122664   1.105   1.022   8.817  0.2256 -0.3559  1.0640
 3677SOL    HW222665   1.128   0.904   8.732  0.6512 -0.6483 -0.5640
 3678SOL     OW22666   4.408   3.709  16.851 -0.0692  0.4370 -0.6270
 3678SOL    HW122667   4.471   3.740  16.915 -0.6282  1.5666 -0.6302
 3678SOL    HW222668   4.329   3.762  16.864  0.0184  0.6016 -0.7637
 3679SOL     OW22669   1.542   2.013   0.629 -0.8556 -0.2534  0.3232
 3679SOL    HW122670   1.554   1.933   0.682  0.6458 -0.0135  0.3391
 3679SOL    HW222671   1.616   2.011   0.568 -1.5570  2.4224 -0.5729
 3680SOL     OW22672   0.319   2.184   1.011 -0.2674 -0.0592  0.0830
 3680SOL    HW122673   0.403   2.186   0.965 -1.1339 -2.0469 -1.5914
 3680SOL    HW222674   0.351   2.210   1.098  0.3924 -1.4958  0.2698
 3681SOL     OW22675   0.379   2.662   1.973  0.7554 -0.0298 -0.0341
 3681SOL    HW122676   0.408   2.751   1.953  0.4866 -0.1371 -0.9299
 3681SOL    HW222677   0.387   2.660   2.068 -1.4011  4.6126  0.2375
 3682SOL     OW22678   2.587   2.671   5.527  0.1197 -0.2343  0.3173
 3682SOL    HW122679   2.531   2.595   5.536  0.0809 -0.4372 -1.4567
 3682SOL    HW222680   2.580   2.693   5.434  0.6884  3.7783  1.2192
 3683SOL     OW22681   0.688   0.597   1.094 -0.5336  0.5468  0.3874
 3683SOL    HW122682   0.632   0.532   1.051  0.2938  0.2976 -0.3124
 3683SOL    HW222683   0.618   0.649   1.135 -0.7457  0.9244 -0.4402
 3684SOL     OW22684   4.696   2.085   5.011  0.7872 -0.1893 -0.2916
 3684SOL    HW122685   4.633   2.144   5.053 -1.2790 -1.0013 -2.2345
 3684SOL    HW222686   4.693   2.114   4.920  1.8461  1.0329  0.0624
 3685SOL     OW22687   4.374   2.531   7.806  0.2348 -0.0986  0.3062
 3685SOL    HW122688   4.453   2.570   7.770 -0.1471  1.1806  0.8528
 3685SOL    HW222689   4.315   2.553   7.734  2.0430  2.4954 -0.3861
 3686SOL     OW22690   2.974   1.839   1.650  0.8251 -0.2885 -0.5242
 3686SOL    HW122691   2.984   1.934   1.646 -0.3313 -0.0918  1.2090
 3686SOL    HW222692   3.023   1.829   1.731 -0.9613  0.7241  0.6767
 3687SOL     OW22693   0.610   0.619  11.087  0.1173 -0.4012  0.1021
 3687SOL    HW122694   0.659   0.694  11.054  0.4499 -1.3566 -1.5725
 3687SOL    HW222695   0.545   0.604  11.018  0.2128  3.6685 -0.8572
 3688SOL     OW22696   3.737   1.350   9.311 -0.0574  0.3550 -0.0618
 3688SOL    HW122697   3.790   1.363   9.389  0.7205 -2.4053 -0.1298
 3688SOL    HW222698   3.768   1.268   9.273  1.1085  1.2427 -1.0093
 3689SOL     OW22699   0.768   1.209   7.220 -0.2503  0.4660  0.8412
 3689SOL    HW122700   0.730   1.144   7.279  1.5685 -1.0713  0.3359
 3689SOL    HW222701   0.698   1.272   7.205 -0.9876 -0.5798 -0.1090
 3690SOL     OW22702   3.676   3.667   5.305  0.1664  0.4168  0.2650
 3690SOL    HW122703   3.688   3.747   5.255 -1.7490  1.2583  1.1296
 3690SOL    HW222704   3.757   3.620   5.285  0.6073  0.9545  0.7619
 3691SOL     OW22705   3.614   3.245   9.666  0.0466  0.3139  0.2213
 3691SOL    HW122706   3.600   3.255   9.761  0.6070 -0.6574  0.3997
 3691SOL    HW222707   3.522   3.238   9.639  0.1410 -0.7830  0.1746
 3692SOL     OW22708   0.315   3.995   8.210  0.1730  0.3490  0.3606
 3692SOL    HW122709   0.408   4.019   8.218 -0.1548  0.8574  2.7815
 3692SOL    HW222710   0.325   3.932   8.139 -2.0351  0.1985  0.1850
 3693SOL     OW22711   3.420   0.335   2.986 -0.3912 -0.2087 -0.2170
 3693SOL    HW122712   3.502   0.328   3.035 -1.4890  1.9038  1.8934
 3693SOL    HW222713   3.455   0.313   2.900 -0.4720  0.7771 -0.5101
 3694SOL     OW22714   2.755   3.338   5.253 -0.2930  0.6321  0.0744
 3694SOL    HW122715   2.729   3.430   5.254 -1.1173  0.4143 -0.5306
 3694SOL    HW222716   2.725   3.305   5.168 -2.2047 -0.2222  1.0854
 3695SOL     OW22717   2.668   2.012   2.022 -0.3583 -0.1258 -0.4323
 3695SOL    HW122718   2.582   1.974   2.044 -0.3020 -1.1074 -1.9395
 3695SOL    HW222719   2.707   2.003   2.109 -1.1958  1.0093  0.0695
 3696SOL     OW22720   4.084   3.804  13.145  0.7009  0.2107  0.3513
 3696SOL    HW122721   4.093   3.809  13.050 -2.2639 -0.5721  0.0247
 3696SOL    HW222722   4.114   3.713  13.147  0.1975  0.0154 -1.1442
 3697SOL     OW22723   2.024   0.204  15.932 -0.3787 -0.5424 -0.6904
 3697SOL    HW122724   1.978   0.147  15.870 -1.8638  0.5908 -0.6343
 3697SOL    HW222725   2.072   0.265  15.876  1.5073 -1.1018  0.3190
 3698SOL     OW22726   4.515   0.664   4.047  0.6830 -0.2044  0.3339
 3698SOL    HW122727   4.427   0.626   4.056  0.3314  0.8212  1.1611
 3698SOL    HW222728   4.554   0.613   3.976 -1.4588 -0.5631 -0.5706
 3699SOL     OW22729   2.095   0.504   1.890 -0.6333  0.1590  0.0702
 3699SOL    HW122730   2.187   0.483   1.901 -0.8916 -0.6265  0.7047
 3699SOL    HW222731   2.053   0.469   1.969  1.1702 -0.8273  0.5939
 3700SOL     OW22732   1.753   0.517   6.346 -0.5373  0.3014  0.6014
 3700SOL    HW122733   1.814   0.449   6.316 -0.1500  0.4776  0.9758
 3700SOL    HW222734   1.824   0.579   6.362  1.2046 -1.5930  0.3036
 3701SOL     OW22735   0.285   2.162   8.250 -0.0390  0.3203 -0.5642
 3701SOL    HW122736   0.286   2.067   8.241  1.0968  0.2713  0.1209
 3701SOL    HW222737   0.297   2.187   8.159  0.6984 -1.4464 -0.9447
 3702SOL     OW22738   3.154   1.805   6.160  0.3508 -0.1771  0.3409
 3702SOL    HW122739   3.183   1.718   6.134 -1.5525 -0.1481 -1.8669
 3702SOL    HW222740   3.068   1.817   6.119  1.1364  3.2135 -0.2889
 3703SOL     OW22741   0.346   1.842   1.864  0.5385  0.3885  0.2103
 3703SOL    HW122742   0.329   1.751   1.887 -2.6129  1.2293  1.1946
 3703SOL    HW222743   0.316   1.898   1.936  0.3752 -0.6068  0.9252
 3704SOL     OW22744   1.850   1.895   4.487 -0.1736 -0.3493  0.4278
 3704SOL    HW122745   1.936   1.905   4.446  0.3772  2.0440  2.1727
 3704SOL    HW222746   1.803   1.838   4.427 -1.2087  1.1305 -0.1696
 3705SOL     OW22747   1.163   4.531  11.714 -0.0170  0.3370 -0.3820
 3705SOL    HW122748   1.131   4.612  11.753  0.1647  0.3998 -0.3610
 3705SOL    HW222749   1.259   4.536  11.716  0.1513 -1.9119 -2.4852
 3706SOL     OW22750   4.536   2.630   9.899  0.6518  0.1099 -0.3345
 3706SOL    HW122751   4.569   2.719   9.884  0.2057  1.0514  4.2358
 3706SOL    HW222752   4.611   2.582   9.935  0.4511 -1.4547 -2.0022
 3707SOL     OW22753   3.998   1.983   6.228 -0.3794 -0.1414 -0.7548
 3707SOL    HW122754   4.015   1.950   6.316 -1.1488  1.7330  0.1101
 3707SOL    HW222755   3.987   2.076   6.251 -4.2188 -1.0636  1.1147
 3708SOL     OW22756   3.085   3.516  12.957 -0.2313 -0.4765  0.4073
 3708SOL    HW122757   3.009   3.538  12.903 -0.4240 -2.9119 -0.3158
 3708SOL    HW222758   3.151   3.581  12.931 -1.2783  0.9014  1.2062
 3709SOL     OW22759   3.123   2.348   9.053 -0.4636  0.7739 -0.1766
 3709SOL    HW122760   3.029   2.364   9.060 -0.8227 -1.6141  0.4407
 3709SOL    HW222761   3.117   2.259   9.016 -0.3084  0.2298  1.1201
 3710SOL     OW22762   2.178   4.617   4.399 -0.2114 -0.4691 -0.2114
 3710SOL    HW122763   2.095   4.575   4.420 -1.7751  2.6719 -0.1172
 3710SOL    HW222764   2.145   4.707   4.393 -0.5630 -0.5288  0.8815
 3711SOL     OW22765   0.750   2.395   7.492  0.4539  0.6631 -0.3244
 3711SOL    HW122766   0.835   2.359   7.515  0.3681 -0.1245 -1.2297
 3711SOL    HW222767   0.735   2.363   7.402 -0.6673  0.8264 -0.1967
 3712SOL     OW22768   2.447   0.657   5.886 -0.0044 -0.3215  0.0750
 3712SOL    HW122769   2.374   0.654   5.824 -1.1083  0.6305  1.3298
 3712SOL    HW222770   2.402   0.699   5.960 -0.6532  2.3611 -1.8250
 3713SOL     OW22771   4.398   4.421   3.577 -0.1207  1.0210  0.2110
 3713SOL    HW122772   4.308   4.396   3.557  0.0084  1.4663 -0.9552
 3713SOL    HW222773   4.419   4.496   3.521  1.3619  0.2485 -0.2715
 3714SOL     OW22774   2.971   2.310  16.976 -0.7203  0.2426  0.1016
 3714SOL    HW122775   3.062   2.292  16.998 -0.9492 -0.2137  0.6877
 3714SOL    HW222776   2.939   2.324  17.065  0.5789 -0.7633  0.7308
 3715SOL     OW22777   2.670   1.640   8.062 -0.1877  0.0665 -0.3575
 3715SOL    HW122778   2.693   1.547   8.059  1.4347  0.4303  0.7690
 3715SOL    HW222779   2.754   1.685   8.054 -0.3399  0.4736  0.3395
 3716SOL     OW22780   2.747   4.010   7.990 -0.2062 -0.1572 -0.2851
 3716SOL    HW122781   2.773   4.008   7.898  2.6226  3.1722  0.4457
 3716SOL    HW222782   2.721   3.919   8.005 -1.0670  0.0589 -0.4451
 3717SOL     OW22783   4.310   4.091   5.617  0.2734  0.1522 -0.1540
 3717SOL    HW122784   4.337   4.088   5.525  1.8413 -1.2035  0.3537
 3717SOL    HW222785   4.390   4.090   5.669  0.9089 -0.9049 -1.1395
 3718SOL     OW22786   0.582   0.495   0.645 -0.0489 -0.5020 -0.3231
 3718SOL    HW122787   0.657   0.455   0.690  0.7663 -0.0191 -1.2629
 3718SOL    HW222788   0.597   0.458   0.558 -0.3909  1.6982 -1.3061
 3719SOL     OW22789   4.581   4.570   2.119 -0.8060  0.0176 -0.7091
 3719SOL    HW122790   4.513   4.600   2.180  1.3836  0.1458  1.6601
 3719SOL    HW222791   4.637   4.647   2.111 -1.3976  0.5830  0.6280
 3720SOL     OW22792   3.942   2.319   8.451  0.0288 -0.1605  0.3614
 3720SOL    HW122793   3.962   2.251   8.515 -0.5879 -1.1652 -0.5078
 3720SOL    HW222794   4.029   2.356   8.444  0.0847 -0.3130  0.2482
 3721SOL     OW22795   2.929   0.592   4.205  0.1815  0.4994 -0.2054
 3721SOL    HW122796   2.934   0.564   4.296 -1.3430  3.3793  0.7543
 3721SOL    HW222797   2.953   0.684   4.211 -2.8571  1.1803  1.1374
 3722SOL     OW22798   2.506   4.667   6.380  0.1108 -0.0797 -0.4397
 3722SOL    HW122799   2.418   4.701   6.396  0.3428  1.2079 -1.9091
 3722SOL    HW222800   2.536   4.695   6.466  2.8894  1.3359 -1.8673
 3723SOL     OW22801   0.318   1.049   8.846 -0.1333  0.0426  0.0915
 3723SOL    HW122802   0.226   1.039   8.824  0.8054 -1.7272 -3.1613
 3723SOL    HW222803   0.340   0.956   8.848  1.2738  0.3178 -1.8687
 3724SOL     OW22804   0.288   2.125   3.597  0.1722 -0.5878 -0.8622
 3724SOL    HW122805   0.330   2.195   3.648  0.4696 -1.3107 -0.1227
 3724SOL    HW222806   0.195   2.136   3.614  0.0807 -0.2766 -1.5517
 3725SOL     OW22807   4.188   2.502   6.976  0.1448 -0.5841 -0.0488
 3725SOL    HW122808   4.196   2.524   6.883  2.0913 -1.1956 -0.0204
 3725SOL    HW222809   4.189   2.594   7.001  1.4429 -0.6409  0.0847
 3726SOL     OW22810   3.076   1.101  14.744 -0.2088  0.4668 -0.3199
 3726SOL    HW122811   3.156   1.148  14.721  0.1257  1.2712  2.4894
 3726SOL    HW222812   3.088   1.011  14.713  0.6525  0.1535  0.8998
 3727SOL     OW22813   0.318   2.094   9.013 -0.1939 -0.1010 -0.5918
 3727SOL    HW122814   0.296   2.003   8.998  1.1995 -0.8729  2.0314
 3727SOL    HW222815   0.256   2.133   8.952  0.6915  0.5116 -1.1113
 3728SOL     OW22816   3.975   0.520   8.863  0.1711 -0.5489 -0.5184
 3728SOL    HW122817   3.896   0.552   8.906 -0.3631 -0.5579 -1.5070
 3728SOL    HW222818   4.017   0.599   8.826 -1.3832 -0.3310 -1.7936
 3729SOL     OW22819   3.268   2.403   2.243 -0.5360  0.2277  0.1415
 3729SOL    HW122820   3.291   2.496   2.251 -0.2979  0.4898 -3.3775
 3729SOL    HW222821   3.186   2.388   2.290 -0.4761 -0.8613 -0.1152
 3730SOL     OW22822   1.373   2.815  16.528  0.2002 -0.2894  0.5888
 3730SOL    HW122823   1.310   2.743  16.535 -0.8050  0.8638  3.5311
 3730SOL    HW222824   1.457   2.785  16.562 -1.0408 -1.3001  2.7248
 3731SOL     OW22825   0.488   0.768   5.969  0.2705  0.1684  0.5207
 3731SOL    HW122826   0.580   0.742   5.962 -0.0187 -1.2036  1.7001
 3731SOL    HW222827   0.484   0.779   6.064  0.7326 -2.0738  0.8178
 3732SOL     OW22828   1.938   0.596   0.513  0.1589  0.6779  1.0131
 3732SOL    HW122829   2.024   0.633   0.491 -0.1767  0.3057 -0.9676
 3732SOL    HW222830   1.958   0.507   0.486  1.5793  1.5937 -0.9647
 3733SOL     OW22831   0.469   1.006   9.773  0.0444  0.0598  0.3121
 3733SOL    HW122832   0.457   1.053   9.855 -0.5290  0.9741 -0.2971
 3733SOL    HW222833   0.433   1.068   9.710  1.3195  1.7462  1.2689
 3734SOL     OW22834   0.947   4.538   6.765  0.1250  0.5345  0.3377
 3734SOL    HW122835   0.874   4.551   6.825  0.6271 -1.4107  1.3726
 3734SOL    HW222836   0.973   4.447   6.783 -1.0439  0.0068 -0.6300
 3735SOL     OW22837   3.812   1.085  16.805 -0.2609 -0.2405  0.0346
 3735SOL    HW122838   3.785   1.171  16.837  0.7443 -0.3686  1.2149
 3735SOL    HW222839   3.722   1.056  16.791 -0.1009 -1.5438  1.6265
 3736SOL     OW22840   3.716   4.257   5.140  0.8816  0.1952  0.0644
 3736SOL    HW122841   3.741   4.344   5.108 -1.7599  0.4364 -1.4038
 3736SOL    HW222842   3.776   4.206   5.085  1.4801 -0.1518  1.0520
 3737SOL     OW22843   1.979   2.838   7.627 -0.6565  0.8584  0.3496
 3737SOL    HW122844   1.984   2.807   7.718  0.8186 -1.4709 -0.5089
 3737SOL    HW222845   2.038   2.913   7.636  0.2777 -0.1570  2.8320
 3738SOL     OW22846   3.813   1.721   6.000  0.1316 -0.2995 -0.3730
 3738SOL    HW122847   3.897   1.694   5.964 -0.1947 -3.3874  1.1916
 3738SOL    HW222848   3.825   1.815   6.014 -0.6372 -0.3989  0.9507
 3739SOL     OW22849   0.949   1.556   6.300  0.4600  0.3848 -0.5882
 3739SOL    HW122850   1.022   1.522   6.248  0.1982 -1.2714  0.1229
 3739SOL    HW222851   0.925   1.636   6.253 -0.9684  0.5397  0.4274
 3740SOL     OW22852   2.007   3.344   7.182  0.0121 -0.5879  0.1607
 3740SOL    HW122853   1.939   3.311   7.240  0.7410  1.5651  2.2523
 3740SOL    HW222854   2.058   3.397   7.244 -0.6093 -0.6698  0.7433
 3741SOL     OW22855   1.868   1.288   4.106  0.3561 -0.4364 -0.4511
 3741SOL    HW122856   1.930   1.223   4.141  1.6564  1.0471 -0.0094
 3741SOL    HW222857   1.797   1.230   4.077 -1.9625  1.6435  1.0323
 3742SOL     OW22858   1.206   4.023   8.530 -0.3958  0.1981  0.3273
 3742SOL    HW122859   1.289   4.057   8.495  0.6082 -0.9191  1.6250
 3742SOL    HW222860   1.173   3.994   8.445 -0.2814 -1.3756  0.8185
 3743SOL     OW22861   2.199   4.489   5.130  0.2608 -0.1472  0.0669
 3743SOL    HW122862   2.158   4.465   5.213 -0.7643 -0.0921 -0.4330
 3743SOL    HW222863   2.265   4.551   5.160 -0.0459  0.7092 -1.0327
 3744SOL     OW22864   3.570   1.348   5.638 -0.0055 -1.1514  0.1226
 3744SOL    HW122865   3.650   1.376   5.682 -0.3889 -1.1424  0.8140
 3744SOL    HW222866   3.511   1.332   5.712  0.4451  0.0280  0.7390
 3745SOL     OW22867   1.487   4.402   9.025 -0.0363  0.7853 -0.3447
 3745SOL    HW122868   1.568   4.432   9.066  1.4105 -0.7048 -2.0740
 3745SOL    HW222869   1.415   4.454   9.059  1.4258  0.0250  3.8590
 3746SOL     OW22870   0.377   4.381  13.285 -0.6037 -0.2315  0.0313
 3746SOL    HW122871   0.387   4.474  13.304 -0.6148 -0.7634  2.5938
 3746SOL    HW222872   0.288   4.369  13.252  0.4112 -0.5181 -2.5963
 3747SOL     OW22873   2.917   3.183   4.505  0.0721 -0.1922 -0.0744
 3747SOL    HW122874   2.846   3.247   4.507  0.0166 -0.2002 -1.6872
 3747SOL    HW222875   2.998   3.232   4.490  1.1175 -2.4012 -1.6366
 3748SOL     OW22876   0.817   0.634   1.348 -0.4338 -0.4411 -0.3955
 3748SOL    HW122877   0.898   0.682   1.365 -0.8601  0.2422 -0.2575
 3748SOL    HW222878   0.815   0.632   1.252 -1.3386  0.6329 -0.4005
 3749SOL     OW22879   2.052   3.860  13.236 -0.0063 -0.1924  0.0715
 3749SOL    HW122880   1.999   3.878  13.159 -1.2245  1.2520  1.2501
 3749SOL    HW222881   2.136   3.894  13.205  0.4291 -1.2977  0.0310
 3750SOL     OW22882   4.418   4.330   4.904 -0.1389  0.0700  0.1850
 3750SOL    HW122883   4.403   4.406   4.960 -2.2492 -1.5992  1.8808
 3750SOL    HW222884   4.437   4.268   4.974 -0.4869  0.3327  0.5140
 3751SOL     OW22885   3.584   4.075   0.784 -0.0312 -0.4921 -0.0988
 3751SOL    HW122886   3.576   4.155   0.837 -0.8313 -1.0868  0.6774
 3751SOL    HW222887   3.498   4.064   0.743 -0.4334  0.2307  0.5364
 3752SOL     OW22888   2.658   4.008   3.541 -0.0514  0.6100  0.0807
 3752SOL    HW122889   2.660   3.949   3.617  0.8284  1.8369  1.0099
 3752SOL    HW222890   2.602   4.076   3.577 -1.0723 -2.4492  4.3202
 3753SOL     OW22891   2.587   2.498   5.296 -0.3881 -0.2880 -0.2146
 3753SOL    HW122892   2.673   2.498   5.254  0.0778 -2.7335  0.7761
 3753SOL    HW222893   2.529   2.525   5.224 -0.0466  1.2805  0.0853
 3754SOL     OW22894   4.686   4.491   8.233 -0.1071 -0.3063 -0.4069
 3754SOL    HW122895   4.718   4.459   8.148  2.1665  0.4167  0.1809
 3754SOL    HW222896   0.036   4.510   8.271 -1.4868  0.4292  2.3445
 3755SOL     OW22897   2.131   4.681  15.136 -0.3358  0.2127  0.0798
 3755SOL    HW122898   2.225   4.681  15.153 -0.2348  0.8957 -0.4671
 3755SOL    HW222899   2.135   4.712  15.045  0.1817 -2.1837 -0.7036
 3756SOL     OW22900   0.843   0.016  15.010 -0.5241  0.2039  0.2501
 3756SOL    HW122901   0.854   0.110  15.019  1.0807  0.2381 -1.9597
 3756SOL    HW222902   0.818   4.731  15.100  0.0593  4.2280  1.3428
 3757SOL     OW22903   3.373   2.662   1.143 -0.9502  0.1009  0.5446
 3757SOL    HW122904   3.372   2.572   1.177 -0.8257  0.0771  0.4849
 3757SOL    HW222905   3.457   2.697   1.172 -1.0457 -0.5435  1.6075
 3758SOL     OW22906   2.737   3.922   2.167 -0.9348 -0.3336  0.0646
 3758SOL    HW122907   2.796   3.866   2.217 -1.3311 -0.5102  0.3377
 3758SOL    HW222908   2.701   3.981   2.234 -1.1401  1.5154 -1.6854
 3759SOL     OW22909   1.922   2.102   7.960  0.1154 -0.3153 -0.4329
 3759SOL    HW122910   1.969   2.092   8.043 -1.0533 -0.6918  0.1856
 3759SOL    HW222911   1.841   2.056   7.983  0.8428 -1.1685  0.4516
 3760SOL     OW22912   3.622   4.299   3.529  0.4842 -0.1438  0.2498
 3760SOL    HW122913   3.636   4.388   3.497  2.6447  0.1048  1.9040
 3760SOL    HW222914   3.578   4.322   3.611 -0.3852 -1.0666  0.0512
 3761SOL     OW22915   3.716   4.211   4.336 -0.0282  0.0848  0.1344
 3761SOL    HW122916   3.702   4.284   4.396 -0.3105  0.9937 -1.0238
 3761SOL    HW222917   3.808   4.187   4.334  0.1158  0.5781  1.4826
 3762SOL     OW22918   4.531   3.526   9.547  0.0411  0.0037  0.6828
 3762SOL    HW122919   4.495   3.564   9.467 -1.4104 -1.8889  0.4246
 3762SOL    HW222920   4.458   3.474   9.581 -0.2388  1.1126  1.8070
 3763SOL     OW22921   1.811   3.417   2.902  0.5923  0.3291 -0.5166
 3763SOL    HW122922   1.839   3.342   2.850 -1.9512 -1.0658  0.1494
 3763SOL    HW222923   1.845   3.490   2.849  1.6733  0.7167  0.7085
 3764SOL     OW22924   3.072   1.510   1.659  0.0011  0.1265  0.0527
 3764SOL    HW122925   3.003   1.462   1.614  0.5188 -2.4199  1.9431
 3764SOL    HW222926   3.127   1.549   1.591 -0.1256 -1.3977 -0.9215
 3765SOL     OW22927   3.115   2.173  15.605  0.1036 -0.2816  0.2067
 3765SOL    HW122928   3.126   2.131  15.690 -1.9887  0.4060  0.7903
 3765SOL    HW222929   3.020   2.165  15.602 -0.0548  1.0696  1.7843
 3766SOL     OW22930   2.491   1.316   8.205  0.2501  0.1640  0.0700
 3766SOL    HW122931   2.477   1.386   8.268 -1.9392  0.9064 -1.2323
 3766SOL    HW222932   2.402   1.298   8.176 -0.2150  1.5879  0.6553
 3767SOL     OW22933   3.536   4.314   0.909  0.2911 -0.1771 -0.1909
 3767SOL    HW122934   3.482   4.386   0.878  0.5651 -0.9734 -2.5770
 3767SOL    HW222935   3.563   4.352   0.992 -2.4453  2.8863 -0.7214
 3768SOL     OW22936   4.362   3.994   4.792  0.2613 -0.3338  0.0228
 3768SOL    HW122937   4.337   3.902   4.798 -0.9635  0.1581  2.3730
 3768SOL    HW222938   4.275   4.026   4.815 -0.7256 -2.2352 -1.1357
 3769SOL     OW22939   3.555   0.455   1.740  0.2018  0.2212 -0.3059
 3769SOL    HW122940   3.551   0.439   1.646 -2.8603  0.6782 -0.2471
 3769SOL    HW222941   3.478   0.510   1.750 -0.1874 -0.2122 -0.8907
 3770SOL     OW22942   3.786   2.274  10.358 -0.0823 -0.4177 -0.1403
 3770SOL    HW122943   3.833   2.358  10.354 -0.1585 -0.3841 -0.3491
 3770SOL    HW222944   3.811   2.244  10.445 -1.2115  0.3165  0.4330
 3771SOL     OW22945   2.182   2.975   6.855  0.2938 -0.1953 -0.1945
 3771SOL    HW122946   2.261   2.937   6.894  0.3340  1.1370  1.0320
 3771SOL    HW222947   2.133   3.001   6.933 -0.2041 -0.2910 -0.4768
 3772SOL     OW22948   1.652   1.886   7.613 -0.5145 -0.1540 -0.1198
 3772SOL    HW122949   1.696   1.968   7.589  0.0966 -0.3574  0.3373
 3772SOL    HW222950   1.562   1.920   7.603  0.2072  2.1547  1.1765
 3773SOL     OW22951   4.146   2.569  12.353  0.4947  0.1806 -0.3115
 3773SOL    HW122952   4.176   2.606  12.270  1.4643  1.0295  0.4359
 3773SOL    HW222953   4.196   2.621  12.415 -1.4763  1.8009 -0.0603
 3774SOL     OW22954   3.775   3.379   2.482  0.7463  0.1920  0.1249
 3774SOL    HW122955   3.846   3.396   2.544  2.0856  0.3377 -1.4488
 3774SOL    HW222956   3.807   3.309   2.426  2.0610  1.1325 -0.3139
 3775SOL     OW22957   4.509   1.090   1.492 -0.4456  0.3162 -0.3005
 3775SOL    HW122958   4.519   1.184   1.507  1.4587  0.4002 -2.1320
 3775SOL    HW222959   4.598   1.064   1.515 -0.8389 -1.7449 -1.1710
 3776SOL     OW22960   3.765   3.490   4.423  0.1089  0.1493 -0.1326
 3776SOL    HW122961   3.823   3.421   4.392  0.6122  0.2108  0.6736
 3776SOL    HW222962   3.821   3.528   4.491  0.2118  1.6507 -1.0555
 3777SOL     OW22963   4.007   1.668   8.643 -0.3012  0.2957  0.3952
 3777SOL    HW122964   3.930   1.722   8.623  1.1365  1.3089 -2.2925
 3777SOL    HW222965   3.993   1.594   8.584  0.1116 -0.2652  0.9893
 3778SOL     OW22966   2.147   3.065   8.473  0.4313 -0.5290  0.6334
 3778SOL    HW122967   2.116   3.113   8.550 -1.6791 -0.9026  0.0338
 3778SOL    HW222968   2.242   3.076   8.471  0.2391  0.9918 -0.0705
 3779SOL     OW22969   2.746   0.829   4.724  0.2657 -0.0865 -0.1048
 3779SOL    HW122970   2.779   0.898   4.781  0.9513  1.6703 -2.6252
 3779SOL    HW222971   2.693   0.883   4.666  0.0391 -0.9216 -0.6859
 3780SOL     OW22972   1.526   0.518   2.110 -0.2542 -0.1719  0.2803
 3780SOL    HW122973   1.451   0.575   2.130 -1.4988 -1.7328  0.0962
 3780SOL    HW222974   1.480   0.441   2.076  1.1540 -1.2345  0.8205
 3781SOL     OW22975   3.221   0.748   4.730 -0.7976  0.3692  0.5896
 3781SOL    HW122976   3.290   0.747   4.796 -1.2760 -0.8441  1.0903
 3781SOL    HW222977   3.171   0.826   4.754 -0.6215  0.7768 -0.3836
 3782SOL     OW22978   1.974   4.412   7.464 -0.6480 -0.0955 -0.2183
 3782SOL    HW122979   2.022   4.370   7.536 -0.7954 -0.3408 -0.2613
 3782SOL    HW222980   1.960   4.502   7.494 -1.1190 -0.1978 -0.1372
 3783SOL     OW22981   2.438   1.357   5.757 -1.0571 -0.2864  0.8428
 3783SOL    HW122982   2.506   1.318   5.703 -0.8601  0.7913  0.3103
 3783SOL    HW222983   2.466   1.449   5.751 -0.1243 -0.6692 -0.7177
 3784SOL     OW22984   2.843   2.647   3.019  0.0389 -0.1163 -0.2997
 3784SOL    HW122985   2.885   2.723   3.059 -0.6751  0.9405 -1.5189
 3784SOL    HW222986   2.841   2.680   2.929 -0.4378 -1.4641 -0.7839
 3785SOL     OW22987   1.355   4.206  10.479  0.2425 -0.0979  0.4076
 3785SOL    HW122988   1.416   4.200  10.405  2.6540 -1.2566  2.4871
 3785SOL    HW222989   1.351   4.299  10.499  1.1573  0.2333 -0.8716
 3786SOL     OW22990   2.963   3.396   5.759  0.1234  0.4622  0.9063
 3786SOL    HW122991   2.868   3.387   5.757  0.0659  1.2488 -0.0681
 3786SOL    HW222992   2.963   3.490   5.739 -2.7641  0.4903  1.0811
 3787SOL     OW22993   2.255   4.351   6.940  0.1248  0.1027  0.5205
 3787SOL    HW122994   2.347   4.352   6.966  0.9419  0.2857 -2.3801
 3787SOL    HW222995   2.228   4.443   6.937  2.4741  0.7991  0.9141
 3788SOL     OW22996   3.721   4.724   4.555  0.2637  0.2436  0.0157
 3788SOL    HW122997   3.815   4.725   4.538  0.1876 -1.0503 -0.4620
 3788SOL    HW222998   3.684   4.667   4.488 -1.8015  1.2661  0.2756
 3789SOL     OW22999   3.956   2.114   1.754  0.6322  0.0419  0.3292
 3789SOL    HW123000   4.029   2.060   1.724  1.7701  1.9728 -0.3450
 3789SOL    HW223001   3.885   2.086   1.696 -0.1009  1.6920  0.4053
 3790SOL     OW23002   1.518   2.305   0.696  0.2269 -0.6136  0.1046
 3790SOL    HW123003   1.501   2.212   0.680 -0.5350 -0.7723  1.8690
 3790SOL    HW223004   1.426   2.329   0.698  0.7163  1.1635  1.1414
 3791SOL     OW23005   3.738   0.933   5.243 -0.3081  0.4253  0.1642
 3791SOL    HW123006   3.778   1.005   5.194  0.3275  1.4515  2.1959
 3791SOL    HW223007   3.787   0.943   5.324  0.0108  0.3163 -0.0142
 3792SOL     OW23008   2.528   0.169   3.837  0.7823  0.1035  0.3616
 3792SOL    HW123009   2.480   0.227   3.896  0.3100  1.2183 -1.1032
 3792SOL    HW223010   2.619   0.196   3.846  0.5103  0.8360  0.8849
 3793SOL     OW23011   2.574   4.227   8.068 -0.1132 -0.4240 -0.0900
 3793SOL    HW123012   2.538   4.139   8.059 -2.0135  0.1935  1.2962
 3793SOL    HW223013   2.666   4.205   8.059 -0.3026 -0.4043 -2.1016
 3794SOL     OW23014   4.694   1.935   1.143 -0.4867 -0.0773 -0.2829
 3794SOL    HW123015   0.032   1.934   1.204 -0.5886  1.0076 -0.1472
 3794SOL    HW223016   4.723   1.882   1.069 -2.3881  1.4742 -2.1484
 3795SOL     OW23017   2.671   1.139   9.349 -0.5303  0.0053 -0.2524
 3795SOL    HW123018   2.577   1.151   9.361 -0.7244 -1.1415 -0.5602
 3795SOL    HW223019   2.669   1.047   9.322  1.1581  0.3866 -1.6610
 3796SOL     OW23020   0.713   4.636   9.081 -0.0651 -0.8930 -0.4567
 3796SOL    HW123021   0.620   4.649   9.068 -0.3698 -1.3053  1.2347
 3796SOL    HW223022   0.756   4.711   9.040 -0.5582 -0.3758 -0.0187
 3797SOL     OW23023   0.521   4.045  12.739 -0.1668  0.3918 -0.0323
 3797SOL    HW123024   0.601   4.080  12.699 -1.1167  1.4455 -0.9922
 3797SOL    HW223025   0.497   3.977  12.675  0.7776 -0.2603  0.2994
 3798SOL     OW23026   2.239   0.751   5.743 -0.3826  0.0175 -0.3766
 3798SOL    HW123027   2.216   0.815   5.810 -1.3896  0.1229 -0.8149
 3798SOL    HW223028   2.155   0.734   5.700  0.3615 -0.5571 -1.5966
 3799SOL     OW23029   4.250   4.348   1.888 -0.8023 -0.2224 -0.3877
 3799SOL    HW123030   4.330   4.381   1.847 -0.3919  0.3399  0.8413
 3799SOL    HW223031   4.202   4.304   1.818 -1.0484  0.4454 -0.6358
 3800SOL     OW23032   2.184   1.525   1.905  0.2190 -0.5408 -0.2267
 3800SOL    HW123033   2.260   1.495   1.954 -0.6334 -0.1930  1.3097
 3800SOL    HW223034   2.157   1.435   1.888 -2.2591  0.2271 -0.3392
 3801SOL     OW23035   3.659   2.844  13.869 -0.2917  0.0701  0.1465
 3801SOL    HW123036   3.689   2.771  13.816 -1.6855  0.0301 -0.5872
 3801SOL    HW223037   3.690   2.816  13.955 -3.9076 -2.0945  0.7211
 3802SOL     OW23038   4.388   3.675   9.083  0.1685  0.5048  0.1237
 3802SOL    HW123039   4.454   3.708   9.022 -0.9265  0.8379 -0.8725
 3802SOL    HW223040   4.443   3.667   9.161 -0.9658  1.4481  1.0248
 3803SOL     OW23041   2.491   4.389   9.748  0.2968 -0.1255  0.3048
 3803SOL    HW123042   2.455   4.397   9.836  0.0824  0.4869  0.1587
 3803SOL    HW223043   2.573   4.438   9.745 -0.0590  0.5288  1.5936
 3804SOL     OW23044   2.052   0.205   7.188 -0.1130  0.2636 -0.2278
 3804SOL    HW123045   2.058   0.223   7.094 -0.0853 -1.8271 -0.6345
 3804SOL    HW223046   2.142   0.189   7.218 -1.4055 -2.6669  2.1207
 3805SOL     OW23047   4.164   2.347   0.722  0.1629 -0.7875 -0.5335
 3805SOL    HW123048   4.113   2.363   0.643  0.3231  2.2761 -0.0190
 3805SOL    HW223049   4.117   2.403   0.784  2.7208  0.9493 -0.1599
 3806SOL     OW23050   4.719   4.100  17.065 -0.0427 -0.2632  0.2118
 3806SOL    HW123051   4.626   4.125  17.063  0.2032  0.6988  0.7117
 3806SOL    HW223052   4.723   4.053  17.148  1.2707  0.8034  0.7467
 3807SOL     OW23053   3.612   1.587   9.249  0.1508  0.2685  0.1372
 3807SOL    HW123054   3.667   1.516   9.282  0.8787  0.6021 -0.3583
 3807SOL    HW223055   3.581   1.543   9.169 -0.1102 -0.8053  0.8204
 3808SOL     OW23056   0.911   2.650   4.451 -0.1312  0.0426  0.2543
 3808SOL    HW123057   0.846   2.678   4.387  2.2430 -1.1290 -2.6928
 3808SOL    HW223058   0.966   2.595   4.394  0.2886 -0.1760  0.8658
 3809SOL     OW23059   3.401   3.056  14.833 -0.3571 -0.2050  0.3824
 3809SOL    HW123060   3.329   3.111  14.863 -0.9701 -1.3485  1.0428
 3809SOL    HW223061   3.433   3.032  14.920 -1.4167  0.3058  0.9067
 3810SOL     OW23062   0.380   2.263   5.892  0.1169  0.2452 -0.0649
 3810SOL    HW123063   0.351   2.176   5.919  0.1188 -0.1184 -1.2285
 3810SOL    HW223064   0.427   2.296   5.968 -1.8552  2.0009  0.3996
 3811SOL     OW23065   2.622   4.694   5.426 -0.1379  0.3209  0.4389
 3811SOL    HW123066   2.542   4.643   5.411  0.7044 -0.4159 -1.4610
 3811SOL    HW223067   2.679   4.672   5.353  1.2625  0.9083  1.3553
 3812SOL     OW23068   1.565   2.142   9.020 -0.4467  0.4215 -0.0356
 3812SOL    HW123069   1.625   2.212   9.047 -1.5393  2.5875 -3.3047
 3812SOL    HW223070   1.609   2.115   8.940  0.6428 -0.9109  1.0115
 3813SOL     OW23071   0.364   3.802   2.264  0.1908 -0.1920  0.3970
 3813SOL    HW123072   0.329   3.759   2.186 -0.1080  1.0403 -0.1478
 3813SOL    HW223073   0.404   3.877   2.221 -1.1912  0.5440  0.3989
 3814SOL     OW23074   2.890   3.452   5.469  0.0949 -0.4369  0.0243
 3814SOL    HW123075   2.826   3.447   5.540 -1.8192  0.1205 -1.6506
 3814SOL    HW223076   2.842   3.423   5.392  1.5377 -2.5700 -0.0504
 3815SOL     OW23077   1.774   3.189   1.380 -0.2107 -0.3060 -0.3291
 3815SOL    HW123078   1.712   3.140   1.434  0.6554 -1.9240 -0.8237
 3815SOL    HW223079   1.801   3.258   1.442 -1.4642  0.5017 -0.6780
 3816SOL     OW23080   0.560   3.130   9.035 -0.7933 -0.2817 -0.0636
 3816SOL    HW123081   0.519   3.108   8.951 -0.8236  0.7851 -0.3293
 3816SOL    HW223082   0.614   3.051   9.040  0.7368  0.9028  2.0329
 3817SOL     OW23083   0.721   0.306  10.955  0.7161 -0.5794 -0.5028
 3817SOL    HW123084   0.663   0.231  10.963 -1.6351  0.9690 -3.2739
 3817SOL    HW223085   0.789   0.276  11.016  1.7073  1.0393 -0.8024
 3818SOL     OW23086   3.295   1.673   6.456  0.5832 -0.0958  0.1269
 3818SOL    HW123087   3.263   1.657   6.545  1.0620 -2.2420 -0.0900
 3818SOL    HW223088   3.377   1.714   6.484  1.4780 -2.2708  0.7195
 3819SOL     OW23089   2.741   4.386  17.331  0.4070  0.0235 -0.2629
 3819SOL    HW123090   2.821   4.333  17.327  0.3426 -0.0568 -0.4610
 3819SOL    HW223091   2.697   4.357  17.251 -0.6693 -1.0827  0.7135
 3820SOL     OW23092   4.711   0.866   7.430  0.4828  0.3263 -0.1273
 3820SOL    HW123093   0.021   0.847   7.349  1.4021  2.3190 -0.0868
 3820SOL    HW223094   0.043   0.896   7.491  0.1324 -0.0348  0.4371
 3821SOL     OW23095   0.377   0.906   2.378 -0.1595 -0.3489  0.1627
 3821SOL    HW123096   0.333   0.944   2.453  0.6258 -0.7981  0.8562
 3821SOL    HW223097   0.431   0.975   2.341 -1.3974  0.1181 -0.7670
 3822SOL     OW23098   3.615   2.864   3.218  0.0405 -0.4360  0.1654
 3822SOL    HW123099   3.547   2.924   3.248  0.4934  0.5894 -0.8744
 3822SOL    HW223100   3.680   2.933   3.221 -1.0683  0.6366 -0.6512
 3823SOL     OW23101   2.095   2.175   8.335 -0.0927  0.3805 -0.4908
 3823SOL    HW123102   2.058   2.118   8.268 -0.3379 -0.4644  0.3725
 3823SOL    HW223103   2.016   2.219   8.366  0.1927  0.2213  0.4732
 3824SOL     OW23104   2.245   1.313   6.985 -0.4059 -0.3480 -0.4082
 3824SOL    HW123105   2.277   1.225   7.002 -1.2153 -0.7333 -0.9107
 3824SOL    HW223106   2.316   1.361   7.028 -0.8527  0.0372 -0.1112
 3825SOL     OW23107   1.487   1.231   6.896  0.2904 -0.6971  0.4028
 3825SOL    HW123108   1.484   1.137   6.879 -0.8818 -0.5033 -0.4208
 3825SOL    HW223109   1.399   1.266   6.883  0.4650  0.0463  1.2294
 3826SOL     OW23110   1.467   4.319  13.133  0.3056 -0.0751 -0.6224
 3826SOL    HW123111   1.411   4.341  13.207 -0.3487 -0.0235 -1.1294
 3826SOL    HW223112   1.547   4.349  13.175  0.5662  0.9248 -1.8017
 3827SOL     OW23113   2.073   3.576   3.375  0.2384 -0.0973  0.2760
 3827SOL    HW123114   2.010   3.541   3.313 -1.1501  0.7045  1.2378
 3827SOL    HW223115   2.078   3.506   3.440 -0.7432  1.7784  2.3445
 3828SOL     OW23116   3.016   3.378   9.505  0.3077 -0.2080 -0.2509
 3828SOL    HW123117   2.975   3.296   9.478  0.3259  0.0939 -1.1864
 3828SOL    HW223118   2.952   3.449   9.508  0.9123  0.2734  1.3099
 3829SOL     OW23119   3.384   3.944   5.107  0.1566 -0.2410 -0.5776
 3829SOL    HW123120   3.413   3.962   5.018 -0.1630  3.6087  0.1030
 3829SOL    HW223121   3.344   4.029   5.127  3.1856  0.4253  2.6309
 3830SOL     OW23122   3.830   2.004   6.026 -0.0032 -0.1252 -0.2941
 3830SOL    HW123123   3.895   2.002   6.096 -1.2460  0.1464  0.8759
 3830SOL    HW223124   3.871   2.065   5.966  1.2461 -0.4171  0.2661
 3831SOL     OW23125   2.764   0.947   3.936  0.0696 -0.7728 -0.5605
 3831SOL    HW123126   2.850   0.932   3.898  1.0284 -2.7891  2.3678
 3831SOL    HW223127   2.772   0.897   4.018 -0.8202 -0.0940 -0.0630
 3832SOL     OW23128   0.035   4.076   7.777 -0.0083  0.2466  0.7603
 3832SOL    HW123129   4.699   4.115   7.827 -0.6565  0.8564 -0.6309
 3832SOL    HW223130   0.102   4.089   7.843 -1.4142  1.3087  1.9707
 3833SOL     OW23131   1.226   3.867   7.520  0.1904  0.5722  0.5392
 3833SOL    HW123132   1.264   3.825   7.597  0.6326  2.1004  1.1552
 3833SOL    HW223133   1.135   3.852   7.546  0.3237 -1.1845 -0.0247
 3834SOL     OW23134   3.419   0.314   9.374  0.3612  0.1290 -0.4665
 3834SOL    HW123135   3.434   0.360   9.457  0.8625 -0.0386 -0.4634
 3834SOL    HW223136   3.418   0.394   9.321  1.0019 -0.9580 -2.0980
 3835SOL     OW23137   4.029   0.339   0.719  0.5761 -0.1609  0.7646
 3835SOL    HW123138   3.958   0.402   0.728  2.2716  1.8801 -0.0835
 3835SOL    HW223139   4.088   0.378   0.654  0.4051  0.0586  0.7432
 3836SOL     OW23140   4.214   1.750   4.246 -0.3833 -0.5394 -0.2406
 3836SOL    HW123141   4.247   1.833   4.283  0.0504 -0.7442 -0.1689
 3836SOL    HW223142   4.281   1.745   4.178 -0.3825 -2.4500 -0.0973
 3837SOL     OW23143   4.541   2.768  15.306 -0.3584 -0.2065 -0.5077
 3837SOL    HW123144   4.610   2.801  15.363  0.1616  0.1564 -1.3538
 3837SOL    HW223145   4.560   2.676  15.291 -3.9494 -0.5900 -2.6398
 3838SOL     OW23146   3.663   4.428   8.778 -0.4279  0.0791  0.0591
 3838SOL    HW123147   3.711   4.502   8.814  0.5714 -0.9428  0.8168
 3838SOL    HW223148   3.658   4.450   8.685 -0.6595 -1.7372 -0.3743
 3839SOL     OW23149   0.672   3.102  12.774 -0.4337 -0.1274 -0.1561
 3839SOL    HW123150   0.715   3.067  12.852 -1.0083 -0.7176 -0.0992
 3839SOL    HW223151   0.714   3.188  12.765  0.3106 -0.1743  3.1075
 3840SOL     OW23152   1.536   0.986   5.670  0.2975  0.1562 -0.1755
 3840SOL    HW123153   1.542   1.028   5.756  0.5177 -1.9701  0.8526
 3840SOL    HW223154   1.501   0.897   5.678  0.2038  0.2672  0.6538
 3841SOL     OW23155   3.197   3.986   4.477 -0.4047 -0.0947 -0.0132
 3841SOL    HW123156   3.281   3.958   4.512 -0.6214  1.2522  1.5689
 3841SOL    HW223157   3.181   4.047   4.549  0.9072 -1.4855  1.4562
 3842SOL     OW23158   0.866   0.348   6.772  0.2784 -0.2826 -0.1317
 3842SOL    HW123159   0.956   0.372   6.751  0.2735  0.1877  0.3794
 3842SOL    HW223160   0.835   0.418   6.830 -1.2826 -0.2238 -1.0534
 3843SOL     OW23161   4.111   2.059   5.194 -0.0926  0.3541 -0.0495
 3843SOL    HW123162   4.060   2.141   5.192 -0.6845  0.0376  1.7299
 3843SOL    HW223163   4.191   2.086   5.149  1.6454 -2.3778  1.4476
 3844SOL     OW23164   3.471   2.940  15.069  0.8111  0.0039 -0.2030
 3844SOL    HW123165   3.376   2.928  15.080  0.8240 -1.3264 -1.3937
 3844SOL    HW223166   3.510   2.940  15.156  0.5822 -1.3563 -0.0963
 3845SOL     OW23167   2.403   1.779   2.754  0.3146  0.3577  0.1087
 3845SOL    HW123168   2.429   1.812   2.668 -1.9198  3.3573  0.5737
 3845SOL    HW223169   2.472   1.804   2.817  2.3298 -0.3733 -1.8127
 3846SOL     OW23170   2.855   0.215   5.841  0.2355  0.4588 -0.0033
 3846SOL    HW123171   2.842   0.140   5.784 -1.4878 -0.9440  2.2470
 3846SOL    HW223172   2.885   0.280   5.777  0.4187 -0.9672 -1.3830
 3847SOL     OW23173   1.943   1.526  13.558  0.0601  0.8158 -0.0395
 3847SOL    HW123174   1.858   1.510  13.518 -0.2929  2.9203 -0.1328
 3847SOL    HW223175   1.965   1.617  13.542 -0.4436  1.0241  0.4280
 3848SOL     OW23176   3.961   1.448   5.235 -0.6990  0.2797 -0.3025
 3848SOL    HW123177   4.033   1.439   5.297 -2.6417 -0.5951  1.8282
 3848SOL    HW223178   3.954   1.543   5.240  0.5281  0.4309 -1.6423
 3849SOL     OW23179   4.649   4.060   2.088  0.9023 -0.3021  0.3293
 3849SOL    HW123180   4.571   4.057   2.144  0.0444 -1.2711 -0.8962
 3849SOL    HW223181   4.640   4.141   2.039 -0.1183  0.0760  1.1261
 3850SOL     OW23182   2.733   1.929  14.981  0.0029  0.3912 -0.1241
 3850SOL    HW123183   2.769   1.846  14.950  1.0000  0.1856  1.5729
 3850SOL    HW223184   2.717   1.969  14.896  0.0216  1.9618  0.6096
 3851SOL     OW23185   0.278   1.996   2.282  0.3185 -0.3519  0.1911
 3851SOL    HW123186   0.338   1.978   2.355 -1.0826 -1.0885  1.1550
 3851SOL    HW223187   0.201   2.030   2.328  1.5787  1.2594  1.0958
 3852SOL     OW23188   0.725   1.828   3.827  0.2968  0.3368  0.2471
 3852SOL    HW123189   0.676   1.752   3.860  0.8429  0.5618  1.5758
 3852SOL    HW223190   0.657   1.890   3.802 -0.5604 -1.0701 -0.9388
 3853SOL     OW23191   0.169   4.388   8.896 -0.2310  0.1323 -0.2959
 3853SOL    HW123192   0.077   4.412   8.894  0.1029  1.4638  0.5073
 3853SOL    HW223193   0.213   4.443   8.961 -1.4733 -1.6952  2.0743
 3854SOL     OW23194   4.677   1.386   4.995  0.0663 -0.2069  0.0323
 3854SOL    HW123195   4.587   1.357   4.983 -0.2981  1.3008 -0.9318
 3854SOL    HW223196   4.714   1.302   4.970  0.4575  0.0271 -0.1776
 3855SOL     OW23197   2.047   4.640   6.069 -0.7244 -0.2836 -0.0956
 3855SOL    HW123198   2.042   4.680   5.982 -0.8181 -2.6736 -1.1823
 3855SOL    HW223199   2.041   4.716   6.127 -0.3131  1.4337 -2.3290
 3856SOL     OW23200   2.173   2.730   5.017  0.7395 -0.4307 -0.0747
 3856SOL    HW123201   2.082   2.738   5.047  1.5839  1.6202  1.9761
 3856SOL    HW223202   2.181   2.811   4.965 -0.1536 -0.2730  0.0208
 3857SOL     OW23203   0.569   3.281   3.643 -0.3501 -0.1010  0.3596
 3857SOL    HW123204   0.629   3.328   3.585 -0.8380  0.9311  0.6960
 3857SOL    HW223205   0.498   3.268   3.580  1.3900  0.6377 -1.7789
 3858SOL     OW23206   2.198   2.107   2.790 -0.5161  0.0486  0.2565
 3858SOL    HW123207   2.192   2.034   2.728 -0.2277 -0.1029  0.4049
 3858SOL    HW223208   2.107   2.119   2.817 -0.2455 -0.2743  1.3069
 3859SOL     OW23209   1.564   0.457   5.631 -0.5103 -0.6290  0.0181
 3859SOL    HW123210   1.485   0.476   5.581 -1.5325  1.5738  2.4277
 3859SOL    HW223211   1.540   0.383   5.687 -0.7128 -1.1443 -0.7575
 3860SOL     OW23212   1.597   4.007  10.731  0.0761  0.5242 -0.3226
 3860SOL    HW123213   1.644   3.963  10.801  2.9068  0.6141 -2.1217
 3860SOL    HW223214   1.666   4.004  10.664  1.9251 -1.2215  1.6550
 3861SOL     OW23215   1.124   0.282  14.425 -0.3109 -0.2860 -0.8532
 3861SOL    HW123216   1.178   0.204  14.440 -2.6187 -1.8223 -0.4975
 3861SOL    HW223217   1.182   0.348  14.387  0.1470  1.2363  2.5122
 3862SOL     OW23218   2.090   3.654   4.652  0.1277 -0.6161 -0.0531
 3862SOL    HW123219   2.005   3.659   4.608 -0.2920 -0.7870  0.7383
 3862SOL    HW223220   2.073   3.687   4.740 -2.0634 -3.2181  0.4858
 3863SOL     OW23221   2.902   0.025   7.356  0.2596  0.4949  0.4341
 3863SOL    HW123222   2.906   0.115   7.324 -1.8229  0.5117  0.2245
 3863SOL    HW223223   2.965   4.728   7.292 -0.7121  2.1867 -1.3794
 3864SOL     OW23224   0.036   3.243   2.124  0.1399 -0.0993  0.2520
 3864SOL    HW123225   4.686   3.207   2.099  0.5109  1.0153 -2.6309
 3864SOL    HW223226   0.013   3.254   2.216  0.9667 -2.2433  0.7094
 3865SOL     OW23227   0.709   1.817   1.955  0.0987 -0.4723 -0.1855
 3865SOL    HW123228   0.616   1.821   1.977  0.3645  0.3590  0.7879
 3865SOL    HW223229   0.728   1.902   1.915  0.7847 -0.5614 -0.0559
 3866SOL     OW23230   3.733   3.838   6.233 -0.2226  0.0539 -0.3549
 3866SOL    HW123231   3.658   3.789   6.199  0.2114 -0.3521 -0.7509
 3866SOL    HW223232   3.772   3.870   6.152 -1.1477 -1.6260 -1.4733
 3867SOL     OW23233   2.782   3.062   5.653  0.1014  0.3932  0.5445
 3867SOL    HW123234   2.732   3.023   5.725 -0.0241  1.6382  1.1259
 3867SOL    HW223235   2.708   3.077   5.594  1.4638 -0.0032 -1.3001
 3868SOL     OW23236   0.833   0.636   3.824 -0.3159 -0.3329 -0.1910
 3868SOL    HW123237   0.852   0.717   3.777  0.8670  0.2600  1.3521
 3868SOL    HW223238   0.876   0.648   3.908  0.1637 -0.3247 -0.4388
 3869SOL     OW23239   1.184   1.504   4.376  0.2246  0.9308  0.2470
 3869SOL    HW123240   1.153   1.549   4.454 -0.2273  0.7938  0.1482
 3869SOL    HW223241   1.151   1.558   4.304 -2.5203  0.1457  0.9288
 3870SOL     OW23242   0.312   1.577   2.001 -0.6326 -0.3656  0.1460
 3870SOL    HW123243   0.397   1.575   2.045 -0.7433 -2.4320  0.2639
 3870SOL    HW223244   0.283   1.486   1.997  1.3904 -0.8546 -3.1171
 3871SOL     OW23245   4.633   0.128   6.162  0.0599  0.2054  0.4865
 3871SOL    HW123246   4.713   0.175   6.138  1.7368 -2.9120 -0.1565
 3871SOL    HW223247   4.607   0.187   6.232 -2.0056 -1.5742  1.2015
 3872SOL     OW23248   3.760   1.577   4.495  0.2110 -1.1631 -0.2687
 3872SOL    HW123249   3.848   1.552   4.523  0.4693 -0.1071 -0.1469
 3872SOL    HW223250   3.785   1.648   4.436 -1.3273 -0.7923 -0.4742
 3873SOL     OW23251   0.368   4.098   5.076  0.1495 -0.1363  0.1705
 3873SOL    HW123252   0.394   4.187   5.053 -0.7181  0.2938  0.8148
 3873SOL    HW223253   0.292   4.090   5.018  0.5504  1.0295 -0.5067
 3874SOL     OW23254   0.608   0.022  10.469 -0.0308  0.2286 -0.4108
 3874SOL    HW123255   0.636   0.078  10.542 -2.0124  0.8431 -0.1370
 3874SOL    HW223256   0.645   4.674  10.498 -1.0775  0.0344  0.3463
 3875SOL     OW23257   0.223   1.265   5.616  0.3298  0.0558 -0.2530
 3875SOL    HW123258   0.288   1.217   5.667 -0.8576 -2.0054 -0.6384
 3875SOL    HW223259   0.179   1.185   5.587 -0.3995  0.5386 -0.4766
 3876SOL     OW23260   4.555   4.082   5.466 -0.1156  0.4296 -0.2639
 3876SOL    HW123261   4.583   4.005   5.417 -1.6596 -1.3181  1.6150
 3876SOL    HW223262   4.580   4.069   5.557 -0.7479  1.4413  0.0580
 3877SOL     OW23263   3.053   0.902   7.574 -0.1320 -0.1666 -0.3028
 3877SOL    HW123264   2.973   0.921   7.622  2.4546  0.9316  3.5384
 3877SOL    HW223265   3.106   0.959   7.629  0.3609  0.3935 -1.3582
 3878SOL     OW23266   2.509   0.614  12.879  0.1785 -0.0546 -0.0042
 3878SOL    HW123267   2.502   0.647  12.968  1.5858 -2.3497  0.9356
 3878SOL    HW223268   2.539   0.525  12.898 -0.5648 -0.0268  1.3052
 3879SOL     OW23269   0.566   3.848   7.413  0.0679  0.1177 -0.4166
 3879SOL    HW123270   0.471   3.857   7.413  0.0589 -0.0541  0.4674
 3879SOL    HW223271   0.584   3.781   7.347 -0.7982 -1.3023  0.7999
 3880SOL     OW23272   4.194   0.120   3.617  0.5312  0.3013  0.0154
 3880SOL    HW123273   4.203   0.159   3.704  0.2677  0.5788 -0.0808
 3880SOL    HW223274   4.266   0.059   3.634 -0.0596 -0.1514  0.8768
 3881SOL     OW23275   3.340   2.016   4.827 -0.0815 -0.4116  0.1919
 3881SOL    HW123276   3.291   2.028   4.745 -1.3466 -1.3831  0.7944
 3881SOL    HW223277   3.308   2.087   4.882 -0.1111 -1.1471  1.1321
 3882SOL     OW23278   0.733   3.347  11.894  0.9420  0.9245  0.4277
 3882SOL    HW123279   0.655   3.386  11.854 -0.6942 -0.2785  2.4322
 3882SOL    HW223280   0.709   3.264  11.936 -0.6440  0.6496 -1.0480
 3883SOL     OW23281   2.306   1.707  14.119  0.3654  0.6083 -0.5622
 3883SOL    HW123282   2.352   1.654  14.054 -0.1720 -0.2930 -0.2026
 3883SOL    HW223283   2.238   1.641  14.132  0.3343  0.7019 -0.2334
 3884SOL     OW23284   1.960   0.208  10.146 -0.3842  0.8060 -0.8168
 3884SOL    HW123285   1.926   0.297  10.139  0.6738  1.3481  0.8059
 3884SOL    HW223286   1.932   0.170  10.063 -0.8725  0.4956 -0.5052
 3885SOL     OW23287   0.482   0.753   8.968  0.1359  0.1330  0.0381
 3885SOL    HW123288   0.471   0.669   8.924  0.8844  0.5342 -0.9248
 3885SOL    HW223289   0.495   0.722   9.057 -0.5348 -4.0856 -1.3587
 3886SOL     OW23290   2.545   0.378   5.259  0.0987 -0.4994 -0.0610
 3886SOL    HW123291   2.600   0.416   5.326 -1.8617  2.5613 -0.2079
 3886SOL    HW223292   2.482   0.449   5.248  0.5590  0.1472  1.6404
 3887SOL     OW23293   2.379   1.651   3.979 -0.2472  0.5128 -0.0986
 3887SOL    HW123294   2.326   1.573   3.994  0.1655  0.4153  0.8840
 3887SOL    HW223295   2.468   1.615   3.977 -0.8023 -0.9648  1.7104
 3888SOL     OW23296   2.387   2.204   9.440 -0.1917 -0.1498  0.3514
 3888SOL    HW123297   2.472   2.183   9.479 -1.1475 -0.4465  2.2503
 3888SOL    HW223298   2.346   2.118   9.452  1.5914 -1.1569 -0.6859
 3889SOL     OW23299   3.934   0.275   9.408 -0.8174 -0.6714 -0.6393
 3889SOL    HW123300   3.846   0.310   9.423 -0.4453 -0.2737  0.5648
 3889SOL    HW223301   3.978   0.351   9.369 -0.5334 -0.4082  0.1993
 3890SOL     OW23302   4.171   2.969   9.415 -1.2047 -0.0275  0.1358
 3890SOL    HW123303   4.123   2.908   9.471 -1.7323  1.4355  1.2816
 3890SOL    HW223304   4.151   3.043   9.472  1.7021  0.6066  0.3441
 3891SOL     OW23305   4.130   4.400   9.536  0.3658  0.0400 -0.3182
 3891SOL    HW123306   4.189   4.333   9.569 -1.9030 -1.5122  0.5792
 3891SOL    HW223307   4.049   4.350   9.526 -0.5677  1.3437  0.8140
 3892SOL     OW23308   1.677   4.560   3.208  0.6707  0.1685  0.0306
 3892SOL    HW123309   1.690   4.653   3.188 -1.9301  0.6874  0.7126
 3892SOL    HW223310   1.751   4.536   3.263  1.6142 -0.4584 -1.5248
 3893SOL     OW23311   4.607   3.035  11.507 -0.2598 -0.2068 -0.0046
 3893SOL    HW123312   4.632   3.094  11.578  2.1804 -1.6709  0.3570
 3893SOL    HW223313   4.578   3.098  11.441 -0.9291 -0.8042 -0.2920
 3894SOL     OW23314   1.113   1.843   7.787 -0.0136  0.0237 -0.1272
 3894SOL    HW123315   1.071   1.853   7.872  2.7599  1.2619  1.0832
 3894SOL    HW223316   1.037   1.848   7.729  1.0607  1.0461 -1.4525
 3895SOL     OW23317   0.657   4.300   1.603 -0.6921 -0.0024 -0.2490
 3895SOL    HW123318   0.648   4.257   1.688  1.3318 -0.7850 -0.4295
 3895SOL    HW223319   0.571   4.295   1.562 -1.1047 -0.7574  0.7242
 3896SOL     OW23320   2.196   1.442  13.603 -0.4077 -0.6717 -0.0326
 3896SOL    HW123321   2.203   1.392  13.522 -3.4233 -1.3260  0.1148
 3896SOL    HW223322   2.109   1.481  13.599 -0.1708 -0.1281  0.0384
 3897SOL     OW23323   1.021   1.992   7.159 -0.6864 -0.2846 -0.4282
 3897SOL    HW123324   1.023   2.088   7.155  0.9882 -0.3569 -1.3941
 3897SOL    HW223325   1.032   1.969   7.067  1.1163 -0.5304 -0.1537
 3898SOL     OW23326   0.586   0.844   8.413  0.3737 -0.6226 -0.2561
 3898SOL    HW123327   0.537   0.788   8.352  0.9747 -2.3377  0.8441
 3898SOL    HW223328   0.618   0.782   8.477 -0.4729 -0.4895  0.2947
 3899SOL     OW23329   4.618   0.775  11.840  0.5811 -0.4676 -1.1034
 3899SOL    HW123330   4.688   0.786  11.776  2.5543  2.1440  1.5209
 3899SOL    HW223331   4.541   0.762  11.784 -0.4233 -2.5989  0.7824
 3900SOL     OW23332   1.407   3.843   2.005 -0.4599 -0.2782  0.2366
 3900SOL    HW123333   1.315   3.869   1.999 -0.6977 -0.9701  0.9272
 3900SOL    HW223334   1.406   3.749   1.988 -1.3467 -0.3209  0.5453
 3901SOL     OW23335   1.267   0.421   8.541  0.0653 -0.2022 -0.9809
 3901SOL    HW123336   1.281   0.358   8.611 -2.3870  0.3919  0.0760
 3901SOL    HW223337   1.297   0.501   8.585  1.2278 -0.0355 -2.0717
 3902SOL     OW23338   3.683   1.697   1.337 -0.0391  0.0006  0.3602
 3902SOL    HW123339   3.631   1.771   1.305 -0.7793 -0.2608  0.9568
 3902SOL    HW223340   3.723   1.664   1.256 -0.9786  1.0134 -0.5287
 3903SOL     OW23341   3.202   3.850   8.532  0.3402 -0.5444  0.3452
 3903SOL    HW123342   3.172   3.759   8.522  2.1130 -0.8241 -2.3771
 3903SOL    HW223343   3.209   3.869   8.626 -0.9493 -0.5945  0.4541
 3904SOL     OW23344   3.083   0.628   8.223 -0.2035 -0.1599 -0.8412
 3904SOL    HW123345   3.102   0.564   8.291 -2.4708 -1.7483 -1.6826
 3904SOL    HW223346   3.162   0.635   8.169  0.0951  1.2972 -0.2223
 3905SOL     OW23347   0.385   2.420   3.351  0.2139 -0.2244  0.2084
 3905SOL    HW123348   0.443   2.496   3.362  0.2564 -0.0235 -1.4604
 3905SOL    HW223349   0.301   2.452   3.382  0.0644 -0.2922 -0.1239
 3906SOL     OW23350   1.270   2.421   8.498 -0.2138 -0.1571  0.3918
 3906SOL    HW123351   1.284   2.356   8.430  1.5661  2.2997 -1.5688
 3906SOL    HW223352   1.359   2.426   8.534 -0.3837 -0.9539  0.9178
 3907SOL     OW23353   1.616   2.379   3.972 -0.9752  0.2691 -0.2169
 3907SOL    HW123354   1.660   2.299   4.001 -0.9706  1.1620  2.2889
 3907SOL    HW223355   1.530   2.366   4.013 -0.3799 -1.4506  0.4932
 3908SOL     OW23356   3.818   4.501  16.865 -0.1972 -0.2472 -0.0838
 3908SOL    HW123357   3.782   4.544  16.942  1.5917 -1.3650  1.3952
 3908SOL    HW223358   3.905   4.542  16.858 -0.0143 -0.3323  1.5873
 3909SOL     OW23359   1.051   0.186   4.263 -0.3416 -0.2938  0.5091
 3909SOL    HW123360   1.132   0.194   4.213  0.0251  0.9941  1.3231
 3909SOL    HW223361   1.001   0.257   4.223 -1.1442  0.0352  2.1083
 3910SOL     OW23362   1.850   2.869   3.145  0.0524 -0.4106 -0.1598
 3910SOL    HW123363   1.799   2.861   3.064 -2.4769  1.1951  1.2794
 3910SOL    HW223364   1.939   2.866   3.110  0.0850 -1.4081  0.0102
 3911SOL     OW23365   1.907   1.082   4.765 -0.4424  0.0464  0.2783
 3911SOL    HW123366   1.811   1.077   4.760 -0.4076  1.8876 -1.8699
 3911SOL    HW223367   1.933   1.125   4.684 -0.8156 -1.7681 -0.8083
 3912SOL     OW23368   4.704   4.418   0.711 -0.6468  0.1795 -0.5178
 3912SOL    HW123369   4.675   4.388   0.797  0.6150  2.5147  0.7141
 3912SOL    HW223370   4.623   4.409   0.661 -0.7702  1.8938 -0.6256
 3913SOL     OW23371   3.058   0.682   9.681  0.1528 -0.3077 -0.0559
 3913SOL    HW123372   3.081   0.628   9.757 -2.6981 -0.6490  0.5762
 3913SOL    HW223373   2.985   0.730   9.720 -0.5398 -0.6217 -0.9644
 3914SOL     OW23374   1.277   4.381  13.908 -0.5384 -0.3158  0.0279
 3914SOL    HW123375   1.212   4.423  13.965 -0.6262  1.0508 -1.0892
 3914SOL    HW223376   1.331   4.458  13.892 -4.4928  2.1977 -1.2722
 3915SOL     OW23377   2.305   3.992  16.080 -0.3980 -0.1738  0.7084
 3915SOL    HW123378   2.277   3.942  16.003 -0.2089  3.4270 -1.6802
 3915SOL    HW223379   2.223   3.996  16.129 -1.4397 -0.7308 -0.9806
 3916SOL     OW23380   0.733   0.016   6.631 -0.2685  0.2330 -0.0980
 3916SOL    HW123381   0.699   0.097   6.668 -0.0230  1.0776 -1.7098
 3916SOL    HW223382   0.665   4.729   6.568 -0.7277  0.1144  0.4373
 3917SOL     OW23383   4.021   4.522   1.926 -0.3343 -0.9798  0.0000
 3917SOL    HW123384   4.024   4.605   1.878 -2.4296 -1.7782 -1.5082
 3917SOL    HW223385   4.105   4.477   1.918 -0.0315 -0.4481  0.1384
 3918SOL     OW23386   4.226   3.851  13.714 -0.2160  0.1126  0.5686
 3918SOL    HW123387   4.209   3.811  13.799 -0.4357  1.9703  1.3822
 3918SOL    HW223388   4.255   3.938  13.741  0.2340 -0.1792  1.0189
 3919SOL     OW23389   0.056   4.054   7.125  1.1891  0.3323 -0.7596
 3919SOL    HW123390   0.018   3.981   7.172  1.2744  0.2587 -0.8035
 3919SOL    HW223391   0.079   4.011   7.043 -0.6871 -2.6893  0.3052
 3920SOL     OW23392   3.286   3.267   7.187  0.1741 -0.0145  0.9151
 3920SOL    HW123393   3.249   3.322   7.117  2.9274 -0.8282 -1.1598
 3920SOL    HW223394   3.378   3.268   7.162 -0.3740 -0.9388 -1.1703
 3921SOL     OW23395   1.106   0.933   4.143  0.2245  0.6062 -0.0506
 3921SOL    HW123396   1.051   0.982   4.081 -0.2257  1.1762  0.8074
 3921SOL    HW223397   1.051   0.956   4.218  0.1343 -0.1409  0.1113
 3922SOL     OW23398   0.791   0.223  12.202 -0.3432  0.0179 -0.2376
 3922SOL    HW123399   0.744   0.153  12.247 -0.9820 -0.9347 -2.3754
 3922SOL    HW223400   0.722   0.276  12.164  0.6454  1.5986  0.1913
 3923SOL     OW23401   4.451   1.801   3.541  0.0833 -0.1235  0.6619
 3923SOL    HW123402   4.440   1.729   3.604 -0.3263 -1.1160 -0.5451
 3923SOL    HW223403   4.409   1.872   3.588  2.9065  1.7504  0.3797
 3924SOL     OW23404   4.306   3.772   7.873 -0.3138  0.2550  0.6183
 3924SOL    HW123405   4.352   3.844   7.916  2.3557 -1.0077 -0.1913
 3924SOL    HW223406   4.247   3.823   7.817  1.3905  1.4662 -0.0624
 3925SOL     OW23407   0.856   4.192   7.467 -0.4834 -0.2519 -0.5780
 3925SOL    HW123408   0.892   4.252   7.401 -0.4762  1.2256  0.7619
 3925SOL    HW223409   0.766   4.193   7.434 -0.5684  3.3653 -0.2533
 3926SOL     OW23410   0.178   2.478   8.787  0.0564 -0.4547  0.6112
 3926SOL    HW123411   0.124   2.472   8.866  0.2854 -0.7275  0.7484
 3926SOL    HW223412   0.202   2.570   8.784  0.1824 -0.5189 -0.2849
 3927SOL     OW23413   1.074   0.001   7.859 -0.4145 -0.3532 -0.3027
 3927SOL    HW123414   1.039   0.042   7.938  0.3963  0.0947 -0.1759
 3927SOL    HW223415   0.990   4.705   7.827 -2.1558  2.6545  1.3742
 3928SOL     OW23416   0.284   3.554  17.737  0.1210  0.0299 -0.1787
 3928SOL    HW123417   0.191   3.546  17.714  0.4894 -4.7796  0.1133
 3928SOL    HW223418   0.297   3.462   0.018 -2.0766 -0.5669 -1.3101
 3929SOL     OW23419   0.603   1.104   6.514  0.0141  1.1066 -0.5543
 3929SOL    HW123420   0.585   1.174   6.576 -0.6650  0.2135  0.2713
 3929SOL    HW223421   0.680   1.140   6.472  0.1312 -2.5184 -3.4410
 3930SOL     OW23422   0.904   4.132  13.780  0.2223 -0.0512 -0.1053
 3930SOL    HW123423   0.883   4.083  13.860  1.8083 -1.1551 -0.3687
 3930SOL    HW223424   0.843   4.090  13.720  1.0083  1.1557 -1.7368
 3931SOL     OW23425   0.972   3.944   4.802 -0.3908 -0.2398  0.0512
 3931SOL    HW123426   1.067   3.951   4.803 -0.3755 -0.4721  0.4090
 3931SOL    HW223427   0.962   3.911   4.713 -0.9163 -1.4017  0.5418
 3932SOL     OW23428   0.480   1.517   5.586  0.1484  0.1267  0.4100
 3932SOL    HW123429   0.444   1.503   5.674  1.9124 -1.1634  0.9315
 3932SOL    HW223430   0.544   1.587   5.599  1.0065 -0.3436 -1.2661
 3933SOL     OW23431   4.597   3.394   8.612 -0.6830 -0.7467 -0.1708
 3933SOL    HW123432   4.599   3.424   8.703  0.6081  1.0802 -0.7994
 3933SOL    HW223433   4.643   3.312   8.629 -0.2193 -0.8742 -2.0744
 3934SOL     OW23434   1.267   0.290  17.251  0.1275  0.1160  0.5637
 3934SOL    HW123435   1.282   0.381  17.226  1.0665 -0.1181  0.2871
 3934SOL    HW223436   1.172   0.293  17.261  0.0056  0.8381 -0.8786
 3935SOL     OW23437   2.156   0.425   6.055  0.2774 -0.2212 -0.6303
 3935SOL    HW123438   2.208   0.358   6.011  0.5191  0.5427 -1.5082
 3935SOL    HW223439   2.074   0.416   6.007  0.9584 -2.4216 -1.3743
 3936SOL     OW23440   4.062   1.084   3.032 -0.4581  0.2432 -0.5789
 3936SOL    HW123441   3.972   1.085   3.000 -0.5322  0.1982 -0.3716
 3936SOL    HW223442   4.086   1.162   2.982 -0.8496  0.5671 -0.2657
 3937SOL     OW23443   3.816   3.757   3.865 -0.1879  0.2916 -0.3031
 3937SOL    HW123444   3.764   3.680   3.842 -0.7172  0.4029  0.5306
 3937SOL    HW223445   3.744   3.820   3.874 -0.1476 -0.0706  2.6647
 3938SOL     OW23446   4.586   4.393   2.850 -0.8615  0.0494  0.1401
 3938SOL    HW123447   4.577   4.302   2.878 -0.4066 -0.1338 -0.3131
 3938SOL    HW223448   4.677   4.397   2.821 -0.9110  1.5403  0.1801
 3939SOL     OW23449   2.226   3.871   9.561  0.4702 -0.2236 -0.5454
 3939SOL    HW123450   2.242   3.796   9.618  1.4580 -0.1599 -0.7301
 3939SOL    HW223451   2.288   3.938   9.589 -1.5380  1.8034 -0.9278
 3940SOL     OW23452   2.270   1.421   6.316 -0.5733 -0.0616 -0.1083
 3940SOL    HW123453   2.327   1.439   6.241  0.0832 -0.9546  0.1752
 3940SOL    HW223454   2.201   1.372   6.271 -0.7121  0.3784 -0.3698
 3941SOL     OW23455   1.850   3.687   4.469 -0.2348  0.2316  0.1579
 3941SOL    HW123456   1.796   3.676   4.391  0.4875 -0.1763 -0.2878
 3941SOL    HW223457   1.865   3.782   4.469 -0.5159  0.2753  0.1557
 3942SOL     OW23458   1.432   2.226  16.752 -0.1449 -0.8695 -0.1075
 3942SOL    HW123459   1.420   2.268  16.667 -3.9132 -2.1742 -0.2241
 3942SOL    HW223460   1.396   2.293  16.809  2.5225 -1.5025  2.3469
 3943SOL     OW23461   3.488   0.832   8.999  0.1691  0.0647  0.0981
 3943SOL    HW123462   3.398   0.854   8.974 -0.1196 -0.6449  0.5163
 3943SOL    HW223463   3.488   0.854   9.092  0.6844 -0.0310  0.1231
 3944SOL     OW23464   3.968   3.398  15.233 -0.2738 -0.1968 -0.1128
 3944SOL    HW123465   3.903   3.396  15.163 -1.1038  1.7469  0.6031
 3944SOL    HW223466   4.016   3.476  15.206 -1.0946 -0.2003 -1.5825
 3945SOL     OW23467   2.061   2.778  14.735  0.0377 -0.2361  0.3384
 3945SOL    HW123468   2.117   2.724  14.680 -0.6020 -0.7592  0.2003
 3945SOL    HW223469   2.002   2.717  14.779 -0.3067 -1.6713 -2.1045
 3946SOL     OW23470   1.954   2.116  11.999 -0.5805 -0.3702  0.0111
 3946SOL    HW123471   1.907   2.133  11.918  1.3352  0.7834 -0.8765
 3946SOL    HW223472   2.042   2.153  11.987 -0.3279 -1.0852 -0.3325
 3947SOL     OW23473   1.141   0.611   1.747 -0.2535  0.4785  0.0542
 3947SOL    HW123474   1.067   0.588   1.691 -0.3145 -1.2770  0.8607
 3947SOL    HW223475   1.139   0.536   1.806  1.8608  2.0963  2.1472
 3948SOL     OW23476   0.405   4.509   9.715  0.0492 -0.2245  0.2705
 3948SOL    HW123477   0.340   4.534   9.648  1.7307  1.0107 -0.9057
 3948SOL    HW223478   0.385   4.416   9.726  0.3066 -0.4510 -1.0680
 3949SOL     OW23479   0.229   0.968  13.300 -0.2361  0.1051  0.4094
 3949SOL    HW123480   0.242   0.961  13.395  2.8728  2.7045  0.1814
 3949SOL    HW223481   0.305   0.928  13.257 -1.0496 -2.4115  1.2764
 3950SOL     OW23482   2.494   2.367  10.575  0.0393  0.3094  0.3708
 3950SOL    HW123483   2.466   2.281  10.607 -0.2615  0.7557  1.3010
 3950SOL    HW223484   2.428   2.384  10.508 -0.5492 -0.2479  0.8073
 3951SOL     OW23485   4.584   1.405   1.131  0.1040 -0.4122 -0.4110
 3951SOL    HW123486   4.560   1.490   1.094  4.2981  1.2533  0.6331
 3951SOL    HW223487   4.634   1.376   1.054 -0.8004 -0.4614 -0.9733
 3952SOL     OW23488   2.689   2.860   2.254 -0.1927  0.0384  0.1368
 3952SOL    HW123489   2.648   2.913   2.322 -0.2523 -0.3463  0.3968
 3952SOL    HW223490   2.757   2.920   2.224 -0.3705 -0.0218 -0.3856
 3953SOL     OW23491   1.484   0.382   1.004 -0.0765 -0.1117 -0.1143
 3953SOL    HW123492   1.557   0.375   1.066 -0.9066  2.5234  1.1703
 3953SOL    HW223493   1.519   0.332   0.930  0.3020  0.0677 -0.0586
 3954SOL     OW23494   0.326   0.907   3.837 -0.1553  0.1830 -0.0108
 3954SOL    HW123495   0.300   0.846   3.906 -2.0313 -0.0195 -0.9112
 3954SOL    HW223496   0.403   0.856   3.810  0.5032 -0.1578  2.4621
 3955SOL     OW23497   1.025   1.519  12.534  0.3811  0.1477 -0.2282
 3955SOL    HW123498   1.075   1.455  12.483 -0.4346 -0.6920  0.0343
 3955SOL    HW223499   0.945   1.514  12.482 -1.1240  0.1193  2.1100
 3956SOL     OW23500   0.869   4.313   6.326  0.8877  0.1817 -0.3667
 3956SOL    HW123501   0.797   4.250   6.332 -0.7523  2.1325  0.0810
 3956SOL    HW223502   0.862   4.365   6.406  1.5137 -0.0594 -0.1471
 3957SOL     OW23503   1.582   3.865   5.004  0.1467  0.0552  0.4633
 3957SOL    HW123504   1.673   3.895   5.008 -0.5592  2.2468  0.2215
 3957SOL    HW223505   1.570   3.879   4.910  0.2133  1.4583  0.6712
 3958SOL     OW23506   3.002   4.006   8.093 -0.1859 -0.3317 -0.3202
 3958SOL    HW123507   3.043   4.047   8.017 -0.2602  2.1839  1.0164
 3958SOL    HW223508   2.913   3.991   8.060 -0.0193 -0.1059 -0.8632
 3959SOL     OW23509   2.244   4.400   9.620 -0.2163 -0.0135 -0.4407
 3959SOL    HW123510   2.337   4.386   9.639  0.1412  0.9107 -1.5530
 3959SOL    HW223511   2.247   4.488   9.656  0.3138 -0.2365  0.0568
 3960SOL     OW23512   1.468   3.317  13.826 -0.6061  0.3824 -0.1168
 3960SOL    HW123513   1.425   3.387  13.777  1.0743  2.2810  1.1641
 3960SOL    HW223514   1.549   3.300  13.778 -1.5248 -0.8789 -1.2358
 3961SOL     OW23515   2.740   0.436   9.358  0.8124 -0.6123 -0.6943
 3961SOL    HW123516   2.788   0.493   9.299  1.4107 -0.9788 -0.5639
 3961SOL    HW223517   2.649   0.450   9.333 -0.1094 -0.2795  2.8460
 3962SOL     OW23518   0.358   0.083   5.690 -0.1130  0.2340  0.4302
 3962SOL    HW123519   0.431   0.031   5.723  1.0737  1.1336 -0.7365
 3962SOL    HW223520   0.298   0.088   5.765  0.5378  0.1595  0.9517
 3963SOL     OW23521   3.047   3.240   3.539  0.1595 -0.4739 -0.0943
 3963SOL    HW123522   3.084   3.285   3.614  0.0130 -0.4144 -0.0584
 3963SOL    HW223523   2.997   3.171   3.583  0.2390  1.3013  2.7740
 3964SOL     OW23524   2.121   4.365   6.037  0.1853 -0.9800  0.0836
 3964SOL    HW123525   2.116   4.350   6.131 -0.2768  0.0877  0.2224
 3964SOL    HW223526   2.121   4.460   6.028 -1.6548 -1.0263 -0.4575
 3965SOL     OW23527   4.424   3.725   2.028 -0.4095 -0.0199 -0.0048
 3965SOL    HW123528   4.384   3.812   2.029  0.4267  0.3579  0.9818
 3965SOL    HW223529   4.430   3.693   2.118  1.0428  0.3285  0.0259
 3966SOL     OW23530   1.246   3.600   2.004  0.1899 -0.1031 -0.0108
 3966SOL    HW123531   1.213   3.593   1.915  0.0544  0.6741 -0.0228
 3966SOL    HW223532   1.170   3.567   2.053  0.6924 -1.5707 -0.2270
 3967SOL     OW23533   2.614   1.346  13.951 -0.4009 -0.0150 -0.4083
 3967SOL    HW123534   2.546   1.387  13.898 -0.4686  2.7390  1.8058
 3967SOL    HW223535   2.602   1.401  14.029 -0.9968  0.5789 -0.9221
 3968SOL     OW23536   1.545   0.589  17.400  0.0917  0.9667 -0.1925
 3968SOL    HW123537   1.528   0.582  17.306  0.1417  3.1483 -0.3700
 3968SOL    HW223538   1.640   0.601  17.408  0.1489  1.4223 -1.5894
 3969SOL     OW23539   3.686   0.592   1.957  0.3664 -0.0181  0.2861
 3969SOL    HW123540   3.666   0.531   1.887  0.5515  2.4508 -1.9124
 3969SOL    HW223541   3.612   0.570   2.015  1.5572  2.6043  2.7978
 3970SOL     OW23542   3.479   1.599   3.774 -0.1456 -0.7740  0.4927
 3970SOL    HW123543   3.548   1.552   3.726  0.4028 -0.3112  0.8365
 3970SOL    HW223544   3.400   1.566   3.731  1.4087  0.4724 -3.2912
 3971SOL     OW23545   0.013   0.543   7.024  0.2582  0.4490  0.8871
 3971SOL    HW123546   0.016   0.480   7.097  3.0647  0.9988  1.2669
 3971SOL    HW223547   0.100   0.542   6.984 -0.4303  0.4892 -0.5905
 3972SOL     OW23548   0.363   1.861   5.616 -0.3477  0.0585  0.2635
 3972SOL    HW123549   0.305   1.934   5.635 -2.1501 -1.9913  2.6876
 3972SOL    HW223550   0.355   1.853   5.521  0.4578 -1.2533  0.3089
 3973SOL     OW23551   2.670   3.563   4.933 -0.3800  0.0087  0.2118
 3973SOL    HW123552   2.673   3.561   4.838 -1.2215 -0.3508  0.1916
 3973SOL    HW223553   2.615   3.641   4.928  1.9904  1.8122  1.8028
 3974SOL     OW23554   4.568   0.896   6.074 -0.3979 -0.9703 -0.4260
 3974SOL    HW123555   4.512   0.958   6.120  0.2136  0.7352 -1.9921
 3974SOL    HW223556   4.576   0.820   6.131 -0.0146 -0.4794  0.1716
 3975SOL     OW23557   2.658   3.214   2.478 -0.4059 -0.3339 -0.1563
 3975SOL    HW123558   2.603   3.290   2.498 -1.0826 -0.9833  0.4332
 3975SOL    HW223559   2.707   3.216   2.560 -1.8873  2.6838  0.6477
 3976SOL     OW23560   2.282   4.379   4.914 -0.2482 -0.1946  0.4148
 3976SOL    HW123561   2.368   4.407   4.884  0.6706 -2.0755  1.2796
 3976SOL    HW223562   2.271   4.434   4.991 -3.5967 -1.2141  0.6928
 3977SOL     OW23563   2.115   1.063   9.635 -0.2810 -0.7343 -0.3963
 3977SOL    HW123564   2.102   0.988   9.576 -0.9315 -1.0817  0.1755
 3977SOL    HW223565   2.028   1.067   9.675  0.7999  2.1286  1.6080
 3978SOL     OW23566   0.254   3.621   3.410 -0.1759  0.0463 -0.7862
 3978SOL    HW123567   0.207   3.671   3.477  0.7800  0.3237 -0.3183
 3978SOL    HW223568   0.269   3.537   3.453  0.9357  1.1562  1.0163
 3979SOL     OW23569   3.926   3.550   1.812  0.3930  0.5000  0.1748
 3979SOL    HW123570   3.900   3.542   1.904  1.0561  0.3556  0.3530
 3979SOL    HW223571   3.888   3.634   1.787  2.0545  0.2622 -3.1622
 3980SOL     OW23572   2.967   1.987   2.972  0.0573 -0.3988  0.0188
 3980SOL    HW123573   2.983   1.912   2.914  1.7387 -0.9408  1.1567
 3980SOL    HW223574   2.954   2.055   2.906 -0.2890 -2.1544 -1.7220
 3981SOL     OW23575   0.489   4.021   3.217  0.8785 -0.2227 -0.7179
 3981SOL    HW123576   0.539   4.089   3.262 -0.5816 -0.1147  0.7331
 3981SOL    HW223577   0.564   3.987   3.169  0.7082 -0.3153 -0.9167
 3982SOL     OW23578   4.507   2.901  13.056  0.7215 -0.1446 -0.3334
 3982SOL    HW123579   4.464   2.865  13.134  1.9876 -0.2692  0.3098
 3982SOL    HW223580   4.484   2.830  12.996 -0.5401  0.4818 -0.5914
 3983SOL     OW23581   3.326   2.710  14.713 -0.2862 -0.1977  0.7072
 3983SOL    HW123582   3.391   2.688  14.647  1.5845 -0.2316  2.5743
 3983SOL    HW223583   3.343   2.642  14.779 -0.9410 -0.0425  1.0383
 3984SOL     OW23584   1.482   1.758   4.095  0.0049 -0.1703 -0.2747
 3984SOL    HW123585   1.405   1.767   4.039 -1.5473 -1.7556  1.6162
 3984SOL    HW223586   1.506   1.850   4.111  1.7460 -0.7045  0.2282
 3985SOL     OW23587   2.361   0.230  15.301  0.4049  0.1661 -0.0248
 3985SOL    HW123588   2.355   0.135  15.305 -3.3122  0.3809 -0.7218
 3985SOL    HW223589   2.369   0.258  15.392  1.2951  0.5791 -0.2298
 3986SOL     OW23590   0.601   4.163   8.492  0.4122  0.2305 -0.1688
 3986SOL    HW123591   0.566   4.248   8.465 -0.1578  0.1246  0.2518
 3986SOL    HW223592   0.663   4.187   8.561 -1.9177  2.0077  1.3253
 3987SOL     OW23593   0.907   1.265   3.755 -0.1085  0.0979  0.7037
 3987SOL    HW123594   0.916   1.248   3.661 -1.4688  2.8514  0.0792
 3987SOL    HW223595   0.959   1.192   3.789 -0.4022  0.0336  1.0134
 3988SOL     OW23596   0.392   4.257   2.341 -0.1634 -0.3450 -0.3248
 3988SOL    HW123597   0.443   4.300   2.410 -0.8499  0.2088 -0.1473
 3988SOL    HW223598   0.302   4.280   2.366 -0.0912 -1.2265  0.7404
 3989SOL     OW23599   2.079   1.595   3.180 -0.3839 -0.2153 -0.5188
 3989SOL    HW123600   2.143   1.611   3.249  1.7566 -1.5733 -2.1852
 3989SOL    HW223601   2.105   1.511   3.142  0.0540  0.0544 -0.8238
 3990SOL     OW23602   1.552   3.081   9.943  0.2508 -0.2966  0.4404
 3990SOL    HW123603   1.504   2.999   9.958  0.1772 -0.5798 -1.3528
 3990SOL    HW223604   1.518   3.103   9.856  1.4309 -0.7800 -0.1405
 3991SOL     OW23605   1.723   4.230   5.035 -0.2544 -0.1273  0.0162
 3991SOL    HW123606   1.630   4.255   5.035  0.5026  2.6022 -2.8675
 3991SOL    HW223607   1.760   4.300   4.982 -0.2051 -0.4357 -0.3560
 3992SOL     OW23608   1.332   2.107   3.006  0.6995  0.5536  0.3763
 3992SOL    HW123609   1.313   2.013   3.007  1.2976  0.4093 -1.6379
 3992SOL    HW223610   1.410   2.105   2.950  0.3403  2.1667 -0.1797
 3993SOL     OW23611   1.405   1.638   6.356  0.2583  0.0468 -0.0722
 3993SOL    HW123612   1.401   1.703   6.426  0.7217  1.9072 -1.7655
 3993SOL    HW223613   1.493   1.604   6.373 -0.1698 -1.7092 -1.2731
 3994SOL     OW23614   4.536   2.708   3.855  0.3209  0.0683 -0.3015
 3994SOL    HW123615   4.517   2.702   3.762 -1.1475 -0.1810  0.0158
 3994SOL    HW223616   4.450   2.727   3.892  0.4137 -1.1867  0.5627
 3995SOL     OW23617   1.957   3.313  13.655 -0.5056 -0.1519  0.0731
 3995SOL    HW123618   1.952   3.295  13.561 -2.6218  0.8027 -0.0069
 3995SOL    HW223619   2.001   3.398  13.657 -0.9032  0.1127 -2.0868
 3996SOL     OW23620   2.173   1.611   2.461  0.2272  0.5680  0.0741
 3996SOL    HW123621   2.190   1.632   2.370 -0.2613  0.4237 -0.0507
 3996SOL    HW223622   2.265   1.587   2.477 -0.0233  0.6548  1.6394
 3997SOL     OW23623   2.722   1.299  12.439  0.0814  0.1154 -0.0145
 3997SOL    HW123624   2.773   1.231  12.484  0.4461  0.7841  0.5898
 3997SOL    HW223625   2.738   1.283  12.346 -0.5800 -1.4606  0.1381
 3998SOL     OW23626   1.356   2.202  11.856  0.3685 -0.1795  0.3393
 3998SOL    HW123627   1.408   2.127  11.829  1.1512  1.3170 -2.3929
 3998SOL    HW223628   1.280   2.178  11.802  1.0070 -1.3968 -0.0045
 3999SOL     OW23629   0.814   2.267   7.159 -0.3552 -0.1157  0.2697
 3999SOL    HW123630   0.767   2.346   7.187 -2.6676 -0.5632 -2.3796
 3999SOL    HW223631   0.904   2.289   7.183 -0.5961 -1.2255  2.1675
 4000SOL     OW23632   4.413   0.439   7.362  0.3076 -0.0905 -0.4911
 4000SOL    HW123633   4.361   0.389   7.426  0.5899  1.1302  0.6923
 4000SOL    HW223634   4.500   0.402   7.380  0.5060  0.7206  0.2048
 4001SOL     OW23635   4.055   4.713   1.762 -0.4445 -0.2530 -0.1286
 4001SOL    HW123636   4.002   0.057   1.753  1.5349  1.1221  0.4815
 4001SOL    HW223637   4.143   0.015   1.760 -0.4938 -0.1226  0.1411
 4002SOL     OW23638   3.316   0.711   7.207  0.6038 -0.2466  0.1277
 4002SOL    HW123639   3.405   0.705   7.244  1.2340  4.0657 -0.6339
 4002SOL    HW223640   3.285   0.767   7.279  0.8259  0.7096 -0.5149
 4003SOL     OW23641   1.773   3.836   8.488  0.1840  0.1990 -0.6543
 4003SOL    HW123642   1.691   3.787   8.483 -0.3126  0.8397  1.1417
 4003SOL    HW223643   1.764   3.862   8.580 -1.5204  0.6104 -0.9406
 4004SOL     OW23644   4.642   0.067   6.633 -0.3423  0.0875  0.3586
 4004SOL    HW123645   4.731   0.037   6.616 -0.7638 -0.4092 -0.9731
 4004SOL    HW223646   4.599   0.034   6.555 -2.0588 -1.9306  2.1485
 4005SOL     OW23647   3.117   0.733   2.380 -0.0610 -0.0205 -0.4389
 4005SOL    HW123648   3.124   0.827   2.359 -0.1799  0.4799  1.7393
 4005SOL    HW223649   3.139   0.736   2.473  2.2808 -0.0703 -0.9935
 4006SOL     OW23650   0.853   4.091   6.033 -0.3587 -0.4056 -0.0748
 4006SOL    HW123651   0.813   4.009   6.003 -2.3977  0.8758 -0.9158
 4006SOL    HW223652   0.947   4.080   6.045 -0.0820  3.6040  1.6638
 4007SOL     OW23653   3.555   3.400   1.740  0.6413  0.0890  0.2375
 4007SOL    HW123654   3.624   3.361   1.795  0.8614  0.2484  0.0734
 4007SOL    HW223655   3.562   3.336   1.669 -0.1383  0.7079 -0.3839
 4008SOL     OW23656   2.788   2.977   6.529  0.1456 -0.0618  0.1495
 4008SOL    HW123657   2.859   2.932   6.484  0.1246  0.0997 -0.0400
 4008SOL    HW223658   2.814   3.069   6.536  0.0716 -0.1233  1.2132
 4009SOL     OW23659   3.515   3.451   4.597 -0.3200 -0.5984  0.0282
 4009SOL    HW123660   3.589   3.461   4.538 -0.0728  1.6960  0.6949
 4009SOL    HW223661   3.453   3.509   4.552 -0.3248  1.0667  2.1457
 4010SOL     OW23662   3.880   1.749   1.517  0.5743  0.4284 -0.0626
 4010SOL    HW123663   3.809   1.726   1.457 -0.3212  1.1174  0.7527
 4010SOL    HW223664   3.939   1.673   1.512 -0.2766 -0.3492  1.7066
 4011SOL     OW23665   0.353   3.358   9.670 -0.6263  0.2391 -0.1977
 4011SOL    HW123666   0.311   3.291   9.725  0.3228 -0.3207 -0.1692
 4011SOL    HW223667   0.347   3.322   9.582 -0.8174  0.0693 -0.1170
 4012SOL     OW23668   3.455   1.804   2.480  0.2578  0.0896  0.0219
 4012SOL    HW123669   3.366   1.835   2.497  0.5574  1.1836 -0.3573
 4012SOL    HW223670   3.482   1.861   2.407 -3.3562  0.4233 -1.0552
 4013SOL     OW23671   0.650   2.882   7.386 -0.0619  0.5950 -0.1398
 4013SOL    HW123672   0.637   2.788   7.403 -2.8155  1.2882  1.4427
 4013SOL    HW223673   0.629   2.889   7.293  1.8822 -0.8251 -0.7045
 4014SOL     OW23674   3.481   2.323   8.089 -0.3953 -0.3269  0.4903
 4014SOL    HW123675   3.475   2.418   8.097 -1.5081 -0.4024  0.5329
 4014SOL    HW223676   3.400   2.294   8.129 -1.0411  0.5622 -0.1527
 4015SOL     OW23677   2.393   4.510   5.401 -0.2542  0.3343 -0.1619
 4015SOL    HW123678   2.306   4.472   5.385  0.2259 -1.1742  0.7572
 4015SOL    HW223679   2.451   4.434   5.411  0.7773  0.8996 -1.8280
 4016SOL     OW23680   2.675   4.463   5.775  0.5096  0.0324 -0.5976
 4016SOL    HW123681   2.641   4.430   5.859 -1.0881 -1.1076 -1.6945
 4016SOL    HW223682   2.641   4.552   5.774  2.3108  0.7408  1.0907
 4017SOL     OW23683   3.852   1.349   6.579 -0.0308 -0.0602  0.3692
 4017SOL    HW123684   3.766   1.317   6.554 -0.7846  0.3760  2.3478
 4017SOL    HW223685   3.843   1.379   6.670  0.2069 -1.9732  1.0159
 4018SOL     OW23686   2.179   0.036  12.121  0.2781  0.1903  0.0604
 4018SOL    HW123687   2.236   0.113  12.116 -1.1887  1.4274  1.9952
 4018SOL    HW223688   2.103   0.073  12.166 -0.1034 -1.9090  1.1295
 4019SOL     OW23689   3.945   0.178  15.837  0.1152 -0.0972  0.2469
 4019SOL    HW123690   3.894   0.157  15.759  0.4937 -0.2945  0.0536
 4019SOL    HW223691   4.024   0.218  15.802 -0.2210  2.1475  2.0369
 4020SOL     OW23692   3.635   2.381  10.002 -0.1232  0.0599 -0.2572
 4020SOL    HW123693   3.618   2.323  10.076 -1.1834  1.6572  0.7587
 4020SOL    HW223694   3.627   2.321   9.927  0.9233 -1.2134  0.6525
 4021SOL     OW23695   1.920   1.957   4.021  1.0888  0.2265  0.2987
 4021SOL    HW123696   1.987   2.021   4.047  0.4713  1.1031 -0.2647
 4021SOL    HW223697   1.910   1.906   4.101 -3.9780 -1.5746 -1.4867
 4022SOL     OW23698   2.682   0.608   5.721 -0.1426 -0.2362  0.0364
 4022SOL    HW123699   2.611   0.623   5.783 -0.3900  2.0458 -0.7760
 4022SOL    HW223700   2.745   0.652   5.778 -0.7659  0.3964  0.2423
 4023SOL     OW23701   1.441   2.610   3.874  0.2988  0.4314 -0.4257
 4023SOL    HW123702   1.524   2.585   3.833  0.3998  1.8114 -1.0707
 4023SOL    HW223703   1.472   2.635   3.961  0.5435  0.0262 -0.3934
 4024SOL     OW23704   3.150   3.286   0.388 -0.1086 -0.6411 -0.0271
 4024SOL    HW123705   3.227   3.289   0.443 -1.7679 -2.3362  2.3649
 4024SOL    HW223706   3.183   3.317   0.303  3.2529  0.4664  1.6961
 4025SOL     OW23707   3.271   2.005   8.267  0.2061  0.1604 -0.3883
 4025SOL    HW123708   3.300   1.918   8.240 -0.0788 -0.1969  0.4513
 4025SOL    HW223709   3.176   1.996   8.252 -0.2528 -1.1756  3.2994
 4026SOL     OW23710   3.096   3.126  10.310 -0.4221 -0.1390 -0.1538
 4026SOL    HW123711   3.002   3.143  10.322 -0.6856  0.4051 -3.2244
 4026SOL    HW223712   3.107   3.075  10.391 -1.1563  0.4082  0.2979
 4027SOL     OW23713   3.394   4.249   5.733 -0.0338 -0.2567  0.0608
 4027SOL    HW123714   3.373   4.244   5.640 -3.2453 -2.1769  0.8716
 4027SOL    HW223715   3.349   4.169   5.760 -1.0054 -0.1005 -1.0713
 4028SOL     OW23716   0.295   1.308  14.545 -0.0117 -0.5486 -0.1428
 4028SOL    HW123717   0.383   1.341  14.564 -1.0809  0.6788  2.6033
 4028SOL    HW223718   0.306   1.214  14.527  0.3406 -0.6940  0.7945
 4029SOL     OW23719   1.119   1.613   8.412  0.0327 -0.0594 -0.1789
 4029SOL    HW123720   1.118   1.576   8.500 -0.4312 -2.7580 -1.3247
 4029SOL    HW223721   1.195   1.670   8.424 -0.2925  0.2673  0.3186
 4030SOL     OW23722   3.884   1.996   5.494 -0.2516  0.0882 -0.3676
 4030SOL    HW123723   3.849   2.084   5.476  0.6147  0.4226 -0.4072
 4030SOL    HW223724   3.961   2.016   5.547 -0.8567 -0.2962  0.6571
 4031SOL     OW23725   1.269   3.615   9.832  0.1411  0.3300  0.4456
 4031SOL    HW123726   1.205   3.634   9.900 -0.3855 -0.2889  0.1262
 4031SOL    HW223727   1.254   3.686   9.770 -3.1630  0.9611  2.0038
 4032SOL     OW23728   3.444   1.275   3.784  0.0412  0.1390 -0.2709
 4032SOL    HW123729   3.526   1.303   3.743  0.3472 -1.1818 -0.5655
 4032SOL    HW223730   3.380   1.329   3.738 -1.5759 -0.2747  1.5354
 4033SOL     OW23731   3.264   0.410  12.584 -0.0991 -0.0498 -0.3610
 4033SOL    HW123732   3.207   0.345  12.626 -0.3934  0.8504  0.6197
 4033SOL    HW223733   3.304   0.466  12.651  0.5917  0.6534 -1.3655
 4034SOL     OW23734   1.761   2.619   7.609  0.8249  0.2504 -0.5183
 4034SOL    HW123735   1.826   2.682   7.579  2.1426  0.6742  3.1866
 4034SOL    HW223736   1.708   2.613   7.530  1.9170 -1.5866 -1.0963
 4035SOL     OW23737   2.730   2.995   9.726  0.1427  0.4130  0.0782
 4035SOL    HW123738   2.654   2.939   9.743 -1.4362  1.7636 -2.4370
 4035SOL    HW223739   2.695   3.078   9.758  0.8228  0.6263  0.2636
 4036SOL     OW23740   0.409   3.743   3.219 -0.0187  0.0791 -0.3153
 4036SOL    HW123741   0.371   3.696   3.293 -1.4334  0.2285 -0.9459
 4036SOL    HW223742   0.413   3.834   3.248 -0.2495  0.7279 -2.2650
 4037SOL     OW23743   4.248   4.039   3.975  0.2965 -0.1242 -0.0943
 4037SOL    HW123744   4.292   3.970   3.927  0.0650  1.3064 -2.3538
 4037SOL    HW223745   4.314   4.045   4.045  0.5405  0.3411 -0.3656
 4038SOL     OW23746   3.455   3.559   6.326 -0.3220  0.8733  0.0481
 4038SOL    HW123747   3.409   3.478   6.303 -1.5462  1.6413 -0.1944
 4038SOL    HW223748   3.446   3.606   6.243  1.7386  0.5004 -0.3896
 4039SOL     OW23749   3.280   2.558   8.039  0.5693 -0.2280  0.2697
 4039SOL    HW123750   3.197   2.539   8.082 -0.1391  0.1124 -0.9588
 4039SOL    HW223751   3.241   2.557   7.951 -1.0887  0.5305  0.9949
 4040SOL     OW23752   2.598   3.841  10.246  0.6888  0.5670  0.2993
 4040SOL    HW123753   2.540   3.916  10.234 -2.5439 -1.7623  1.3565
 4040SOL    HW223754   2.677   3.873  10.204  0.5839 -1.7124 -1.6773
 4041SOL     OW23755   2.128   0.819  11.285 -0.4856 -0.2907  0.3799
 4041SOL    HW123756   2.051   0.762  11.284 -2.1830  2.0111  0.7740
 4041SOL    HW223757   2.089   0.894  11.330 -1.0444 -0.0440 -0.5065
 4042SOL     OW23758   1.122   2.456   4.372  0.0883  0.4013  0.5751
 4042SOL    HW123759   1.047   2.436   4.315  1.2820  2.5952 -1.7727
 4042SOL    HW223760   1.125   2.376   4.424  2.3916 -0.1011 -0.3537
 4043SOL     OW23761   2.807   3.502  13.736  0.0810  0.6247  0.2205
 4043SOL    HW123762   2.719   3.511  13.699 -1.5872  0.0015  4.0009
 4043SOL    HW223763   2.794   3.442  13.810 -2.7095  1.5186  0.4576
 4044SOL     OW23764   2.494   0.319   4.839  0.3968 -0.0015  0.2133
 4044SOL    HW123765   2.479   0.242   4.785 -1.6479 -0.3252  1.2659
 4044SOL    HW223766   2.427   0.378   4.804  0.8872 -0.5325 -1.6333
 4045SOL     OW23767   3.438   0.678   5.951  0.7235 -0.0723 -0.1654
 4045SOL    HW123768   3.392   0.737   6.012 -0.9186 -0.9268 -0.5672
 4045SOL    HW223769   3.477   0.726   5.878  1.6522 -0.2203  0.2344
 4046SOL     OW23770   4.324   3.338   3.665 -0.0153  0.1890 -0.1468
 4046SOL    HW123771   4.393   3.385   3.618  0.4869 -2.1804 -1.7645
 4046SOL    HW223772   4.368   3.253   3.673 -1.2591 -0.3990  0.3307
 4047SOL     OW23773   2.517   2.953   6.668  0.3240  0.2324  0.3762
 4047SOL    HW123774   2.586   2.986   6.611  1.8215 -1.2745  1.3043
 4047SOL    HW223775   2.538   2.860   6.678 -0.2448  0.2583  1.7098
 4048SOL     OW23776   0.493   3.819   2.870 -0.7610  0.3429  0.3592
 4048SOL    HW123777   0.559   3.839   2.937  0.9103 -0.3670 -1.0613
 4048SOL    HW223778   0.545   3.769   2.808 -2.2062  1.7424 -1.9600
 4049SOL     OW23779   1.892   3.357   5.020  0.3547 -0.0100  0.7806
 4049SOL    HW123780   1.854   3.293   5.081  0.3279 -1.0611 -0.3344
 4049SOL    HW223781   1.912   3.432   5.076 -0.8412  0.3927  0.6831
 4050SOL     OW23782   3.851   3.873   2.806 -0.0323  0.4347 -0.2119
 4050SOL    HW123783   3.827   3.823   2.884  0.6136  0.2176 -0.1483
 4050SOL    HW223784   3.945   3.853   2.805 -0.5286 -2.0050  2.5240
 4051SOL     OW23785   0.215   4.389   8.432 -0.2855  0.0952  0.4907
 4051SOL    HW123786   0.261   4.374   8.514 -0.1044  0.0740  0.3863
 4051SOL    HW223787   0.197   4.300   8.402  0.8625  0.7980 -2.3500
 4052SOL     OW23788   1.060   3.354   5.766 -0.5566  0.0493  0.1049
 4052SOL    HW123789   1.018   3.421   5.820 -2.4763 -2.7230  2.0174
 4052SOL    HW223790   1.138   3.405   5.745 -0.8790  1.4277  2.2716
 4053SOL     OW23791   4.353   1.225   5.963 -0.5291 -0.3406 -0.6763
 4053SOL    HW123792   4.337   1.297   5.901  2.3650 -0.2390 -1.2639
 4053SOL    HW223793   4.341   1.277   6.043  0.5501  0.0382 -0.7605
 4054SOL     OW23794   4.118   2.122   0.466  0.2610 -0.3613  0.4633
 4054SOL    HW123795   4.043   2.101   0.521 -0.1897 -1.9034 -0.7578
 4054SOL    HW223796   4.120   2.214   0.492  4.4572 -0.5982  0.9019
 4055SOL     OW23797   1.854   3.513   8.632  0.3510 -0.0797 -0.4101
 4055SOL    HW123798   1.900   3.453   8.691  0.8948  0.9076  0.1692
 4055SOL    HW223799   1.907   3.589   8.653  0.4478  0.5119 -2.8845
 4056SOL     OW23800   2.917   1.107   8.232 -0.6063 -0.0709  0.1611
 4056SOL    HW123801   2.900   1.037   8.295 -1.4335  1.3377  1.5066
 4056SOL    HW223802   2.872   1.183   8.268 -2.1765  0.2840 -2.5313
 4057SOL     OW23803   3.754   0.850  15.351 -0.1073  0.2893 -1.0102
 4057SOL    HW123804   3.757   0.775  15.292 -1.1558 -0.6819  0.1545
 4057SOL    HW223805   3.836   0.849  15.401  0.7653 -2.0687 -2.4901
 4058SOL     OW23806   2.163   0.692  17.315 -0.4107  0.4553  0.2862
 4058SOL    HW123807   2.236   0.745  17.345  2.7547 -2.0016 -2.9971
 4058SOL    HW223808   2.181   0.682  17.221 -1.2128  0.7422  0.0961
 4059SOL     OW23809   2.977   1.158   3.561 -0.1090  0.0769 -0.2768
 4059SOL    HW123810   3.053   1.206   3.529  0.1892 -0.7734 -0.8445
 4059SOL    HW223811   2.920   1.234   3.565 -0.5811 -0.3241  0.8005
 4060SOL     OW23812   4.165   0.782   3.791 -0.5997  0.0659  0.1364
 4060SOL    HW123813   4.113   0.731   3.730 -0.2395  0.0644 -0.1694
 4060SOL    HW223814   4.115   0.761   3.870  0.0582  1.2515  0.8603
 4061SOL     OW23815   4.379   3.159   6.530  0.1887  0.0643 -0.2673
 4061SOL    HW123816   4.339   3.106   6.599  0.9945  1.2143  1.0619
 4061SOL    HW223817   4.323   3.236   6.514 -0.8373 -0.8669 -1.1769
 4062SOL     OW23818   4.273   2.303   3.882  0.8629 -0.4504  0.1700
 4062SOL    HW123819   4.297   2.306   3.789 -1.1086  0.9196 -0.2931
 4062SOL    HW223820   4.334   2.236   3.912  1.3251 -0.8269 -1.6038
 4063SOL     OW23821   4.529   1.204   3.499  0.0079  0.0749 -0.8709
 4063SOL    HW123822   4.484   1.161   3.426  0.0349 -0.7714 -0.3968
 4063SOL    HW223823   4.603   1.145   3.518 -1.7812 -1.4628  1.2621
 4064SOL     OW23824   3.160   0.745   7.907  0.0403  0.2373  0.1330
 4064SOL    HW123825   3.207   0.773   7.986 -0.2346  1.2390 -0.0596
 4064SOL    HW223826   3.232   0.711   7.854 -0.1704 -1.6006  1.0435
 4065SOL     OW23827   2.365   1.917   7.458 -0.4919 -0.3462 -0.1549
 4065SOL    HW123828   2.360   1.845   7.521  3.5157 -0.4737  0.0031
 4065SOL    HW223829   2.290   1.968   7.489  0.8904  2.3063 -1.1824
 4066SOL     OW23830   1.253   0.606   8.756  0.0680  0.5025 -0.0519
 4066SOL    HW123831   1.213   0.610   8.843  3.0734  1.6672  1.2631
 4066SOL    HW223832   1.226   0.683   8.706  0.0743  0.7020  0.2502
 4067SOL     OW23833   3.475   2.947   8.283  0.5179  0.5406 -0.5058
 4067SOL    HW123834   3.517   2.958   8.368  0.3001 -0.6283 -0.2532
 4067SOL    HW223835   3.466   2.852   8.284 -0.3443  0.6360  0.5176
 4068SOL     OW23836   3.228   1.153  12.905  0.2130  0.2260  0.3489
 4068SOL    HW123837   3.237   1.224  12.968  1.0423 -0.4219  0.9578
 4068SOL    HW223838   3.318   1.143  12.875  0.3169  2.2056 -0.0303
 4069SOL     OW23839   2.904   2.067   3.883 -0.3795 -0.6200 -0.1771
 4069SOL    HW123840   2.906   2.132   3.953  0.3023  0.0111 -0.7917
 4069SOL    HW223841   2.813   2.076   3.855 -0.1463 -0.6071 -0.9262
 4070SOL     OW23842   2.856   0.596  15.104  0.1951  0.2501 -0.2870
 4070SOL    HW123843   2.887   0.578  15.193  1.2669 -2.1837 -1.1430
 4070SOL    HW223844   2.765   0.622  15.121  0.1626 -0.8510  1.2686
 4071SOL     OW23845   2.122   2.671   4.673  0.3134  0.4917  0.5947
 4071SOL    HW123846   2.072   2.594   4.646 -0.9222  2.5370 -2.9515
 4071SOL    HW223847   2.059   2.737   4.702 -0.5423 -0.5510  1.1191
 4072SOL     OW23848   0.094   2.472   4.982  0.4736  0.1048 -0.3473
 4072SOL    HW123849   0.013   2.521   4.970  1.0135  1.6087  2.3309
 4072SOL    HW223850   0.135   2.479   4.896 -2.7521 -0.6525 -1.9624
 4073SOL     OW23851   3.264   1.059   4.158 -0.1992 -0.9755 -0.7306
 4073SOL    HW123852   3.293   0.969   4.148  0.8925 -0.8866  1.6220
 4073SOL    HW223853   3.326   1.101   4.218  0.9419 -2.5569 -0.8291
 4074SOL     OW23854   0.955   1.431   7.844 -0.2563  0.3483 -0.3251
 4074SOL    HW123855   1.001   1.384   7.774  2.8662  1.8200  0.7328
 4074SOL    HW223856   1.031   1.456   7.897 -0.5433  2.5679 -0.9610
 4075SOL     OW23857   0.566   2.038   3.787 -0.9006  0.3642 -0.1114
 4075SOL    HW123858   0.513   2.110   3.819  0.4882  1.2043  0.3102
 4075SOL    HW223859   0.573   2.063   3.695  2.9891 -0.3860 -0.0479
 4076SOL     OW23860   4.699   1.310   7.982  0.2644  0.2574 -0.6862
 4076SOL    HW123861   4.703   1.404   7.996 -0.1683  0.3716 -1.3546
 4076SOL    HW223862   0.038   1.297   7.923 -0.4673 -0.5622 -1.4258
 4077SOL     OW23863   4.158   4.093  13.392  0.6996  0.2361 -0.0695
 4077SOL    HW123864   4.201   4.174  13.364 -1.8287  2.5250  2.6418
 4077SOL    HW223865   4.104   4.126  13.464  1.7865  0.4641  0.6416
 4078SOL     OW23866   0.743   2.264   3.044  0.5135  0.2216  0.0642
 4078SOL    HW123867   0.742   2.251   3.138  0.6327  2.2684  0.3412
 4078SOL    HW223868   0.829   2.300   3.025  1.3304 -2.4577 -1.4025
 4079SOL     OW23869   3.311   0.196   8.262  0.6684  0.0483 -0.7936
 4079SOL    HW123870   3.253   0.138   8.311  1.7549 -0.3373  0.0269
 4079SOL    HW223871   3.397   0.164   8.290 -0.5178 -1.7550  0.7532
 4080SOL     OW23872   1.260   2.780   2.042  0.2872  0.0904  0.0795
 4080SOL    HW123873   1.331   2.837   2.013  1.4954 -0.6561  1.5866
 4080SOL    HW223874   1.184   2.832   2.016  2.6435  1.9536 -3.0054
 4081SOL     OW23875   3.489   2.126   1.589 -0.2193  0.4001  0.2981
 4081SOL    HW123876   3.503   2.076   1.670 -2.8099 -1.1181 -0.1957
 4081SOL    HW223877   3.416   2.079   1.548  0.7115  0.0402 -0.9462
 4082SOL     OW23878   3.978   0.874  14.449  0.0735 -0.0807  0.1307
 4082SOL    HW123879   3.903   0.872  14.509  0.0501 -0.4024  0.0874
 4082SOL    HW223880   3.927   0.902  14.374  2.4917 -1.9107 -2.1889
 4083SOL     OW23881   2.590   2.665   7.069 -0.4354 -0.0521  0.3193
 4083SOL    HW123882   2.557   2.725   7.003 -0.7337  0.2983  0.7847
 4083SOL    HW223883   2.544   2.583   7.053 -0.1743 -0.4577  1.5623
 4084SOL     OW23884   1.505   4.363   4.471 -0.7361  0.0006 -0.2626
 4084SOL    HW123885   1.485   4.454   4.448 -0.3638 -0.4207 -2.2154
 4084SOL    HW223886   1.537   4.379   4.560 -2.0532 -3.9179  0.9197
 4085SOL     OW23887   1.522   2.190  15.819  0.4986 -0.6359 -0.4294
 4085SOL    HW123888   1.546   2.274  15.858 -0.4563 -0.5894  0.0751
 4085SOL    HW223889   1.426   2.190  15.825  0.3710 -1.6514 -2.1995
 4086SOL     OW23890   4.528   0.110   8.993  0.1219 -0.9983 -0.0489
 4086SOL    HW123891   4.623   0.118   8.986 -0.0497 -0.6722 -2.1694
 4086SOL    HW223892   4.504   0.173   9.060  0.9120  0.2353 -0.9297
 4087SOL     OW23893   2.520   1.744   4.439 -0.1335  0.4688 -0.5527
 4087SOL    HW123894   2.479   1.826   4.413 -0.1848 -0.2771 -2.8911
 4087SOL    HW223895   2.520   1.740   4.534 -0.1630  1.0297 -0.5284
 4088SOL     OW23896   0.237   1.294   9.902  0.4935 -0.1424 -0.0299
 4088SOL    HW123897   0.230   1.389   9.896  2.7809 -0.1022 -1.7486
 4088SOL    HW223898   0.332   1.287   9.890  0.6809 -0.1994  1.4885
 4089SOL     OW23899   4.344   1.509   8.916 -0.4123 -0.0074  0.2436
 4089SOL    HW123900   4.271   1.556   8.876  0.3080 -1.0150 -2.2674
 4089SOL    HW223901   4.309   1.494   9.003 -0.1435  0.6330  0.4612
 4090SOL     OW23902   0.479   1.504   8.344 -0.6541  0.1488  0.1505
 4090SOL    HW123903   0.534   1.560   8.399 -0.9495 -0.1661  0.7726
 4090SOL    HW223904   0.403   1.512   8.402 -1.3585 -2.7668 -0.3758
 4091SOL     OW23905   4.390   4.089  12.959 -0.2851  0.0365  0.1398
 4091SOL    HW123906   4.383   4.098  12.864 -0.9656  1.1956  0.2978
 4091SOL    HW223907   4.467   4.139  12.986 -2.4129  2.9809  0.7230
 4092SOL     OW23908   0.468   1.359   6.288  0.1767 -0.3681 -0.4257
 4092SOL    HW123909   0.509   1.398   6.365 -0.5328  0.3788 -0.4280
 4092SOL    HW223910   0.437   1.432   6.233 -0.7557  1.1335  2.0956
 4093SOL     OW23911   2.065   4.448   4.735  0.2283  0.5468  0.1724
 4093SOL    HW123912   2.103   4.439   4.822  0.0529  1.4563  0.3445
 4093SOL    HW223913   2.122   4.517   4.700 -0.6883  0.9447 -0.5225
 4094SOL     OW23914   1.325   0.783   1.026 -0.3879  0.2328  0.3841
 4094SOL    HW123915   1.400   0.743   0.982 -2.2945 -1.5436 -1.2684
 4094SOL    HW223916   1.267   0.769   0.951  0.8959  3.4477 -1.1871
 4095SOL     OW23917   0.709   1.645   5.228 -0.0669  0.1262 -0.5146
 4095SOL    HW123918   0.738   1.555   5.213 -0.4508 -0.2829  1.1257
 4095SOL    HW223919   0.747   1.665   5.314 -0.4558 -0.9054 -0.0978
 4096SOL     OW23920   3.430   1.087   2.380 -0.2935  0.6179  0.0868
 4096SOL    HW123921   3.440   1.074   2.474  3.6183  1.2372 -0.2115
 4096SOL    HW223922   3.510   1.053   2.339  1.3230  1.5969  2.4096
 4097SOL     OW23923   1.600   2.704  14.209  0.1923 -0.1453  0.3337
 4097SOL    HW123924   1.674   2.731  14.264 -1.2695 -1.3514  2.9314
 4097SOL    HW223925   1.638   2.627  14.166  1.4215  1.0753 -0.7505
 4098SOL     OW23926   0.013   1.837  12.643  0.2684 -0.0545 -0.2983
 4098SOL    HW123927   0.055   1.921  12.626  1.0763  0.0249  2.0969
 4098SOL    HW223928   4.660   1.873  12.649 -0.5745 -1.9506 -1.0053
 4099SOL     OW23929   1.720   2.156   8.789  0.3045  0.1061  0.3436
 4099SOL    HW123930   1.789   2.220   8.803 -1.3816  1.9340  0.1978
 4099SOL    HW223931   1.769   2.075   8.773  2.3922  1.4377  0.0895
 4100SOL     OW23932   2.327   2.182   5.645 -0.0677 -0.1216  0.3367
 4100SOL    HW123933   2.279   2.103   5.620  0.5919 -0.4028 -0.0471
 4100SOL    HW223934   2.336   2.177   5.741  3.1439 -0.4793  0.0211
 4101SOL     OW23935   1.801   2.624   8.579  0.3715 -0.3740 -0.2180
 4101SOL    HW123936   1.722   2.625   8.525 -0.6103  0.0868  1.2043
 4101SOL    HW223937   1.864   2.623   8.508 -0.2683  2.0201 -0.8121
 4102SOL     OW23938   3.583   2.822   1.222  0.3137 -0.3894  0.1430
 4102SOL    HW123939   3.650   2.838   1.155 -0.8787  3.1926 -0.2189
 4102SOL    HW223940   3.638   2.802   1.297  0.1466 -1.1448  0.0659
 4103SOL     OW23941   2.760   2.482  10.052  0.1345 -0.2166 -0.4623
 4103SOL    HW123942   2.696   2.552  10.038  1.3854  0.7034 -1.5762
 4103SOL    HW223943   2.737   2.414   9.989  0.6370  1.1621 -2.1392
 4104SOL     OW23944   2.901   4.214   5.178 -0.4264  1.0587 -0.1465
 4104SOL    HW123945   2.809   4.190   5.182  0.0662 -0.9339 -0.4945
 4104SOL    HW223946   2.926   4.208   5.270 -1.0568  1.1640  0.0293
 4105SOL     OW23947   3.470   3.618  10.040 -0.1352  0.2471 -0.3777
 4105SOL    HW123948   3.398   3.654   9.989 -0.7739  1.1635  1.1582
 4105SOL    HW223949   3.437   3.529  10.037  2.1478 -0.6823  2.3990
 4106SOL     OW23950   1.935   0.611   3.742  0.0472  0.3226 -0.4051
 4106SOL    HW123951   2.019   0.596   3.699  0.7991  0.5678  0.9896
 4106SOL    HW223952   1.948   0.583   3.832  0.7207 -1.4951 -1.0568
 4107SOL     OW23953   1.144   4.114   3.157  0.2510 -0.4533  0.0144
 4107SOL    HW123954   1.221   4.062   3.180 -0.1041 -1.6118 -1.3835
 4107SOL    HW223955   1.110   4.064   3.082 -0.6076 -0.8258  0.6513
 4108SOL     OW23956   1.765   0.081   2.342 -0.2080 -0.0259 -0.6069
 4108SOL    HW123957   1.698   0.150   2.341  0.4349  0.6394  1.9920
 4108SOL    HW223958   1.773   0.067   2.248 -0.0868 -0.2180 -0.5663
 4109SOL     OW23959   2.700   1.072   2.855 -0.0578 -0.1950  0.8032
 4109SOL    HW123960   2.641   1.089   2.783  0.7872 -1.7927 -0.2887
 4109SOL    HW223961   2.723   0.980   2.839 -0.4402 -0.5788  2.4055
 4110SOL     OW23962   4.329   3.357   6.054  0.2281 -0.2405 -0.0794
 4110SOL    HW123963   4.242   3.319   6.058 -0.4158  1.2376 -0.1554
 4110SOL    HW223964   4.369   3.308   6.126  0.3095 -0.5456 -0.3348
 4111SOL     OW23965   1.377   2.364  16.532 -0.0081 -0.0724 -0.2764
 4111SOL    HW123966   1.323   2.422  16.479  1.2876  0.9063 -0.5224
 4111SOL    HW223967   1.400   2.291  16.475 -0.4442  0.2578 -0.8740
 4112SOL     OW23968   1.173   2.876   2.854 -0.3295  0.0011 -0.3970
 4112SOL    HW123969   1.257   2.836   2.875  0.5908  1.3318 -1.5898
 4112SOL    HW223970   1.133   2.891   2.940  1.3657 -0.6950  0.5138
 4113SOL     OW23971   0.353   4.567  10.088  0.0634 -0.4177 -0.2851
 4113SOL    HW123972   0.389   4.541  10.173 -0.3918  2.6676  0.8565
 4113SOL    HW223973   0.392   4.503  10.029 -1.4798  0.6587 -2.4825
 4114SOL     OW23974   3.646   0.023   6.455  0.2571  0.4345  0.7067
 4114SOL    HW123975   3.592   4.719   6.524  1.7155 -2.4137  0.2079
 4114SOL    HW223976   3.661   4.685   6.396 -0.8505 -0.1694  1.1707
 4115SOL     OW23977   1.339   4.635   7.018 -0.4273  0.1673  0.4252
 4115SOL    HW123978   1.307   4.549   6.989 -0.8112 -0.2124  1.9698
 4115SOL    HW223979   1.253   4.675   7.026 -0.7091 -0.2615 -0.4720
 4116SOL     OW23980   3.867   0.537   0.862  0.0382  0.2546  0.0236
 4116SOL    HW123981   3.954   0.575   0.875  0.7104 -0.5709 -1.9995
 4116SOL    HW223982   3.833   0.582   0.784 -2.1993  0.8502  1.3457
 4117SOL     OW23983   0.401   1.093   4.383  0.0345  0.1767  0.5973
 4117SOL    HW123984   0.482   1.089   4.333 -1.2434  1.7627 -1.6147
 4117SOL    HW223985   0.348   1.152   4.329 -0.1925  1.4895  2.2409
 4118SOL     OW23986   2.168   3.445  11.359 -0.1598 -0.3670 -0.3791
 4118SOL    HW123987   2.106   3.377  11.331 -0.3643 -0.5256  0.4493
 4118SOL    HW223988   2.112   3.521  11.345 -0.0479  0.0929  1.6695
 4119SOL     OW23989   1.981   4.048   9.543  0.3109 -0.1436  0.1925
 4119SOL    HW123990   1.892   4.013   9.539  0.3954 -0.0638 -2.8556
 4119SOL    HW223991   2.027   3.970   9.571 -0.8966 -0.7096  0.6078
 4120SOL     OW23992   1.550   4.298   6.546  0.1285  0.2047  0.0588
 4120SOL    HW123993   1.513   4.385   6.529 -1.3238 -0.6190 -0.9870
 4120SOL    HW223994   1.506   4.273   6.627 -0.3784  0.3897 -0.1559
 4121SOL     OW23995   2.856   4.349   4.925  0.4871  0.2887 -0.2848
 4121SOL    HW123996   2.907   4.429   4.933 -0.2575  0.8396 -1.1809
 4121SOL    HW223997   2.885   4.306   5.006 -0.5359 -0.2659 -0.2037
 4122SOL     OW23998   1.806   0.166   3.387  0.6793 -0.0279 -0.2841
 4122SOL    HW123999   1.887   0.185   3.340  0.1940  1.8252 -0.3700
 4122SOL    HW224000   1.818   0.206   3.473 -0.2162  0.8986 -0.5854
 4123SOL     OW24001   4.171   0.058   0.830  0.2840  0.0381 -0.4510
 4123SOL    HW124002   4.130   0.097   0.753  0.4918  2.0401  0.4626
 4123SOL    HW224003   4.147   0.118   0.901  1.3220  1.6914 -1.5016
 4124SOL     OW24004   3.841   0.356   3.965  0.1830 -0.4321  0.6014
 4124SOL    HW124005   3.812   0.357   3.874 -1.2950 -0.2477  1.0823
 4124SOL    HW224006   3.786   0.286   4.000 -1.7572  0.8581  0.0953
 4125SOL     OW24007   0.349   0.593   5.831 -0.0958  0.2252  0.1258
 4125SOL    HW124008   0.423   0.536   5.809 -2.1345 -2.2784 -0.3074
 4125SOL    HW224009   0.399   0.648   5.891  2.3772 -3.3072  1.3010
 4126SOL     OW24010   3.752   3.823   8.611 -0.2794  0.0284  0.0225
 4126SOL    HW124011   3.671   3.773   8.598 -0.6648  0.5745  0.3401
 4126SOL    HW224012   3.802   3.818   8.529  0.4991 -1.1803  0.5687
 4127SOL     OW24013   2.615   3.469  11.382 -0.1040  0.3644  0.3019
 4127SOL    HW124014   2.644   3.401  11.443 -1.5848 -0.6932 -0.1716
 4127SOL    HW224015   2.696   3.519  11.373 -0.3192  0.3335 -1.7501
 4128SOL     OW24016   3.609   3.199  10.036  0.0478 -0.6599 -0.4806
 4128SOL    HW124017   3.525   3.157  10.056 -0.3324  1.2497  1.9736
 4128SOL    HW224018   3.617   3.258  10.111 -3.3742 -1.0891  0.2231
 4129SOL     OW24019   2.216   2.876  14.276 -0.1300 -0.0354 -0.3072
 4129SOL    HW124020   2.196   2.832  14.194  0.7254 -1.3175  0.1629
 4129SOL    HW224021   2.307   2.903  14.260 -0.3463  0.6160 -0.4178
 4130SOL     OW24022   1.137   1.299   5.918  0.1472 -0.3036  0.4775
 4130SOL    HW124023   1.114   1.271   5.829  0.7468  0.6133  0.0438
 4130SOL    HW224024   1.232   1.303   5.918  0.0349  2.3280 -0.3309
 4131SOL     OW24025   0.142   3.528  11.217  0.3397  0.2547 -0.0426
 4131SOL    HW124026   0.139   3.434  11.234  1.0335 -0.0980 -1.8527
 4131SOL    HW224027   0.225   3.532  11.170  0.9981  0.0755  1.1164
 4132SOL     OW24028   2.964   1.866   7.007 -0.3250 -0.4071  0.1518
 4132SOL    HW124029   2.949   1.842   7.098  2.3971  0.0432  0.7270
 4132SOL    HW224030   2.875   1.868   6.972 -0.8282 -3.0444  1.2693
 4133SOL     OW24031   3.040   3.101  14.247 -0.1904  0.1777  0.1135
 4133SOL    HW124032   3.014   3.041  14.178 -0.0892 -0.2091  0.4145
 4133SOL    HW224033   3.013   3.181  14.201  1.8610  1.9107  1.9049
 4134SOL     OW24034   0.718   4.490   8.420 -0.0278 -0.1174  0.3045
 4134SOL    HW124035   0.738   4.576   8.383 -0.9541 -0.3595 -0.7771
 4134SOL    HW224036   0.770   4.438   8.358  0.6303  1.5866 -0.5807
 4135SOL     OW24037   1.317   0.877   5.091  0.1618 -0.1998  0.0674
 4135SOL    HW124038   1.298   0.883   4.998  1.0480  3.2190  0.1041
 4135SOL    HW224039   1.292   0.968   5.108 -3.2518 -1.0384 -0.5240
 4136SOL     OW24040   4.090   0.248  16.686 -0.0472  0.2669  0.1400
 4136SOL    HW124041   4.019   0.184  16.675 -0.6702  1.0008 -0.0876
 4136SOL    HW224042   4.045   0.322  16.645  0.4034  0.7340  0.5031
 4137SOL     OW24043   3.843   2.574   5.020  0.3561 -0.4190  0.5365
 4137SOL    HW124044   3.844   2.566   5.115 -0.4827 -0.9264  0.5040
 4137SOL    HW224045   3.914   2.637   5.012  0.1750  0.0108  2.4745
 4138SOL     OW24046   4.390   0.663   2.755 -0.4644 -0.1155 -0.8950
 4138SOL    HW124047   4.329   0.611   2.702  2.0515  0.0865 -3.9882
 4138SOL    HW224048   4.383   0.746   2.708 -0.3025  1.6510  2.2302
 4139SOL     OW24049   2.165   1.798   2.902  1.2563 -0.6605 -0.3087
 4139SOL    HW124050   2.094   1.835   2.850  1.6135 -1.1905 -1.1718
 4139SOL    HW224051   2.231   1.776   2.836  1.2662  1.9372 -1.1464
 4140SOL     OW24052   1.356   1.945  16.691  0.1680  0.2000  0.2578
 4140SOL    HW124053   1.426   1.913  16.749  1.8894  0.1875 -1.8595
 4140SOL    HW224054   1.362   2.040  16.697 -1.5643  0.1018  4.0735
 4141SOL     OW24055   2.832   2.528  10.904  0.4317  0.0471 -0.0909
 4141SOL    HW124056   2.818   2.617  10.873 -1.9881  0.1446  1.3249
 4141SOL    HW224057   2.758   2.485  10.861  0.5485 -0.2065 -0.0425
 4142SOL     OW24058   1.013   1.617   8.739 -1.5299  0.4690 -0.5949
 4142SOL    HW124059   0.973   1.701   8.762  0.4992  1.3149 -0.2057
 4142SOL    HW224060   1.099   1.636   8.776 -1.1469  0.2406 -1.3662
 4143SOL     OW24061   4.270   4.222   6.876  0.5154 -0.4040  0.1546
 4143SOL    HW124062   4.342   4.161   6.893 -0.8364 -1.7695  1.0225
 4143SOL    HW224063   4.291   4.257   6.790 -0.4154  1.7287  0.8016
 4144SOL     OW24064   0.014   1.313   1.774  0.0606  0.0231 -0.3842
 4144SOL    HW124065   0.105   1.334   1.755  0.3307 -1.7191 -0.9891
 4144SOL    HW224066   0.024   1.226   1.812  1.1476  0.4196  0.2109
 4145SOL     OW24067   2.680   1.553  16.317  0.1802 -0.1688  0.0448
 4145SOL    HW124068   2.669   1.587  16.406 -2.5671  2.9144 -1.4351
 4145SOL    HW224069   2.728   1.623  16.272  0.4166 -1.1840 -1.2920
 4146SOL     OW24070   4.545   2.727   8.657  0.0441  0.0760 -1.0215
 4146SOL    HW124071   4.519   2.767   8.740  1.0547  0.8374 -1.0737
 4146SOL    HW224072   4.623   2.775   8.629  2.2473 -3.0718 -0.2234
 4147SOL     OW24073   2.705   3.617   4.155  0.1663  0.4515 -0.0331
 4147SOL    HW124074   2.659   3.609   4.071 -0.7380  3.0679  0.2027
 4147SOL    HW224075   2.690   3.711   4.160 -0.6646  0.5590 -4.2725
 4148SOL     OW24076   2.312   3.057   0.004 -0.5397 -0.6206 -0.0287
 4148SOL    HW124077   2.285   2.981  17.693  0.0262 -0.2481 -0.8548
 4148SOL    HW224078   2.226   3.097   0.007 -1.2581 -2.0673 -1.0410
 4149SOL     OW24079   1.084   3.065   9.426 -0.5345  0.6142  0.1594
 4149SOL    HW124080   1.121   3.128   9.488  0.8656  2.8093 -2.8631
 4149SOL    HW224081   1.046   3.120   9.356 -0.7955  1.6263  1.0865
 4150SOL     OW24082   1.940   2.913   8.444  0.5319  0.1460  0.4086
 4150SOL    HW124083   1.964   2.824   8.418  1.2023 -0.2152  2.2674
 4150SOL    HW224084   2.025   2.958   8.439 -0.1585  1.4051 -0.0847
 4151SOL     OW24085   1.076   3.481   9.643  0.0639 -0.0263  0.3907
 4151SOL    HW124086   1.149   3.541   9.662  0.2423 -0.4855  1.1523
 4151SOL    HW224087   1.041   3.462   9.730  2.0426  1.4636  1.5043
 4152SOL     OW24088   1.023   3.036  14.819 -0.0046  1.1011  0.4985
 4152SOL    HW124089   0.999   3.068  14.906 -0.2501 -1.5702  1.4052
 4152SOL    HW224090   1.110   2.996  14.826 -1.7284 -2.7920 -0.3842
 4153SOL     OW24091   2.651   3.258   8.476  0.3130 -0.1168 -0.3843
 4153SOL    HW124092   2.594   3.328   8.508  0.6171 -0.8309  1.7641
 4153SOL    HW224093   2.667   3.277   8.384 -2.4987  0.0765 -0.8283
 4154SOL     OW24094   2.711   2.017   7.812  0.3265 -0.0040  0.0494
 4154SOL    HW124095   2.630   1.974   7.840  0.4165  1.5420  2.6730
 4154SOL    HW224096   2.696   2.111   7.825  0.9835  0.1486 -0.3297
 4155SOL     OW24097   4.695   3.383   5.947  0.3893 -0.2785 -0.4168
 4155SOL    HW124098   4.642   3.462   5.955 -0.4777 -0.8632 -0.3818
 4155SOL    HW224099   4.683   3.336   6.029  0.8382 -2.1412 -1.4150
 4156SOL     OW24100   3.452   2.692  13.974  0.3355 -0.1747  0.4670
 4156SOL    HW124101   3.506   2.735  13.908 -0.8205 -1.9667 -1.6503
 4156SOL    HW224102   3.401   2.768  14.002  1.1612  0.7747 -0.6054
 4157SOL     OW24103   3.124   0.387  17.214  0.4018  0.5357  0.5749
 4157SOL    HW124104   3.164   0.466  17.252  0.1841 -0.0209  1.9556
 4157SOL    HW224105   3.034   0.384  17.245  0.6456  0.4111  1.2771
 4158SOL     OW24106   2.887   0.900   1.447 -0.3269 -0.3289  0.5444
 4158SOL    HW124107   2.943   0.865   1.516 -0.6874  0.1919  1.1092
 4158SOL    HW224108   2.837   0.967   1.494 -0.2562 -0.2399  0.4918
 4159SOL     OW24109   1.663   1.081   1.479  0.3729  0.5228 -0.4454
 4159SOL    HW124110   1.681   0.987   1.481 -0.6216  0.3575  0.7352
 4159SOL    HW224111   1.650   1.089   1.385 -2.4208 -1.8050 -0.2644
 4160SOL     OW24112   1.274   4.462  10.619 -0.4944 -0.2601 -0.3247
 4160SOL    HW124113   1.258   4.466  10.524 -1.8961 -1.0735 -0.1301
 4160SOL    HW224114   1.355   4.511  10.633 -0.5754  0.3388 -1.9233
 4161SOL     OW24115   2.715   3.336   0.453  0.2390  0.0398 -0.4175
 4161SOL    HW124116   2.794   3.304   0.497  0.2651 -0.1136 -0.5781
 4161SOL    HW224117   2.669   3.253   0.444  3.2330 -1.6335 -0.0805
 4162SOL     OW24118   3.684   3.516   3.813 -0.3835  0.6302  0.1897
 4162SOL    HW124119   3.641   3.529   3.729 -1.9816  0.0413  0.9088
 4162SOL    HW224120   3.625   3.460   3.865  0.5800 -2.2375 -1.7999
 4163SOL     OW24121   2.492   2.085   5.139 -0.0047 -0.2980  0.2968
 4163SOL    HW124122   2.412   2.112   5.183  0.4862  0.3264  0.8132
 4163SOL    HW224123   2.505   2.002   5.185 -2.0755 -1.5464 -1.3615
 4164SOL     OW24124   3.491   3.087  11.686 -0.0189 -0.2190  0.7276
 4164SOL    HW124125   3.581   3.058  11.670 -0.7391 -0.6242 -2.6984
 4164SOL    HW224126   3.500   3.180  11.705 -0.1896 -0.2233  0.8250
 4165SOL     OW24127   0.675   2.575   8.207 -0.2323  0.2162  0.1582
 4165SOL    HW124128   0.598   2.538   8.251 -1.5389  3.0977  0.2973
 4165SOL    HW224129   0.721   2.619   8.278 -0.3486 -0.4609  0.6515
 4166SOL     OW24130   0.355   1.601   9.642  0.2207  0.2119 -0.2628
 4166SOL    HW124131   0.292   1.669   9.620 -1.0835 -0.1079  2.5248
 4166SOL    HW224132   0.321   1.587   9.730 -0.2965 -0.4019 -0.5614
 4167SOL     OW24133   4.348   3.299   7.954 -0.6112  0.6369 -0.3976
 4167SOL    HW124134   4.300   3.369   7.910 -1.9388  0.1864  0.3322
 4167SOL    HW224135   4.271   3.270   8.003 -0.8552 -2.2862 -2.4810
 4168SOL     OW24136   4.107   4.617   6.605 -0.5174 -0.1340 -0.3859
 4168SOL    HW124137   4.096   4.544   6.544 -0.2671 -1.3521  1.0168
 4168SOL    HW224138   4.046   4.596   6.676  0.3561 -0.7143  0.1901
 4169SOL     OW24139   2.748   2.160  17.646 -0.5342 -0.2349 -0.7948
 4169SOL    HW124140   2.747   2.069  17.618 -1.1558 -1.5559  3.4681
 4169SOL    HW224141   2.730   2.214  17.569 -0.3522 -0.1497 -0.7770
 4170SOL     OW24142   1.802   1.289   3.652 -0.1369 -0.4543 -0.5541
 4170SOL    HW124143   1.874   1.309   3.711 -0.6043  0.7269 -0.3655
 4170SOL    HW224144   1.838   1.318   3.568 -2.3666  2.0269 -0.6639
 4171SOL     OW24145   3.102   0.193   6.060 -0.3153  0.1886  0.0913
 4171SOL    HW124146   3.036   0.252   6.023 -0.3451  1.7672  2.6489
 4171SOL    HW224147   3.057   0.189   6.144 -0.9506  0.1852 -0.2453
 4172SOL     OW24148   2.541   1.739   6.540 -0.4068  0.6142  0.0268
 4172SOL    HW124149   2.531   1.823   6.584 -1.5061  0.2311  0.5091
 4172SOL    HW224150   2.514   1.685   6.614  0.8043 -0.9323 -0.6461
 4173SOL     OW24151   2.904   2.865   8.336  0.2947 -0.0797  0.1477
 4173SOL    HW124152   2.941   2.949   8.308  3.1364 -1.6113 -0.6360
 4173SOL    HW224153   2.838   2.892   8.401 -1.2561 -0.6349 -1.2070
 4174SOL     OW24154   3.056   4.713  16.577 -0.1856 -0.0207  0.1525
 4174SOL    HW124155   3.143   4.717  16.538  0.3630  0.1695  1.3676
 4174SOL    HW224156   3.045   0.060  16.625  0.3958  1.1158 -1.6738
 4175SOL     OW24157   4.132   2.741  12.070  0.0221  0.1018  0.3109
 4175SOL    HW124158   4.152   2.798  11.996 -0.0485  1.0226  0.9956
 4175SOL    HW224159   4.081   2.673  12.026  0.3517  1.5718 -2.3463
 4176SOL     OW24160   3.327   3.415   4.804  0.3135 -0.4730  0.1276
 4176SOL    HW124161   3.314   3.339   4.861  1.9232 -0.7109  0.1768
 4176SOL    HW224162   3.319   3.385   4.713 -2.9556  0.6307  0.0538
 4177SOL     OW24163   2.319   0.202  10.576 -0.3388 -0.0035  0.1667
 4177SOL    HW124164   2.248   0.248  10.620 -1.1817  1.2886 -2.5583
 4177SOL    HW224165   2.274   0.166  10.499  0.2171 -1.7284  0.6399
 4178SOL     OW24166   0.218   1.301   8.896  0.3776  0.1415  0.0369
 4178SOL    HW124167   0.272   1.224   8.882  3.1330  2.2251 -0.7053
 4178SOL    HW224168   0.210   1.294   8.991  0.4455 -2.3584 -0.1377
 4179SOL     OW24169   2.527   2.896   1.927  0.1302  0.6798 -0.0993
 4179SOL    HW124170   2.443   2.902   1.973  0.4903  2.0148  0.3824
 4179SOL    HW224171   2.492   2.898   1.838  3.5184 -2.9415 -1.4746
 4180SOL     OW24172   0.847   1.713   8.131 -0.0231 -0.1881  0.3889
 4180SOL    HW124173   0.911   1.652   8.169  0.4726 -0.6542 -1.2178
 4180SOL    HW224174   0.791   1.658   8.076 -0.0005 -1.3017  1.4703
 4181SOL     OW24175   1.008   2.068   4.601  0.0317  0.4375 -0.7592
 4181SOL    HW124176   0.982   2.023   4.681 -0.5155 -1.3197 -1.9144
 4181SOL    HW224177   1.015   1.996   4.538  0.3908 -1.4733  1.4561
 4182SOL     OW24178   3.573   3.164  10.471  0.5041  0.0870  1.0034
 4182SOL    HW124179   3.620   3.217  10.536 -1.0034  2.8779 -0.1812
 4182SOL    HW224180   3.524   3.105  10.528 -0.6292 -0.4654 -0.5631
 4183SOL     OW24181   1.278   1.432   3.943 -0.0200 -0.0770  0.2597
 4183SOL    HW124182   1.189   1.435   3.910  1.4196  2.8396 -3.3573
 4183SOL    HW224183   1.274   1.485   4.022  2.2326 -0.3904  0.5979
 4184SOL     OW24184   2.317   1.007   4.090  0.2210  0.8564  0.0038
 4184SOL    HW124185   2.235   0.993   4.043 -0.3489 -0.6946  1.4699
 4184SOL    HW224186   2.338   1.093   4.053  3.2124 -1.0288 -2.7123
 4185SOL     OW24187   0.304   4.318   8.671 -0.0033  0.0826 -0.0628
 4185SOL    HW124188   0.366   4.251   8.698  1.5306  1.4214 -0.2609
 4185SOL    HW224189   0.261   4.338   8.754  2.0465 -0.7208  1.1793
 4186SOL     OW24190   1.331   1.709   2.742 -0.6521  0.3151 -0.2027
 4186SOL    HW124191   1.360   1.622   2.715  0.6255  0.3074  1.2073
 4186SOL    HW224192   1.399   1.766   2.705 -0.1603 -1.8682 -2.6418
 4187SOL     OW24193   1.353   2.327   6.955 -0.3975 -0.6446 -0.5991
 4187SOL    HW124194   1.395   2.363   7.033 -0.9042  2.4682 -1.7536
 4187SOL    HW224195   1.377   2.397   6.894 -0.2467 -1.4639 -1.4829
 4188SOL     OW24196   0.040   1.123   2.122  0.2596  0.0028 -0.0967
 4188SOL    HW124197   0.100   1.139   2.050 -1.6666 -3.2649 -2.3921
 4188SOL    HW224198   0.083   1.180   2.187  0.6233  1.5405 -1.6953
 4189SOL     OW24199   4.004   3.587  11.399  0.0754  0.4682  0.7341
 4189SOL    HW124200   3.946   3.662  11.390 -1.5283 -1.1639 -2.4775
 4189SOL    HW224201   3.946   3.541  11.459  0.1307 -1.4989 -0.7055
 4190SOL     OW24202   4.353   4.024   3.507 -0.0316  0.0772  0.5214
 4190SOL    HW124203   4.273   4.072   3.528 -0.2457  0.1041 -0.3511
 4190SOL    HW224204   4.424   4.081   3.539  2.3149 -0.9891 -2.7448
 4191SOL     OW24205   4.693   0.995   3.609 -0.0427  0.1956 -0.5479
 4191SOL    HW124206   0.041   0.969   3.570  0.1264  0.4291 -0.3361
 4191SOL    HW224207   4.695   0.936   3.684 -1.7876  2.0628  0.9690
 4192SOL     OW24208   0.677   3.513   9.605 -0.5252 -0.0631 -0.1954
 4192SOL    HW124209   0.678   3.424   9.570 -0.4619 -1.1533  2.6385
 4192SOL    HW224210   0.607   3.543   9.547 -2.1436 -2.0275  0.7665
 4193SOL     OW24211   4.627   3.927   8.418  0.1663 -0.1752  0.2142
 4193SOL    HW124212   4.630   3.916   8.323 -1.5621  1.0517  0.0012
 4193SOL    HW224213   4.610   4.021   8.420  0.8936  0.0154 -2.7052
 4194SOL     OW24214   3.080   0.553  10.281 -0.6184  0.0364  0.2960
 4194SOL    HW124215   3.169   0.553  10.247  0.0116  3.8380  1.9489
 4194SOL    HW224216   3.030   0.520  10.207  0.1482  0.2325 -0.3077
 4195SOL     OW24217   2.577   2.984   3.167 -0.0478  0.0124 -0.4508
 4195SOL    HW124218   2.527   2.938   3.099 -1.6028  1.3571 -0.2135
 4195SOL    HW224219   2.588   2.918   3.236 -3.6405 -0.6335 -0.5220
 4196SOL     OW24220   2.843   2.447   0.215 -0.1793  0.4986  0.1777
 4196SOL    HW124221   2.859   2.447   0.310  0.6970 -1.6826  0.0128
 4196SOL    HW224222   2.878   2.363   0.188 -0.3055  0.6490 -0.4475
 4197SOL     OW24223   0.068   4.346  12.055 -0.3647 -0.1031  0.2189
 4197SOL    HW124224   0.050   4.311  12.142 -0.5782 -1.7833 -0.5109
 4197SOL    HW224225   0.163   4.357  12.062 -0.4655  1.8329 -1.8220
 4198SOL     OW24226   1.088   2.909   2.597  0.0640  1.0441  0.1030
 4198SOL    HW124227   1.161   2.959   2.561 -0.1972 -1.0349 -3.3751
 4198SOL    HW224228   1.125   2.887   2.682 -1.6098  0.6223  0.7297
 4199SOL     OW24229   4.042   2.148   4.038  0.8577 -0.4261  0.2031
 4199SOL    HW124230   4.122   2.197   4.018 -1.1138  3.0150  0.7262
 4199SOL    HW224231   4.017   2.111   3.954  0.9016 -0.0599  0.0292
 4200SOL     OW24232   2.966   0.286   7.265 -0.3718  0.5069 -0.4808
 4200SOL    HW124233   2.995   0.265   7.176  2.7299 -2.6650  1.2498
 4200SOL    HW224234   3.030   0.353   7.289  0.1187 -1.2654  3.1528
 4201SOL     OW24235   4.246   4.504  14.269 -0.3330  0.0414 -0.4847
 4201SOL    HW124236   4.324   4.556  14.288 -1.6769  2.4519 -1.6048
 4201SOL    HW224237   4.283   4.425  14.229 -1.7783 -2.4057  2.9661
 4202SOL     OW24238   0.612   2.095   5.510  0.4579  0.0838 -0.3604
 4202SOL    HW124239   0.633   2.004   5.528  0.2400 -0.0403 -0.7347
 4202SOL    HW224240   0.588   2.106   5.418 -0.1181  0.7560 -0.1361
 4203SOL     OW24241   1.731   4.130   8.526 -0.0955 -0.1985  0.0268
 4203SOL    HW124242   1.787   4.060   8.491 -1.4759 -1.1262 -0.3311
 4203SOL    HW224243   1.782   4.164   8.600  0.5860 -2.6689  0.7109
 4204SOL     OW24244   1.585   4.166   2.572  0.1518  0.2260 -0.1135
 4204SOL    HW124245   1.505   4.211   2.545 -0.7648 -0.4131  1.5883
 4204SOL    HW224246   1.604   4.202   2.659 -1.6940  1.4849 -0.2230
 4205SOL     OW24247   2.612   3.241   9.697  0.2127  0.4756 -0.5655
 4205SOL    HW124248   2.628   3.239   9.603  2.0167  0.2468 -0.2645
 4205SOL    HW224249   2.682   3.304   9.717  0.3880  0.0267  0.2371
 4206SOL     OW24250   1.619   2.472   9.576 -0.6710 -0.4894  0.2677
 4206SOL    HW124251   1.711   2.454   9.554 -0.1226  0.7854  1.5044
 4206SOL    HW224252   1.582   2.409   9.514  1.5657 -0.8723 -0.6847
 4207SOL     OW24253   3.290   0.832   6.111 -0.3296 -0.5836 -0.1345
 4207SOL    HW124254   3.229   0.795   6.174  0.6582 -3.0732 -0.6155
 4207SOL    HW224255   3.250   0.914   6.082 -0.9343  0.6434  4.2157
 4208SOL     OW24256   1.789   4.675   4.450  0.0154 -0.3670  1.0047
 4208SOL    HW124257   1.713   4.626   4.420 -1.7554  4.5990 -2.5743
 4208SOL    HW224258   1.853   4.607   4.474 -0.6552 -1.4486 -0.3158
 4209SOL     OW24259   2.557   1.042   8.273  0.2022  0.3837  0.5407
 4209SOL    HW124260   2.518   0.982   8.209  0.0705 -0.0971  1.0672
 4209SOL    HW224261   2.503   1.121   8.263 -0.5739 -0.2025  0.0382
 4210SOL     OW24262   2.410   3.068   0.822  0.1881 -0.1368  0.3361
 4210SOL    HW124263   2.421   3.162   0.810  1.2831 -0.4632 -1.2837
 4210SOL    HW224264   2.322   3.066   0.859 -0.0946 -0.0619 -0.3319
 4211SOL     OW24265   1.808   4.091   6.122 -0.2013  0.3903  0.1656
 4211SOL    HW124266   1.728   4.057   6.163 -0.6542 -0.3133 -1.3112
 4211SOL    HW224267   1.860   4.126   6.195  0.7643 -2.3976  0.7975
 4212SOL     OW24268   2.698   1.374   8.057 -0.1901 -0.2796 -0.3679
 4212SOL    HW124269   2.670   1.356   7.967  3.4365  0.7194 -1.7034
 4212SOL    HW224270   2.618   1.347   8.102 -1.1591 -0.0648 -1.9332
 4213SOL     OW24271   3.477   4.383  12.301  0.1431  0.2471 -0.2372
 4213SOL    HW124272   3.437   4.467  12.279 -1.7228 -0.7833 -0.8543
 4213SOL    HW224273   3.539   4.413  12.368  1.8415 -1.4137 -1.0713
 4214SOL     OW24274   0.921   1.983   8.605 -0.0981  0.0155 -0.1513
 4214SOL    HW124275   0.889   1.931   8.680 -0.6782 -0.0222 -0.4229
 4214SOL    HW224276   0.898   1.928   8.530 -0.3075  0.5864 -0.5040
 4215SOL     OW24277   3.239   2.624   5.771 -0.1499  0.2276 -1.1047
 4215SOL    HW124278   3.307   2.563   5.800 -0.3152  0.6767  0.2610
 4215SOL    HW224279   3.186   2.636   5.850  0.8377  0.6335 -0.5069
 4216SOL     OW24280   0.337   2.603   0.325  0.2325 -0.1108 -0.0407
 4216SOL    HW124281   0.302   2.689   0.305  2.7720  1.0302  0.4778
 4216SOL    HW224282   0.392   2.578   0.251  2.3123  0.3497  1.3382
 4217SOL     OW24283   3.082   3.634  14.498 -0.4862  0.5593 -0.6575
 4217SOL    HW124284   3.141   3.561  14.482  0.5299  1.3647 -0.6320
 4217SOL    HW224285   3.144   3.704  14.518  1.8697 -1.3763 -1.2749
 4218SOL     OW24286   2.850   1.315   7.385  0.0287 -0.5463 -0.1029
 4218SOL    HW124287   2.797   1.236   7.384 -0.4586 -0.2368  2.0152
 4218SOL    HW224288   2.928   1.291   7.334 -0.0535  1.7404 -1.3117
 4219SOL     OW24289   3.611   1.138   7.566  0.3140 -0.2924  0.0521
 4219SOL    HW124290   3.644   1.170   7.482 -0.9216  1.7015  0.3348
 4219SOL    HW224291   3.649   1.050   7.563 -3.2183 -1.8442  0.8851
 4220SOL     OW24292   0.464   4.703   1.579 -0.0520  0.0003 -0.1865
 4220SOL    HW124293   0.376   4.702   1.618  0.7019 -0.4009  1.5303
 4220SOL    HW224294   0.453   4.637   1.512  0.1750 -0.4373  0.2039
 4221SOL     OW24295   4.188   2.766   6.971  0.1613 -0.2830  0.5284
 4221SOL    HW124296   4.146   2.840   6.927 -0.1367 -1.2840 -0.8590
 4221SOL    HW224297   4.274   2.808   6.966  0.5519 -1.2139 -0.6333
 4222SOL     OW24298   2.625   2.677  15.740 -0.6387 -0.2536 -0.1719
 4222SOL    HW124299   2.566   2.746  15.770 -0.7225 -0.1355 -0.6006
 4222SOL    HW224300   2.627   2.693  15.645 -1.4932  0.7705 -0.0272
 4223SOL     OW24301   0.364   0.454   2.231 -0.4939  0.2038  0.0466
 4223SOL    HW124302   0.432   0.448   2.164 -0.3114  0.1289  0.2402
 4223SOL    HW224303   0.341   0.547   2.226 -0.8255  0.0902 -0.4544
 4224SOL     OW24304   1.506   0.025  11.911 -0.1635  0.0027  0.1955
 4224SOL    HW124305   1.414   0.019  11.935 -0.2173 -2.2090 -0.5780
 4224SOL    HW224306   1.537   4.685  11.960 -1.0791  0.9803  2.2795
 4225SOL     OW24307   1.904   2.061   0.461  0.2628  0.1348  0.0999
 4225SOL    HW124308   1.876   2.132   0.519  0.7399 -1.5100  2.3115
 4225SOL    HW224309   1.985   2.035   0.504 -0.8577 -3.5705  0.0071
 4226SOL     OW24310   0.416   2.318   3.767  0.1603  0.7743  0.3176
 4226SOL    HW124311   0.408   2.325   3.862 -3.1960 -0.8852  0.1827
 4226SOL    HW224312   0.456   2.403   3.748 -0.1269  0.4104 -1.9208
 4227SOL     OW24313   0.367   4.706  15.075  0.6841 -0.0482 -0.1943
 4227SOL    HW124314   0.290   4.705  15.018  1.5964  2.5299 -1.4890
 4227SOL    HW224315   0.430   4.658  15.022 -0.1066 -2.0269  0.6640
 4228SOL     OW24316   0.420   3.457   9.123  0.3793 -0.2695  0.1379
 4228SOL    HW124317   0.445   3.496   9.038 -2.1240  1.3061  0.1232
 4228SOL    HW224318   0.407   3.538   9.173 -0.0451 -0.6716  0.6683
 4229SOL     OW24319   1.150   4.185   6.333  0.3613 -0.2282 -0.2977
 4229SOL    HW124320   1.206   4.247   6.286  0.2809  0.5507  0.6615
 4229SOL    HW224321   1.063   4.223   6.329  0.8447  1.1934  2.5287
 4230SOL     OW24322   3.908   1.952   7.851  0.4075 -0.0003  0.1407
 4230SOL    HW124323   3.939   1.868   7.886  1.4848 -0.1408 -1.1579
 4230SOL    HW224324   3.989   1.998   7.832  0.6477 -1.5179 -2.4912
 4231SOL     OW24325   3.835   1.761   2.917  0.0445 -0.2263  0.0733
 4231SOL    HW124326   3.874   1.845   2.892 -0.4115  0.1374  0.5764
 4231SOL    HW224327   3.904   1.695   2.909  1.4225  1.0080  1.6056
 4232SOL     OW24328   3.612   2.253   9.747 -0.3179  0.0338  0.3025
 4232SOL    HW124329   3.603   2.207   9.663  1.4913 -1.7651  1.0812
 4232SOL    HW224330   3.590   2.340   9.714 -0.5030 -0.2016 -0.2092
 4233SOL     OW24331   0.493   1.688   4.968 -0.2432  0.0496 -0.6040
 4233SOL    HW124332   0.493   1.770   5.018  1.2047 -1.4407  1.8583
 4233SOL    HW224333   0.575   1.646   4.992  1.2329  2.0811 -2.0368
 4234SOL     OW24334   1.116   1.768  16.692 -0.0291 -0.1372 -0.2583
 4234SOL    HW124335   1.190   1.823  16.716  0.8038 -1.2465 -0.2741
 4234SOL    HW224336   1.147   1.698  16.635  1.1838 -2.0298  2.7230
 4235SOL     OW24337   2.394   2.659  13.578  0.6561  0.6823  0.4429
 4235SOL    HW124338   2.395   2.636  13.485  0.3333 -2.0298  1.1029
 4235SOL    HW224339   2.375   2.574  13.618 -0.3230 -0.0285 -1.5168
 4236SOL     OW24340   0.805   3.929   2.653 -0.2348 -0.2391 -0.0823
 4236SOL    HW124341   0.786   3.842   2.686 -1.0264 -0.4605 -1.1234
 4236SOL    HW224342   0.775   3.935   2.562 -1.2386 -1.3106  0.1877
 4237SOL     OW24343   0.270   4.355   0.399  0.3506  0.5165  0.9641
 4237SOL    HW124344   0.228   4.427   0.444 -0.3309  0.2696  0.7202
 4237SOL    HW224345   0.296   4.398   0.317 -0.1706  0.2372  0.6586
 4238SOL     OW24346   1.453   3.935   6.836 -0.4544 -0.3538  0.1536
 4238SOL    HW124347   1.532   3.886   6.859 -1.6876 -2.5523 -0.3189
 4238SOL    HW224348   1.465   3.951   6.743  0.6533  1.7901  0.6701
 4239SOL     OW24349   2.954   2.898   6.317 -0.1214  0.4482  0.0766
 4239SOL    HW124350   2.942   2.805   6.295 -2.5664  0.9734 -0.7422
 4239SOL    HW224351   2.962   2.937   6.230 -0.7980 -0.5293 -0.4308
 4240SOL     OW24352   2.902   0.693  10.911  0.2896  0.2524  0.8265
 4240SOL    HW124353   2.880   0.611  10.956 -4.6442  1.3091  0.3323
 4240SOL    HW224354   2.818   0.739  10.904  0.8136  1.1347  0.3956
 4241SOL     OW24355   1.378   1.737  14.740 -0.2870 -0.0335  0.1996
 4241SOL    HW124356   1.407   1.825  14.764  0.1374  0.2886 -1.5165
 4241SOL    HW224357   1.292   1.727  14.782 -0.5816  1.5702 -0.0175
 4242SOL     OW24358   4.150   0.568   7.939  0.2639 -0.1865 -0.1008
 4242SOL    HW124359   4.158   0.655   7.901  1.1071 -0.3343 -0.2744
 4242SOL    HW224360   4.183   0.584   8.027 -0.0703  0.2922 -0.0645
 4243SOL     OW24361   3.997   1.615  17.689 -0.2429  0.3472  0.0462
 4243SOL    HW124362   4.007   1.662   0.031  1.8916 -0.8480  0.4452
 4243SOL    HW224363   4.027   1.683  17.628 -1.9108  0.8495 -0.2305
 4244SOL     OW24364   1.138   3.972   1.273 -0.3815  0.2611  0.8565
 4244SOL    HW124365   1.167   3.881   1.272  0.5496  0.5278  2.8178
 4244SOL    HW224366   1.046   3.950   1.262 -0.6697  2.4796 -1.1599
 4245SOL     OW24367   1.627   2.570  15.094 -0.1720  0.4053  0.2034
 4245SOL    HW124368   1.669   2.568  15.180  0.4264 -0.8450 -0.1215
 4245SOL    HW224369   1.681   2.523  15.031 -0.1976  0.2868  0.2711
 4246SOL     OW24370   4.651   2.200   2.121 -0.8350 -0.2855 -0.3032
 4246SOL    HW124371   4.687   2.246   2.196 -1.8565 -1.2861  0.7996
 4246SOL    HW224372   4.562   2.186   2.153 -0.3388  0.5176  1.3993
 4247SOL     OW24373   4.004   3.403   4.729 -0.4178  0.0569  0.2358
 4247SOL    HW124374   3.983   3.469   4.662 -0.6291 -1.7853 -1.4962
 4247SOL    HW224375   3.921   3.405   4.778 -0.5392  3.7464 -0.0972
 4248SOL     OW24376   0.211   0.235   6.895  0.0212  0.2177  0.0909
 4248SOL    HW124377   0.232   0.323   6.926  1.0039 -0.1899  0.5705
 4248SOL    HW224378   0.224   0.236   6.800  1.3419  0.5220  0.2763
 4249SOL     OW24379   4.570   4.607   6.041  0.4106 -0.8447 -0.3504
 4249SOL    HW124380   4.494   4.621   6.097  1.5633  0.6369  0.8425
 4249SOL    HW224381   4.617   4.686   6.065 -2.5154  1.5908 -2.6860
 4250SOL     OW24382   3.924   1.972  14.220 -0.1758  0.3545  0.1028
 4250SOL    HW124383   3.912   1.996  14.128 -0.7835 -0.0355  0.0797
 4250SOL    HW224384   3.971   2.048  14.253 -2.3125  0.7963  2.0979
 4251SOL     OW24385   4.003   1.134  16.095 -0.2763  0.4352  0.1967
 4251SOL    HW124386   4.067   1.063  16.097 -0.4151  0.4038  2.9315
 4251SOL    HW224387   3.947   1.110  16.168  2.0137 -0.5178  1.6417
 4252SOL     OW24388   2.924   3.718   8.153  0.1409 -0.5796 -0.3116
 4252SOL    HW124389   2.966   3.634   8.169  1.5090  0.0188 -0.7513
 4252SOL    HW224390   2.995   3.781   8.137 -0.0743 -0.8063 -2.1534
 4253SOL     OW24391   4.604   0.039   9.334 -0.6666 -0.5841  0.6298
 4253SOL    HW124392   4.571   0.057   9.422 -1.5399  0.2284  0.1356
 4253SOL    HW224393   4.580   0.125   9.299  2.2572  0.3050  0.8131
 4254SOL     OW24394   1.930   2.142   2.861 -0.8042 -0.4509  0.2888
 4254SOL    HW124395   1.950   2.218   2.916  0.3559  0.6846 -1.7243
 4254SOL    HW224396   1.846   2.149   2.816 -0.1425  1.3416 -0.6586
 4255SOL     OW24397   0.560   2.694   6.600 -0.0284 -0.3525  0.2006
 4255SOL    HW124398   0.533   2.736   6.518 -0.6258 -0.6642  0.2409
 4255SOL    HW224399   0.476   2.666   6.637 -0.1315  1.4213  1.3049
 4256SOL     OW24400   0.383   0.642  15.842  0.0557 -0.1141  0.2693
 4256SOL    HW124401   0.342   0.728  15.835 -0.4044 -0.1297  2.7142
 4256SOL    HW224402   0.319   0.593  15.790  0.8757  0.7338 -1.5388
 4257SOL     OW24403   3.835   3.804   1.834 -0.1580 -0.1179  0.4208
 4257SOL    HW124404   3.776   3.842   1.899 -1.0654  0.4525 -0.7296
 4257SOL    HW224405   3.914   3.858   1.846 -3.5099  4.6693  0.6524
 4258SOL     OW24406   1.076   0.685   3.107 -0.9972  0.3487 -0.1137
 4258SOL    HW124407   1.053   0.719   3.021 -2.3522  1.0985  0.5562
 4258SOL    HW224408   1.095   0.765   3.155  1.9259  0.4291 -1.3761
 4259SOL     OW24409   3.321   4.117   8.985 -0.7866 -0.5328  0.0640
 4259SOL    HW124410   3.358   4.079   9.065 -0.0229  2.5879  1.2089
 4259SOL    HW224411   3.389   4.175   8.952  0.0095  0.5199  3.4827
 4260SOL     OW24412   1.845   0.889   1.784 -0.4017 -0.1461  0.2013
 4260SOL    HW124413   1.815   0.950   1.852  0.4846  2.2796 -1.6171
 4260SOL    HW224414   1.764   0.837   1.775  0.1819 -0.7550 -1.4701
 4261SOL     OW24415   1.937   4.562  17.201  0.1871 -0.8904 -0.1110
 4261SOL    HW124416   1.844   4.584  17.201 -0.0698 -2.0012  0.6380
 4261SOL    HW224417   1.942   4.485  17.258  0.4969  0.3423  1.5401
 4262SOL     OW24418   3.971   1.613   4.697  0.5686 -0.1875 -0.2352
 4262SOL    HW124419   3.992   1.627   4.789 -0.7312  1.0526 -0.1205
 4262SOL    HW224420   3.931   1.695   4.667 -2.1097 -1.7787 -1.0500
 4263SOL     OW24421   2.323   3.428   3.749  0.2692 -0.5241  0.1478
 4263SOL    HW124422   2.323   3.488   3.675 -0.2768 -0.6240  0.0614
 4263SOL    HW224423   2.241   3.439   3.798  0.7801  0.0746  0.8627
 4264SOL     OW24424   4.486   0.346   5.513 -0.5537 -0.0510 -0.1838
 4264SOL    HW124425   4.417   0.295   5.472 -1.8508 -0.8026  2.9663
 4264SOL    HW224426   4.562   0.316   5.462  0.3490  1.5864  0.2141
 4265SOL     OW24427   1.667   1.420  15.422 -0.3811 -0.3900 -0.1354
 4265SOL    HW124428   1.741   1.383  15.471  0.3913  0.3265 -0.7668
 4265SOL    HW224429   1.616   1.441  15.500 -1.3029  0.8283 -1.0742
 4266SOL     OW24430   4.150   2.192   7.539  0.1400  0.6568  0.2929
 4266SOL    HW124431   4.199   2.270   7.512 -1.4572  1.5003 -0.1029
 4266SOL    HW224432   4.062   2.224   7.525  0.4655  1.6502  0.5019
 4267SOL     OW24433   4.470   0.867  12.039 -0.2775 -0.1502 -0.7348
 4267SOL    HW124434   4.547   0.841  11.988  0.5892  2.4102 -0.7293
 4267SOL    HW224435   4.410   0.797  12.012 -1.3175 -0.3686  2.1208
 4268SOL     OW24436   4.405   3.472   6.416 -0.0264  0.5229  0.4907
 4268SOL    HW124437   4.446   3.411   6.356 -2.1801 -0.5453  0.0878
 4268SOL    HW224438   4.417   3.564   6.391  0.6332  0.2436 -0.2225
 4269SOL     OW24439   0.998   0.348   5.437 -0.3591  0.3970 -0.0009
 4269SOL    HW124440   1.079   0.330   5.389 -0.5020  2.1623 -0.9084
 4269SOL    HW224441   0.935   0.363   5.367  1.0442  1.5214 -1.0466
 4270SOL     OW24442   3.173   0.004   4.696  0.2845 -0.0048  0.2079
 4270SOL    HW124443   3.199   0.025   4.786 -1.6320  1.3747  0.4513
 4270SOL    HW224444   3.237   0.050   4.642  1.5141  0.9323  2.4869
 4271SOL     OW24445   1.135   3.119   8.171  0.1702 -0.4058 -0.2893
 4271SOL    HW124446   1.178   3.047   8.218 -0.3474 -0.3258  0.3016
 4271SOL    HW224447   1.129   3.098   8.078  2.5340 -1.5915 -0.1821
 4272SOL     OW24448   2.411   1.544   2.520  0.1670  0.5978 -0.5001
 4272SOL    HW124449   2.377   1.552   2.609 -2.0654 -2.7040 -1.0340
 4272SOL    HW224450   2.484   1.486   2.539 -0.8177 -1.0386 -1.6892
 4273SOL     OW24451   1.741   0.225  15.639 -0.0011 -0.1471  0.4543
 4273SOL    HW124452   1.788   0.148  15.607  0.6236  0.4494 -0.0906
 4273SOL    HW224453   1.794   0.295  15.600 -0.6663  0.0247 -0.1406
 4274SOL     OW24454   0.383   2.262   1.611 -0.2926 -0.7581 -0.5450
 4274SOL    HW124455   0.421   2.186   1.655 -0.4947 -0.5853 -0.0719
 4274SOL    HW224456   0.343   2.308   1.686  2.6594 -0.2741  0.7494
 4275SOL     OW24457   0.961   2.066  10.485 -0.0745 -0.4645 -0.2746
 4275SOL    HW124458   0.882   2.013  10.473  0.1300 -0.9166  0.3914
 4275SOL    HW224459   0.918   2.152  10.492  0.3416 -0.3183  0.4448
 4276SOL     OW24460   3.047   1.498   6.555  0.4044 -0.1581  0.0210
 4276SOL    HW124461   2.997   1.579   6.550  2.0470  0.6258 -4.4992
 4276SOL    HW224462   3.096   1.489   6.473 -0.1832  1.6287 -0.5251
 4277SOL     OW24463   4.267   1.702   5.734 -0.6503  0.5277  0.2589
 4277SOL    HW124464   4.342   1.717   5.677  2.1507 -1.8082  3.4148
 4277SOL    HW224465   4.221   1.786   5.740 -1.1319  0.2374  0.6497
 4278SOL     OW24466   4.112   0.254   8.564 -0.6364 -0.0783 -0.8312
 4278SOL    HW124467   4.073   0.211   8.641  0.3359  0.2914 -0.1278
 4278SOL    HW224468   4.133   0.340   8.601 -2.1957  1.0149 -2.4622
 4279SOL     OW24469   3.459   3.671   9.613  0.6189  0.1440 -0.2982
 4279SOL    HW124470   3.386   3.615   9.641  0.6370 -0.3414 -1.2267
 4279SOL    HW224471   3.505   3.692   9.694  1.8970 -0.3498 -0.8911
 4280SOL     OW24472   3.603   1.854   4.494 -0.2193 -0.5972 -0.4283
 4280SOL    HW124473   3.626   1.870   4.402  0.1406 -1.2164 -0.4406
 4280SOL    HW224474   3.549   1.933   4.503  0.6618 -0.1695  1.0522
 4281SOL     OW24475   4.460   3.484   4.989 -0.1366  0.2121  0.4536
 4281SOL    HW124476   4.517   3.554   4.959 -0.5291  0.9515  1.4258
 4281SOL    HW224477   4.507   3.446   5.063  1.4150  0.0330 -0.6257
 4282SOL     OW24478   3.149   2.035   7.560  0.4025 -0.1638  0.2393
 4282SOL    HW124479   3.175   1.967   7.622  2.7690  1.0740  0.6260
 4282SOL    HW224480   3.055   2.023   7.546  0.4283 -0.3566  0.2294
 4283SOL     OW24481   3.535   0.617   1.485 -0.1603 -0.0049  0.2711
 4283SOL    HW124482   3.472   0.686   1.507 -1.0565 -1.1447  1.2967
 4283SOL    HW224483   3.594   0.657   1.421  0.3490  0.5742  1.1014
 4284SOL     OW24484   1.559   3.660   9.973 -0.3892 -0.8715 -0.3894
 4284SOL    HW124485   1.540   3.586   9.915 -0.8680 -1.3411  0.3754
 4284SOL    HW224486   1.470   3.665  10.008 -1.0403 -1.9365 -1.8549
 4285SOL     OW24487   1.433   1.844  15.460 -0.4881  0.8339 -0.2901
 4285SOL    HW124488   1.485   1.771  15.426 -1.5249 -0.3854  0.7469
 4285SOL    HW224489   1.415   1.888  15.377  1.1367  2.8141  0.4140
 4286SOL     OW24490   1.891   0.032  10.499  0.2586 -0.6508 -0.1642
 4286SOL    HW124491   1.943   0.006  10.576 -0.5104 -1.9400 -0.0646
 4286SOL    HW224492   1.890   4.686  10.448  1.0495  0.2316 -1.5791
 4287SOL     OW24493   0.148   3.497   1.779 -0.7147  0.4207  0.2387
 4287SOL    HW124494   0.190   3.493   1.865  1.7403 -2.1611 -1.0611
 4287SOL    HW224495   0.145   3.402   1.770  1.5118  0.2144  1.3709
 4288SOL     OW24496   3.793   1.655   2.350  0.0800 -0.4382  0.4452
 4288SOL    HW124497   3.879   1.697   2.355 -0.8751  1.7752 -1.5342
 4288SOL    HW224498   3.792   1.639   2.256 -0.7600 -0.2907  0.4265
 4289SOL     OW24499   1.287   4.433   8.486 -0.2357  0.5391  0.1004
 4289SOL    HW124500   1.200   4.396   8.466 -0.0028  1.3421 -2.4067
 4289SOL    HW224501   1.327   4.351   8.514  2.2018  1.7257  0.0993
 4290SOL     OW24502   3.035   3.760   9.730 -0.4376 -0.2206  0.4530
 4290SOL    HW124503   3.009   3.723   9.646 -0.9033 -0.8718  0.8855
 4290SOL    HW224504   3.018   3.853   9.717 -2.7494 -0.8479 -0.9176
 4291SOL     OW24505   3.508   0.355  12.202 -0.2470 -0.5505 -0.1708
 4291SOL    HW124506   3.473   0.313  12.280  1.5285 -0.6866  0.5632
 4291SOL    HW224507   3.431   0.408  12.181  0.4563  0.4521 -0.2397
 4292SOL     OW24508   4.482   1.436   3.960  0.3146 -0.2745  0.0975
 4292SOL    HW124509   4.442   1.404   4.041 -1.2522 -0.7163 -0.8632
 4292SOL    HW224510   4.494   1.351   3.920 -1.2395 -0.4294 -0.0537
 4293SOL     OW24511   0.725   3.813   6.744  0.5336 -0.2646  0.6524
 4293SOL    HW124512   0.733   3.820   6.649  0.8620  1.1836  0.7822
 4293SOL    HW224513   0.657   3.871   6.777  1.5115  0.1583  1.9082
 4294SOL     OW24514   1.379   3.799   8.182 -0.1687  0.2038 -0.6482
 4294SOL    HW124515   1.394   3.814   8.088 -0.8048 -1.4108 -1.0137
 4294SOL    HW224516   1.441   3.728   8.198 -2.2735 -1.4611  0.0904
 4295SOL     OW24517   1.777   1.801  11.692 -0.5135 -0.0437 -0.3610
 4295SOL    HW124518   1.757   1.795  11.786 -1.3269 -1.4032 -0.6207
 4295SOL    HW224519   1.856   1.746  11.690 -0.7140 -0.3916  1.1980
 4296SOL     OW24520   0.412   0.790  11.642  0.2183  0.5317 -0.5050
 4296SOL    HW124521   0.370   0.739  11.710  3.1536  2.3178  2.6686
 4296SOL    HW224522   0.485   0.728  11.630 -0.1052  0.1793 -0.6424
 4297SOL     OW24523   2.331   3.541   8.193 -0.0493  0.1387  0.4939
 4297SOL    HW124524   2.251   3.550   8.245  0.3980  1.3829  0.9562
 4297SOL    HW224525   2.372   3.625   8.211 -0.0516  0.7499 -2.3602
 4298SOL     OW24526   0.422   1.114  15.662 -0.0263  1.0756  0.5383
 4298SOL    HW124527   0.372   1.044  15.705  0.9340 -0.5090 -0.8903
 4298SOL    HW224528   0.382   1.101  15.576  1.8604  1.2574 -0.3660
 4299SOL     OW24529   3.554   1.465  13.164 -0.3945  0.0918  0.1136
 4299SOL    HW124530   3.601   1.514  13.231 -1.6237 -0.4669  1.3779
 4299SOL    HW224531   3.549   1.375  13.195 -0.3074  0.0688  0.0617
 4300SOL     OW24532   0.710   0.066  13.631  0.3441  0.1263 -0.1617
 4300SOL    HW124533   0.693   0.091  13.722 -0.7532 -2.1659  0.2564
 4300SOL    HW224534   0.797   0.026  13.637  0.3947 -0.1026 -2.4151
 4301SOL     OW24535   0.494   1.340   9.948 -0.2069 -0.0193 -0.3271
 4301SOL    HW124536   0.481   1.368  10.038 -1.0320 -1.7620  0.0866
 4301SOL    HW224537   0.566   1.400   9.928 -0.6036  0.2014 -1.1083
 4302SOL     OW24538   4.351   1.012  14.854 -0.1872  0.1360 -0.0938
 4302SOL    HW124539   4.404   1.078  14.809  1.6681 -1.5421 -0.3254
 4302SOL    HW224540   4.291   0.980  14.786  0.9941 -1.9529 -0.1497
 4303SOL     OW24541   3.010   2.954   2.395 -0.5953  0.0230 -0.5591
 4303SOL    HW124542   2.966   3.015   2.336  1.6816  1.7255 -0.4987
 4303SOL    HW224543   2.949   2.952   2.469  2.8793  2.3813  2.3733
 4304SOL     OW24544   0.933   1.450   6.560  0.5129 -0.3233 -0.3206
 4304SOL    HW124545   0.961   1.504   6.485  0.7428 -0.4456 -0.3242
 4304SOL    HW224546   0.854   1.502   6.571  1.6586  2.1595 -3.6894
 4305SOL     OW24547   2.955   0.754   7.136 -0.3636 -0.0149 -0.3133
 4305SOL    HW124548   2.962   0.849   7.126 -2.1756  0.1529  0.1348
 4305SOL    HW224549   2.972   0.735   7.228 -1.2612 -0.1075 -0.1697
 4306SOL     OW24550   2.131   1.938  12.203  0.3322 -0.0556  0.2839
 4306SOL    HW124551   2.102   1.912  12.115  0.7169 -1.2647  0.5059
 4306SOL    HW224552   2.094   1.871  12.261  0.7947 -1.1782 -0.6969
 4307SOL     OW24553   4.424   0.871  12.387 -0.1399 -0.6420  0.6036
 4307SOL    HW124554   4.341   0.848  12.430 -0.6267  1.5674  0.8563
 4307SOL    HW224555   4.394   0.896  12.300  0.4616  0.2950  0.6634
 4308SOL     OW24556   1.609   2.924  10.293  0.2645 -0.4460  0.1868
 4308SOL    HW124557   1.667   2.986  10.247 -0.2252  1.7077  2.4672
 4308SOL    HW224558   1.584   2.968  10.374  2.2232  0.2363  0.4393
 4309SOL     OW24559   0.032   4.309   2.385  0.1022 -0.1707 -0.2327
 4309SOL    HW124560   4.678   4.341   2.390  0.1548  0.3188 -2.4315
 4309SOL    HW224561   0.078   4.385   2.349 -1.1654  0.9078  0.4394
 4310SOL     OW24562   4.671   3.855   8.169  0.0412  0.2000 -0.3247
 4310SOL    HW124563   4.729   3.797   8.120 -1.2083 -2.1831  1.0081
 4310SOL    HW224564   4.588   3.821   8.136 -0.2293  1.8858 -1.3736
 4311SOL     OW24565   4.721   3.255   2.966  0.3438  0.1198 -0.3370
 4311SOL    HW124566   4.626   3.259   2.976  0.3015  2.3543 -1.7260
 4311SOL    HW224567   0.001   3.171   2.922  0.9324 -0.2531  0.5896
 4312SOL     OW24568   4.103   1.180   6.521 -0.0320  0.0206 -0.5896
 4312SOL    HW124569   4.144   1.266   6.535  1.3711 -0.9558  1.3330
 4312SOL    HW224570   4.015   1.213   6.539 -0.4809 -1.1817 -0.6220
 4313SOL     OW24571   0.397   3.732   8.408 -0.1157  0.1479  0.6043
 4313SOL    HW124572   0.394   3.817   8.364  0.5975 -0.9558 -1.6395
 4313SOL    HW224573   0.317   3.736   8.459  0.1535  1.4071  0.9135
 4314SOL     OW24574   1.199   4.524   3.737  0.3014  0.0313  0.4217
 4314SOL    HW124575   1.168   4.489   3.820 -0.4854  0.0799  0.1443
 4314SOL    HW224576   1.272   4.581   3.761  1.2640  0.1827 -2.7945
 4315SOL     OW24577   3.143   2.613  12.807  0.6867  0.1315 -0.0575
 4315SOL    HW124578   3.200   2.578  12.875 -0.9720 -1.3382  0.5418
 4315SOL    HW224579   3.097   2.682  12.854 -1.9340 -1.0827 -0.8702
 4316SOL     OW24580   4.237   0.081   7.868  0.1180 -0.0139 -0.0072
 4316SOL    HW124581   4.250   0.175   7.857 -1.2792  0.4007  1.8257
 4316SOL    HW224582   4.148   0.075   7.834  0.4357  0.2738 -0.8998
 4317SOL     OW24583   1.763   3.576   7.820 -0.1062 -0.1203 -0.5029
 4317SOL    HW124584   1.826   3.534   7.762 -1.1753 -1.7766 -0.4827
 4317SOL    HW224585   1.782   3.547   7.909  0.2876  0.2275 -0.4760
 4318SOL     OW24586   3.909   2.501   2.079 -0.2996 -0.2026 -0.2107
 4318SOL    HW124587   3.963   2.461   2.011  2.8763  0.3495  1.9696
 4318SOL    HW224588   3.819   2.485   2.051 -0.1700 -0.3482 -0.5426
 4319SOL     OW24589   3.362   4.614  10.064  0.2031 -0.0044 -0.5047
 4319SOL    HW124590   3.273   4.629  10.031 -0.2432 -1.2133  0.1180
 4319SOL    HW224591   3.394   4.704  10.062  0.2204 -0.0110 -0.5355
 4320SOL     OW24592   0.140   2.964   5.543 -0.2485 -0.4011  0.1816
 4320SOL    HW124593   0.163   2.943   5.453 -1.0322  0.8516 -0.3200
 4320SOL    HW224594   0.139   2.879   5.588 -1.3923 -0.9778 -0.9341
 4321SOL     OW24595   0.477   1.139  10.299 -0.1221  0.1180  0.0889
 4321SOL    HW124596   0.447   1.103  10.216  0.3520 -1.5937  0.6585
 4321SOL    HW224597   0.409   1.206  10.307  0.1746  0.4168  0.1095
 4322SOL     OW24598   4.678   1.450  11.585 -0.3175  0.3264 -1.0273
 4322SOL    HW124599   4.668   1.376  11.525 -1.7334  0.8750 -1.4771
 4322SOL    HW224600   0.038   1.454  11.592 -0.5389  4.3578 -0.2804
 4323SOL     OW24601   4.330   0.198   2.954  0.0108  0.3178  0.7517
 4323SOL    HW124602   4.374   0.147   2.886 -2.9617 -2.7671  1.1222
 4323SOL    HW224603   4.391   0.272   2.956 -0.8670  0.9985  2.5451
 4324SOL     OW24604   1.205   1.201   7.013  0.2308 -0.0886 -0.1754
 4324SOL    HW124605   1.195   1.266   6.943 -2.7217 -1.9998 -1.5180
 4324SOL    HW224606   1.153   1.246   7.080  0.7998  0.0848  0.1493
 4325SOL     OW24607   3.684   1.306  17.595  0.1899 -0.0838 -0.1460
 4325SOL    HW124608   3.590   1.327  17.588  0.8199  1.9556 -2.7642
 4325SOL    HW224609   3.714   1.397  17.594 -2.2168  0.7353  1.3847
 4326SOL     OW24610   0.563   4.080   3.589 -0.5405 -0.2534 -0.4184
 4326SOL    HW124611   0.501   4.057   3.658  0.7219  0.6135  1.0167
 4326SOL    HW224612   0.503   4.125   3.530 -1.3716 -0.6622  0.1002
 4327SOL     OW24613   2.420   3.565   0.133  0.0983 -0.7565  0.4217
 4327SOL    HW124614   2.383   3.499   0.193  1.3886 -1.1046  0.8427
 4327SOL    HW224615   2.452   3.631   0.194 -2.0118  1.4315 -0.8586
 4328SOL     OW24616   1.005   3.571   7.165  0.5425 -0.3462 -0.0392
 4328SOL    HW124617   0.958   3.540   7.242 -1.1029 -1.5328 -1.5062
 4328SOL    HW224618   0.930   3.591   7.109  0.7348 -1.1588 -0.5937
 4329SOL     OW24619   0.065   1.817   7.058  0.0007 -0.2870 -0.2142
 4329SOL    HW124620   0.042   1.796   6.968 -0.4183  0.8549 -0.3758
 4329SOL    HW224621   4.713   1.827   7.095 -0.5492  0.0889 -1.6212
 4330SOL     OW24622   3.637   2.019   8.671  0.9283 -0.0500  0.1315
 4330SOL    HW124623   3.542   2.031   8.681  1.2027  2.0862  0.1297
 4330SOL    HW224624   3.657   2.105   8.635  1.0152 -0.2315 -0.2531
 4331SOL     OW24625   1.080   2.163  11.712 -0.4598  0.1739 -0.6079
 4331SOL    HW124626   1.107   2.081  11.754 -1.3460  0.6831  0.9898
 4331SOL    HW224627   1.000   2.137  11.667 -1.3704  0.5791  0.7563
 4332SOL     OW24628   3.592   3.170   8.910 -0.4000 -0.0286 -0.5585
 4332SOL    HW124629   3.600   3.108   8.982  1.6602  0.5163 -0.3450
 4332SOL    HW224630   3.509   3.212   8.935  0.0135  0.2966  0.2435
 4333SOL     OW24631   0.615   0.402  12.061 -0.5737  0.3496 -0.5177
 4333SOL    HW124632   0.612   0.450  11.978 -1.3686 -0.6590 -1.0871
 4333SOL    HW224633   0.634   0.475  12.119 -1.1416 -0.4327  0.6489
 4334SOL     OW24634   3.722   2.392   1.812  0.7312  0.7586  0.0302
 4334SOL    HW124635   3.794   2.433   1.764 -0.2278  1.6273 -0.6795
 4334SOL    HW224636   3.774   2.336   1.868 -1.3511  1.2786  2.4758
 4335SOL     OW24637   1.680   2.329   4.351 -0.2859  0.3036 -0.0641
 4335SOL    HW124638   1.775   2.340   4.359 -0.5284 -0.0644  3.4586
 4335SOL    HW224639   1.643   2.416   4.338  0.3810  0.7399  0.8956
 4336SOL     OW24640   4.507   3.857   8.661 -1.1284 -0.4090 -0.3794
 4336SOL    HW124641   4.513   3.764   8.637 -2.7630 -0.0975 -1.9500
 4336SOL    HW224642   4.554   3.897   8.588 -1.7958  0.8621 -0.1042
 4337SOL     OW24643   3.741   3.672  14.592  0.1509 -0.8619 -0.3408
 4337SOL    HW124644   3.736   3.762  14.562 -1.9388 -1.2355 -1.0641
 4337SOL    HW224645   3.817   3.638  14.543 -1.6472 -1.7173 -2.5216
 4338SOL     OW24646   3.423   3.702   2.578  0.0473 -0.0795 -0.0354
 4338SOL    HW124647   3.474   3.765   2.630  0.1443 -0.8326  0.7841
 4338SOL    HW224648   3.415   3.764   2.506 -2.1794 -0.0562  0.2375
 4339SOL     OW24649   1.862   3.193   8.315  0.0761  0.3006 -0.5043
 4339SOL    HW124650   1.893   3.105   8.336  0.4527  0.5571  0.0100
 4339SOL    HW224651   1.768   3.176   8.312 -0.1458  1.2848  0.8200
 4340SOL     OW24652   0.671   1.335   3.023  0.4632  0.0448 -0.2405
 4340SOL    HW124653   0.721   1.354   2.943  1.1020  1.1251  0.3970
 4340SOL    HW224654   0.652   1.245   3.000  0.0342 -0.0764  0.6298
 4341SOL     OW24655   4.160   2.020   7.789  0.2728  0.0718  0.6575
 4341SOL    HW124656   4.255   2.013   7.794  0.3273 -0.4162 -1.0020
 4341SOL    HW224657   4.159   2.048   7.698  1.4470  2.4219  1.3606
 4342SOL     OW24658   1.836   1.712  16.816  0.0145 -0.3386  0.1620
 4342SOL    HW124659   1.886   1.651  16.762 -1.9005 -0.3246 -1.6819
 4342SOL    HW224660   1.816   1.771  16.743 -0.2341 -0.2229  0.3213
 4343SOL     OW24661   3.716   2.124   7.874 -0.6223 -0.3496 -0.3557
 4343SOL    HW124662   3.652   2.068   7.917  0.6432 -2.1820 -0.8960
 4343SOL    HW224663   3.788   2.064   7.856  0.4844  0.5875  0.9321
 4344SOL     OW24664   4.132   3.227   9.510 -0.3407  0.1397 -0.8880
 4344SOL    HW124665   4.112   3.269   9.426 -1.6132  1.6366  0.1616
 4344SOL    HW224666   4.059   3.247   9.569  0.0231  0.6324 -0.5921
 4345SOL     OW24667   1.378   4.390   2.357  0.3981  0.1202  0.1277
 4345SOL    HW124668   1.356   4.359   2.445 -1.6212  1.7923  0.2216
 4345SOL    HW224669   1.456   4.335   2.348  1.3955  1.4865  0.3687
 4346SOL     OW24670   0.379   3.601   0.832  0.5240  0.2890 -0.3841
 4346SOL    HW124671   0.352   3.663   0.765  0.2677 -0.9089 -1.3991
 4346SOL    HW224672   0.473   3.610   0.843  0.4979 -0.9458  0.9785
 4347SOL     OW24673   2.536   3.417   5.444 -0.4139 -0.9150  0.2551
 4347SOL    HW124674   2.527   3.400   5.351  0.3800 -1.3189  0.2594
 4347SOL    HW224675   2.524   3.512   5.452  0.0995 -0.6996 -1.6133
 4348SOL     OW24676   1.860   4.231  17.026 -0.6999 -0.3927 -0.0738
 4348SOL    HW124677   1.885   4.299  16.964 -0.9723 -0.4337 -0.2252
 4348SOL    HW224678   1.924   4.241  17.097 -0.3102 -1.8444 -0.2099
 4349SOL     OW24679   4.374   2.520  11.599 -0.1248 -0.3153  0.0245
 4349SOL    HW124680   4.317   2.569  11.658 -1.5236  0.7091 -2.1708
 4349SOL    HW224681   4.455   2.564  11.626 -0.7003 -0.4606  1.9712
 4350SOL     OW24682   0.248   2.850  10.489 -0.1982  0.1688 -0.3425
 4350SOL    HW124683   0.266   2.911  10.560 -0.6863  0.8728 -0.8240
 4350SOL    HW224684   0.171   2.806  10.526  0.8104 -0.4703  1.0047
 4351SOL     OW24685   3.881   0.343   4.767 -0.2379  0.5106 -0.3611
 4351SOL    HW124686   3.871   0.437   4.749 -0.1041  0.6527  0.2859
 4351SOL    HW224687   3.824   0.334   4.844 -0.8504 -1.9304 -1.1132
 4352SOL     OW24688   1.234   4.595   6.402  0.5873 -0.2080 -0.0037
 4352SOL    HW124689   1.190   4.625   6.323 -0.3675 -0.8222  0.2974
 4352SOL    HW224690   1.172   4.610   6.474 -0.7219  1.1660 -1.4477
 4353SOL     OW24691   0.950   1.068   7.031 -0.0273 -0.3215  0.2199
 4353SOL    HW124692   0.925   1.123   7.105  1.2025 -0.0095  0.4042
 4353SOL    HW224693   1.041   1.086   7.009  0.6716 -1.1931  2.3938
 4354SOL     OW24694   1.153   2.489  15.991  0.0824 -0.4509 -0.4307
 4354SOL    HW124695   1.184   2.399  15.982  0.1791 -0.6528  1.7990
 4354SOL    HW224696   1.223   2.536  15.945 -1.9438  1.0889 -1.9241
 4355SOL     OW24697   0.394   3.910   5.617 -0.4754 -0.2776  0.4297
 4355SOL    HW124698   0.465   3.966   5.649 -0.2954 -0.4429  0.3175
 4355SOL    HW224699   0.320   3.966   5.643 -0.8636  0.0050 -1.2348
 4356SOL     OW24700   3.877   0.604   5.785  0.4167  0.4958 -0.9232
 4356SOL    HW124701   3.957   0.568   5.824  1.5460  4.7540  0.6476
 4356SOL    HW224702   3.826   0.610   5.865  1.3723 -3.0484 -0.0423
 4357SOL     OW24703   4.437   2.946  12.105  0.5030 -0.1102  0.8531
 4357SOL    HW124704   4.458   2.969  12.014  2.4579 -0.4349  1.2067
 4357SOL    HW224705   4.499   2.873  12.115  0.1696 -0.4723  0.2980
 4358SOL     OW24706   3.933   2.422  12.904  0.8069  0.0076  0.0800
 4358SOL    HW124707   3.995   2.487  12.868  0.0050  1.0277  0.5324
 4358SOL    HW224708   3.973   2.337  12.889 -0.6315 -0.5753 -0.4147
 4359SOL     OW24709   2.572   1.051   1.726  0.3391  0.3685 -0.1419
 4359SOL    HW124710   2.557   1.108   1.801 -0.7078 -2.3052  1.6673
 4359SOL    HW224711   2.484   1.019   1.705  0.4443 -0.7060  1.0563
 4360SOL     OW24712   0.909   1.912   1.127 -0.0272 -0.2400 -0.2304
 4360SOL    HW124713   0.934   1.945   1.040 -1.6695  3.2169  0.5863
 4360SOL    HW224714   0.823   1.951   1.138 -1.0059 -2.5073  0.0211
 4361SOL     OW24715   4.248   1.073   7.862  0.3714 -0.1488 -0.3433
 4361SOL    HW124716   4.200   1.107   7.786 -1.2765  0.8689  1.1740
 4361SOL    HW224717   4.238   0.977   7.865 -0.9463 -0.0308 -1.0222
 4362SOL     OW24718   0.395   3.636   9.549  0.5628  0.1466 -0.6235
 4362SOL    HW124719   0.336   3.710   9.562  0.4170 -0.1140  0.2330
 4362SOL    HW224720   0.363   3.564   9.603  0.3744 -0.8747 -2.1023
 4363SOL     OW24721   4.107   3.177  15.295  0.0319 -0.4546  0.5754
 4363SOL    HW124722   4.164   3.159  15.220 -1.2211 -2.0307 -0.0009
 4363SOL    HW224723   4.055   3.252  15.266 -1.6064 -1.7121  0.2425
 4364SOL     OW24724   2.411   0.871   7.573 -0.3783  0.0717 -0.0688
 4364SOL    HW124725   2.400   0.805   7.641 -2.5380  1.2247  0.6983
 4364SOL    HW224726   2.506   0.865   7.567 -0.2291  1.1636  1.1480
 4365SOL     OW24727   1.197   0.263   1.030  0.2393 -0.4022 -0.4901
 4365SOL    HW124728   1.159   0.330   0.973  0.0231  1.7264  2.1690
 4365SOL    HW224729   1.290   0.272   1.008 -0.0541  3.4713 -0.0408
 4366SOL     OW24730   0.724   2.426  16.006 -0.5931  0.5840 -0.3167
 4366SOL    HW124731   0.790   2.465  15.948  0.8626 -2.2445 -0.5564
 4366SOL    HW224732   0.780   2.351  16.027 -3.8565 -1.4347  0.9636
 4367SOL     OW24733   1.501   2.675   5.447  0.3079  0.1772  0.2598
 4367SOL    HW124734   1.513   2.586   5.412 -2.3611 -0.2452  0.4034
 4367SOL    HW224735   1.406   2.662   5.455 -0.0373  2.2571 -0.5138
 4368SOL     OW24736   2.972   4.489  10.559  0.5523  0.1349  0.4997
 4368SOL    HW124737   2.884   4.452  10.572  1.1490 -1.5951 -0.5208
 4368SOL    HW224738   3.001   4.444  10.481  3.5300  0.3506  1.5020
 4369SOL     OW24739   4.614   2.048   4.742  0.6124 -0.0695  0.7256
 4369SOL    HW124740   4.705   2.076   4.747  0.7028 -0.3963  0.9736
 4369SOL    HW224741   4.618   1.960   4.780  0.1945 -0.2232  0.4251
 4370SOL     OW24742   3.471   4.008   9.181 -0.0635 -0.3458 -0.1853
 4370SOL    HW124743   3.548   3.956   9.202  1.3379  2.6049  2.0183
 4370SOL    HW224744   3.426   3.967   9.255 -0.6690 -2.3157 -1.6722
 4371SOL     OW24745   0.436   1.101  16.418 -0.2649 -0.5804 -0.0227
 4371SOL    HW124746   0.501   1.170  16.406 -0.5882 -0.5407 -1.5695
 4371SOL    HW224747   0.478   1.034  16.472 -2.7654 -0.6941  1.7743
 4372SOL     OW24748   0.124   0.242  15.661 -0.2937  0.3347 -0.3044
 4372SOL    HW124749   0.139   0.157  15.619 -0.2094  0.6495 -0.8981
 4372SOL    HW224750   0.141   0.208  15.749  0.1393 -1.4937 -1.0770
 4373SOL     OW24751   4.615   0.792  13.883 -0.5343 -0.0583  0.4863
 4373SOL    HW124752   4.613   0.811  13.977 -1.5056  1.2647  0.2056
 4373SOL    HW224753   4.555   0.718  13.879  0.3585 -0.6854 -1.6286
 4374SOL     OW24754   2.685   4.536   7.996  0.2712 -0.5377 -0.0090
 4374SOL    HW124755   2.739   4.487   7.935  1.9934 -0.5127  1.5011
 4374SOL    HW224756   2.712   4.499   8.080  1.8979  1.1145  0.2021
 4375SOL     OW24757   2.862   2.655   3.983 -0.2361  0.1141  0.8565
 4375SOL    HW124758   2.840   2.614   3.899 -0.0089  1.1074  0.3049
 4375SOL    HW224759   2.918   2.592   4.027  0.6843  0.4404  0.1397
 4376SOL     OW24760   0.118   3.890   3.854 -0.1041  0.3786 -0.1073
 4376SOL    HW124761   0.107   3.859   3.944  0.0314  1.6904  0.3553
 4376SOL    HW224762   0.026   3.899   3.831 -1.0094  0.8905  3.7781
 4377SOL     OW24763   0.290   2.707   0.737 -0.1026 -0.1288  0.1944
 4377SOL    HW124764   0.267   2.650   0.811 -2.3418 -2.0378 -1.9544
 4377SOL    HW224765   0.263   2.793   0.768 -1.2291 -0.0492 -0.9913
 4378SOL     OW24766   0.212   2.217   7.963  0.2351  0.4044 -0.0660
 4378SOL    HW124767   0.128   2.260   7.947  0.3436  1.1385  1.2896
 4378SOL    HW224768   0.248   2.206   7.875  1.6517 -0.0030  0.5542
 4379SOL     OW24769   3.959   2.282   3.348  0.8315 -0.0039 -0.1446
 4379SOL    HW124770   3.938   2.281   3.441 -2.4467 -0.1561 -0.8821
 4379SOL    HW224771   3.973   2.191   3.322 -1.7704 -0.7469  1.0269
 4380SOL     OW24772   1.774   2.879   3.421 -0.4803  0.0964  0.4414
 4380SOL    HW124773   1.834   2.899   3.349 -0.0268 -2.4824  0.0979
 4380SOL    HW224774   1.690   2.906   3.383  1.0515  1.7655 -1.7229
 4381SOL     OW24775   3.188   0.959   9.221 -0.1011  0.2940 -0.3683
 4381SOL    HW124776   3.200   1.022   9.150 -0.2354  0.2690 -0.4126
 4381SOL    HW224777   3.200   1.007   9.304  1.1529  0.3077 -0.5586
 4382SOL     OW24778   3.604   4.229   6.649  0.3808  0.5100 -0.2013
 4382SOL    HW124779   3.583   4.227   6.743 -0.1186  1.1407 -0.2930
 4382SOL    HW224780   3.526   4.200   6.603 -0.7851 -0.0273  2.0920
 4383SOL     OW24781   3.249   0.606   4.267 -0.3808  0.1697 -0.2116
 4383SOL    HW124782   3.182   0.657   4.313  0.0909  0.1309  0.5286
 4383SOL    HW224783   3.295   0.566   4.341 -3.4032 -1.5187  0.7016
 4384SOL     OW24784   0.332   0.098  10.003 -0.0888  0.0341  1.1138
 4384SOL    HW124785   0.360   0.014  10.039 -2.1329 -0.9036  0.5231
 4384SOL    HW224786   0.320   0.079   9.910  0.9071  0.8778  0.8192
 4385SOL     OW24787   1.534   2.268   8.612  0.1605 -0.4520 -0.0245
 4385SOL    HW124788   1.458   2.272   8.670  0.1056  2.0675 -0.2852
 4385SOL    HW224789   1.600   2.240   8.676  0.4430 -0.1015 -0.1620
 4386SOL     OW24790   1.214   0.300   5.263 -0.6675  0.3698 -0.9438
 4386SOL    HW124791   1.266   0.366   5.216 -1.8830  1.5338 -0.6448
 4386SOL    HW224792   1.251   0.217   5.234  1.1057  0.7662  0.1673
 4387SOL     OW24793   3.482   3.116   9.199  0.6189 -0.6475 -0.5243
 4387SOL    HW124794   3.434   3.194   9.171  0.0690 -0.6375  0.4217
 4387SOL    HW224795   3.412   3.051   9.198  1.1688 -1.1597 -3.2825
 4388SOL     OW24796   1.902   0.462   4.352  0.0680 -0.4979  0.1039
 4388SOL    HW124797   1.866   0.381   4.389  1.8019 -0.7882  1.1894
 4388SOL    HW224798   1.831   0.525   4.358  0.6609  0.3018 -1.3781
 4389SOL     OW24799   2.852   1.936   4.624  0.0915  0.5602  0.1256
 4389SOL    HW124800   2.826   1.849   4.597  2.5373 -0.0392 -0.3301
 4389SOL    HW224801   2.838   1.932   4.718  0.8838  1.8899  0.3039
 4390SOL     OW24802   3.437   0.598  15.875  0.3727  0.2778  0.1482
 4390SOL    HW124803   3.348   0.610  15.907  0.2631 -1.1222  0.3611
 4390SOL    HW224804   3.445   0.506  15.898 -2.5777 -0.0023  0.0575
 4391SOL     OW24805   3.102   3.826   5.152  0.1999  0.0181 -0.3305
 4391SOL    HW124806   3.067   3.828   5.241 -1.4633  1.9871 -1.0278
 4391SOL    HW224807   3.196   3.818   5.166  0.6365  3.3441 -1.1636
 4392SOL     OW24808   2.634   3.134   5.426 -0.4936 -0.3557 -0.0242
 4392SOL    HW124809   2.611   3.101   5.339  0.8383 -0.9347 -0.1481
 4392SOL    HW224810   2.634   3.227   5.402 -0.9464 -0.0627  1.1081
 4393SOL     OW24811   2.983   4.289   3.147  0.9593 -0.0096 -0.5387
 4393SOL    HW124812   2.941   4.207   3.120  0.3563  0.3649 -0.7354
 4393SOL    HW224813   2.981   4.281   3.243 -2.0685  1.6398 -0.4630
 4394SOL     OW24814   3.617   2.187   3.158 -0.0828  0.7549  0.5552
 4394SOL    HW124815   3.700   2.146   3.131 -0.8047  0.2527 -0.9232
 4394SOL    HW224816   3.624   2.264   3.101 -1.7522  0.6403  0.1952
 4395SOL     OW24817   3.187   4.384   6.967  0.2532 -0.0853  0.1440
 4395SOL    HW124818   3.203   4.338   6.885  0.9258  0.7738 -0.2094
 4395SOL    HW224819   3.091   4.385   6.972  0.1376  0.9853 -2.1137
 4396SOL     OW24820   1.538   3.396   7.096 -0.0568  0.0654  0.0826
 4396SOL    HW124821   1.560   3.407   7.189 -2.8079  2.6221  0.4056
 4396SOL    HW224822   1.473   3.463   7.079 -0.7980 -0.5936  0.2996
 4397SOL     OW24823   0.765   3.450   2.241 -0.3411 -0.2626  0.5046
 4397SOL    HW124824   0.699   3.420   2.178  0.5095 -0.0753 -0.4720
 4397SOL    HW224825   0.742   3.394   2.315  2.2127 -0.2621  1.2744
 4398SOL     OW24826   2.876   1.371  13.881  0.2560 -0.2948  0.4643
 4398SOL    HW124827   2.800   1.350  13.935  0.1657  0.9237  0.8251
 4398SOL    HW224828   2.865   1.295  13.824 -0.8796  0.3148 -0.1462
 4399SOL     OW24829   2.364   3.622   5.486  0.0194  0.2456  0.7084
 4399SOL    HW124830   2.279   3.661   5.506 -1.3534 -2.4009  0.1215
 4399SOL    HW224831   2.334   3.531   5.484 -0.6114  0.4508  0.5422
 4400SOL     OW24832   0.138   4.346   5.660 -0.5218 -0.0689  0.8088
 4400SOL    HW124833   0.088   4.427   5.655  1.0442  0.7574 -1.6090
 4400SOL    HW224834   0.200   4.363   5.589  1.0030  0.4580  2.2828
 4401SOL     OW24835   1.423   1.739   0.120 -0.4186  0.1761 -0.9907
 4401SOL    HW124836   1.479   1.700   0.188 -1.1016  0.2886 -0.3715
 4401SOL    HW224837   1.449   1.689   0.043 -0.6672 -0.9562 -0.3377
 4402SOL     OW24838   0.452   0.062   8.196 -0.0755  0.5392 -0.0725
 4402SOL    HW124839   0.531   0.029   8.153  0.8651 -0.6203  2.5754
 4402SOL    HW224840   0.485   0.099   8.278  0.7765 -1.0533  0.3003
 4403SOL     OW24841   0.263   4.702   6.974 -0.1046 -0.3514  0.2225
 4403SOL    HW124842   0.285   0.056   6.947 -1.9492  0.5213  1.6854
 4403SOL    HW224843   0.287   4.661   6.891  2.2595  0.0460  0.7125
 4404SOL     OW24844   1.334   4.575   3.254 -0.1741  0.2125  0.2013
 4404SOL    HW124845   1.272   4.505   3.232  0.0430 -0.2309  0.9846
 4404SOL    HW224846   1.398   4.566   3.183 -0.7240 -0.8961 -0.1618
 4405SOL     OW24847   3.051   0.349   5.382 -0.3255  0.5984  0.3205
 4405SOL    HW124848   2.998   0.424   5.352 -1.9247 -0.1415  1.2907
 4405SOL    HW224849   3.131   0.399   5.399 -0.9114  1.2553  1.1841
 4406SOL     OW24850   0.985   0.294   7.141  0.0984 -0.4303  0.1235
 4406SOL    HW124851   1.012   0.379   7.105  0.6597 -1.0353 -0.8883
 4406SOL    HW224852   1.061   0.272   7.195  1.3811  0.2012 -1.4040
 4407SOL     OW24853   0.500   0.391   7.998 -0.3871  0.1537  0.7718
 4407SOL    HW124854   0.478   0.300   8.019 -1.8649  0.2764 -0.2180
 4407SOL    HW224855   0.595   0.394   7.991 -0.5813 -0.9447 -2.3517
 4408SOL     OW24856   3.375   2.164   9.859  0.1018 -0.0540 -0.2397
 4408SOL    HW124857   3.443   2.221   9.823  1.0221 -0.8826  0.1939
 4408SOL    HW224858   3.397   2.082   9.814  0.1057  1.0290 -2.1881
 4409SOL     OW24859   1.319   3.895   3.069  0.3552  0.1484 -0.0344
 4409SOL    HW124860   1.409   3.873   3.043  0.7643  2.5639 -0.6925
 4409SOL    HW224861   1.276   3.824   3.022  2.8972 -2.7762  2.0594
 4410SOL     OW24862   3.333   1.614   7.518 -0.0569 -0.2876 -0.2115
 4410SOL    HW124863   3.337   1.523   7.491 -2.6171  0.6463 -3.6925
 4410SOL    HW224864   3.359   1.609   7.610 -1.1277 -1.7976  0.0107
 4411SOL     OW24865   1.508   0.672   3.837  0.5123 -0.1960 -0.3907
 4411SOL    HW124866   1.426   0.681   3.788  1.9550  1.1411 -2.5466
 4411SOL    HW224867   1.515   0.765   3.860  0.1551 -0.0721 -0.7813
 4412SOL     OW24868   1.708   2.936   8.564  0.4491 -0.6161  0.3254
 4412SOL    HW124869   1.793   2.924   8.521  0.1439 -1.3994 -0.0568
 4412SOL    HW224870   1.734   2.912   8.653  0.1458 -2.0634  0.0218
 4413SOL     OW24871   0.905   2.494  15.465 -0.1855  0.0197 -0.1243
 4413SOL    HW124872   0.896   2.567  15.404 -0.8427 -0.6319 -0.8072
 4413SOL    HW224873   0.915   2.422  15.402 -3.0203  1.1599 -1.8789
 4414SOL     OW24874   0.727   0.208   2.187  0.3721 -0.5269 -0.2714
 4414SOL    HW124875   0.820   0.192   2.203  0.0970  0.0292  1.9999
 4414SOL    HW224876   0.683   0.125   2.168 -0.8583  0.4468 -1.6045
 4415SOL     OW24877   0.878   3.933   1.248 -0.2738 -0.0078 -1.0900
 4415SOL    HW124878   0.850   3.990   1.319  1.9479  0.4672 -0.6109
 4415SOL    HW224879   0.804   3.940   1.188 -0.3133 -0.4822 -1.0966
 4416SOL     OW24880   4.283   1.042   4.383 -0.4699 -0.3583  0.7478
 4416SOL    HW124881   4.345   0.997   4.326  0.7544  1.7107  0.4334
 4416SOL    HW224882   4.198   1.022   4.343 -0.7028  1.6655  0.2063
 4417SOL     OW24883   1.069   3.311   5.415  0.2621  0.4594 -0.3659
 4417SOL    HW124884   1.097   3.383   5.471  3.8463  0.2794 -1.9529
 4417SOL    HW224885   0.993   3.351   5.374  0.4598  0.3622 -0.8288
 4418SOL     OW24886   2.702   0.746  13.689  0.6560 -0.6402  0.3078
 4418SOL    HW124887   2.775   0.719  13.635  1.0037  1.5023 -0.2975
 4418SOL    HW224888   2.634   0.713  13.631  1.8871  0.2615 -1.6203
 4419SOL     OW24889   0.698   1.948   4.413  0.1144 -0.2516 -0.0662
 4419SOL    HW124890   0.785   1.980   4.390 -1.4086  3.5148 -0.6561
 4419SOL    HW224891   0.648   2.016   4.368  1.0180  0.5305  0.1013
 4420SOL     OW24892   1.959   0.745   0.950  0.3847 -0.1648  0.9904
 4420SOL    HW124893   1.901   0.693   0.895 -0.0535  0.5581  0.7654
 4420SOL    HW224894   2.023   0.781   0.888 -2.3363  1.2559 -1.0011
 4421SOL     OW24895   2.594   2.826  10.965 -0.0640  0.3816 -0.3931
 4421SOL    HW124896   2.663   2.803  11.027 -2.0550 -1.5593  1.0944
 4421SOL    HW224897   2.602   2.921  10.958  0.5972  0.5440  2.3427
 4422SOL     OW24898   2.680   4.285  10.336  0.4161  0.6269 -0.0240
 4422SOL    HW124899   2.620   4.354  10.305  0.2971  0.2265 -0.6889
 4422SOL    HW224900   2.690   4.302  10.429 -2.0876  0.4822  0.2763
 4423SOL     OW24901   4.201   0.788   8.444  0.0528  0.0604  0.3815
 4423SOL    HW124902   4.183   0.875   8.410 -1.2166 -0.1916  0.4322
 4423SOL    HW224903   4.253   0.746   8.375  0.1293  0.2284  0.3388
 4424SOL     OW24904   1.366   2.868   5.098  0.3095  0.6059 -0.1995
 4424SOL    HW124905   1.329   2.939   5.150  2.8198  0.7314  1.3921
 4424SOL    HW224906   1.461   2.877   5.106  0.3787 -0.3869  0.0535
 4425SOL     OW24907   4.715   2.931   0.888 -0.1300  0.3057 -0.0655
 4425SOL    HW124908   0.021   2.927   0.802 -1.5082  1.6244 -0.7944
 4425SOL    HW224909   0.003   3.023   0.898  2.4539 -0.7082  3.1417
 4426SOL     OW24910   4.627   2.538   9.299  0.2347 -0.3151  0.0391
 4426SOL    HW124911   4.553   2.568   9.353  1.6958 -0.6237  2.2257
 4426SOL    HW224912   4.655   2.622   9.264 -1.8483  0.4747  0.2989
 4427SOL     OW24913   0.551   0.066   7.003 -0.2926 -0.0043  0.1265
 4427SOL    HW124914   0.515   0.102   6.922 -0.5440 -1.3750 -0.3789
 4427SOL    HW224915   0.641   0.094   6.987 -0.8008  1.1748 -0.7332
 4428SOL     OW24916   3.084   0.575   1.551 -0.4187 -0.1546  0.1860
 4428SOL    HW124917   3.069   0.644   1.615 -2.6764  2.2293 -2.9399
 4428SOL    HW224918   3.165   0.597   1.505 -0.0960 -0.8250  0.4308
 4429SOL     OW24919   1.529   0.451   6.170 -0.1423 -0.5338 -0.0665
 4429SOL    HW124920   1.566   0.381   6.117  0.1478  1.5316 -2.6061
 4429SOL    HW224921   1.568   0.439   6.257  2.3802 -0.0852 -1.1401
 4430SOL     OW24922   1.696   0.493   7.167  0.3964  0.3191  0.0349
 4430SOL    HW124923   1.710   0.398   7.164 -0.7660  0.0888  1.5570
 4430SOL    HW224924   1.787   0.511   7.143 -0.0546  0.1437 -1.7523
 4431SOL     OW24925   1.778   1.761   3.861 -0.0190 -0.2091  0.8519
 4431SOL    HW124926   1.792   1.831   3.925 -0.8983 -0.2194  1.0502
 4431SOL    HW224927   1.864   1.738   3.826  0.5840  3.1971  0.0256
 4432SOL     OW24928   0.222   3.286   0.047  0.0230  0.0870  0.3716
 4432SOL    HW124929   0.313   3.269   0.071 -0.1594 -1.9242 -0.4011
 4432SOL    HW224930   0.200   3.196   0.024  0.0137  0.8161 -2.4769
 4433SOL     OW24931   1.746   4.520   2.765 -0.4887  0.1322  0.5894
 4433SOL    HW124932   1.835   4.534   2.796 -0.2678 -2.9719  1.3890
 4433SOL    HW224933   1.698   4.580   2.823  0.4896  0.8626  0.6408
 4434SOL     OW24934   1.006   1.869   5.876 -0.0076  0.0787 -0.1507
 4434SOL    HW124935   0.986   1.790   5.824  0.0221 -0.5967  0.8653
 4434SOL    HW224936   0.975   1.941   5.821  0.4256 -0.8961 -1.6643
 4435SOL     OW24937   0.291   2.668   3.207  0.8603 -0.4170  0.6090
 4435SOL    HW124938   0.335   2.746   3.241 -0.4011  1.5728 -2.2416
 4435SOL    HW224939   0.246   2.632   3.283 -2.6801 -0.8974 -1.7235
 4436SOL     OW24940   1.701   2.769   3.930 -0.3562 -0.7477 -0.0200
 4436SOL    HW124941   1.717   2.697   3.992  1.5736 -1.4780 -1.3457
 4436SOL    HW224942   1.703   2.842   3.991 -1.0935 -1.4415  0.8409
 4437SOL     OW24943   3.406   2.830   5.307 -0.3789  0.6908 -0.0933
 4437SOL    HW124944   3.405   2.809   5.214  0.7406  2.0187 -0.3977
 4437SOL    HW224945   3.344   2.903   5.306 -0.8448  0.3034  0.5754
 4438SOL     OW24946   0.621   3.904   9.445  0.6061 -0.0899 -0.0106
 4438SOL    HW124947   0.530   3.896   9.474  0.7834 -5.4109 -0.9146
 4438SOL    HW224948   0.602   3.881   9.354 -1.0616 -2.9062  1.0386
 4439SOL     OW24949   1.461   0.503   4.330  0.2218 -0.2035  0.2225
 4439SOL    HW124950   1.491   0.496   4.421 -0.1168 -0.2442  0.3324
 4439SOL    HW224951   1.495   0.589   4.303 -0.8096 -0.0415 -0.5719
 4440SOL     OW24952   0.082   2.380   8.270  0.5579  0.1223 -0.1839
 4440SOL    HW124953   0.078   2.408   8.361 -2.3953 -1.0410  0.0513
 4440SOL    HW224954   0.157   2.320   8.267  0.1617 -0.2939 -2.0270
 4441SOL     OW24955   2.229   1.256   8.120  0.2080  0.2798 -0.1594
 4441SOL    HW124956   2.182   1.302   8.050 -0.3107  1.6976  1.1161
 4441SOL    HW224957   2.176   1.177   8.117  0.1955  0.3242 -1.1569
 4442SOL     OW24958   1.650   1.188   4.784  0.7272 -0.1196 -0.4219
 4442SOL    HW124959   1.606   1.176   4.868  1.2488 -0.5537 -0.2112
 4442SOL    HW224960   1.579   1.224   4.730 -0.6646 -2.8662 -0.3976
 4443SOL     OW24961   1.294   3.550   1.726  0.6786  0.1975 -0.0229
 4443SOL    HW124962   1.370   3.549   1.667  1.2067 -2.0476  0.6834
 4443SOL    HW224963   1.239   3.480   1.691  2.6481  0.1829 -3.0619
 4444SOL     OW24964   0.186   4.462  16.132 -0.4620 -0.2725 -0.0762
 4444SOL    HW124965   0.272   4.490  16.100 -0.3774  0.6025  0.9040
 4444SOL    HW224966   0.202   4.438  16.224  1.2096 -0.6007 -0.4521
 4445SOL     OW24967   1.289   2.243  15.612  0.3225  0.1832 -0.0774
 4445SOL    HW124968   1.217   2.269  15.553 -2.0561 -1.6274  2.0142
 4445SOL    HW224969   1.366   2.279  15.570  1.2578 -0.0572  1.4426
 4446SOL     OW24970   2.031   2.861   2.914  0.0218  0.3879 -0.2171
 4446SOL    HW124971   2.052   2.804   2.840  0.5797  2.8973 -1.9690
 4446SOL    HW224972   2.106   2.914   2.940  0.0853  0.2041 -0.0257
 4447SOL     OW24973   3.526   0.984   8.604 -0.5883  0.7615  0.0553
 4447SOL    HW124974   3.556   1.023   8.686 -0.1772  0.1340  0.1980
 4447SOL    HW224975   3.461   1.045   8.569 -0.5208  0.3412 -0.8011
 4448SOL     OW24976   2.368   1.382   7.350  0.0711  0.2540 -0.8305
 4448SOL    HW124977   2.328   1.298   7.329 -1.7890  0.0901  3.3489
 4448SOL    HW224978   2.412   1.407   7.268  2.3145  0.7175  0.5079
 4449SOL     OW24979   2.794   4.189   7.312  0.5828 -0.1994 -0.7260
 4449SOL    HW124980   2.702   4.162   7.307  0.8977 -2.1352  3.1825
 4449SOL    HW224981   2.816   4.177   7.405  1.9956  3.2369 -0.6155
 4450SOL     OW24982   3.876   1.195   8.499 -0.2164 -0.0817 -0.3045
 4450SOL    HW124983   3.811   1.187   8.569  0.6314 -1.1898  0.3602
 4450SOL    HW224984   3.829   1.176   8.417 -1.7975 -0.6614  0.7259
 4451SOL     OW24985   2.887   1.712   6.567 -0.1978 -1.0182 -0.6094
 4451SOL    HW124986   2.907   1.799   6.602  0.0467 -0.9565 -0.9043
 4451SOL    HW224987   2.840   1.729   6.485  0.3501  2.3347 -0.2446
 4452SOL     OW24988   4.144   3.531   5.407 -0.0993 -0.1815  0.6691
 4452SOL    HW124989   4.226   3.565   5.372  0.1367  0.4637  1.8571
 4452SOL    HW224990   4.181   3.454   5.451 -1.7050 -0.8906  0.7580
 4453SOL     OW24991   1.674   3.484   1.924  0.7148  0.6669  0.1031
 4453SOL    HW124992   1.711   3.459   1.840 -1.7096 -1.7584 -0.2417
 4453SOL    HW224993   1.702   3.576   1.923 -0.3145  0.9625 -1.4248
 4454SOL     OW24994   1.172   0.313   2.694 -0.1734  0.1947  0.3350
 4454SOL    HW124995   1.236   0.243   2.677 -2.4544 -0.7262 -4.3795
 4454SOL    HW224996   1.097   0.269   2.655 -0.6307  2.2055 -1.0163
 4455SOL     OW24997   4.651   4.043   5.733  0.6318  0.4003  0.2250
 4455SOL    HW124998   4.693   4.107   5.790  0.3963  1.1318 -0.4204
 4455SOL    HW224999   4.723   3.982   5.716  0.8775  0.7767 -0.0805
 4456SOL     OW25000   1.177   1.381   8.747 -0.4045 -0.4577 -0.7971
 4456SOL    HW125001   1.116   1.448   8.778  1.2774  0.1399  1.2909
 4456SOL    HW225002   1.154   1.304   8.799  0.5421 -2.2485 -3.0684
 4457SOL     OW25003   2.395   4.540  11.841  0.4166 -0.2323 -0.2084
 4457SOL    HW125004   2.397   4.635  11.825 -0.2515 -0.3632 -1.0890
 4457SOL    HW225005   2.410   4.513  11.751  2.9786  0.9529 -0.1394
 4458SOL     OW25006   1.709   2.080   1.934  0.1581  0.3881 -0.2083
 4458SOL    HW125007   1.644   2.102   1.867 -1.8379 -1.9990  0.9555
 4458SOL    HW225008   1.776   2.149   1.937  0.5471  0.1129 -2.0974
 4459SOL     OW25009   0.227   3.017  12.118  0.3417  0.0057 -0.3279
 4459SOL    HW125010   0.237   3.000  12.211 -1.2765 -0.3500 -0.2183
 4459SOL    HW225011   0.306   3.069  12.106  0.5430 -0.0819  0.6494
 4460SOL     OW25012   2.868   3.687  16.776  0.0367 -0.5303 -1.0725
 4460SOL    HW125013   2.811   3.700  16.852  0.1990  2.8245 -1.5143
 4460SOL    HW225014   2.868   3.592  16.768 -0.0462 -0.6500  0.3133
 4461SOL     OW25015   3.707   0.464   5.184  0.0638 -0.5680  0.9166
 4461SOL    HW125016   3.759   0.450   5.263 -0.4634  1.5372  1.6577
 4461SOL    HW225017   3.664   0.545   5.212  0.3464  0.7985 -2.6655
 4462SOL     OW25018   4.426   2.315  17.604  0.4995  0.1825  0.2723
 4462SOL    HW125019   4.358   2.380  17.588 -0.7545 -1.5426 -1.4575
 4462SOL    HW225020   4.473   2.318  17.520  0.2555  0.4329  0.1472
 4463SOL     OW25021   2.338   0.737   4.109 -0.2364  0.9462 -0.0821
 4463SOL    HW125022   2.386   0.819   4.100  0.7471  0.4650  0.6890
 4463SOL    HW225023   2.362   0.685   4.032 -0.0861  0.8570  0.0230
 4464SOL     OW25024   3.268   4.119   3.279 -0.1614  0.5872  0.0697
 4464SOL    HW125025   3.244   4.180   3.210  0.1379 -1.1855 -1.6099
 4464SOL    HW225026   3.356   4.088   3.255  0.4689  1.8626  0.7257
 4465SOL     OW25027   0.504   0.518   8.845  0.1722 -0.1782  0.4045
 4465SOL    HW125028   0.476   0.433   8.878  1.6236 -0.6495  0.4487
 4465SOL    HW225029   0.512   0.506   8.751 -0.3929 -1.0702  0.4737
 4466SOL     OW25030   0.125   3.331   7.454 -0.8069 -0.7894 -0.3235
 4466SOL    HW125031   0.159   3.277   7.525 -2.4672 -0.9997  0.3051
 4466SOL    HW225032   0.195   3.310   7.393 -0.2921 -1.1835  0.4050
 4467SOL     OW25033   3.560   2.096   9.028  0.2946  0.2383 -0.8025
 4467SOL    HW125034   3.605   2.017   9.056 -1.2131 -0.1526  0.5562
 4467SOL    HW225035   3.624   2.159   9.063 -0.9857  1.2332 -0.2294
 4468SOL     OW25036   2.653   0.877  14.239 -0.4185 -0.0410  0.2656
 4468SOL    HW125037   2.668   0.953  14.184  1.9875 -0.0424  0.9057
 4468SOL    HW225038   2.692   0.908  14.321 -1.7786  0.6827  0.6372
 4469SOL     OW25039   3.108   3.754   7.726 -0.1079 -0.1862 -0.3108
 4469SOL    HW125040   3.127   3.805   7.647  0.9820  1.8380  1.2448
 4469SOL    HW225041   3.077   3.826   7.781 -1.8206 -0.8695 -0.3845
 4470SOL     OW25042   4.240   3.981   9.863  0.7623 -0.3152 -0.4392
 4470SOL    HW125043   4.253   3.955   9.954 -2.3591  2.9613  0.9200
 4470SOL    HW225044   4.251   3.899   9.814 -1.6090 -0.1330 -1.2540
 4471SOL     OW25045   2.410   2.287   4.722 -0.2419 -0.2347 -0.2638
 4471SOL    HW125046   2.414   2.345   4.646  1.0633  0.7758  0.5687
 4471SOL    HW225047   2.358   2.335   4.787 -2.5539 -3.2699  0.1196
 4472SOL     OW25048   1.830   3.643   7.226  0.2031  0.2333 -0.1688
 4472SOL    HW125049   1.755   3.703   7.230  0.8017  0.8383  1.9390
 4472SOL    HW225050   1.825   3.614   7.317 -0.9258 -1.1324 -0.6633
 4473SOL     OW25051   4.566   4.480   6.870  0.2946  0.3135 -0.2198
 4473SOL    HW125052   4.540   4.571   6.856 -0.4001  0.1228 -0.1589
 4473SOL    HW225053   4.632   4.494   6.938 -0.5721  0.6063  0.5717
 4474SOL     OW25054   1.541   3.295   3.372 -0.5689 -0.2638  0.2161
 4474SOL    HW125055   1.540   3.214   3.423 -1.5274 -0.2826  0.1645
 4474SOL    HW225056   1.556   3.358   3.442 -0.6851  0.8736 -0.7862
 4475SOL     OW25057   3.006   0.817   9.440 -0.3755 -0.2161 -0.2320
 4475SOL    HW125058   3.005   0.765   9.520  0.2235  0.0100 -0.0800
 4475SOL    HW225059   3.076   0.878   9.463 -1.1330  0.8289 -0.7248
 4476SOL     OW25060   3.986   4.202   2.392 -0.3807  0.0547 -0.0740
 4476SOL    HW125061   3.960   4.179   2.481 -0.8224 -0.6608 -0.3877
 4476SOL    HW225062   3.913   4.165   2.341  0.1494  1.1655 -1.6287
 4477SOL     OW25063   2.126   2.640   5.353  0.2172  0.4009  0.1471
 4477SOL    HW125064   2.057   2.640   5.419  0.8019 -0.0853  0.7500
 4477SOL    HW225065   2.136   2.735   5.342 -1.2939  0.7034  1.4453
 4478SOL     OW25066   2.386   0.471  17.184  0.2959  0.2992  0.4330
 4478SOL    HW125067   2.334   0.392  17.169 -0.2918  0.7211  0.2915
 4478SOL    HW225068   2.324   0.526  17.137 -0.3680 -0.6738  0.1694
 4479SOL     OW25069   1.012   0.104   3.894  0.4174  0.3788 -0.3813
 4479SOL    HW125070   1.083   0.072   3.950 -0.0093 -0.3659 -0.2647
 4479SOL    HW225071   1.064   0.145   3.825  0.4120  3.0923  1.2133
 4480SOL     OW25072   3.458   4.436   3.187  0.0416  0.0226  0.4074
 4480SOL    HW125073   3.386   4.398   3.136  0.0378 -0.2212  0.5940
 4480SOL    HW225074   3.515   4.467   3.116  1.6844 -2.7415  0.4953
 4481SOL     OW25075   3.722   3.551   8.860 -0.0568  0.7398  0.2740
 4481SOL    HW125076   3.740   3.629   8.912 -0.6587  0.6314  0.6460
 4481SOL    HW225077   3.627   3.555   8.849 -0.1737  0.3581  1.1465
 4482SOL     OW25078   0.478   2.715   9.394  0.1714  0.7674 -0.1334
 4482SOL    HW125079   0.505   2.701   9.485  1.9870 -0.2722 -0.8440
 4482SOL    HW225080   0.394   2.670   9.388  0.1383  0.8154 -0.0328
 4483SOL     OW25081   1.543   1.799  16.871 -0.2393 -0.5236 -0.2399
 4483SOL    HW125082   1.585   1.827  16.953 -1.1036 -1.7134  0.6026
 4483SOL    HW225083   1.610   1.807  16.804 -1.8332 -0.0834 -1.7751
 4484SOL     OW25084   2.239   0.378  10.221 -0.2272  0.3637  0.2843
 4484SOL    HW125085   2.148   0.404  10.204 -0.4239 -1.3188 -1.2089
 4484SOL    HW225086   2.261   0.419  10.305 -1.7621 -0.9000  1.2866
 4485SOL     OW25087   4.180   1.599   7.391 -0.8098  0.2373 -0.1926
 4485SOL    HW125088   4.140   1.637   7.469  0.9519  1.7793 -0.0213
 4485SOL    HW225089   4.146   1.654   7.320 -0.3529 -0.8079 -1.2179
 4486SOL     OW25090   0.088   0.498  10.820 -0.7016 -0.4896  0.3473
 4486SOL    HW125091   0.098   0.457  10.906  0.0782  1.9715  1.4479
 4486SOL    HW225092   0.051   0.418  10.783  1.2990 -1.0391 -0.4993
 4487SOL     OW25093   3.132   2.473  10.045 -0.4178  0.2719  0.1849
 4487SOL    HW125094   3.080   2.444   9.970  0.3214 -0.8512  0.1007
 4487SOL    HW225095   3.070   2.522  10.098 -0.7878  0.0378 -0.0301
 4488SOL     OW25096   2.321   1.168   3.404  0.5360  0.5014  0.3916
 4488SOL    HW125097   2.343   1.260   3.402 -0.9628  0.8476 -0.8989
 4488SOL    HW225098   2.400   1.122   3.376 -0.0907 -0.1946 -0.2422
 4489SOL     OW25099   1.597   1.952   2.175 -0.1500  0.1606  0.0060
 4489SOL    HW125100   1.634   1.989   2.095  0.7381 -0.3021  0.2025
 4489SOL    HW225101   1.515   2.001   2.180  0.4050  1.2606 -1.8669
 4490SOL     OW25102   1.445   3.610   7.544 -0.7465 -0.2065 -1.0324
 4490SOL    HW125103   1.505   3.685   7.541 -1.6882  0.5645 -0.9238
 4490SOL    HW225104   1.394   3.638   7.620 -0.4112 -3.8214  0.4991
 4491SOL     OW25105   4.715   1.977   4.242 -0.5635  0.2039 -0.0142
 4491SOL    HW125106   0.032   2.031   4.302 -0.1821  0.4813 -0.6052
 4491SOL    HW225107   4.672   1.913   4.299  1.5954 -1.6048 -0.4076
 4492SOL     OW25108   2.514   4.433   6.011  0.3798  1.2089  0.5313
 4492SOL    HW125109   2.544   4.507   6.065  0.0622  0.6231  1.5149
 4492SOL    HW225110   2.517   4.364   6.078  2.8196  1.0371  0.2465
 4493SOL     OW25111   2.786   2.670   8.160  0.0251 -0.1237 -0.0708
 4493SOL    HW125112   2.696   2.703   8.167  0.4451  0.9492  0.2604
 4493SOL    HW225113   2.832   2.750   8.188  0.4240 -0.1945 -0.5199
 4494SOL     OW25114   3.749   0.315   4.987 -0.0315  0.4737 -0.3186
 4494SOL    HW125115   3.803   0.245   5.023  1.1833  1.7861  0.4235
 4494SOL    HW225116   3.748   0.364   5.069  0.3379 -0.1937  0.0818
 4495SOL     OW25117   4.589   3.772   8.923  0.3920  0.3538 -0.4576
 4495SOL    HW125118   4.556   3.800   8.837 -0.8290 -0.4861 -0.2754
 4495SOL    HW225119   4.682   3.756   8.910  0.8127  0.4788  2.6128
 4496SOL     OW25120   0.488   0.973  12.338 -0.1699  0.2829 -0.7220
 4496SOL    HW125121   0.579   0.985  12.312 -0.1481  0.6109 -0.5056
 4496SOL    HW225122   0.474   0.879  12.332  0.6748  0.2236 -1.6046
 4497SOL     OW25123   3.972   2.476   1.184  0.0966  0.0014  0.0736
 4497SOL    HW125124   4.048   2.419   1.194  0.5577  0.8643  1.4836
 4497SOL    HW225125   3.913   2.453   1.256 -2.4427 -0.3837 -2.1393
 4498SOL     OW25126   3.484   1.156  12.877  0.2106  0.1420 -0.1993
 4498SOL    HW125127   3.509   1.178  12.967 -0.1740 -1.9630  0.4138
 4498SOL    HW225128   3.555   1.202  12.833 -1.1791  0.8763 -1.6793
 4499SOL     OW25129   1.202   1.220   8.449  0.1040 -0.4754  0.0383
 4499SOL    HW125130   1.137   1.262   8.506 -1.6008 -2.1366 -0.6636
 4499SOL    HW225131   1.258   1.185   8.519 -0.3145  1.0665  1.1561
 4500SOL     OW25132   2.793   3.449   4.524  0.2652  0.1680 -0.0887
 4500SOL    HW125133   2.791   3.526   4.467  3.1003  0.4844  0.2756
 4500SOL    HW225134   2.828   3.486   4.604  0.5427  0.4576 -0.3449
 4501SOL     OW25135   2.909   3.571   9.964  0.1900 -0.5995 -0.9250
 4501SOL    HW125136   2.958   3.642   9.923 -2.1752 -0.1469 -2.9775
 4501SOL    HW225137   2.851   3.616  10.025 -0.7386 -0.8774 -1.6106
 4502SOL     OW25138   0.131   3.064   4.349 -0.5746 -0.1856  0.3313
 4502SOL    HW125139   0.043   3.094   4.372 -0.7375 -0.7543  0.4291
 4502SOL    HW225140   0.122   3.076   4.254  0.6197  0.8619  0.3412
 4503SOL     OW25141   1.504   0.232   5.768 -0.4756  0.4218  0.4589
 4503SOL    HW125142   1.421   0.186   5.780  0.1602 -1.0456 -0.7967
 4503SOL    HW225143   1.551   0.190   5.696  0.6485  1.4299  0.6086
 4504SOL     OW25144   1.650   0.290  15.890 -0.7654 -0.4884  0.1156
 4504SOL    HW125145   1.668   0.282  15.796 -0.7576 -1.2854  0.1874
 4504SOL    HW225146   1.686   0.206  15.919 -0.3658  0.0740  1.2214
 4505SOL     OW25147   4.363   4.380   6.677 -0.3069 -0.0752  0.0875
 4505SOL    HW125148   4.331   4.463   6.643 -0.7122 -1.3190 -2.5402
 4505SOL    HW225149   4.442   4.411   6.723  0.4480 -0.6367 -0.8325
 4506SOL     OW25150   2.774   0.117  17.529  0.2644  0.3938  0.3042
 4506SOL    HW125151   2.803   0.160  17.449  1.0448  1.5275  1.1943
 4506SOL    HW225152   2.798   0.025  17.518 -1.8576  0.0569 -1.3857
 4507SOL     OW25153   3.839   2.443   8.691  0.2970  0.2852 -0.4863
 4507SOL    HW125154   3.876   2.416   8.607  0.1051  0.9617 -0.7883
 4507SOL    HW225155   3.761   2.387   8.695 -0.1309  0.7324 -2.4868
 4508SOL     OW25156   2.535   3.268   7.013 -0.2783 -0.0755  0.1602
 4508SOL    HW125157   2.492   3.189   7.047  0.7538 -1.5118 -1.8655
 4508SOL    HW225158   2.507   3.267   6.922 -1.0226  3.0460  0.3430
 4509SOL     OW25159   0.769   4.671   5.500  0.7903 -0.4463  0.0339
 4509SOL    HW125160   0.677   4.657   5.480  0.4585  0.5182  0.8955
 4509SOL    HW225161   0.769   4.624   5.583 -1.2057  1.2288  0.9711
 4510SOL     OW25162   2.884   1.359   8.714 -0.8311 -0.1060  0.2909
 4510SOL    HW125163   2.960   1.374   8.771  0.4780  0.1599 -1.5106
 4510SOL    HW225164   2.857   1.276   8.753  0.9598 -1.5586 -1.5913
 4511SOL     OW25165   3.637   1.093   7.851 -0.2338 -0.3739 -0.2474
 4511SOL    HW125166   3.593   1.011   7.875  1.6272 -1.5677 -0.9454
 4511SOL    HW225167   3.621   1.087   7.757  1.2166 -0.9049 -0.4632
 4512SOL     OW25168   1.809   0.883   3.662  0.7902  1.0105 -0.1537
 4512SOL    HW125169   1.870   0.939   3.711  1.6526  0.8435 -1.0293
 4512SOL    HW225170   1.827   0.798   3.702 -0.6508  0.3918 -0.8148
 4513SOL     OW25171   0.179   0.804   5.700 -0.3988 -0.1709 -0.2072
 4513SOL    HW125172   0.111   0.858   5.739  1.7315  0.6704  2.3453
 4513SOL    HW225173   0.257   0.851   5.729 -0.6936  0.4744 -0.4616
 4514SOL     OW25174   0.813   0.002  16.365 -0.5518 -0.0203  0.2949
 4514SOL    HW125175   0.748   0.060  16.407 -0.2497 -0.1863  0.9899
 4514SOL    HW225176   0.896   0.032  16.402 -0.4022  0.8632 -0.7561
 4515SOL     OW25177   4.386   3.380  12.011  0.2873  0.0998  0.5098
 4515SOL    HW125178   4.444   3.424  12.073  1.2544 -0.0902 -0.2551
 4515SOL    HW225179   4.333   3.317  12.061 -0.3135  0.1168 -0.1042
 4516SOL     OW25180   3.113   3.095   7.442  0.1795 -0.3205 -0.8225
 4516SOL    HW125181   3.059   3.101   7.520  1.5091  0.7704  0.0217
 4516SOL    HW225182   3.162   3.177   7.452 -0.5976 -0.0892  0.9808
 4517SOL     OW25183   0.245   3.090  11.643 -0.2945  0.1399 -0.2709
 4517SOL    HW125184   0.173   3.101  11.705 -1.1831 -3.3002 -0.6701
 4517SOL    HW225185   0.297   3.169  11.658 -0.3495  0.0501  0.3930
 4518SOL     OW25186   1.268   1.930   4.443  0.2935 -0.2531  0.6623
 4518SOL    HW125187   1.211   1.955   4.370  0.1142 -1.6800  0.3253
 4518SOL    HW225188   1.340   1.988   4.420 -1.1167  0.4698 -1.9381
 4519SOL     OW25189   1.329   4.664   4.736 -0.6776 -0.0173  0.3282
 4519SOL    HW125190   1.303   4.730   4.672 -2.6727  0.9392  2.1450
 4519SOL    HW225191   1.397   4.616   4.688 -0.5131 -1.0066  1.5580
 4520SOL     OW25192   4.187   2.483   2.421 -0.1456 -0.4325  0.6192
 4520SOL    HW125193   4.095   2.497   2.446 -0.2811 -0.1640 -0.0172
 4520SOL    HW225194   4.207   2.417   2.487  0.4453 -0.4361  0.4283
 4521SOL     OW25195   1.250   1.971   0.765  0.2779  0.4541  0.3532
 4521SOL    HW125196   1.256   1.910   0.692  0.2130 -0.4211  1.0815
 4521SOL    HW225197   1.307   2.037   0.725 -3.0144  1.7342 -2.2022
 4522SOL     OW25198   1.658   1.571  16.125  0.1014  0.0957  0.4019
 4522SOL    HW125199   1.565   1.573  16.149 -0.1594  0.0163 -0.5991
 4522SOL    HW225200   1.691   1.656  16.154  2.2296  0.3143 -2.6719
 4523SOL     OW25201   3.455   1.682   8.896 -0.1194 -0.3117  0.3043
 4523SOL    HW125202   3.503   1.615   8.943  0.6532  0.4890  0.6696
 4523SOL    HW225203   3.525   1.746   8.882 -0.0807 -0.6084 -0.9065
 4524SOL     OW25204   3.320   2.690  10.829 -0.0816  0.1978  0.0273
 4524SOL    HW125205   3.393   2.701  10.769 -2.1939  2.8129 -2.0796
 4524SOL    HW225206   3.281   2.611  10.791  3.3186 -0.3895 -2.2552
 4525SOL     OW25207   4.705   1.109   4.646  0.2640  0.4778 -0.5055
 4525SOL    HW125208   4.620   1.076   4.616 -0.3363  2.9077 -1.4644
 4525SOL    HW225209   0.013   1.042   4.593  0.1920 -0.2341  0.3303
 4526SOL     OW25210   3.853   1.811   6.758  0.4081  0.1148  0.4945
 4526SOL    HW125211   3.794   1.879   6.790 -1.1945 -1.8254  1.6671
 4526SOL    HW225212   3.916   1.862   6.708  1.3003 -1.5178 -0.0398
 4527SOL     OW25213   2.945   1.816   5.758 -0.1587 -0.4294  0.1252
 4527SOL    HW125214   2.934   1.907   5.733 -0.0219 -0.6079 -0.5765
 4527SOL    HW225215   3.040   1.813   5.750 -0.2783 -0.1437 -1.2485
 4528SOL     OW25216   4.097   1.938   9.552  0.3061 -1.0252 -0.0079
 4528SOL    HW125217   4.065   2.015   9.506  0.3439 -0.6726  0.5548
 4528SOL    HW225218   4.035   1.928   9.624 -0.0065 -0.0100 -0.1361
 4529SOL     OW25219   0.929   3.150   8.691 -0.6377 -0.1194  0.0645
 4529SOL    HW125220   0.959   3.204   8.764 -0.1732 -0.3286  0.0325
 4529SOL    HW225221   0.933   3.062   8.729  0.4545  0.1729  0.6508
 4530SOL     OW25222   0.292   3.335   6.262 -0.2735 -0.0764  0.1915
 4530SOL    HW125223   0.288   3.260   6.321 -0.0349  0.3197  0.7274
 4530SOL    HW225224   0.275   3.402   6.329 -1.9981 -1.8653  1.5443
 4531SOL     OW25225   0.456   3.320   8.413  0.5749  0.0169  0.2455
 4531SOL    HW125226   0.537   3.291   8.456  0.4765 -0.0620  0.3780
 4531SOL    HW225227   0.463   3.280   8.326 -0.9432 -0.5340  0.3735
 4532SOL     OW25228   2.833   1.587   9.151  0.0573  0.0253 -0.2573
 4532SOL    HW125229   2.924   1.586   9.178  0.1808  0.0405 -0.6619
 4532SOL    HW225230   2.818   1.494   9.132  1.7983 -0.5479  1.2894
 4533SOL     OW25231   0.771   3.938   7.241 -0.1002  0.1582 -0.4148
 4533SOL    HW125232   0.802   3.850   7.259  1.4543  0.5735 -1.0967
 4533SOL    HW225233   0.714   3.945   7.317 -1.6921 -0.3121 -1.5537
 4534SOL     OW25234   0.347   0.969   8.506 -0.6709 -0.0683 -0.8979
 4534SOL    HW125235   0.419   0.928   8.458 -0.9693 -0.7756 -0.7334
 4534SOL    HW225236   0.369   0.943   8.595 -2.1390 -1.8463 -1.0480
 4535SOL     OW25237   2.960   0.485  12.317  0.6125 -0.5118 -0.0540
 4535SOL    HW125238   2.930   0.395  12.307  0.7401 -0.6825  1.1479
 4535SOL    HW225239   2.904   0.532  12.379  0.2046 -1.5040  0.3192
 4536SOL     OW25240   1.706   2.725   2.858  0.2585 -0.4922  0.4164
 4536SOL    HW125241   1.688   2.757   2.770  0.9779 -4.2102 -1.0442
 4536SOL    HW225242   1.738   2.638   2.834  0.0152 -0.6821  0.7708
 4537SOL     OW25243   3.008   2.007   8.189 -0.0562  0.1540 -0.2696
 4537SOL    HW125244   2.959   1.966   8.259 -0.2152 -0.7874 -0.9352
 4537SOL    HW225245   2.964   1.963   8.116 -1.3656  0.1620  0.5177
 4538SOL     OW25246   0.015   4.686   1.369 -0.1590 -0.3501 -0.1322
 4538SOL    HW125247   0.081   4.712   1.434  0.3189  0.1532 -0.8026
 4538SOL    HW225248   4.674   4.704   1.423  0.2060  1.2354 -0.1203
 4539SOL     OW25249   1.411   0.569   4.762 -0.6389 -0.2920 -0.3763
 4539SOL    HW125250   1.353   0.493   4.768  0.0216 -0.7198  0.6215
 4539SOL    HW225251   1.386   0.626   4.689  1.7874  0.5385 -0.5649
 4540SOL     OW25252   0.097   2.707   4.448 -0.4361 -0.4078  0.0447
 4540SOL    HW125253   0.049   2.763   4.509  0.4871  0.5218 -0.0909
 4540SOL    HW225254   0.049   2.625   4.461 -1.1048  0.2481  1.6480
 4541SOL     OW25255   1.882   2.509  13.869  0.4925  0.0261  0.2503
 4541SOL    HW125256   1.939   2.432  13.861 -0.5215 -0.9341  2.3186
 4541SOL    HW225257   1.800   2.472  13.836 -0.9655  2.1027  1.6241
 4542SOL     OW25258   4.004   3.377   6.769  0.9615 -0.1091  0.1478
 4542SOL    HW125259   4.087   3.377   6.722  0.0394 -1.3744 -1.4950
 4542SOL    HW225260   3.944   3.377   6.694 -3.2083 -0.7278  3.4546
 4543SOL     OW25261   1.569   1.033   0.150  0.0311  0.3738  0.4756
 4543SOL    HW125262   1.485   1.078   0.154 -0.1617  0.1114 -0.6834
 4543SOL    HW225263   1.533   0.944   0.149  1.4737 -0.2187  0.9468
 4544SOL     OW25264   2.713   2.402   7.552  0.2838  0.6849  0.4754
 4544SOL    HW125265   2.722   2.495   7.536 -1.0104  1.0712  1.9540
 4544SOL    HW225266   2.803   2.370   7.552  0.3562  0.8843 -0.2852
 4545SOL     OW25267   1.048   0.763   1.409  0.5922 -0.7304 -0.2908
 4545SOL    HW125268   1.120   0.790   1.351  2.7590  0.0405  2.7254
 4545SOL    HW225269   1.030   0.848   1.449  0.1611  0.6699 -3.5169
 4546SOL     OW25270   2.795   3.707   1.933 -0.0848 -0.5051 -0.2782
 4546SOL    HW125271   2.779   3.800   1.919  1.1883 -0.4845 -1.5894
 4546SOL    HW225272   2.786   3.686   1.840  0.8334  0.8991 -0.6786
 4547SOL     OW25273   0.183   2.609   5.951 -0.0776  0.5439  0.1660
 4547SOL    HW125274   0.141   2.646   5.873 -0.2599 -1.4314 -0.6802
 4547SOL    HW225275   0.272   2.608   5.917 -0.7492 -0.9472 -1.5398
 4548SOL     OW25276   4.591   0.341   3.972 -0.2601 -0.9238 -0.0204
 4548SOL    HW125277   4.660   0.404   3.995 -1.4609 -0.0543  1.1626
 4548SOL    HW225278   4.627   0.305   3.890  1.7353 -3.0534  1.7753
 4549SOL     OW25279   4.670   0.185   8.151  0.1931 -0.5098  0.3053
 4549SOL    HW125280   0.021   0.225   8.161  0.5093 -0.9799 -0.5833
 4549SOL    HW225281   4.643   0.179   8.243 -1.9123  3.6221 -0.0607
 4550SOL     OW25282   1.627   1.478   8.865 -0.0136  0.3292 -0.2624
 4550SOL    HW125283   1.705   1.506   8.914  0.5425 -0.4919 -0.6827
 4550SOL    HW225284   1.649   1.512   8.778 -0.1261  0.4581 -0.2408
 4551SOL     OW25285   1.773   3.399   9.520 -0.2824 -0.3358  0.2695
 4551SOL    HW125286   1.840   3.467   9.530  0.2751 -0.6481 -1.4158
 4551SOL    HW225287   1.810   3.360   9.441  0.3857  0.6869  0.0809
 4552SOL     OW25288   3.762   0.538  10.515  0.4691 -0.1139  0.0720
 4552SOL    HW125289   3.750   0.633  10.516 -1.8912 -0.3808 -3.4274
 4552SOL    HW225290   3.722   0.513  10.598  1.4939  0.6995  0.8020
 4553SOL     OW25291   0.440   2.428  10.621 -0.2822  0.3910 -0.5247
 4553SOL    HW125292   0.464   2.452  10.531 -0.7415  0.7970 -0.5406
 4553SOL    HW225293   0.492   2.349  10.630  3.7742  3.4532  2.7275
 4554SOL     OW25294   4.075   3.721   3.801  0.2795 -0.0160  0.2912
 4554SOL    HW125295   3.987   3.717   3.839 -0.3752 -0.3493 -1.2815
 4554SOL    HW225296   4.056   3.697   3.710 -1.5118  0.6698  0.4799
 4555SOL     OW25297   2.582   3.329   6.467 -0.0021 -0.1624 -0.4482
 4555SOL    HW125298   2.574   3.246   6.421  3.2807 -0.1169 -1.1434
 4555SOL    HW225299   2.643   3.364   6.402  1.4102  0.7610  1.3283
 4556SOL     OW25300   0.557   1.136   2.352 -0.2739  0.1834  0.4617
 4556SOL    HW125301   0.637   1.190   2.352 -0.6706  0.7575 -0.5077
 4556SOL    HW225302   0.489   1.201   2.364 -4.4615 -3.4134 -3.8327
 4557SOL     OW25303   1.328   0.757   4.559  0.7418  0.4304  0.2429
 4557SOL    HW125304   1.282   0.815   4.499 -1.9915 -0.7391  1.2135
 4557SOL    HW225305   1.375   0.824   4.607  0.7028 -0.1516  1.0883
 4558SOL     OW25306   1.841   3.810   1.721 -0.1990 -0.3140  0.3949
 4558SOL    HW125307   1.781   3.860   1.668  2.6280  2.0404 -0.5668
 4558SOL    HW225308   1.820   3.717   1.707  0.1461 -0.3410  0.0562
 4559SOL     OW25309   3.195   0.854  11.634 -0.1971 -0.1389 -0.5136
 4559SOL    HW125310   3.110   0.855  11.678  0.9048 -2.4376  1.7390
 4559SOL    HW225311   3.226   0.772  11.674  0.2572 -0.2102 -1.0144
 4560SOL     OW25312   2.468   1.577   3.691  0.1808 -0.2671  0.5240
 4560SOL    HW125313   2.423   1.627   3.759  0.0646 -0.5259  0.6396
 4560SOL    HW225314   2.501   1.652   3.642 -1.1273 -0.0571 -0.0336
 4561SOL     OW25315   1.153   2.155  14.206 -0.5540 -0.0431 -0.3184
 4561SOL    HW125316   1.249   2.148  14.209 -0.4659  1.7282  1.4219
 4561SOL    HW225317   1.132   2.158  14.300 -0.9892 -0.5883 -0.4050
 4562SOL     OW25318   2.251   4.250   5.594 -0.1357 -0.4906 -0.4907
 4562SOL    HW125319   2.279   4.265   5.684 -3.3298  0.9977  0.2479
 4562SOL    HW225320   2.297   4.169   5.570  1.0461 -0.6061  2.1020
 4563SOL     OW25321   4.608   1.891  10.636 -0.3663  0.0154 -0.3665
 4563SOL    HW125322   4.537   1.836  10.602 -1.6370  1.0809  0.5673
 4563SOL    HW225323   4.593   1.974  10.592  2.1093  1.2656  1.1587
 4564SOL     OW25324   1.086   2.395   4.945  0.1281 -0.2600 -0.7514
 4564SOL    HW125325   1.165   2.359   4.906  0.7867  0.2292  0.1397
 4564SOL    HW225326   1.038   2.422   4.867 -1.0738 -0.2737 -0.0169
 4565SOL     OW25327   0.347   1.383   7.382 -0.0677 -0.4394  0.2943
 4565SOL    HW125328   0.419   1.392   7.319  1.2602 -0.5015  1.8029
 4565SOL    HW225329   0.288   1.455   7.361  1.2925  0.3807 -0.6924
 4566SOL     OW25330   2.683   3.349   7.813 -0.1299  0.4117 -0.0608
 4566SOL    HW125331   2.622   3.407   7.858  0.3182  1.8374 -1.3081
 4566SOL    HW225332   2.762   3.379   7.858  0.3930  0.7086 -1.1774
 4567SOL     OW25333   3.570   0.166   2.822 -0.1267 -0.7496  0.4820
 4567SOL    HW125334   3.547   0.093   2.879 -1.4743 -0.1092  0.7434
 4567SOL    HW225335   3.524   0.148   2.740  2.0339 -0.1835 -0.8662
 4568SOL     OW25336   1.814   3.022   2.905 -0.2046 -0.2478  0.7297
 4568SOL    HW125337   1.880   2.955   2.891 -0.2989 -0.4476  1.2198
 4568SOL    HW225338   1.770   3.020   2.821 -1.4085  1.2321  1.3191
 4569SOL     OW25339   3.253   1.461   3.737  0.0518  0.0532  0.5185
 4569SOL    HW125340   3.233   1.524   3.806  1.3995 -1.2023  2.0752
 4569SOL    HW225341   3.177   1.484   3.683 -0.8983  0.5456  2.0479
 4570SOL     OW25342   3.000   2.609   9.815  0.4210  0.3853 -0.0835
 4570SOL    HW125343   3.082   2.584   9.773  1.0480 -0.2959  1.5459
 4570SOL    HW225344   3.016   2.695   9.853  0.4110  0.0090  0.7579
 4571SOL     OW25345   0.404   2.283   1.251 -0.1242  0.4817 -0.4374
 4571SOL    HW125346   0.343   2.338   1.300 -2.1118 -1.4986 -0.7416
 4571SOL    HW225347   0.484   2.299   1.301 -0.0219 -1.4723  0.0135
 4572SOL     OW25348   0.137   4.386   3.554 -0.0600 -0.1274  0.3032
 4572SOL    HW125349   0.141   4.476   3.522  0.1086 -0.2594 -0.0494
 4572SOL    HW225350   0.157   4.401   3.646 -2.1523 -0.1993  0.7534
 4573SOL     OW25351   0.980   4.073   2.296 -0.0665 -0.1114 -0.4248
 4573SOL    HW125352   0.899   4.070   2.347 -0.1879  0.5408 -0.5823
 4573SOL    HW225353   0.943   4.114   2.218 -2.5918 -0.2053  0.7215
 4574SOL     OW25354   3.081   0.455   9.060 -0.2956  0.7317  0.5801
 4574SOL    HW125355   3.124   0.525   9.011 -1.1467  1.1718  0.4678
 4574SOL    HW225356   3.135   0.447   9.139  0.3425  0.7599  0.1404
 4575SOL     OW25357   4.407   2.530   8.952 -0.2253 -0.4060 -0.1352
 4575SOL    HW125358   4.428   2.600   9.014 -3.2192  3.0393 -2.9745
 4575SOL    HW225359   4.318   2.510   8.980  0.0256  0.7480  1.4821
 4576SOL     OW25360   2.149   3.707  13.018  0.8771 -0.8063  0.7587
 4576SOL    HW125361   2.065   3.746  12.996  2.9184  1.9455 -2.0867
 4576SOL    HW225362   2.215   3.767  12.984  0.7269 -1.0794 -0.0123
 4577SOL     OW25363   0.835   1.186   2.672 -0.4421  0.1119 -0.4161
 4577SOL    HW125364   0.755   1.162   2.626  0.2401  0.0689 -1.5658
 4577SOL    HW225365   0.888   1.108   2.657 -0.3520 -0.0933  0.8985
 4578SOL     OW25366   0.508   0.860  16.620  0.2242  0.1017 -0.3187
 4578SOL    HW125367   0.502   0.802  16.696 -1.5130 -0.7187 -1.1043
 4578SOL    HW225368   0.600   0.850  16.594  0.2739  3.0384 -1.2356
 4579SOL     OW25369   1.966   0.381   6.271  0.2047  0.5963  0.1023
 4579SOL    HW125370   2.023   0.345   6.339  0.4286  0.5317 -0.1216
 4579SOL    HW225371   2.020   0.387   6.193  0.2640 -0.6441  0.0581
 4580SOL     OW25372   3.662   1.176   5.462  0.6344 -0.4211 -0.5465
 4580SOL    HW125373   3.602   1.237   5.505  1.2045 -0.3441  0.1519
 4580SOL    HW225374   3.677   1.222   5.380  0.4768  0.6892  0.0365
 4581SOL     OW25375   1.601   0.080  17.087  0.6233  0.3287  0.8705
 4581SOL    HW125376   1.593   0.153  17.027  3.2444 -0.8532 -0.9498
 4581SOL    HW225377   1.510   0.064  17.113  0.0054 -0.4316 -1.7777
 4582SOL     OW25378   0.428   0.080   9.366  0.1834  0.7438 -0.0490
 4582SOL    HW125379   0.471   0.070   9.451 -1.2664 -0.0762  0.5798
 4582SOL    HW225380   0.367   0.149   9.393 -1.0834 -0.4134  0.0186
 4583SOL     OW25381   0.113   4.661   4.635 -0.1541  0.5117  0.4704
 4583SOL    HW125382   0.020   4.643   4.623  0.0484  0.4934 -1.1031
 4583SOL    HW225383   0.144   4.582   4.681 -1.6746 -0.0308  0.5486
 4584SOL     OW25384   1.889   2.449  11.626 -0.5882  0.8245  0.0031
 4584SOL    HW125385   1.879   2.544  11.623  0.7625  0.9937  0.9428
 4584SOL    HW225386   1.975   2.440  11.585 -1.3150 -0.1279 -1.3240
 4585SOL     OW25387   2.871   1.661  13.873 -0.2191  0.2114 -0.7122
 4585SOL    HW125388   2.944   1.704  13.917 -0.5745 -1.0717  1.1515
 4585SOL    HW225389   2.913   1.575  13.863 -0.1225  0.0446  0.9902
 4586SOL     OW25390   2.093   3.937  15.858 -0.0001 -0.3362  0.2603
 4586SOL    HW125391   2.077   4.026  15.826 -1.4839 -0.1340  1.5953
 4586SOL    HW225392   2.093   3.907  15.767 -1.8653  0.7084 -0.0848
 4587SOL     OW25393   2.242   0.148   9.109 -0.0369  0.0852  0.2664
 4587SOL    HW125394   2.190   0.111   9.038  0.2853  1.5787 -0.7453
 4587SOL    HW225395   2.332   0.145   9.077  0.6678 -0.0318  2.2571
 4588SOL     OW25396   2.651   3.101  10.050  0.1338 -0.0045 -0.7292
 4588SOL    HW125397   2.603   3.073  10.128  0.6630 -2.5798 -1.3313
 4588SOL    HW225398   2.632   3.194  10.036  0.0272  0.0913  0.0391
 4589SOL     OW25399   2.943   3.048  12.252  0.7730 -0.4543  0.3624
 4589SOL    HW125400   2.971   3.014  12.338  1.6511 -0.1889  0.1764
 4589SOL    HW225401   2.866   3.103  12.265 -0.4179 -1.8972 -0.5676
 4590SOL     OW25402   1.618   3.813  15.288 -0.1073 -0.6563 -0.0815
 4590SOL    HW125403   1.619   3.906  15.264  0.6303 -1.2311 -2.2901
 4590SOL    HW225404   1.525   3.792  15.280  0.0406 -1.0850 -0.6783
 4591SOL     OW25405   3.901   0.017  13.149 -0.4965 -0.2204 -0.6074
 4591SOL    HW125406   3.860   0.049  13.069 -2.3817  1.1987  0.9171
 4591SOL    HW225407   3.992   0.008  13.122 -0.5626  2.9440 -1.9255
 4592SOL     OW25408   3.426   2.676   3.113 -0.4412  0.2395 -0.0461
 4592SOL    HW125409   3.488   2.728   3.165 -0.3784 -1.4272  1.5826
 4592SOL    HW225410   3.462   2.592   3.086  0.9512  1.0782 -0.7599
 4593SOL     OW25411   3.848   0.829   4.239 -0.2761  0.2020 -0.1366
 4593SOL    HW125412   3.773   0.883   4.215 -0.3916  0.5354  0.9548
 4593SOL    HW225413   3.855   0.849   4.333 -3.6030  2.1850 -0.3042
 4594SOL     OW25414   3.802   2.588   7.218  0.6862  0.6279 -0.3752
 4594SOL    HW125415   3.762   2.672   7.239  0.0280  0.3087 -0.3441
 4594SOL    HW225416   3.896   2.601   7.231  0.3968  0.2159  2.1595
 4595SOL     OW25417   3.805   2.298   9.314  0.0733  0.1089  0.0013
 4595SOL    HW125418   3.851   2.214   9.305  0.2989  0.3466 -1.0594
 4595SOL    HW225419   3.846   2.330   9.394  0.7592 -1.9669  0.4892
 4596SOL     OW25420   2.355   2.141   2.553 -0.6134  0.0565 -0.3586
 4596SOL    HW125421   2.448   2.146   2.532 -0.4533  0.9555  0.5861
 4596SOL    HW225422   2.348   2.165   2.645  2.7761  0.1672 -0.1507
 4597SOL     OW25423   1.005   3.463   3.697  0.2641  0.0503  0.1650
 4597SOL    HW125424   1.017   3.553   3.669  0.5203 -0.4753 -1.4367
 4597SOL    HW225425   0.994   3.468   3.792 -1.5068  2.5926 -0.1747
 4598SOL     OW25426   2.579   3.547   3.940 -0.6172  0.5224  0.1623
 4598SOL    HW125427   2.602   3.459   3.910 -1.0299  0.0430  1.2812
 4598SOL    HW225428   2.517   3.574   3.872  0.8131 -3.0277 -2.5646
 4599SOL     OW25429   1.416   4.178   4.136 -0.4750 -0.8013 -0.0900
 4599SOL    HW125430   1.344   4.138   4.086  0.3353 -0.9443 -1.1364
 4599SOL    HW225431   1.464   4.212   4.061 -0.0290 -0.8063  0.1896
 4600SOL     OW25432   1.685   3.250  13.697  0.3270 -0.1263  0.1140
 4600SOL    HW125433   1.663   3.209  13.613 -0.1610  0.1108  0.1311
 4600SOL    HW225434   1.779   3.271  13.701  0.2509  0.3525 -0.5997
 4601SOL     OW25435   1.181   0.582  15.121 -0.2742 -0.1442  0.3494
 4601SOL    HW125436   1.095   0.618  15.143 -0.4006  0.3385 -0.9494
 4601SOL    HW225437   1.196   0.538  15.205 -1.9396  0.3472  0.8999
 4602SOL     OW25438   3.063   1.614  14.864 -0.5696  0.4264 -0.5696
 4602SOL    HW125439   3.128   1.555  14.902  0.6745  3.7106  2.3022
 4602SOL    HW225440   2.990   1.556  14.841 -0.3180 -0.2046  0.2212
 4603SOL     OW25441   3.995   3.990   4.414 -0.1763 -0.0988 -0.8910
 4603SOL    HW125442   4.018   3.901   4.440  1.9839  0.7569  0.1155
 4603SOL    HW225443   4.006   3.989   4.319 -0.9509 -0.9340 -0.9801
 4604SOL     OW25444   2.666   1.497   6.140 -0.0817  0.1876 -0.3987
 4604SOL    HW125445   2.680   1.557   6.066 -1.0708 -1.3250 -1.8111
 4604SOL    HW225446   2.693   1.566   6.201  0.1237 -1.2300  1.0896
 4605SOL     OW25447   0.245   4.293   6.962  0.1665 -0.5676 -0.0814
 4605SOL    HW125448   0.162   4.281   7.007  0.9946  0.4537  1.7416
 4605SOL    HW225449   0.302   4.265   7.034 -1.1783 -0.0870  1.1737
 4606SOL     OW25450   3.355   2.154   6.737 -0.0472 -0.2681  0.5761
 4606SOL    HW125451   3.345   2.072   6.784 -0.0143 -0.7919 -0.3247
 4606SOL    HW225452   3.295   2.202   6.793 -0.9851  1.1431 -1.6195
 4607SOL     OW25453   4.481   0.636   5.735 -0.6028 -0.5027  0.1638
 4607SOL    HW125454   4.417   0.603   5.672 -1.6346  0.6731  0.5960
 4607SOL    HW225455   4.483   0.730   5.719  2.8287 -0.5343  0.4399
 4608SOL     OW25456   2.702   4.523  15.147 -0.0926  0.6466  0.4068
 4608SOL    HW125457   2.621   4.573  15.138  0.6783  1.4495 -1.9914
 4608SOL    HW225458   2.735   4.556  15.231  0.2998  1.5500 -0.1044
 4609SOL     OW25459   0.062   1.091   8.510 -0.1720  0.6592 -0.5203
 4609SOL    HW125460   0.145   1.060   8.474 -0.0807 -0.4490  0.6242
 4609SOL    HW225461   0.101   1.171   8.548  1.1063  0.2371 -0.9325
 4610SOL     OW25462   2.004   4.215   1.762 -0.0741 -0.2443  0.6299
 4610SOL    HW125463   1.919   4.183   1.792 -0.7713 -1.1833 -2.3557
 4610SOL    HW225464   1.967   4.291   1.717  1.0788 -0.2063 -0.2675
 4611SOL     OW25465   4.681   2.811   9.369  0.1597  0.1110 -0.2401
 4611SOL    HW125466   4.614   2.828   9.435  1.3225 -0.4800  1.0917
 4611SOL    HW225467   4.665   2.881   9.306 -2.1654 -0.1587  0.0316
 4612SOL     OW25468   2.914   2.395   7.067 -0.2911 -0.3122 -0.1387
 4612SOL    HW125469   2.926   2.483   7.105 -0.1622  0.0916 -1.1221
 4612SOL    HW225470   2.848   2.409   6.999 -0.9243  0.4330  0.6241
 4613SOL     OW25471   0.152   2.563   6.226 -0.4558 -0.1104  0.3209
 4613SOL    HW125472   0.171   2.585   6.135 -1.9049 -2.8107 -0.6394
 4613SOL    HW225473   0.062   2.533   6.214 -0.7857  0.9770  0.0405
 4614SOL     OW25474   1.971   4.069   8.949 -0.2645 -0.3997 -0.0166
 4614SOL    HW125475   2.061   4.047   8.923 -0.1697 -0.5483  0.4493
 4614SOL    HW225476   1.970   4.040   9.040  1.1671  4.1901  1.4484
 4615SOL     OW25477   0.697   4.568   0.894  0.1539  0.2363 -0.4066
 4615SOL    HW125478   0.782   4.604   0.866  0.0412  0.7951 -0.0152
 4615SOL    HW225479   0.647   4.608   0.823  1.4852 -1.9848 -2.6136
 4616SOL     OW25480   0.027   3.185   4.737 -0.1374 -0.5535 -0.1117
 4616SOL    HW125481   0.087   3.143   4.798  0.3491 -0.2196 -0.3576
 4616SOL    HW225482   4.693   3.120   4.734 -1.0988  0.4201  1.2978
 4617SOL     OW25483   2.250   1.105   8.568  0.5074 -0.8442  0.8881
 4617SOL    HW125484   2.187   1.144   8.507  0.5006 -1.4927  0.4813
 4617SOL    HW225485   2.208   1.027   8.605 -1.7033 -0.3427 -0.5430
 4618SOL     OW25486   0.298   0.913  11.445  0.1854 -0.6288 -0.2608
 4618SOL    HW125487   0.317   0.857  11.369  2.0906 -1.2190  0.6650
 4618SOL    HW225488   0.347   0.869  11.514 -1.5863 -0.5008  1.0695
 4619SOL     OW25489   3.166   3.571   7.246 -0.2459  0.0498 -0.1897
 4619SOL    HW125490   3.222   3.522   7.186 -0.2459 -1.5096  1.1073
 4619SOL    HW225491   3.192   3.663   7.245  0.0483 -0.0223  1.5307
 4620SOL     OW25492   1.001   2.167   8.997 -0.1890 -0.3136  1.0326
 4620SOL    HW125493   0.928   2.216   8.957 -0.7456 -3.7781 -2.2283
 4620SOL    HW225494   1.034   2.249   9.034  0.0572  0.0906 -0.0806
 4621SOL     OW25495   4.269   3.963   2.072 -0.0350 -0.3073  0.5845
 4621SOL    HW125496   4.322   3.993   2.146  2.4921  0.4251 -1.5009
 4621SOL    HW225497   4.190   4.009   2.098  2.0020  3.6074 -0.0641
 4622SOL     OW25498   2.897   4.709   4.126 -0.3076 -0.2932  0.2016
 4622SOL    HW125499   2.854   4.658   4.195  0.4125 -2.0857 -0.6862
 4622SOL    HW225500   2.983   4.718   4.168 -0.1986 -0.9994  0.1293
 4623SOL     OW25501   4.001   3.833   5.295  0.3823 -0.0610  0.2358
 4623SOL    HW125502   3.977   3.746   5.264  1.1613  0.4342 -1.7594
 4623SOL    HW225503   4.084   3.813   5.339  1.0888 -0.9061 -1.4620
 4624SOL     OW25504   1.440   1.517   3.038 -0.3152 -0.3889 -0.3909
 4624SOL    HW125505   1.375   1.543   3.103 -0.0687  0.3938 -0.4673
 4624SOL    HW225506   1.492   1.446   3.075 -0.2040  0.3141  0.7795
 4625SOL     OW25507   1.676   3.559   8.258  0.0298  0.1912 -0.5622
 4625SOL    HW125508   1.711   3.633   8.210  0.6111 -1.2381 -2.3453
 4625SOL    HW225509   1.644   3.501   8.189 -3.3527  2.4057 -0.8350
 4626SOL     OW25510   1.034   0.168   2.260 -0.4882 -0.0190 -0.0731
 4626SOL    HW125511   1.061   0.119   2.183 -0.6344 -1.6700  0.9146
 4626SOL    HW225512   1.044   0.259   2.233  0.3565  0.1164  0.6935
 4627SOL     OW25513   0.765   2.916   6.368 -0.1346 -0.2020 -0.6355
 4627SOL    HW125514   0.706   2.863   6.421  0.5792 -0.8002 -0.4431
 4627SOL    HW225515   0.851   2.878   6.384 -0.5692 -0.9644 -0.1015
 4628SOL     OW25516   0.445   1.482   4.167 -0.1345  0.7440 -0.4400
 4628SOL    HW125517   0.416   1.499   4.257 -0.5269 -2.3400  0.0146
 4628SOL    HW225518   0.368   1.519   4.125 -0.9261  0.0636  0.4082
 4629SOL     OW25519   0.561   4.518   0.638 -0.0210  0.0435 -0.2419
 4629SOL    HW125520   0.558   4.422   0.636  2.3198 -0.0298 -1.1119
 4629SOL    HW225521   0.653   4.526   0.611 -0.0470  1.6467  0.1687
 4630SOL     OW25522   1.100   0.350   5.784  0.0580  0.5964  0.1056
 4630SOL    HW125523   1.090   0.425   5.725  0.2514  0.1838 -0.4607
 4630SOL    HW225524   1.061   0.389   5.862 -0.1737  0.6581 -0.0411
 4631SOL     OW25525   4.372   4.204  12.317  0.0692  0.4495 -0.4972
 4631SOL    HW125526   4.332   4.188  12.232  1.1164 -0.0569 -0.8822
 4631SOL    HW225527   4.420   4.124  12.339 -0.5579  0.1792 -0.0782
 4632SOL     OW25528   0.572   1.765   8.483 -0.0264  0.4377  0.5282
 4632SOL    HW125529   0.542   1.781   8.572  1.2843 -0.5343  1.1528
 4632SOL    HW225530   0.635   1.837   8.482 -0.1413  0.5241 -0.5999
 4633SOL     OW25531   2.793   2.097   3.181  0.2883  0.1037  0.6076
 4633SOL    HW125532   2.753   2.146   3.109 -2.3508 -1.2745  1.1339
 4633SOL    HW225533   2.877   2.070   3.145 -1.2744 -0.5596 -2.4925
 4634SOL     OW25534   0.318   0.456   7.225 -0.1843  0.0140  0.3140
 4634SOL    HW125535   0.282   0.506   7.298 -0.4598  2.4475 -1.4934
 4634SOL    HW225536   0.236   0.411   7.200  0.5022 -0.5807 -0.8870
 4635SOL     OW25537   2.879   2.671  15.178  0.2523 -0.3765 -1.2036
 4635SOL    HW125538   2.897   2.684  15.271 -0.9793  3.1014 -1.4478
 4635SOL    HW225539   2.784   2.658  15.180 -0.0377  1.8156 -0.6503
 4636SOL     OW25540   2.871   2.768   6.756 -0.1258  0.6914  0.2637
 4636SOL    HW125541   2.959   2.729   6.758 -0.8315 -0.8615  1.6139
 4636SOL    HW225542   2.866   2.794   6.665 -1.9375 -3.0329 -0.6987
 4637SOL     OW25543   1.542   1.106   8.185 -0.2609  0.5105 -0.3104
 4637SOL    HW125544   1.476   1.059   8.236 -0.4271 -0.6619 -1.6137
 4637SOL    HW225545   1.584   1.038   8.132  0.9303  1.3494 -0.4403
 4638SOL     OW25546   0.119   3.226   5.586  1.2561  0.3124 -0.3805
 4638SOL    HW125547   0.131   3.132   5.577 -1.9249 -0.1600  0.3190
 4638SOL    HW225548   0.100   3.258   5.497 -2.1890  0.4560  0.3895
 4639SOL     OW25549   3.359   1.052   3.501 -0.6167  0.7776 -0.7259
 4639SOL    HW125550   3.398   1.138   3.488 -1.3201  0.9356 -1.7847
 4639SOL    HW225551   3.369   1.036   3.595  2.2195 -2.8599 -1.6388
 4640SOL     OW25552   0.748   0.710   9.284 -0.2023  0.1600 -0.3351
 4640SOL    HW125553   0.749   0.690   9.378  2.3984 -1.1122 -0.6183
 4640SOL    HW225554   0.657   0.686   9.265  0.0168 -1.4762  0.6694
 4641SOL     OW25555   2.215   4.319   3.562 -0.1285 -0.4752 -0.1758
 4641SOL    HW125556   2.247   4.387   3.621 -2.4469  0.1011  0.4043
 4641SOL    HW225557   2.120   4.320   3.577 -0.1239 -0.3930 -0.1519
 4642SOL     OW25558   1.367   2.991   4.355  0.3603 -0.3607  0.7490
 4642SOL    HW125559   1.275   2.965   4.355  0.4610 -0.7080  0.4915
 4642SOL    HW225560   1.362   3.072   4.405  1.0096 -0.5336  1.0937
 4643SOL     OW25561   3.357   1.963   9.671 -0.2327 -0.0017 -0.7021
 4643SOL    HW125562   3.264   1.955   9.692  0.1011  0.4013  0.9788
 4643SOL    HW225563   3.381   1.877   9.707 -0.4964  0.1599 -0.1403
 4644SOL     OW25564   0.056   4.097   8.053 -0.1462  0.6444 -0.0175
 4644SOL    HW125565   4.713   4.045   8.067 -0.0685  0.3008 -0.9077
 4644SOL    HW225566   0.103   4.075   8.134  0.4713 -0.2916 -0.6202
 4645SOL     OW25567   1.644   1.733   6.858 -0.7665 -0.2201 -0.5930
 4645SOL    HW125568   1.694   1.663   6.901 -0.5458 -0.5496 -1.3749
 4645SOL    HW225569   1.653   1.711   6.765 -1.8188 -1.9942 -0.2794
 4646SOL     OW25570   4.705   0.603   5.913 -0.0357  0.1270  0.0472
 4646SOL    HW125571   4.689   0.509   5.911 -1.1784  0.3149  0.2001
 4646SOL    HW225572   4.617   0.639   5.906 -0.1004 -0.6110 -2.7920
 4647SOL     OW25573   2.518   2.246  17.510  0.6975  0.7908 -0.2407
 4647SOL    HW125574   2.503   2.336  17.539  0.3275  0.6013  0.1437
 4647SOL    HW225575   2.493   2.204  17.592 -0.8955 -0.5233 -1.4123
 4648SOL     OW25576   4.083   3.325   9.254  0.2740  0.0889  0.8721
 4648SOL    HW125577   4.029   3.247   9.242  0.1421  0.4012 -0.5357
 4648SOL    HW225578   4.088   3.361   9.165 -2.9238  1.0147  1.0528
 4649SOL     OW25579   2.832   2.940   7.815 -0.6587 -0.0722  0.2043
 4649SOL    HW125580   2.827   2.961   7.908  1.3552  1.6351 -0.0674
 4649SOL    HW225581   2.925   2.952   7.797 -0.9591  0.2460 -1.1506
 4650SOL     OW25582   0.943   3.945  11.402  0.6182 -0.1510 -0.2506
 4650SOL    HW125583   1.008   3.967  11.335 -0.4552  1.5531 -0.7093
 4650SOL    HW225584   0.995   3.901  11.469 -0.2139  0.9408  1.1056
 4651SOL     OW25585   1.061   1.741   7.253 -0.5827  0.3274  0.8627
 4651SOL    HW125586   0.990   1.703   7.304 -0.1776 -1.8587 -0.2250
 4651SOL    HW225587   1.024   1.825   7.225 -1.6322 -0.2977  0.3664
 4652SOL     OW25588   3.557   1.001   1.733  0.4754  0.2892 -0.1450
 4652SOL    HW125589   3.624   0.937   1.708  0.6310  0.9682 -1.4402
 4652SOL    HW225590   3.485   0.951   1.771 -0.4977  1.0427 -0.9985
 4653SOL     OW25591   3.722   0.305   4.241  0.1439  0.1498  0.2355
 4653SOL    HW125592   3.647   0.283   4.296  0.4595  0.4567  0.7889
 4653SOL    HW225593   3.728   0.396   4.271  1.3544  0.6087 -1.4431
 4654SOL     OW25594   3.232   2.165  10.095 -0.1240 -0.5994 -0.1701
 4654SOL    HW125595   3.290   2.181  10.021  0.3808 -0.2362  0.3099
 4654SOL    HW225596   3.275   2.117  10.166  1.5401  3.3868  1.4889
 4655SOL     OW25597   0.032   0.309   2.224  0.1647  0.0098  0.8382
 4655SOL    HW125598   0.074   0.355   2.151 -2.8997 -1.6687 -2.0307
 4655SOL    HW225599   0.037   0.376   2.292 -0.1132  0.8040  0.0848
 4656SOL     OW25600   4.399   0.803   5.490  0.1088 -0.2668  0.1049
 4656SOL    HW125601   4.489   0.834   5.483 -0.0786 -0.5927 -3.6619
 4656SOL    HW225602   4.386   0.749   5.413  0.6341 -2.3565  1.4667
 4657SOL     OW25603   3.604   0.679   4.471 -0.5820  0.6050 -0.3287
 4657SOL    HW125604   3.524   0.720   4.438 -1.4788  1.5084  2.9878
 4657SOL    HW225605   3.646   0.759   4.501 -0.4209  1.3616 -2.5883
 4658SOL     OW25606   3.624   4.529   3.380  0.3617  0.3088  0.3930
 4658SOL    HW125607   3.582   4.484   3.306  0.2537  2.3313 -0.7526
 4658SOL    HW225608   3.704   4.559   3.337  0.7391 -0.5139  0.5013
 4659SOL     OW25609   0.108   1.704   5.492 -0.5180 -0.2247  0.3678
 4659SOL    HW125610   0.192   1.669   5.462  0.8074  1.5352  2.0231
 4659SOL    HW225611   0.058   1.623   5.490  1.5328 -1.4857 -0.3001
 4660SOL     OW25612   4.512   1.162   2.425  0.3288 -0.2521  0.2468
 4660SOL    HW125613   4.430   1.207   2.441 -0.2511 -0.9088 -0.9141
 4660SOL    HW225614   4.562   1.224   2.372 -1.7158 -0.4293 -1.8783
 4661SOL     OW25615   2.413   0.874  11.275 -0.1084 -0.5115 -0.7245
 4661SOL    HW125616   2.330   0.832  11.300 -1.4566  2.7752  0.3170
 4661SOL    HW225617   2.389   0.937  11.207  1.7234 -0.5554 -1.4035
 4662SOL     OW25618   1.228   3.204   7.665  0.4670 -0.1268  0.3809
 4662SOL    HW125619   1.166   3.133   7.682 -1.7678  2.6336  3.6853
 4662SOL    HW225620   1.212   3.222   7.572 -1.8285 -0.2184  0.7554
 4663SOL     OW25621   3.755   1.571   5.036  0.0087  0.0798  0.1563
 4663SOL    HW125622   3.842   1.533   5.023  0.1989  1.7568 -3.3412
 4663SOL    HW225623   3.712   1.569   4.951  2.1932 -1.9473 -0.9023
 4664SOL     OW25624   1.955   1.720   8.538 -0.3168 -0.0247  0.8813
 4664SOL    HW125625   1.971   1.721   8.444 -0.2464  1.7085  0.9151
 4664SOL    HW225626   1.993   1.638   8.567  2.8173  0.7065 -1.2371
 4665SOL     OW25627   1.177   0.943   7.675 -0.3062 -0.5103  0.1932
 4665SOL    HW125628   1.149   0.922   7.764  0.5989 -0.1079  0.5798
 4665SOL    HW225629   1.272   0.950   7.688 -0.5559  0.5416  1.4875
 4666SOL     OW25630   0.719   2.382   5.222 -0.3043  0.1815  0.6801
 4666SOL    HW125631   0.788   2.379   5.288  1.0216 -3.0535 -0.8897
 4666SOL    HW225632   0.771   2.389   5.143 -0.5876 -1.5432  0.3353
 4667SOL     OW25633   0.645   2.630  11.367 -0.2659  0.2354  0.2051
 4667SOL    HW125634   0.713   2.613  11.432 -0.2548 -1.2063 -0.1669
 4667SOL    HW225635   0.653   2.725  11.375 -0.7650  0.2271  0.7230
 4668SOL     OW25636   3.805   3.052   8.092  0.4801  0.0365  0.2841
 4668SOL    HW125637   3.767   3.028   8.177 -0.1295 -0.3469 -0.0952
 4668SOL    HW225638   3.765   3.135   8.066  0.4068 -0.1605 -0.2373
 4669SOL     OW25639   4.508   3.105  11.888 -0.6151  0.0749  0.2814
 4669SOL    HW125640   4.515   3.184  11.941 -0.1743 -0.2932  0.7742
 4669SOL    HW225641   4.565   3.121  11.813  0.3774  2.2206  1.4796
 4670SOL     OW25642   0.172   1.287   7.558  0.4375 -0.4654 -0.8393
 4670SOL    HW125643   0.084   1.325   7.551  1.0646  0.8816 -1.4353
 4670SOL    HW225644   0.212   1.351   7.499  0.0093  1.0666  0.5291
 4671SOL     OW25645   3.561   0.813   2.038  0.1618 -0.5682  0.1064
 4671SOL    HW125646   3.500   0.746   2.067 -2.2895  2.4378  1.8459
 4671SOL    HW225647   3.624   0.758   1.990  0.3562 -1.1090  0.9816
 4672SOL     OW25648   1.106   3.872  15.217  0.2885 -0.1093  0.1445
 4672SOL    HW125649   1.035   3.846  15.276 -0.2754  0.5147 -0.2601
 4672SOL    HW225650   1.064   3.944  15.171  1.0848  0.8921  0.9638
 4673SOL     OW25651   1.182   0.665  14.611 -0.1494  0.2397  0.0571
 4673SOL    HW125652   1.137   0.749  14.604 -1.7561 -0.7091 -0.8561
 4673SOL    HW225653   1.164   0.638  14.701 -1.6707  1.0945  0.0100
 4674SOL     OW25654   3.040   1.241  14.045 -0.3334 -0.1308  0.7995
 4674SOL    HW125655   2.971   1.197  14.095 -0.5461 -1.1571 -0.4221
 4674SOL    HW225656   2.993   1.288  13.976  1.1849  1.8063  1.0625
 4675SOL     OW25657   0.982   2.757   4.111  0.7548  0.7345  0.1736
 4675SOL    HW125658   1.068   2.768   4.070 -0.6585  1.0536 -2.6779
 4675SOL    HW225659   0.969   2.848   4.136  0.0712  0.7010 -0.0718
 4676SOL     OW25660   4.663   1.150  17.398  0.4925 -0.2621 -0.3305
 4676SOL    HW125661   4.702   1.121  17.316 -0.8917 -1.1135 -0.6760
 4676SOL    HW225662   4.578   1.179  17.364  1.2493  1.9746 -0.3509
 4677SOL     OW25663   0.478   3.575   8.207 -0.9003  0.1450 -0.7162
 4677SOL    HW125664   0.416   3.502   8.197 -1.2775  0.3841 -0.1092
 4677SOL    HW225665   0.445   3.613   8.289 -1.6345  2.6424 -2.1962
 4678SOL     OW25666   1.245   4.639   0.027  0.2637 -0.5509 -0.1054
 4678SOL    HW125667   1.199   4.575  17.715  0.5109 -1.6721  1.0329
 4678SOL    HW225668   1.303   4.671  17.699 -1.1226  3.2005  0.4767
 4679SOL     OW25669   0.194   1.222   0.833  0.1122 -0.9415  0.2104
 4679SOL    HW125670   0.262   1.229   0.766 -1.0869 -1.9793 -1.1061
 4679SOL    HW225671   0.149   1.141   0.811 -0.9487 -0.5906  1.0922
 4680SOL     OW25672   3.905   0.718   7.070  0.2848  0.4962 -0.3521
 4680SOL    HW125673   3.878   0.633   7.103  1.6972 -0.0570 -0.6209
 4680SOL    HW225674   3.955   0.682   6.996  2.7311 -0.7835  1.9252
 4681SOL     OW25675   4.655   0.300   4.854  0.5626 -0.6059  0.3058
 4681SOL    HW125676   4.725   0.288   4.790  0.4950  3.3685 -0.5153
 4681SOL    HW225677   4.576   0.313   4.802  0.7360 -1.0944 -0.0795
 4682SOL     OW25678   0.688   3.277   7.354 -0.1139 -0.1336  0.1587
 4682SOL    HW125679   0.611   3.249   7.404 -0.7139 -0.6263 -1.0544
 4682SOL    HW225680   0.647   3.284   7.268 -1.5845  0.7329  0.9395
 4683SOL     OW25681   3.687   2.546   9.402  0.3433  0.4676 -0.7679
 4683SOL    HW125682   3.767   2.587   9.436  0.7002 -2.7955  2.3259
 4683SOL    HW225683   3.712   2.464   9.360 -2.4602 -1.5731  1.6003
 4684SOL     OW25684   0.247   0.620   7.442  0.6716  0.0033  0.1543
 4684SOL    HW125685   0.210   0.691   7.390 -0.2126 -0.7232 -0.1878
 4684SOL    HW225686   0.311   0.662   7.500  0.5624  0.5306 -0.1046
 4685SOL     OW25687   4.290   2.585   6.723 -0.1923 -0.9937 -0.1567
 4685SOL    HW125688   4.378   2.558   6.748  0.0957 -0.6664 -0.8109
 4685SOL    HW225689   4.315   2.673   6.697 -1.6464 -0.4436  0.2989
 4686SOL     OW25690   1.519   4.527   7.789  0.0248  0.0063  0.1021
 4686SOL    HW125691   1.434   4.515   7.831 -0.7213  2.6377 -0.6278
 4686SOL    HW225692   1.498   4.537   7.696  1.7288 -0.9899 -0.3991
 4687SOL     OW25693   2.294   0.270  12.104 -0.1720 -0.4646  0.1914
 4687SOL    HW125694   2.229   0.340  12.095  0.4490 -0.1867 -2.0945
 4687SOL    HW225695   2.343   0.291  12.025 -1.0401  1.9008  0.3019
 4688SOL     OW25696   3.001   3.099   8.278  0.4165  0.0327  0.0662
 4688SOL    HW125697   3.095   3.115   8.285  0.7511 -1.9585  0.2517
 4688SOL    HW225698   2.970   3.166   8.339  0.8744  0.4962 -0.2188
 4689SOL     OW25699   3.783   4.174   8.679 -0.2177 -0.5884  0.2474
 4689SOL    HW125700   3.690   4.184   8.657 -0.3510 -1.7424  0.3010
 4689SOL    HW225701   3.800   4.243   8.743  0.4931 -2.4786  2.0862
 4690SOL     OW25702   2.944   2.790   4.568  0.1924  0.3389 -0.3071
 4690SOL    HW125703   3.024   2.840   4.552  2.2752 -2.2667  1.8625
 4690SOL    HW225704   2.964   2.745   4.650  2.9686  1.8741 -0.1423
 4691SOL     OW25705   3.252   0.455   3.253  0.0263 -0.5576 -0.8798
 4691SOL    HW125706   3.339   0.423   3.273  0.0759  0.7414  0.9269
 4691SOL    HW225707   3.204   0.419   3.328 -0.9283 -1.2528 -1.8164
 4692SOL     OW25708   0.742   0.603   4.390  0.1537  0.3824 -0.0720
 4692SOL    HW125709   0.680   0.618   4.461 -0.3832  2.0322 -0.8998
 4692SOL    HW225710   0.804   0.551   4.442 -0.3327 -1.8872 -1.7227
 4693SOL     OW25711   0.612   3.138   3.887 -0.0331  0.2278 -0.0117
 4693SOL    HW125712   0.576   3.204   3.828  0.0609  0.4220  0.1483
 4693SOL    HW225713   0.705   3.155   3.871  0.0855 -2.0100 -1.6818
 4694SOL     OW25714   1.626   2.335   1.126  0.2193  0.5047 -0.2104
 4694SOL    HW125715   1.571   2.270   1.082 -0.6538  1.3109 -0.3102
 4694SOL    HW225716   1.659   2.376   1.046 -2.5691  1.5285 -0.8533
 4695SOL     OW25717   0.474   2.011  10.790 -0.4027  0.2236  0.6226
 4695SOL    HW125718   0.392   2.036  10.832 -0.2910  0.6122  0.6040
 4695SOL    HW225719   0.461   1.916  10.781  0.6673  0.0696  0.7406
 4696SOL     OW25720   3.143   1.878   1.890 -0.2361 -0.1220  0.1122
 4696SOL    HW125721   3.109   1.828   1.964 -0.7766 -0.9714 -0.6951
 4696SOL    HW225722   3.228   1.835   1.892 -0.6764 -1.1215 -2.0373
 4697SOL     OW25723   3.757   1.994   4.309  0.0974 -0.1393 -0.2823
 4697SOL    HW125724   3.732   2.060   4.373 -0.2042  0.0065 -0.5521
 4697SOL    HW225725   3.850   2.014   4.301  0.2206 -1.9074 -3.2391
 4698SOL     OW25726   1.948   3.238   7.540 -0.3243 -0.0600  0.3924
 4698SOL    HW125727   1.931   3.144   7.540 -1.9458  0.2422  0.5466
 4698SOL    HW225728   1.899   3.264   7.463  1.4395 -1.3340 -1.1540
 4699SOL     OW25729   2.467   2.811   8.685 -0.3714 -0.2325 -0.5187
 4699SOL    HW125730   2.491   2.903   8.696  0.3562 -0.4454 -0.2884
 4699SOL    HW225731   2.462   2.783   8.777  0.0084 -0.5451 -0.5926
 4700SOL     OW25732   4.678   3.447   7.898  0.1312 -0.1684  0.2134
 4700SOL    HW125733   0.014   3.495   7.856  1.0162 -0.1509  1.7533
 4700SOL    HW225734   4.718   3.367   7.933 -0.7788 -0.1442  1.3053
 4701SOL     OW25735   0.701   0.094   3.605 -0.1840 -0.0200  0.0951
 4701SOL    HW125736   0.761   0.081   3.532 -1.0240 -1.5528 -0.3092
 4701SOL    HW225737   0.742   0.176   3.635  2.4370 -1.2478 -0.1327
 4702SOL     OW25738   4.205   2.755  12.607 -1.0732  0.1529  0.6784
 4702SOL    HW125739   4.274   2.780  12.545  0.4908 -0.5636  2.1371
 4702SOL    HW225740   4.218   2.820  12.676  0.9012 -0.2183  0.6450
 4703SOL     OW25741   1.775   3.571  12.672  0.7816  0.5909  0.6602
 4703SOL    HW125742   1.740   3.498  12.619  0.6903  1.3853 -0.3713
 4703SOL    HW225743   1.725   3.644  12.635 -1.7323  0.0107  2.8877
 4704SOL     OW25744   0.436   2.045   6.655  0.2307 -0.0361 -0.2437
 4704SOL    HW125745   0.422   2.051   6.560  0.7141 -0.7974 -0.3573
 4704SOL    HW225746   0.370   1.983   6.688 -0.4237 -0.3716 -2.1556
 4705SOL     OW25747   2.970   0.453   4.442  0.4243  0.0311  0.0230
 4705SOL    HW125748   2.949   0.512   4.515  0.2710  1.6198 -1.3180
 4705SOL    HW225749   3.043   0.400   4.474  0.4643  0.3415  0.4487
 4706SOL     OW25750   1.787   3.295   7.323 -0.2204 -0.0223 -0.5566
 4706SOL    HW125751   1.735   3.215   7.311 -0.0122 -0.0344 -1.3724
 4706SOL    HW225752   1.717   3.358   7.307 -0.6191 -0.6544 -1.2898
 4707SOL     OW25753   1.460   0.234  10.293  0.8522  0.5437  0.5763
 4707SOL    HW125754   1.465   0.171  10.221 -0.3274 -0.0820  1.0391
 4707SOL    HW225755   1.497   0.183  10.365  2.4149 -0.1798 -0.7495
 4708SOL     OW25756   3.872   1.529   9.103  0.7438 -0.2560  0.4317
 4708SOL    HW125757   3.827   1.549   9.021 -0.2016 -0.9638  0.7664
 4708SOL    HW225758   3.809   1.462   9.131  0.5019  0.0326  0.5896
 4709SOL     OW25759   0.288   0.092   9.714  0.1078  0.4966  0.2052
 4709SOL    HW125760   0.305   0.159   9.648 -2.4108  1.6865  0.7699
 4709SOL    HW225761   0.304   0.013   9.662  0.1510 -0.3049  1.4165
 4710SOL     OW25762   0.795   0.533   5.108  0.5859  0.0571 -0.5619
 4710SOL    HW125763   0.793   0.437   5.116 -2.4567  0.3174  2.1198
 4710SOL    HW225764   0.807   0.535   5.013  0.2196  0.5923 -0.5938
 4711SOL     OW25765   2.641   1.521   9.336  0.3220 -0.2283  0.0614
 4711SOL    HW125766   2.719   1.554   9.291 -1.5597  0.9622 -2.3405
 4711SOL    HW225767   2.586   1.520   9.257  0.5742 -2.6682 -0.0866
 4712SOL     OW25768   1.266   0.343   7.848 -0.3667  0.3552 -0.1352
 4712SOL    HW125769   1.237   0.343   7.939  0.0351 -1.3303  0.0010
 4712SOL    HW225770   1.284   0.250   7.834 -0.6202  0.4750 -1.2975
 4713SOL     OW25771   0.513   3.365   2.708  0.1550  0.6430  0.1188
 4713SOL    HW125772   0.481   3.289   2.757  0.0247 -0.4130 -1.5851
 4713SOL    HW225773   0.558   3.405   2.782 -0.9783 -1.6374  2.0232
 4714SOL     OW25774   2.144   1.965   0.518 -0.7628  0.4207  0.2004
 4714SOL    HW125775   2.214   2.017   0.559  1.0455  0.0645 -2.4154
 4714SOL    HW225776   2.140   1.889   0.576  0.1875 -0.0852 -0.3896
 4715SOL     OW25777   0.570   1.486  17.300  0.3720  0.2733 -0.0204
 4715SOL    HW125778   0.530   1.573  17.298 -1.6077 -0.6482 -0.5249
 4715SOL    HW225779   0.657   1.500  17.261  0.4488 -1.7903 -0.5915
 4716SOL     OW25780   0.195   3.392   8.450  0.0798  0.0230  0.0723
 4716SOL    HW125781   0.224   3.441   8.526  2.2015 -0.7857 -0.2104
 4716SOL    HW225782   0.278   3.352   8.421  0.1460  0.9042 -0.9734
 4717SOL     OW25783   2.202   3.240   6.739 -0.1391 -0.2039 -0.1735
 4717SOL    HW125784   2.238   3.187   6.810 -1.5460  0.1060  0.7688
 4717SOL    HW225785   2.261   3.216   6.668 -0.7676  0.6494 -0.9915
 4718SOL     OW25786   2.068   0.725   9.816  0.1193  0.1733  0.5891
 4718SOL    HW125787   2.014   0.781   9.870 -0.5709 -0.2183  0.3059
 4718SOL    HW225788   2.042   0.746   9.726 -1.7536 -0.7364  0.9182
 4719SOL     OW25789   3.392   1.080   6.988  0.3350 -0.4868  0.3463
 4719SOL    HW125790   3.428   1.119   6.908 -0.3841  0.9445  0.7281
 4719SOL    HW225791   3.302   1.112   6.988 -0.2539 -2.1466  0.3029
 4720SOL     OW25792   2.419   0.397  10.857 -0.3241 -0.3376  0.7675
 4720SOL    HW125793   2.372   0.477  10.878 -0.4447  0.2337 -1.6639
 4720SOL    HW225794   2.458   0.423  10.774  0.8855  1.5800  1.9464
 4721SOL     OW25795   3.221   2.658   9.123 -0.0276 -0.1077  0.3004
 4721SOL    HW125796   3.210   2.674   9.029 -0.5923  1.6466  0.6618
 4721SOL    HW225797   3.303   2.609   9.123  0.1224  0.1083 -2.7980
 4722SOL     OW25798   4.463   2.191   1.306  0.0455  0.1064  0.2410
 4722SOL    HW125799   4.443   2.214   1.397  1.0687  0.7749  0.2970
 4722SOL    HW225800   4.535   2.130   1.320 -0.7618 -0.8077  0.4468
 4723SOL     OW25801   2.501   0.248   7.783 -0.3870 -0.3572 -0.1558
 4723SOL    HW125802   2.493   0.152   7.787  0.7673 -0.4400  0.1499
 4723SOL    HW225803   2.462   0.276   7.865 -0.7171 -2.3702  0.3909
 4724SOL     OW25804   0.934   0.116   6.047 -0.2879 -0.5052 -0.0281
 4724SOL    HW125805   0.929   0.098   5.954  1.4470 -1.5362  0.0730
 4724SOL    HW225806   1.022   0.155   6.054 -0.4587  0.5119 -3.8142
 4725SOL     OW25807   3.862   4.051   7.465  0.1850  0.4473  0.1998
 4725SOL    HW125808   3.834   4.143   7.466 -2.5400 -0.4065  1.3559
 4725SOL    HW225809   3.803   4.017   7.532  1.6966  0.5407  1.5850
 4726SOL     OW25810   0.999   3.705  16.234 -0.1554  0.2635 -0.4544
 4726SOL    HW125811   1.079   3.750  16.262 -0.5156  0.1399  0.7955
 4726SOL    HW225812   1.021   3.636  16.172 -1.1279  0.6166 -1.1766
 4727SOL     OW25813   1.689   4.615  15.338  0.2039  0.4855  0.3103
 4727SOL    HW125814   1.644   4.547  15.288  0.5895 -1.2488  2.2881
 4727SOL    HW225815   1.641   4.692  15.309  1.6279  1.2725  0.0474
 4728SOL     OW25816   2.268   1.746   7.788 -0.1588 -0.1097 -0.4179
 4728SOL    HW125817   2.224   1.664   7.810 -1.8328  0.4461 -1.6776
 4728SOL    HW225818   2.189   1.799   7.801  1.1614  1.0251  2.8633
 4729SOL     OW25819   1.940   2.288  14.046  0.4692 -0.1798 -0.2116
 4729SOL    HW125820   1.852   2.323  14.038  0.0098 -1.8309 -2.1803
 4729SOL    HW225821   1.932   2.206  13.997 -0.2281 -1.4656  2.0485
 4730SOL     OW25822   2.300   2.079   5.887  0.0738 -0.2967 -0.0472
 4730SOL    HW125823   2.228   2.142   5.892  0.4559  0.1321  0.0925
 4730SOL    HW225824   2.320   2.056   5.978 -0.4868  1.3763  0.5041
 4731SOL     OW25825   1.022   0.021  15.717 -0.1982  0.1788  0.1473
 4731SOL    HW125826   1.089   4.726  15.777  0.2784 -1.5855 -1.2995
 4731SOL    HW225827   1.039   0.115  15.708  0.0654  0.3990  2.8318
 4732SOL     OW25828   3.433   3.259  13.191  0.1850 -0.4878 -0.2241
 4732SOL    HW125829   3.426   3.233  13.282  0.2016  0.5763  0.0775
 4732SOL    HW225830   3.406   3.177  13.150  0.6252  0.1158 -1.7443
 4733SOL     OW25831   2.637   3.348   0.146 -0.5195 -0.1325  0.2907
 4733SOL    HW125832   2.624   3.267   0.096 -0.7386 -1.1627  2.0240
 4733SOL    HW225833   2.577   3.334   0.219 -1.0830 -0.4385 -0.2349
 4734SOL     OW25834   2.236   1.808   4.141  0.6315  0.4853  0.5273
 4734SOL    HW125835   2.286   1.753   4.081 -0.4454 -0.8424  0.8538
 4734SOL    HW225836   2.272   1.893   4.115 -0.9618  0.4818 -1.7398
 4735SOL     OW25837   3.307   2.439   7.386  0.0723 -0.7334 -0.6417
 4735SOL    HW125838   3.268   2.353   7.372 -3.0908  0.3264  1.4087
 4735SOL    HW225839   3.320   2.443   7.481  3.5165  1.0654 -1.1999
 4736SOL     OW25840   3.165   3.458   8.668  0.4570 -0.1574  0.0710
 4736SOL    HW125841   3.153   3.410   8.750  1.2838 -1.8671 -0.8029
 4736SOL    HW225842   3.245   3.413   8.640  1.6430  2.2554 -0.3886
 4737SOL     OW25843   4.264   0.034   9.835 -0.3245  0.1134 -0.3690
 4737SOL    HW125844   4.267   4.683   9.876  1.3441  0.9159  1.2076
 4737SOL    HW225845   4.348   0.054   9.794 -0.0594  0.7994  0.4970
 4738SOL     OW25846   1.844   1.687   0.110 -0.0998  0.1303  0.3691
 4738SOL    HW125847   1.840   1.763   0.168  0.0866  0.0860  0.4379
 4738SOL    HW225848   1.936   1.663   0.115 -0.2687 -0.6276 -0.1830
 4739SOL     OW25849   2.110   0.128   7.558  0.0153 -0.2888  0.1812
 4739SOL    HW125850   2.176   0.103   7.622  0.6920 -0.2607 -0.5067
 4739SOL    HW225851   2.168   0.171   7.496 -1.4720  0.5548 -0.6343
 4740SOL     OW25852   3.508   3.432   8.449  0.1852  0.2259 -0.5313
 4740SOL    HW125853   3.531   3.358   8.505  0.4447  2.0386  1.7443
 4740SOL    HW225854   3.556   3.400   8.372  1.1431  0.0095  0.1452
 4741SOL     OW25855   4.202   4.423   9.974 -0.0184 -0.0208  0.4479
 4741SOL    HW125856   4.122   4.466  10.003 -0.5157 -0.1301 -0.7605
 4741SOL    HW225857   4.273   4.477  10.009  0.0469  0.6940 -0.7909
 4742SOL     OW25858   1.451   4.399  13.642  0.0545 -0.7011  0.3579
 4742SOL    HW125859   1.409   4.485  13.639  1.1642 -0.2088 -1.0242
 4742SOL    HW225860   1.496   4.404  13.727  0.9822  2.6465 -0.3083
 4743SOL     OW25861   0.249   2.493   5.524  0.1700 -0.2022  0.2143
 4743SOL    HW125862   0.335   2.507   5.485  0.4466 -1.1410  0.4892
 4743SOL    HW225863   0.230   2.405   5.491  0.9656 -0.8692  1.5407
 4744SOL     OW25864   3.902   1.773   9.269 -0.0923  0.6462 -0.1270
 4744SOL    HW125865   3.877   1.685   9.242 -1.9966  0.9248  0.7617
 4744SOL    HW225866   3.995   1.765   9.291 -0.2357  1.0048  0.6250
 4745SOL     OW25867   3.892   3.120  10.005  0.1912 -0.2880 -0.1006
 4745SOL    HW125868   3.804   3.147   9.979  0.9506  1.8279 -0.4849
 4745SOL    HW225869   3.870   3.039  10.050  1.1035 -0.3624  0.2166
 4746SOL     OW25870   1.384   2.696   3.168  0.8172 -0.9200  0.1440
 4746SOL    HW125871   1.365   2.619   3.116 -3.1948  1.3444 -1.7412
 4746SOL    HW225872   1.322   2.685   3.240 -0.6399  1.7590 -0.6858
 4747SOL     OW25873   4.159   0.061   6.821 -0.2116 -0.0294 -0.4366
 4747SOL    HW125874   4.143   0.032   6.732  0.4851  1.2051 -0.9800
 4747SOL    HW225875   4.139   4.720   6.874 -1.2892 -1.5283 -3.0400
 4748SOL     OW25876   0.903   3.584  12.561  0.0285  0.2636  0.3464
 4748SOL    HW125877   0.858   3.566  12.644  1.2920 -0.3769  0.9006
 4748SOL    HW225878   0.985   3.534  12.564 -1.2644 -1.7883  1.9150
 4749SOL     OW25879   3.300   0.509  12.189 -0.3399  0.6346 -0.7227
 4749SOL    HW125880   3.281   0.575  12.256 -0.2128 -0.7591  0.6624
 4749SOL    HW225881   3.221   0.506  12.134 -1.5124  0.2844  0.9871
 4750SOL     OW25882   3.993   2.480   0.904 -0.1026 -0.0887 -0.1419
 4750SOL    HW125883   3.978   2.417   0.974 -0.8614  1.4618  1.1079
 4750SOL    HW225884   3.906   2.518   0.897  0.7138  2.0209  0.9666
 4751SOL     OW25885   1.330   3.690   6.613 -0.2923 -0.9243 -0.1854
 4751SOL    HW125886   1.289   3.616   6.567  1.3061 -0.3066 -2.5640
 4751SOL    HW225887   1.418   3.654   6.628 -1.2050 -2.8514  0.6698
 4752SOL     OW25888   3.226   4.633  16.046  0.1430 -0.2640 -0.1022
 4752SOL    HW125889   3.157   4.677  16.096  0.5879 -1.3661  1.4747
 4752SOL    HW225890   3.220   4.541  16.071 -0.7174  0.2948  1.7105
 4753SOL     OW25891   3.469   1.401   2.090  0.5301  0.0444  0.1308
 4753SOL    HW125892   3.503   1.334   2.032 -2.5384 -0.5790 -0.9541
 4753SOL    HW225893   3.511   1.373   2.171  2.0672 -1.8958 -1.3608
 4754SOL     OW25894   2.012   3.933   1.921 -0.1580 -0.1387  0.2702
 4754SOL    HW125895   1.967   3.895   1.845  2.9215 -0.5625 -1.3399
 4754SOL    HW225896   1.954   4.009   1.929  1.8085  1.3679 -0.0171
 4755SOL     OW25897   0.628   0.137  13.367  0.5633 -0.6792  0.4663
 4755SOL    HW125898   0.648   0.155  13.458  0.4578  0.2594  0.3026
 4755SOL    HW225899   0.715   0.114  13.336 -0.6825 -0.2251 -3.4140
 4756SOL     OW25900   2.293   4.197  15.763 -0.1923 -0.1967  0.3007
 4756SOL    HW125901   2.364   4.136  15.743 -1.9908 -1.1122 -3.3674
 4756SOL    HW225902   2.216   4.152  15.730 -0.9445 -0.2032  2.0973
 4757SOL     OW25903   1.753   3.088  10.103  0.4524  0.1914 -0.3315
 4757SOL    HW125904   1.829   3.062  10.051  0.9170 -1.2634  1.1006
 4757SOL    HW225905   1.682   3.103  10.040 -0.0522  2.4732  0.7529
 4758SOL     OW25906   2.791   4.487   2.027 -0.2315  0.2295  0.3004
 4758SOL    HW125907   2.839   4.440   1.958  1.8734 -1.0164  2.5762
 4758SOL    HW225908   2.732   4.415   2.050 -0.1871  0.3817  0.8883
 4759SOL     OW25909   3.367   1.670   3.401 -0.0917  0.0132  0.3074
 4759SOL    HW125910   3.333   1.665   3.312 -1.3627 -1.9424  0.8881
 4759SOL    HW225911   3.315   1.743   3.436  0.2909  1.2956 -1.8447
 4760SOL     OW25912   2.579   1.845  15.185  0.2625  0.2035 -0.2907
 4760SOL    HW125913   2.629   1.875  15.109  0.9075 -1.3889 -0.4763
 4760SOL    HW225914   2.503   1.903  15.181 -1.0670 -1.7800 -3.1071
 4761SOL     OW25915   0.793   1.639  10.245 -0.0162 -0.1905 -0.2544
 4761SOL    HW125916   0.779   1.642  10.151 -2.7314 -0.6036  0.1215
 4761SOL    HW225917   0.706   1.635  10.287 -1.0047  0.8584 -2.1851
 4762SOL     OW25918   0.667   3.434  15.755 -0.5778  0.0523 -0.5591
 4762SOL    HW125919   0.747   3.389  15.782  1.3012  1.4273 -3.8661
 4762SOL    HW225920   0.643   3.491  15.828  1.3300  1.6195 -1.1308
 4763SOL     OW25921   1.187   4.545   2.749  0.2517  0.3135  0.3549
 4763SOL    HW125922   1.111   4.579   2.703 -0.4478 -2.1116 -0.2394
 4763SOL    HW225923   1.215   4.623   2.797  2.1201 -0.2197  0.1450
 4764SOL     OW25924   4.430   4.110   7.116  0.0802 -0.2935  0.2846
 4764SOL    HW125925   4.334   4.101   7.119 -0.1399  2.9615  2.9292
 4764SOL    HW225926   4.458   4.027   7.155 -0.1329 -0.8524 -0.7361
 4765SOL     OW25927   2.454   3.687   5.153 -0.6207 -0.2064 -0.8279
 4765SOL    HW125928   2.405   3.740   5.216 -0.3624 -1.1812  0.1749
 4765SOL    HW225929   2.455   3.751   5.081  0.3879 -1.7645 -2.1962
 4766SOL     OW25930   0.916   2.877  14.277 -0.2949  0.2976 -0.1182
 4766SOL    HW125931   0.861   2.860  14.201 -1.7666 -1.4442  1.3391
 4766SOL    HW225932   0.963   2.956  14.249 -0.0210 -0.1497 -0.9107
 4767SOL     OW25933   2.266   0.098  10.158  0.0203 -0.0738 -0.2447
 4767SOL    HW125934   2.197   0.134  10.103 -0.1926  0.2003  0.2035
 4767SOL    HW225935   2.229   0.112  10.245 -1.4182 -1.0911 -0.6825
 4768SOL     OW25936   0.491   1.457   3.812  0.4094  0.2990 -0.2838
 4768SOL    HW125937   0.418   1.447   3.751  2.4614 -1.3237 -2.4895
 4768SOL    HW225938   0.557   1.496   3.755 -0.0042  0.9865 -0.2901
 4769SOL     OW25939   1.596   1.665   0.308  0.3581 -0.4314  0.2069
 4769SOL    HW125940   1.672   1.619   0.273 -0.1512 -1.8936  1.0636
 4769SOL    HW225941   1.640   1.742   0.345  0.7677 -0.3409 -0.4605
 4770SOL     OW25942   3.225   3.453   6.987 -0.4100 -0.3617  0.8353
 4770SOL    HW125943   3.275   3.530   6.961  1.2363 -1.3651  1.0882
 4770SOL    HW225944   3.135   3.476   6.963 -0.4782 -2.4867 -0.9528
 4771SOL     OW25945   1.729   3.750   3.903  0.2057  0.1315  0.0665
 4771SOL    HW125946   1.784   3.728   3.827 -0.6999 -0.2226 -0.4916
 4771SOL    HW225947   1.646   3.722   3.867  0.6287  1.5964 -2.0632
 4772SOL     OW25948   1.255   2.844  14.340 -0.9703  0.5409 -0.6404
 4772SOL    HW125949   1.187   2.779  14.320  0.0258 -0.5137 -0.5921
 4772SOL    HW225950   1.198   2.910  14.381 -0.6292 -0.1458  0.9561
 4773SOL     OW25951   1.705   3.694  17.034 -0.1087 -0.6068 -0.1319
 4773SOL    HW125952   1.703   3.641  16.954  0.9769 -0.1276 -0.4712
 4773SOL    HW225953   1.718   3.780  16.995  1.2737 -0.8125 -0.1342
 4774SOL     OW25954   2.262   0.131   6.000 -0.1434  0.4893  0.5384
 4774SOL    HW125955   2.246   0.142   5.906  0.8367  1.9689  0.5354
 4774SOL    HW225956   2.338   0.072   6.002  0.5756  1.3509 -1.1676
 4775SOL     OW25957   4.116   3.991   7.429  0.0897  0.2596 -0.0491
 4775SOL    HW125958   4.021   3.998   7.418  0.2384  1.4376 -0.7101
 4775SOL    HW225959   4.155   4.056   7.369 -3.0327  2.5092  0.3215
 4776SOL     OW25960   3.872   2.732   1.114 -0.3249  0.0067 -0.9492
 4776SOL    HW125961   3.933   2.799   1.145 -1.6692  0.0891  1.5357
 4776SOL    HW225962   3.914   2.649   1.135 -1.0493  0.1939  1.2823
 4777SOL     OW25963   3.803   0.452  17.455  0.3487 -0.3869 -0.1457
 4777SOL    HW125964   3.759   0.532  17.427 -1.8596 -1.2007  0.9154
 4777SOL    HW225965   3.853   0.435  17.375 -1.0953 -0.2664 -1.0734
 4778SOL     OW25966   3.084   0.239  15.159  0.0430  0.4234  0.3442
 4778SOL    HW125967   3.083   0.242  15.255  1.1190 -0.5815  0.3920
 4778SOL    HW225968   3.149   0.307  15.137  2.0436 -1.2663  1.0033
 4779SOL     OW25969   4.698   3.572  10.608  0.1629 -0.2092  0.0490
 4779SOL    HW125970   4.699   3.655  10.656 -0.4796  0.1158 -0.5007
 4779SOL    HW225971   0.054   3.557  10.584  0.4933 -0.2051  1.3121
 4780SOL     OW25972   0.225   3.719   2.008  0.2308  0.7278 -0.3314
 4780SOL    HW125973   0.132   3.743   2.011 -0.3640 -1.8943  2.3097
 4780SOL    HW225974   0.215   3.628   2.035 -2.7005  0.4519 -2.2572
 4781SOL     OW25975   4.068   1.263   6.165 -0.4464 -0.4287  0.1818
 4781SOL    HW125976   4.008   1.337   6.172 -0.4951 -0.2954 -1.6737
 4781SOL    HW225977   4.153   1.303   6.183 -0.7413 -0.0729  0.7908
 4782SOL     OW25978   0.340   0.036  10.392 -0.1113  0.1856 -0.2481
 4782SOL    HW125979   0.383   4.690  10.367 -1.5213 -1.4580  2.7417
 4782SOL    HW225980   0.416   0.069  10.441 -0.8633  1.1786  0.2618
 4783SOL     OW25981   3.074   0.736  10.004 -0.1583 -0.1743 -0.2138
 4783SOL    HW125982   3.055   0.812  10.059 -1.1214  0.4732 -1.4728
 4783SOL    HW225983   2.995   0.683  10.015 -0.8330  0.6734 -1.0499
 4784SOL     OW25984   1.267   1.429  11.077  0.4225  0.2787  0.2680
 4784SOL    HW125985   1.225   1.343  11.080 -1.5552  1.2841  1.0946
 4784SOL    HW225986   1.358   1.407  11.096  0.5049 -0.0877 -0.5645
 4785SOL     OW25987   3.304   4.346   4.766  0.3782  0.6677 -0.1584
 4785SOL    HW125988   3.244   4.272   4.752 -0.9458  1.3154  2.0183
 4785SOL    HW225989   3.352   4.321   4.845 -0.2316 -0.3992 -0.1208
 4786SOL     OW25990   1.954   1.207  14.878  0.4130 -0.2601  0.1116
 4786SOL    HW125991   2.008   1.235  14.951 -3.2923 -0.4611  2.9576
 4786SOL    HW225992   1.876   1.258  14.900  0.8554  0.8385 -0.8421
 4787SOL     OW25993   3.584   1.030  13.951 -0.2172 -0.1933  0.2366
 4787SOL    HW125994   3.607   1.060  14.039  1.0011 -0.5912  0.0580
 4787SOL    HW225995   3.658   1.058  13.896 -2.0798  1.4192 -1.4361
 4788SOL     OW25996   0.991   1.314   1.569  0.1225  0.1319 -0.3171
 4788SOL    HW125997   0.927   1.320   1.640 -2.6363 -1.8243 -2.6479
 4788SOL    HW225998   0.969   1.390   1.516 -2.7386 -1.5652 -1.5858
 4789SOL     OW25999   1.588   4.081   3.649 -0.7991 -0.3514 -0.4292
 4789SOL    HW126000   1.532   4.011   3.614 -1.9033  1.7052 -2.7243
 4789SOL    HW226001   1.534   4.160   3.643  0.9381  0.7641 -1.1919
 4790SOL     OW26002   4.367   0.227   0.628  0.6441 -0.8653  0.3973
 4790SOL    HW126003   4.451   0.220   0.583  0.4726 -2.2156  0.2945
 4790SOL    HW226004   4.304   0.231   0.556  2.5681  1.1529 -1.2028
 4791SOL     OW26005   0.100   0.013   7.161 -0.8102 -0.1475 -0.2121
 4791SOL    HW126006   0.169   0.025   7.226 -0.7319  0.3839 -0.3909
 4791SOL    HW226007   0.162   0.002   7.089 -1.4760  0.2840 -0.8623
 4792SOL     OW26008   3.653   4.082  16.297 -0.3509  1.0399  0.1870
 4792SOL    HW126009   3.713   4.129  16.355 -1.2278  0.5347  1.5077
 4792SOL    HW226010   3.593   4.147  16.259 -1.0677  0.4245  0.2625
 4793SOL     OW26011   3.383   2.613  13.583  0.0240  0.7705 -0.5069
 4793SOL    HW126012   3.462   2.655  13.618  0.1491 -0.1209  0.2717
 4793SOL    HW226013   3.321   2.655  13.642 -2.3984  0.8252 -3.0818
 4794SOL     OW26014   0.882   1.382   4.318  0.3004  0.2421 -0.3224
 4794SOL    HW126015   0.787   1.391   4.319  0.2964  0.2582 -1.0249
 4794SOL    HW226016   0.919   1.386   4.407 -1.2119 -0.1217  0.3234
 4795SOL     OW26017   3.982   1.547  11.700 -0.5421 -0.2903  0.3509
 4795SOL    HW126018   4.063   1.597  11.684 -0.7165 -0.0755  0.1428
 4795SOL    HW226019   3.926   1.620  11.726  1.0998  1.1036 -0.0579
 4796SOL     OW26020   0.195   3.259   1.485 -0.3813  0.3784 -0.2886
 4796SOL    HW126021   0.154   3.192   1.540 -0.1802 -0.9505 -1.7594
 4796SOL    HW226022   0.287   3.259   1.512 -0.1582  2.1124 -1.0934
 4797SOL     OW26023   0.272   0.508   6.135 -0.0567  0.0091 -0.0732
 4797SOL    HW126024   0.350   0.473   6.091  0.1365  0.2283  0.1011
 4797SOL    HW226025   0.255   0.589   6.088  0.0767 -0.3801 -0.7980
 4798SOL     OW26026   1.894   2.604  14.134  0.3173 -0.5090  0.3959
 4798SOL    HW126027   1.947   2.683  14.121 -2.2302  1.1446  0.0420
 4798SOL    HW226028   1.914   2.560  14.052  0.1375 -0.5111  0.3536
 4799SOL     OW26029   0.047   4.310  10.613  0.0992  0.1682 -0.5393
 4799SOL    HW126030   0.038   4.225  10.571  3.2512 -0.7032  0.4867
 4799SOL    HW226031   0.060   4.368  10.538  1.3703  0.7184  0.0982
 4800SOL     OW26032   3.950   3.348   3.911 -0.3680 -0.2993  0.3662
 4800SOL    HW126033   3.860   3.380   3.901  0.5450  2.3425  0.7444
 4800SOL    HW226034   3.982   3.365   3.823 -1.1458 -0.4005  0.0608
 4801SOL     OW26035   2.680   4.546   3.871 -0.2855  0.0613 -0.0798
 4801SOL    HW126036   2.614   4.593   3.819 -0.7511  1.8504  2.1303
 4801SOL    HW226037   2.656   4.557   3.963  0.9265 -2.2350  0.5203
 4802SOL     OW26038   0.485   1.696   7.185 -0.0953  0.5442  0.1726
 4802SOL    HW126039   0.391   1.705   7.176 -0.2476 -1.4594 -0.2105
 4802SOL    HW226040   0.501   1.667   7.275  1.8891 -0.0063 -0.3395
 4803SOL     OW26041   0.455   3.372  16.641  0.5333  0.1562  0.2423
 4803SOL    HW126042   0.359   3.368  16.634  0.5095  0.4636  0.4252
 4803SOL    HW226043   0.482   3.348  16.552 -2.1971  2.2131 -1.1268
 4804SOL     OW26044   4.020   0.988   9.385 -0.0978 -0.3483  0.6133
 4804SOL    HW126045   4.058   1.072   9.410  2.3219 -1.0307 -0.7377
 4804SOL    HW226046   3.940   0.983   9.437  0.2386  0.3617  1.2018
 4805SOL     OW26047   2.244   1.456   5.502  0.9141  0.3911 -0.2020
 4805SOL    HW126048   2.256   1.501   5.418  0.8973  1.4156  0.3537
 4805SOL    HW226049   2.328   1.413   5.516  0.8368  0.5298  0.6630
 4806SOL     OW26050   1.838   3.046  13.015  0.1584  0.1816  0.4239
 4806SOL    HW126051   1.894   3.076  12.943  0.9536 -1.4884  0.3533
 4806SOL    HW226052   1.794   2.971  12.975 -0.2017  0.4262  0.3547
 4807SOL     OW26053   2.292   0.211   7.307  0.1642  0.5106  0.4196
 4807SOL    HW126054   2.370   0.176   7.350  0.1223 -0.7268 -0.5107
 4807SOL    HW226055   2.325   0.295   7.276  1.8891 -0.4891 -0.4829
 4808SOL     OW26056   1.613   0.049   2.650 -0.2089  0.0837 -0.0573
 4808SOL    HW126057   1.634   0.026   2.559  1.4812 -0.2564  0.4178
 4808SOL    HW226058   1.681   0.111   2.675 -0.5684  0.3146  0.3413
 4809SOL     OW26059   0.415   4.163  13.493  0.1328  0.2192  0.8844
 4809SOL    HW126060   0.448   4.220  13.563 -0.0067 -0.4323  1.4895
 4809SOL    HW226061   0.469   4.176  13.416 -0.6043  0.1859  0.3618
 4810SOL     OW26062   0.885   3.199  17.150 -0.4193 -0.0603  0.0513
 4810SOL    HW126063   0.886   3.139  17.225  4.6889 -0.3332 -0.2281
 4810SOL    HW226064   0.909   3.277  17.199 -3.0621 -0.0901  1.3892
 4811SOL     OW26065   3.895   2.084   2.374 -0.2759 -0.3845  0.0485
 4811SOL    HW126066   3.902   2.177   2.394  0.7428 -0.4906  0.1655
 4811SOL    HW226067   3.850   2.049   2.450 -0.8697 -0.0573 -0.1508
 4812SOL     OW26068   3.633   2.561   2.352  0.2471 -0.1645 -0.1716
 4812SOL    HW126069   3.609   2.585   2.442 -0.3202  0.1615 -0.4076
 4812SOL    HW226070   3.607   2.643   2.309  0.8650 -0.2162 -0.6429
 4813SOL     OW26071   3.639   2.108   7.590 -0.1820 -0.4411  0.4843
 4813SOL    HW126072   3.638   2.138   7.681 -1.3746 -2.1182  1.0393
 4813SOL    HW226073   3.597   2.022   7.589 -1.4118  0.1785 -0.4790
 4814SOL     OW26074   4.518   3.849   6.182  0.2560 -0.3071 -0.0044
 4814SOL    HW126075   4.574   3.874   6.109 -0.1428 -0.6959 -0.4381
 4814SOL    HW226076   4.577   3.867   6.256 -0.5066 -2.8413  1.1995
 4815SOL     OW26077   3.284   3.384   1.299  0.2974 -0.3911 -0.0728
 4815SOL    HW126078   3.273   3.321   1.370  0.2135 -0.4288 -0.1200
 4815SOL    HW226079   3.206   3.438   1.292  0.2655 -0.6796 -1.9327
 4816SOL     OW26080   2.496   0.976   3.571  0.1738 -0.7618  0.3632
 4816SOL    HW126081   2.451   0.932   3.498 -0.3161  0.7021 -0.2280
 4816SOL    HW226082   2.587   0.973   3.541 -0.0667  1.1259 -0.5873
 4817SOL     OW26083   2.798   1.365   3.525  0.1685  0.1908  0.0839
 4817SOL    HW126084   2.703   1.365   3.537  0.5051 -2.6586  2.5856
 4817SOL    HW226085   2.828   1.452   3.552  1.8714 -0.0420 -1.1469
 4818SOL     OW26086   4.729   0.080   3.372  0.7576 -0.5797 -0.7272
 4818SOL    HW126087   0.004   0.132   3.293 -0.6612  3.3413  1.6363
 4818SOL    HW226088   4.637   0.104   3.388  1.5701  2.5882 -0.7956
 4819SOL     OW26089   1.931   3.372   8.125  0.0711 -0.2223  0.5148
 4819SOL    HW126090   1.943   3.442   8.189 -0.7616  1.2308 -0.9374
 4819SOL    HW226091   1.919   3.300   8.187  0.3063 -0.2137  0.5726
 4820SOL     OW26092   2.102   4.215  13.890  0.0154 -0.1630 -0.3180
 4820SOL    HW126093   2.108   4.288  13.828 -1.1502  0.6380  0.5208
 4820SOL    HW226094   2.102   4.141  13.828  1.0687 -0.1485 -0.3361
 4821SOL     OW26095   2.688   3.747  15.545 -0.8413  0.2112  0.3143
 4821SOL    HW126096   2.738   3.724  15.623  1.3493  1.1557 -0.8143
 4821SOL    HW226097   2.763   3.755  15.485 -1.2236 -2.4611 -0.5092
 4822SOL     OW26098   2.867   2.641   5.125 -0.0456  0.0846 -0.5962
 4822SOL    HW126099   2.926   2.593   5.183 -3.0090 -0.7524  1.7551
 4822SOL    HW226100   2.827   2.571   5.073 -0.6671 -0.7156  0.9387
 4823SOL     OW26101   3.042   0.542   5.037 -0.6251  0.3330 -0.0186
 4823SOL    HW126102   3.041   0.638   5.042 -0.4492  0.3318  0.0508
 4823SOL    HW226103   2.972   0.523   5.099 -0.4523 -0.4209 -0.0552
 4824SOL     OW26104   2.492   4.068   2.723  0.1940 -0.3114  0.1440
 4824SOL    HW126105   2.550   4.090   2.650 -0.3635  0.3357 -0.1024
 4824SOL    HW226106   2.485   3.972   2.721  0.3002 -0.3304  0.9111
 4825SOL     OW26107   2.875   2.207   3.530  0.0966 -0.4833 -0.5087
 4825SOL    HW126108   2.812   2.273   3.557 -0.7918 -1.1721 -0.8971
 4825SOL    HW226109   2.900   2.237   3.443 -0.8226 -2.3264 -1.4067
 4826SOL     OW26110   3.789   4.475   6.447 -0.7401  0.2472 -0.4571
 4826SOL    HW126111   3.872   4.438   6.477 -0.8603  1.5825  1.5225
 4826SOL    HW226112   3.738   4.511   6.520 -3.0649 -1.0849 -1.4392
 4827SOL     OW26113   0.231   3.998   3.177 -0.0952 -0.0477 -0.5564
 4827SOL    HW126114   0.324   4.016   3.184 -0.1941  0.2119  0.1073
 4827SOL    HW226115   0.209   3.988   3.270  0.8941 -1.0691 -0.4306
 4828SOL     OW26116   4.506   2.773  12.730  0.3016 -0.1835  0.0712
 4828SOL    HW126117   4.594   2.801  12.756  1.1357 -1.4495 -1.3859
 4828SOL    HW226118   4.465   2.860  12.736 -0.9160 -0.7941  0.5257
 4829SOL     OW26119   3.501   1.868   7.647  0.0114  0.1367  0.0280
 4829SOL    HW126120   3.532   1.784   7.613 -2.2331  0.2874 -2.3872
 4829SOL    HW226121   3.457   1.845   7.729  1.4753  2.0521  1.3631
 4830SOL     OW26122   2.945   0.968   6.464  0.4939  0.2652  0.4887
 4830SOL    HW126123   2.929   1.042   6.406  0.1274 -0.7212 -0.6728
 4830SOL    HW226124   3.018   1.000   6.517  1.8059 -1.8649 -0.0157
 4831SOL     OW26125   2.103   3.927   8.549 -0.3404 -0.2105 -0.4674
 4831SOL    HW126126   2.191   3.960   8.532 -0.3144 -0.2430 -0.3951
 4831SOL    HW226127   2.082   3.896   8.461 -1.4619 -0.3424 -0.1448
 4832SOL     OW26128   0.465   2.363   8.692  0.2357  0.4268 -0.0577
 4832SOL    HW126129   0.377   2.401   8.697  1.7497  3.7515  0.8934
 4832SOL    HW226130   0.468   2.333   8.602 -2.6300  1.3406 -0.4467
 4833SOL     OW26131   3.694   1.113   3.840 -0.0269 -0.4166  0.7352
 4833SOL    HW126132   3.620   1.156   3.882 -0.6934 -2.8330  2.0182
 4833SOL    HW226133   3.750   1.102   3.917  0.6908 -1.0151  0.1276
 4834SOL     OW26134   4.413   1.690   6.080 -0.7525 -0.2125 -0.4796
 4834SOL    HW126135   4.419   1.641   5.998  2.3752 -2.3137  0.9875
 4834SOL    HW226136   4.367   1.638   6.145  1.6311 -0.5527  0.9278
 4835SOL     OW26137   0.740   0.346   6.290  0.1548 -0.5003  0.5700
 4835SOL    HW126138   0.835   0.342   6.279  0.5255  2.2981  2.8316
 4835SOL    HW226139   0.725   0.431   6.330 -0.1056 -0.4849  0.4377
 4836SOL     OW26140   0.157   0.836  14.416  0.2649 -0.0406  0.4132
 4836SOL    HW126141   0.121   0.807  14.500  1.2401 -0.4847  0.6705
 4836SOL    HW226142   0.212   0.761  14.392  0.8804  1.2990 -2.3292
 4837SOL     OW26143   3.877   1.099   5.791  0.5557  0.2351  0.6488
 4837SOL    HW126144   3.829   1.068   5.868 -0.0850  1.9709  0.9487
 4837SOL    HW226145   3.962   1.115   5.832  1.4177 -0.5379 -0.7986
 4838SOL     OW26146   4.284   2.024   3.925  0.0354  0.0541 -0.6364
 4838SOL    HW126147   4.218   1.957   3.908 -2.5708  2.5710 -0.3673
 4838SOL    HW226148   4.332   1.997   4.003 -0.8139 -1.2819 -0.5742
 4839SOL     OW26149   2.615   4.649   9.763  0.0081  0.2363  0.0410
 4839SOL    HW126150   2.521   4.658   9.748  0.1836 -0.8141 -1.7847
 4839SOL    HW226151   2.650   4.724   9.715  0.9873  1.5302  2.8493
 4840SOL     OW26152   1.493   2.666   0.728  0.5411  0.6402 -0.0044
 4840SOL    HW126153   1.401   2.655   0.748  0.1832  1.2999 -1.2855
 4840SOL    HW226154   1.506   2.633   0.639  0.8899 -2.3760  1.1588
 4841SOL     OW26155   4.501   1.334   3.053  0.3296  0.0260 -0.4744
 4841SOL    HW126156   4.434   1.327   3.121  3.5870  1.2310  2.9070
 4841SOL    HW226157   4.447   1.324   2.975  0.5926 -0.6722 -0.5649
 4842SOL     OW26158   4.650   4.587   5.760 -0.1355  0.2654  0.0567
 4842SOL    HW126159   4.592   4.584   5.684  0.7982 -0.3852 -0.6249
 4842SOL    HW226160   4.583   4.602   5.827  0.5148  0.4173  0.6645
 4843SOL     OW26161   4.132   0.548   9.404  0.2104  0.9257  0.2300
 4843SOL    HW126162   4.178   0.612   9.349 -1.0127  0.9430 -0.7791
 4843SOL    HW226163   4.192   0.474   9.412 -2.3327 -1.1846 -0.2683
 4844SOL     OW26164   4.573   3.937  10.000  0.3991  0.2199 -0.0542
 4844SOL    HW126165   4.496   3.964  10.050  1.5937  2.8533  0.3798
 4844SOL    HW226166   4.556   3.844   9.983  4.4996  0.0071 -3.1049
 4845SOL     OW26167   3.780   2.747   6.421  0.4373 -0.7175  0.5704
 4845SOL    HW126168   3.817   2.673   6.374 -0.0906  1.0087 -2.5876
 4845SOL    HW226169   3.687   2.747   6.395  1.1672  1.1997 -2.1071
 4846SOL     OW26170   4.651   3.243  16.412  0.3590 -0.1192 -0.0076
 4846SOL    HW126171   4.622   3.230  16.503 -0.8850 -0.5500 -0.4602
 4846SOL    HW226172   4.600   3.171  16.374  2.7838 -1.6192 -0.3664
 4847SOL     OW26173   4.187   2.560  16.662  0.4065 -0.0332 -0.0252
 4847SOL    HW126174   4.174   2.649  16.632  0.4038 -0.7211 -2.0668
 4847SOL    HW226175   4.176   2.509  16.582  1.0404  1.4812 -1.0727
 4848SOL     OW26176   1.792   0.495   3.140  0.0924 -0.1679 -0.2797
 4848SOL    HW126177   1.774   0.422   3.080  1.4543 -0.5023 -0.2992
 4848SOL    HW226178   1.886   0.505   3.125  0.5040 -0.2601  2.2950
 4849SOL     OW26179   2.945   1.334   9.680  0.0283  0.1973  0.7715
 4849SOL    HW126180   2.904   1.329   9.767  1.4177  1.1817  1.4867
 4849SOL    HW226181   2.864   1.340   9.628 -0.6541  0.4428  1.8561
 4850SOL     OW26182   4.025   3.845   1.266  0.0768  0.1330 -0.0593
 4850SOL    HW126183   3.987   3.758   1.270  0.7757 -0.2314 -1.5119
 4850SOL    HW226184   4.022   3.877   1.356 -1.1536 -0.9921  0.2962
 4851SOL     OW26185   2.620   1.430   8.857 -0.3739 -0.4937 -0.5327
 4851SOL    HW126186   2.627   1.452   8.764 -1.3339 -0.2112 -0.5396
 4851SOL    HW226187   2.687   1.362   8.865 -0.8652 -0.9632 -0.4895
 4852SOL     OW26188   0.205   1.245  16.353 -0.4588 -0.3148 -0.6105
 4852SOL    HW126189   0.222   1.338  16.369 -2.6050  0.3144 -2.0304
 4852SOL    HW226190   0.295   1.216  16.371 -0.2986  0.0086 -0.8728
 4853SOL     OW26191   4.217   1.669  11.606  0.6541  0.0436 -0.4196
 4853SOL    HW126192   4.206   1.632  11.519  1.9060 -0.5870 -0.3068
 4853SOL    HW226193   4.312   1.658  11.610  0.6932  0.3616 -0.4722
 4854SOL     OW26194   4.379   4.618   2.309 -0.0234 -0.1873 -0.0997
 4854SOL    HW126195   4.324   4.696   2.306  0.3382  0.0352 -0.8345
 4854SOL    HW226196   4.337   4.565   2.378  1.4365  1.3068  1.9436
 4855SOL     OW26197   0.926   2.313   5.498 -0.0921  0.4970  0.0555
 4855SOL    HW126198   0.887   2.384   5.549  2.0101 -0.2831  2.7478
 4855SOL    HW226199   0.991   2.283   5.561  1.1684  2.8824 -0.1200
 4856SOL     OW26200   2.472   4.611  14.394  0.3695  0.2117 -0.2013
 4856SOL    HW126201   2.516   4.577  14.316 -1.4662  1.7710 -1.8983
 4856SOL    HW226202   2.402   4.668  14.363 -0.5361 -1.4015 -1.1279
 4857SOL     OW26203   4.107   2.801   2.703 -0.2856 -0.5017  0.2462
 4857SOL    HW126204   4.065   2.726   2.746  1.3656 -1.2449  0.5368
 4857SOL    HW226205   4.076   2.778   2.615  0.1967  0.5138 -0.1877
 4858SOL     OW26206   0.559   1.561   2.148 -0.2799 -0.3362 -0.0984
 4858SOL    HW126207   0.653   1.565   2.166 -0.0625 -0.2578 -1.2696
 4858SOL    HW226208   0.528   1.603   2.229  0.7561  2.8393 -1.3564
 4859SOL     OW26209   3.236   0.214   1.760  0.1596  0.3333  0.0153
 4859SOL    HW126210   3.320   0.236   1.800 -0.7268  1.9455  0.9826
 4859SOL    HW226211   3.237   0.118   1.752 -0.5501  0.3365 -0.1337
 4860SOL     OW26212   3.006   4.571   0.101 -0.5391  0.2736 -0.6372
 4860SOL    HW126213   3.039   4.627   0.171 -0.4048 -0.9364  0.2676
 4860SOL    HW226214   3.084   4.546   0.051  0.9130  1.6130  0.9433
 4861SOL     OW26215   0.161   3.080   9.106  0.3200  0.2087  0.1235
 4861SOL    HW126216   0.201   3.067   9.193 -0.1940 -0.5455  0.2495
 4861SOL    HW226217   0.069   3.082   9.130  0.4635 -1.2138  0.7985
 4862SOL     OW26218   0.205   0.298  13.391 -0.3668 -0.8951  0.0483
 4862SOL    HW126219   0.199   0.234  13.462 -2.3470 -0.9618 -0.1595
 4862SOL    HW226220   0.298   0.307  13.372 -0.2453  2.1438  2.0509
 4863SOL     OW26221   2.991   0.580  13.838 -0.4245  0.0125  0.3222
 4863SOL    HW126222   3.032   0.608  13.756  0.7556 -1.0154  0.5630
 4863SOL    HW226223   3.063   0.603  13.897  1.7544 -1.9017 -1.5938
 4864SOL     OW26224   0.799   4.233   8.659 -0.5655 -0.2636 -0.1044
 4864SOL    HW126225   0.894   4.229   8.662 -0.5971 -0.9084  0.0134
 4864SOL    HW226226   0.781   4.276   8.743  0.3188  0.7212 -0.4123
 4865SOL     OW26227   4.138   3.926   0.780  0.2565 -0.4423  0.0106
 4865SOL    HW126228   4.197   3.993   0.745  3.0506 -3.0442 -0.2344
 4865SOL    HW226229   4.072   3.981   0.821 -1.0232 -1.8072 -0.2440
 4866SOL     OW26230   3.175   0.039   6.643 -0.1228 -0.2367 -0.0501
 4866SOL    HW126231   3.208   0.121   6.680 -0.7827 -0.5493  1.2406
 4866SOL    HW226232   3.167   0.070   6.553 -1.7595 -0.7837 -0.0879
 4867SOL     OW26233   4.263   1.673   7.825  0.4559 -0.1763 -0.2303
 4867SOL    HW126234   4.341   1.712   7.864 -0.5245 -0.0034  1.5600
 4867SOL    HW226235   4.266   1.584   7.858  0.2311  0.6196  1.9219
 4868SOL     OW26236   3.452   1.234   9.790 -0.0687  0.7113 -0.2042
 4868SOL    HW126237   3.412   1.195   9.868  1.3176  2.7152  1.5089
 4868SOL    HW226238   3.425   1.326   9.797 -1.6054  0.3555 -1.3369
 4869SOL     OW26239   2.146   1.133   2.605 -1.4455  0.2310 -0.3839
 4869SOL    HW126240   2.068   1.113   2.553 -1.3266  1.1426 -0.9046
 4869SOL    HW226241   2.185   1.178   2.530 -0.5310  1.3974  0.7942
 4870SOL     OW26242   2.360   3.027   3.342  0.0042 -0.2634  0.3821
 4870SOL    HW126243   2.402   2.988   3.419  2.0987 -2.4695 -1.9197
 4870SOL    HW226244   2.421   3.022   3.270 -0.3621 -1.7177  0.1608
 4871SOL     OW26245   4.412   1.734   4.051 -0.5165  0.0661  0.2148
 4871SOL    HW126246   4.484   1.797   4.045  0.4195 -0.8336  2.3672
 4871SOL    HW226247   4.452   1.649   4.064 -1.8426 -0.6246 -0.1858
 4872SOL     OW26248   1.599   0.427   6.845 -0.0011  0.3364  0.0270
 4872SOL    HW126249   1.576   0.336   6.867 -1.0854  0.8418  0.9598
 4872SOL    HW226250   1.581   0.436   6.751  0.0511 -0.4088 -0.0582
 4873SOL     OW26251   3.319   4.228   7.859  0.3852  0.0516  0.5826
 4873SOL    HW126252   3.279   4.225   7.946  0.4940  1.2519  0.6745
 4873SOL    HW226253   3.410   4.244   7.881  0.6317  1.2262 -1.3032
 4874SOL     OW26254   1.932   3.071   7.018  0.5409 -0.0805 -0.3401
 4874SOL    HW126255   1.901   3.091   6.930 -1.2886  0.6629  0.4694
 4874SOL    HW226256   1.920   3.153   7.066  2.2110 -0.6475  1.0574
 4875SOL     OW26257   0.850   0.885  11.008 -1.0230 -0.1512  0.3781
 4875SOL    HW126258   0.929   0.928  10.978 -0.0718 -1.9453  0.3345
 4875SOL    HW226259   0.837   0.820  10.939 -1.4321 -1.8080  1.9867
 4876SOL     OW26260   2.926   2.856   7.326 -0.2324  0.0694 -0.1109
 4876SOL    HW126261   2.876   2.904   7.392 -0.6758 -0.2580 -0.2104
 4876SOL    HW226262   3.011   2.853   7.370  0.0788  1.5209 -0.5903
 4877SOL     OW26263   3.682   3.194   8.481  0.0519 -0.1289  0.0541
 4877SOL    HW126264   3.688   3.228   8.571 -0.9190 -0.5853  0.2934
 4877SOL    HW226265   3.740   3.119   8.488  2.4822  1.3121 -5.2251
 4878SOL     OW26266   4.507   4.481   7.313  0.1913  0.2737 -0.3225
 4878SOL    HW126267   4.469   4.409   7.263 -1.3255  0.9562 -0.1644
 4878SOL    HW226268   4.550   4.532   7.244 -0.1460  0.3584 -0.4712
 4879SOL     OW26269   1.216   0.584   1.190  0.1316  0.5802 -0.0461
 4879SOL    HW126270   1.185   0.563   1.102 -0.8841 -2.0609  0.9428
 4879SOL    HW226271   1.268   0.662   1.170 -1.5208  1.9005  0.7806
 4880SOL     OW26272   4.118   2.438   5.655 -0.4498  0.3393  0.1236
 4880SOL    HW126273   4.165   2.370   5.703  0.5325  1.9609  1.4835
 4880SOL    HW226274   4.138   2.517   5.706 -0.6440 -0.1073  0.8863
 4881SOL     OW26275   0.378   0.412   2.695 -0.3909  0.1597 -0.1619
 4881SOL    HW126276   0.464   0.454   2.696  0.1654 -1.0050  0.9465
 4881SOL    HW226277   0.387   0.350   2.623 -0.2793 -0.6631  0.5592
 4882SOL     OW26278   1.839   3.863   8.766  0.5935  0.7684 -0.3469
 4882SOL    HW126279   1.895   3.931   8.804 -0.0802  0.2362  1.6127
 4882SOL    HW226280   1.896   3.787   8.773  0.2450  0.6209  0.9404
 4883SOL     OW26281   1.014   0.006   0.102  0.3994 -0.6527  0.2702
 4883SOL    HW126282   1.099   4.709   0.072  0.0309  0.0227 -1.5063
 4883SOL    HW226283   0.959   4.708   0.031 -0.6055 -1.1633  1.2735
 4884SOL     OW26284   4.594   2.299   3.504 -0.5323  0.3811  0.4278
 4884SOL    HW126285   4.659   2.252   3.556 -1.4131 -2.9104 -1.4290
 4884SOL    HW226286   4.567   2.221   3.455 -1.3798  0.1978  1.1972
 4885SOL     OW26287   3.955   0.858   7.318 -0.0666 -0.3948 -0.1319
 4885SOL    HW126288   3.948   0.763   7.318  2.4312 -0.5723  0.8847
 4885SOL    HW226289   3.982   0.877   7.228  2.0863 -0.4184  0.5081
 4886SOL     OW26290   3.042   2.000   4.990 -0.3982 -0.3360  0.1286
 4886SOL    HW126291   3.088   2.069   4.942  0.0653 -1.4177 -0.9585
 4886SOL    HW226292   2.961   1.994   4.940 -0.4373 -2.0581  0.4060
 4887SOL     OW26293   0.475   3.333   1.598 -0.0465 -0.4221  0.1945
 4887SOL    HW126294   0.557   3.323   1.551  0.8653  2.3592  1.1767
 4887SOL    HW226295   0.481   3.421   1.636 -0.4323  0.4323 -1.7022
 4888SOL     OW26296   3.715   1.375   4.211 -0.2578  0.1045  0.2792
 4888SOL    HW126297   3.721   1.442   4.143  0.4950 -1.3075 -1.0507
 4888SOL    HW226298   3.789   1.396   4.268  0.6598 -1.7372 -0.2415
 4889SOL     OW26299   2.822   2.239   8.793  0.3122 -0.4453 -0.1362
 4889SOL    HW126300   2.784   2.194   8.868 -0.3932  0.1507 -0.1506
 4889SOL    HW226301   2.750   2.256   8.732  1.4030 -2.7456 -2.1062
 4890SOL     OW26302   2.700   2.641   4.460  0.1041  0.0734  0.3698
 4890SOL    HW126303   2.759   2.683   4.522 -1.3175 -0.4339  2.0901
 4890SOL    HW226304   2.662   2.716   4.415 -2.3124 -0.5933  1.2783
 4891SOL     OW26305   1.496   0.756   7.916 -0.4295  0.0045 -0.5059
 4891SOL    HW126306   1.501   0.694   7.988  0.7606  2.0643  1.1822
 4891SOL    HW226307   1.497   0.695   7.842 -1.2491  0.5244 -0.9443
 4892SOL     OW26308   2.130   4.592   3.938 -1.2871  0.3385 -0.1973
 4892SOL    HW126309   2.173   4.661   3.888 -3.4508  0.9226 -1.2593
 4892SOL    HW226310   2.052   4.639   3.968 -2.3916 -1.3504 -0.3919
 4893SOL     OW26311   4.030   4.723   0.566 -0.0322 -0.0077  0.4515
 4893SOL    HW126312   4.037   0.061   0.505  0.4953 -0.1700  0.3164
 4893SOL    HW226313   3.954   0.001   0.622 -0.5653  0.6911 -0.4508
 4894SOL     OW26314   0.694   4.686   8.106  0.3044  0.1341 -0.5087
 4894SOL    HW126315   0.720   4.695   8.198 -0.5503 -3.2741  0.0588
 4894SOL    HW226316   0.746   0.013   8.055  1.0029 -1.3076 -1.5587
 4895SOL     OW26317   4.493   4.023   6.868 -0.0865 -0.0584 -0.8580
 4895SOL    HW126318   4.518   4.051   6.956  1.6486  0.0694 -1.3878
 4895SOL    HW226319   4.433   3.949   6.880  1.0261 -1.1748 -2.2069
 4896SOL     OW26320   2.363   4.024   2.421 -0.5361  0.3303  0.2374
 4896SOL    HW126321   2.366   4.090   2.352  1.6025  0.1533  0.1563
 4896SOL    HW226322   2.338   3.955   2.359  0.3168 -1.9479  2.4223
 4897SOL     OW26323   2.631   0.899  10.064  0.1404  0.2244  0.0751
 4897SOL    HW126324   2.648   0.989  10.036 -0.9495  0.1926 -0.6686
 4897SOL    HW226325   2.722   0.874  10.083  0.5191  1.2425 -0.3783
 4898SOL     OW26326   3.808   2.949  15.103  0.2356 -0.6126  1.0932
 4898SOL    HW126327   3.747   2.878  15.081 -1.5713  0.8717  1.3029
 4898SOL    HW226328   3.893   2.908  15.115  0.5763 -0.3291 -0.3137
 4899SOL     OW26329   1.856   1.071   2.505 -0.0925  0.1103  0.2323
 4899SOL    HW126330   1.794   1.103   2.571 -0.4325  1.6127 -0.8010
 4899SOL    HW226331   1.810   1.116   2.434 -0.6645  1.7171  1.6190
 4900SOL     OW26332   1.417   3.000   3.569  0.6863 -0.2825  0.0160
 4900SOL    HW126333   1.485   2.941   3.601  0.0972 -0.7616  0.3792
 4900SOL    HW226334   1.426   2.968   3.479  0.3775 -1.2794  0.3458
 4901SOL     OW26335   2.601   4.333  17.558  0.1647 -0.3120  0.0628
 4901SOL    HW126336   2.654   4.325  17.479 -2.2740  0.6268 -1.6585
 4901SOL    HW226337   2.548   4.413  17.557  0.3581 -0.2182 -2.4712
 4902SOL     OW26338   1.017   1.010   2.208  0.1304 -0.3676  0.0404
 4902SOL    HW126339   1.066   1.046   2.282 -0.4034  1.9818 -0.7596
 4902SOL    HW226340   1.024   0.917   2.232  3.8567 -0.0563  0.2161
 4903SOL     OW26341   0.920   1.673   7.599 -0.2995  0.0814  0.2931
 4903SOL    HW126342   0.894   1.635   7.683 -1.6947  1.2175  0.3855
 4903SOL    HW226343   0.898   1.765   7.615 -2.6832 -0.1627 -1.5667
 4904SOL     OW26344   1.075   4.209   3.434 -0.1726  0.7262  0.6129
 4904SOL    HW126345   1.054   4.177   3.346 -0.2704 -0.0465  0.9162
 4904SOL    HW226346   1.045   4.300   3.427 -0.3800  0.7486  1.8815
 4905SOL     OW26347   0.242   3.004   2.240 -0.3314 -0.0568 -0.1114
 4905SOL    HW126348   0.167   3.046   2.198  0.4534  2.0326  0.5759
 4905SOL    HW226349   0.278   3.068   2.302 -0.0370  0.3851 -0.7310
 4906SOL     OW26350   3.118   0.622   2.937 -0.2017  0.1540  0.6265
 4906SOL    HW126351   3.043   0.643   2.992  0.5868 -1.1552  2.2295
 4906SOL    HW226352   3.085   0.533   2.927 -1.5379  0.5468  1.6518
 4907SOL     OW26353   1.980   0.241   8.438  0.3472 -0.1723 -0.2258
 4907SOL    HW126354   2.056   0.235   8.380 -0.2190  1.2847 -1.1149
 4907SOL    HW226355   1.922   0.190   8.381  0.6761 -1.4047  0.5389
 4908SOL     OW26356   3.796   2.420   1.388 -0.6612 -0.4775 -0.1586
 4908SOL    HW126357   3.732   2.439   1.320  2.4748  0.9598 -2.7067
 4908SOL    HW226358   3.739   2.421   1.465  0.8290  0.0686  0.9251
 4909SOL     OW26359   4.631   2.178   5.693  0.0246  0.7171 -0.0732
 4909SOL    HW126360   4.710   2.223   5.722 -0.9978  0.9157  2.4595
 4909SOL    HW226361   4.680   2.099   5.670  0.7972  0.3836  2.7495
 4910SOL     OW26362   1.442   4.456  11.816  0.1261 -0.0513  0.4403
 4910SOL    HW126363   1.413   4.455  11.907  0.1281  1.6206  0.4593
 4910SOL    HW226364   1.525   4.409  11.822 -0.5024 -0.9267  2.0710
 4911SOL     OW26365   1.074   4.359   0.454  0.4559 -0.0746 -0.2565
 4911SOL    HW126366   1.007   4.418   0.418  0.0344  0.1080  0.8485
 4911SOL    HW226367   1.146   4.419   0.470 -1.2906  1.8593  0.3248
 4912SOL     OW26368   2.711   1.894   8.653  0.2794 -0.0805  0.5368
 4912SOL    HW126369   2.645   1.832   8.622  1.9280 -1.0321 -1.0063
 4912SOL    HW226370   2.651   1.958   8.693  0.4070  0.6900 -0.5121
 4913SOL     OW26371   3.141   0.976  14.339 -0.0658  0.4706  0.8032
 4913SOL    HW126372   3.075   0.911  14.314  0.9091 -0.1527 -0.1491
 4913SOL    HW226373   3.179   0.999  14.255  0.8153  0.5663  1.2320
 4914SOL     OW26374   2.939   4.043  14.738 -0.7852  0.8225  0.0276
 4914SOL    HW126375   2.932   4.046  14.643  0.5959  2.5796 -0.0096
 4914SOL    HW226376   2.854   4.017  14.775  0.3172 -1.6940  0.8016
 4915SOL     OW26377   4.178   0.189   7.576  0.2975 -0.0396  0.9801
 4915SOL    HW126378   4.246   0.150   7.520 -1.4608 -1.3313 -0.2687
 4915SOL    HW226379   4.231   0.239   7.639 -0.1696 -0.6887  1.8959
 4916SOL     OW26380   4.457   3.335  17.242 -0.7136  0.1686  0.4289
 4916SOL    HW126381   4.406   3.392  17.299  0.7768  2.1072 -0.1714
 4916SOL    HW226382   4.410   3.358  17.163  0.0575 -2.3646 -0.7659
 4917SOL     OW26383   0.989   2.252   7.552  0.0137  0.2874 -0.3918
 4917SOL    HW126384   0.984   2.228   7.644 -1.7565 -1.6939 -1.0093
 4917SOL    HW226385   0.983   2.162   7.519 -2.6554 -0.5638  2.4298
 4918SOL     OW26386   2.437   4.143  12.880 -0.4049  0.0129  0.0605
 4918SOL    HW126387   2.461   4.050  12.880  3.3547  0.9800  1.6786
 4918SOL    HW226388   2.493   4.177  12.811  0.0045  0.4401  0.6020
 4919SOL     OW26389   3.634   3.217   4.184 -0.2514 -0.1766 -0.0135
 4919SOL    HW126390   3.728   3.228   4.197 -0.1893 -0.6500 -0.0779
 4919SOL    HW226391   3.640   3.123   4.171  0.9857 -0.0700 -0.2333
 4920SOL     OW26392   2.664   0.063   8.288  0.0582 -0.0178 -0.3780
 4920SOL    HW126393   2.731   0.076   8.356  0.9720 -3.9823 -0.5557
 4920SOL    HW226394   2.613   0.144   8.297 -0.4442 -0.2734 -0.9544
 4921SOL     OW26395   0.534   3.601   1.614  0.3691 -0.0268 -0.7346
 4921SOL    HW126396   0.472   3.671   1.635 -0.2938 -0.3590 -1.5720
 4921SOL    HW226397   0.599   3.656   1.571 -0.5996  0.5946 -1.4023
 4922SOL     OW26398   0.117   4.332  13.748  0.3594  0.1355  0.0217
 4922SOL    HW126399   0.120   4.333  13.652  0.4343 -0.2327  0.0192
 4922SOL    HW226400   0.162   4.250  13.769  2.2031  1.2477  0.4084
 4923SOL     OW26401   1.059   3.181   4.538  0.1708 -0.4611  0.4617
 4923SOL    HW126402   1.121   3.215   4.602 -0.9620 -0.3674  1.4892
 4923SOL    HW226403   1.071   3.248   4.470  0.5225 -1.0532 -0.0596
 4924SOL     OW26404   4.406   3.171   9.672  0.4988 -0.1646  0.4236
 4924SOL    HW126405   4.348   3.245   9.656  0.2975  0.0941  2.3724
 4924SOL    HW226406   4.485   3.211   9.709  0.1609  1.8493 -1.0096
 4925SOL     OW26407   0.498   1.490   0.608  0.2811  0.5521 -0.1508
 4925SOL    HW126408   0.462   1.517   0.524  0.3605 -0.3826 -0.4859
 4925SOL    HW226409   0.592   1.489   0.588 -0.1318  0.7702 -2.0120
 4926SOL     OW26410   0.607   1.818  10.014 -0.5854  0.3801 -0.5531
 4926SOL    HW126411   0.599   1.863   9.929 -1.2231  1.7033  0.2056
 4926SOL    HW226412   0.675   1.752   9.998  0.0090  1.5667 -3.0120
 4927SOL     OW26413   2.566   0.879   9.519 -0.1663 -0.6943  0.6375
 4927SOL    HW126414   2.572   0.961   9.568  0.9136 -1.6891  2.1890
 4927SOL    HW226415   2.505   0.823   9.567  2.3251 -1.6827  2.6636
 4928SOL     OW26416   4.132   3.176  13.162 -0.4010  1.0607  0.7488
 4928SOL    HW126417   4.140   3.125  13.242 -1.3231 -0.2098  0.0382
 4928SOL    HW226418   4.181   3.113  13.110 -2.4020 -0.2499  0.4413
 4929SOL     OW26419   3.048   3.281   7.762 -0.0430  0.2499  0.0125
 4929SOL    HW126420   3.136   3.316   7.773 -0.1174 -0.2261  2.1372
 4929SOL    HW226421   3.019   3.340   7.692 -0.5667  1.2799  1.0958
 4930SOL     OW26422   2.250   2.869   8.227  0.0719  0.1925 -0.2067
 4930SOL    HW126423   2.185   2.863   8.156  1.0583 -0.7626 -1.0378
 4930SOL    HW226424   2.300   2.949   8.215 -0.9604  1.0240  1.0303
 4931SOL     OW26425   1.190   2.731   8.872 -0.2338  0.4108 -0.3682
 4931SOL    HW126426   1.196   2.647   8.827 -1.6601 -0.7015  1.4921
 4931SOL    HW226427   1.117   2.713   8.932 -0.5902  0.2473 -0.8538
 4932SOL     OW26428   3.241   1.396   6.723 -0.0968  0.0195  0.0254
 4932SOL    HW126429   3.188   1.445   6.786  0.0812 -0.7502  0.7751
 4932SOL    HW226430   3.198   1.426   6.643 -1.5314 -1.2179  0.3592
 4933SOL     OW26431   2.397   4.395   8.173  0.4862  0.2103 -0.4648
 4933SOL    HW126432   2.394   4.490   8.164  0.3366  0.1024 -1.5425
 4933SOL    HW226433   2.477   4.363   8.132  2.3499  1.4324  2.2262
 4934SOL     OW26434   4.334   2.583   1.566 -0.2935 -0.6259  0.0950
 4934SOL    HW126435   4.245   2.558   1.541 -0.9416  2.8824 -1.1723
 4934SOL    HW226436   4.367   2.603   1.478  1.4763  0.0065  0.9146
 4935SOL     OW26437   0.831   1.623   2.275  0.1594 -0.0495 -0.2027
 4935SOL    HW126438   0.803   1.696   2.330  3.3837 -0.0849  1.5031
 4935SOL    HW226439   0.898   1.657   2.215  0.3657 -2.1942 -1.2004
 4936SOL     OW26440   0.532   4.187   7.788 -0.6380 -0.0935  0.0789
 4936SOL    HW126441   0.503   4.119   7.727 -2.6111  0.9662 -0.1703
 4936SOL    HW226442   0.461   4.251   7.789 -0.4619  0.0974  0.3171
 4937SOL     OW26443   3.306   4.697   2.711 -0.5804  0.2805  0.2257
 4937SOL    HW126444   3.257   4.650   2.644 -0.5288  0.0090  0.3801
 4937SOL    HW226445   3.355   0.016   2.649  0.9673  0.0087  1.2254
 4938SOL     OW26446   4.461   4.516   2.584  0.4295 -0.1221  0.7485
 4938SOL    HW126447   4.372   4.527   2.619 -0.3145 -1.4732 -0.7502
 4938SOL    HW226448   4.518   4.546   2.655 -0.5833 -0.1014  1.5616
 4939SOL     OW26449   4.307   3.723   0.717  0.0144  0.0194  0.2621
 4939SOL    HW126450   4.310   3.734   0.622  0.9752 -0.6605  0.2177
 4939SOL    HW226451   4.260   3.801   0.747 -0.4433  0.2053 -0.9726
 4940SOL     OW26452   3.756   1.425   3.116 -0.3798  0.2170 -0.1145
 4940SOL    HW126453   3.713   1.474   3.186  0.6687 -1.5151  1.7465
 4940SOL    HW226454   3.704   1.346   3.102 -0.3858  0.7414 -3.0480
 4941SOL     OW26455   2.549   0.138   9.079  0.5339  0.2561  0.6476
 4941SOL    HW126456   2.628   0.188   9.102 -0.7936  3.8534 -2.5709
 4941SOL    HW226457   2.531   0.093   9.161  0.7971 -0.0706  0.5284
 4942SOL     OW26458   3.633   4.411   1.127 -0.2884  0.1218 -0.3986
 4942SOL    HW126459   3.699   4.478   1.107  1.0819 -0.7355  1.2812
 4942SOL    HW226460   3.593   4.440   1.209  4.4273 -0.6660  2.1744
 4943SOL     OW26461   0.820   2.809   1.824  0.2185 -0.4723 -0.2300
 4943SOL    HW126462   0.849   2.888   1.779  1.5601 -0.7162  0.2074
 4943SOL    HW226463   0.779   2.843   1.903  1.4753  1.7797 -0.5501
 4944SOL     OW26464   1.778   0.630   8.111 -0.0601  0.4666 -0.2180
 4944SOL    HW126465   1.689   0.602   8.133 -0.4288 -0.6217 -3.1424
 4944SOL    HW226466   1.825   0.549   8.130 -0.7644  0.3703  1.1282
 4945SOL     OW26467   1.306   4.119   7.506 -0.6292  0.0813  0.2674
 4945SOL    HW126468   1.265   4.038   7.536  1.3642 -2.1724 -3.0387
 4945SOL    HW226469   1.391   4.083   7.481  0.9980  2.8186  1.8149
 4946SOL     OW26470   1.249   4.446   7.853  0.6567 -0.2209  0.2838
 4946SOL    HW126471   1.223   4.358   7.824  1.3588 -1.3713  3.2324
 4946SOL    HW226472   1.163   4.488   7.860  0.5739  0.0582 -2.2631
 4947SOL     OW26473   3.697   0.614   5.993  0.2457  0.2397 -0.3030
 4947SOL    HW126474   3.609   0.649   6.002 -0.1956 -0.6162 -1.2394
 4947SOL    HW226475   3.703   0.531   6.041 -0.2667  0.0533 -0.5655
 4948SOL     OW26476   0.891   2.422  11.216 -0.0150 -0.0151  0.1337
 4948SOL    HW126477   0.913   2.456  11.129  1.1457 -0.6019  0.1983
 4948SOL    HW226478   0.977   2.412  11.257  0.1479  0.6624 -0.0385
 4949SOL     OW26479   0.233   3.317   5.959  0.2793  0.2212 -0.4160
 4949SOL    HW126480   0.141   3.344   5.952  0.2148  0.4187  1.2881
 4949SOL    HW226481   0.249   3.341   6.050 -0.2319  2.5887 -0.9614
 4950SOL     OW26482   1.901   1.366   3.350  0.3244  0.2291 -0.2183
 4950SOL    HW126483   1.814   1.390   3.319 -0.9584 -1.4835  2.1015
 4950SOL    HW226484   1.957   1.336   3.278 -1.0931 -1.0623 -0.7764
 4951SOL     OW26485   2.903   1.935   8.907  0.2457 -0.1587 -0.4105
 4951SOL    HW126486   2.910   1.946   8.812  3.4764 -1.3269 -0.3196
 4951SOL    HW226487   2.825   1.881   8.918 -1.1047  2.2669  1.8689
 4952SOL     OW26488   3.730   3.185   4.494  0.1617 -0.0249 -0.1990
 4952SOL    HW126489   3.705   3.229   4.575 -1.1677  0.2603 -0.7709
 4952SOL    HW226490   3.650   3.200   4.444 -1.5776 -1.7813  2.0792
 4953SOL     OW26491   1.157   0.800   5.574 -0.7669  0.4606 -0.2537
 4953SOL    HW126492   1.117   0.713   5.578  3.5702 -1.5832 -0.8024
 4953SOL    HW226493   1.190   0.796   5.484 -1.8037 -1.2966 -0.5534
 4954SOL     OW26494   3.161   3.851   7.181  0.5414  0.0138  0.1021
 4954SOL    HW126495   3.149   3.827   7.089 -0.1900  0.4027  0.0948
 4954SOL    HW226496   3.087   3.911   7.186  0.2473 -0.5139  2.4468
 4955SOL     OW26497   0.751   2.594   9.971 -0.1078 -0.3931  0.0446
 4955SOL    HW126498   0.801   2.656  10.024 -1.3156  0.6107  0.0398
 4955SOL    HW226499   0.824   2.534   9.964  0.0036 -0.1792 -0.6513
 4956SOL     OW26500   2.003   0.291  12.809  0.1187 -0.2184  1.0006
 4956SOL    HW126501   2.082   0.328  12.849  2.1539 -2.6405 -0.7750
 4956SOL    HW226502   1.930   0.312  12.867 -0.4066 -0.8486  0.5734
 4957SOL     OW26503   0.743   3.989   2.058  0.2091 -0.1362  0.0501
 4957SOL    HW126504   0.648   3.997   2.061 -0.1958 -3.7480 -2.8512
 4957SOL    HW226505   0.759   3.910   2.110  2.4296 -0.2128 -0.7592
 4958SOL     OW26506   4.222   0.941   0.520 -0.4165  0.1608 -0.1811
 4958SOL    HW126507   4.224   0.944   0.615 -1.9018 -3.2882 -0.0358
 4958SOL    HW226508   4.245   0.852   0.494  0.1917  0.2280  0.1306
 4959SOL     OW26509   0.898   3.557   5.927  0.5057  0.2047  0.1468
 4959SOL    HW126510   0.879   3.481   5.982 -0.4903 -1.4787 -2.4674
 4959SOL    HW226511   0.936   3.610   5.997  0.6979 -1.4539  1.2948
 4960SOL     OW26512   3.216   1.789   5.728  0.0139 -0.2759  0.1391
 4960SOL    HW126513   3.281   1.842   5.774  0.4856 -1.7783  1.2482
 4960SOL    HW226514   3.245   1.802   5.638  0.0670  0.1455  0.2202
 4961SOL     OW26515   3.790   0.244   6.372 -0.3096  0.5643 -0.2431
 4961SOL    HW126516   3.736   0.173   6.405 -0.2380  0.8791  0.5571
 4961SOL    HW226517   3.875   0.206   6.349 -0.5136  0.6760 -1.1913
 4962SOL     OW26518   0.058   3.401   3.936 -0.1817  0.2428 -0.3406
 4962SOL    HW126519   0.023   3.319   3.971 -0.5609  0.2146 -0.7824
 4962SOL    HW226520   0.051   3.385   3.842 -0.3113 -1.4859 -0.0315
 4963SOL     OW26521   3.137   1.236   9.479  0.1848 -0.0173 -0.1097
 4963SOL    HW126522   3.070   1.246   9.546  1.4635 -1.4929  1.3629
 4963SOL    HW226523   3.162   1.148   9.507  0.2386 -0.6119 -1.9663
 4964SOL     OW26524   0.144   2.344   5.783  0.4001 -0.0431  0.0241
 4964SOL    HW126525   0.218   2.297   5.821  0.7245  0.3502 -0.1206
 4964SOL    HW226526   0.179   2.430   5.760  1.1881  0.7269  4.1305
 4965SOL     OW26527   0.250   0.488   4.870  0.0335 -0.0664 -1.1418
 4965SOL    HW126528   0.235   0.449   4.784 -0.8348 -0.0739 -0.9849
 4965SOL    HW226529   0.182   0.555   4.861 -1.4176 -1.3294  0.5339
 4966SOL     OW26530   4.130   0.251   7.072 -0.4307  0.1725  0.8473
 4966SOL    HW126531   4.113   0.158   7.056  0.1798  0.2964 -0.5262
 4966SOL    HW226532   4.221   0.250   7.101 -0.6537  0.2336  1.5313
 4967SOL     OW26533   2.571   2.460   6.371  0.1227  0.6361  0.3663
 4967SOL    HW126534   2.564   2.479   6.277  0.3208  0.2188  0.2651
 4967SOL    HW226535   2.557   2.366   6.359 -0.1462  0.5105  1.7131
 4968SOL     OW26536   3.801   2.145  11.593 -0.0702 -0.2101 -0.4265
 4968SOL    HW126537   3.762   2.112  11.675 -1.5077 -1.2138 -1.5181
 4968SOL    HW226538   3.864   2.077  11.569  0.8766 -0.5148  2.9162
 4969SOL     OW26539   3.205   2.845   9.309  0.3745  0.8287  0.0797
 4969SOL    HW126540   3.237   2.761   9.343 -0.2184  0.7092  0.3447
 4969SOL    HW226541   3.190   2.823   9.217  4.3029  1.1021 -0.6372
 4970SOL     OW26542   3.754   2.246   5.481  0.3952  0.2049  0.3750
 4970SOL    HW126543   3.685   2.214   5.540 -1.4943  1.9709 -0.8756
 4970SOL    HW226544   3.770   2.338   5.503  1.2692  0.3962 -1.0344
 4971SOL     OW26545   2.632   3.709  12.716  0.1877 -0.0149 -0.4109
 4971SOL    HW126546   2.723   3.739  12.721 -0.3397  1.7705 -1.4960
 4971SOL    HW226547   2.596   3.749  12.795  1.6172 -0.4761  0.4658
 4972SOL     OW26548   3.221   0.064   5.851  0.6259 -0.0270  0.4723
 4972SOL    HW126549   3.237   0.138   5.793 -0.8784  0.3345  0.5010
 4972SOL    HW226550   3.176   0.109   5.922  1.0530  0.0541  0.6852
 4973SOL     OW26551   1.639   2.865   2.482 -0.5618 -0.4708 -0.0097
 4973SOL    HW126552   1.632   2.942   2.425 -0.8671 -2.1066 -2.1673
 4973SOL    HW226553   1.681   2.815   2.413  0.5019 -1.8648  1.6747
 4974SOL     OW26554   0.601   1.682   4.431  0.4057 -0.1190  0.4649
 4974SOL    HW126555   0.602   1.776   4.415  1.6421 -0.3065 -0.6143
 4974SOL    HW226556   0.586   1.684   4.525  1.2535  0.6593  0.5858
 4975SOL     OW26557   1.665   0.294   1.377 -0.2512  0.0952 -0.0773
 4975SOL    HW126558   1.628   0.207   1.388 -0.0349  0.1501  1.0920
 4975SOL    HW226559   1.583   0.339   1.357 -0.8838 -1.7799 -1.7658
 4976SOL     OW26560   1.281   0.523   0.480  0.3840 -0.5049 -0.8222
 4976SOL    HW126561   1.186   0.527   0.467  0.3165  0.6983  0.0357
 4976SOL    HW226562   1.305   0.599   0.534  1.0265 -1.0479 -0.3505
 4977SOL     OW26563   1.803   3.144   4.659 -0.1925 -0.3528  0.6678
 4977SOL    HW126564   1.771   3.211   4.719 -3.2005 -2.0555  0.9292
 4977SOL    HW226565   1.786   3.063   4.707  0.1184  0.1945  1.7161
 4978SOL     OW26566   2.628   1.975   6.341 -0.5280 -0.6031 -0.5042
 4978SOL    HW126567   2.586   2.058   6.321  1.5738  0.1550 -1.7925
 4978SOL    HW226568   2.667   1.990   6.427 -0.8622  2.4508 -0.9036
 4979SOL     OW26569   1.522   0.276   8.011  0.0401 -0.2545 -0.2091
 4979SOL    HW126570   1.456   0.206   8.004  1.7662 -1.9512  0.5061
 4979SOL    HW226571   1.580   0.277   7.935 -1.2723  0.7704 -1.2020
 4980SOL     OW26572   2.117   3.629   6.810 -0.4608 -0.7766  0.3999
 4980SOL    HW126573   2.123   3.650   6.903 -1.3174 -0.2989  0.3395
 4980SOL    HW226574   2.030   3.660   6.788  0.9137  2.7199 -0.1075
 4981SOL     OW26575   0.042   0.599   3.560  0.3488 -0.1947 -0.3266
 4981SOL    HW126576   4.712   0.575   3.494  0.5608  1.4077 -1.1260
 4981SOL    HW226577   0.082   0.517   3.590  0.0639 -0.6093 -1.0661
 4982SOL     OW26578   2.331   3.754   8.776 -0.3478 -0.7022  0.1765
 4982SOL    HW126579   2.368   3.752   8.688  1.2242 -2.4002  0.8932
 4982SOL    HW226580   2.387   3.696   8.827  1.8249  1.4643  0.2530
 4983SOL     OW26581   1.187   4.428   8.945  0.0596 -0.1520  0.5241
 4983SOL    HW126582   1.235   4.509   8.963 -0.4707  0.1884  0.4135
 4983SOL    HW226583   1.105   4.439   8.994 -0.3109  1.4179 -0.4303
 4984SOL     OW26584   1.162   2.935   0.901 -0.0061  0.1424  0.2880
 4984SOL    HW126585   1.170   2.981   0.985 -2.2724 -0.6000  0.9127
 4984SOL    HW226586   1.115   2.857   0.930 -0.8742  0.6093  0.1092
 4985SOL     OW26587   4.509   0.901   4.236  0.0611  1.1213  0.2245
 4985SOL    HW126588   4.601   0.888   4.259  0.3698 -0.5939 -1.9565
 4985SOL    HW226589   4.504   0.829   4.173  1.9069 -0.3409  1.7189
 4986SOL     OW26590   3.071   1.707   2.081 -0.1575 -0.1721 -0.2911
 4986SOL    HW126591   3.085   1.649   2.156  2.6181  1.2158  0.2818
 4986SOL    HW226592   3.014   1.645   2.036  1.6850 -1.7530 -0.4738
 4987SOL     OW26593   2.365   1.461  13.812 -0.6452 -0.1282 -0.1917
 4987SOL    HW126594   2.313   1.465  13.731 -0.8350 -1.3068 -0.1247
 4987SOL    HW226595   2.294   1.467  13.876 -0.0427  0.6651  0.3934
 4988SOL     OW26596   1.296   1.240   3.357  0.3607 -0.1934 -0.5384
 4988SOL    HW126597   1.380   1.205   3.326  0.1241 -0.3253 -1.0190
 4988SOL    HW226598   1.253   1.161   3.389  0.7656 -0.2271 -0.0610
 4989SOL     OW26599   3.401   3.119   5.832  0.5169 -0.0871 -0.3542
 4989SOL    HW126600   3.346   3.089   5.905  1.0982  0.7665  0.4360
 4989SOL    HW226601   3.450   3.193   5.868 -3.5640  1.7334  1.3558
 4990SOL     OW26602   4.497   0.720   9.426  0.1809  0.2440 -0.4131
 4990SOL    HW126603   4.403   0.728   9.437  0.1569 -2.0363  1.0144
 4990SOL    HW226604   4.527   0.796   9.476  2.6786 -0.3702 -0.9571
 4991SOL     OW26605   1.141   4.081   1.763  0.4010 -0.5124 -0.1447
 4991SOL    HW126606   1.215   4.049   1.711 -0.6469 -2.1165 -0.6402
 4991SOL    HW226607   1.136   4.014   1.832 -0.7629 -1.5301 -1.2368
 4992SOL     OW26608   3.060   1.742   4.698 -0.2790  0.2770  0.3031
 4992SOL    HW126609   2.972   1.713   4.672 -0.3595  1.2596 -0.5480
 4992SOL    HW226610   3.075   1.803   4.625 -0.6932 -0.1158 -0.1094
 4993SOL     OW26611   2.143   1.094  10.784  0.2189  0.3493  0.1194
 4993SOL    HW126612   2.143   1.041  10.864  0.9994 -1.5917 -1.1621
 4993SOL    HW226613   2.127   1.178  10.826  0.0722 -0.0344  0.8438
 4994SOL     OW26614   0.419   0.075   4.327  0.1406 -0.4585 -0.3011
 4994SOL    HW126615   0.469   0.058   4.247  0.4292 -2.6976  0.3526
 4994SOL    HW226616   0.350   0.132   4.296 -0.6876 -2.5350 -2.2724
 4995SOL     OW26617   3.829   4.382   9.795 -0.0375 -0.0958  0.5906
 4995SOL    HW126618   3.879   4.352   9.719  1.4448 -0.2519  1.6050
 4995SOL    HW226619   3.875   4.334   9.864 -1.1404  0.1979  1.5368
 4996SOL     OW26620   3.423   3.786  15.641  0.4776 -0.1468 -0.2064
 4996SOL    HW126621   3.417   3.847  15.567  0.2870 -0.4626 -0.4533
 4996SOL    HW226622   3.329   3.773  15.654  0.8650 -2.3171  0.3873
 4997SOL     OW26623   0.473   2.451  12.298 -0.3584  0.2751 -0.1748
 4997SOL    HW126624   0.522   2.484  12.373 -1.2031  0.4450  0.3086
 4997SOL    HW226625   0.540   2.403  12.251 -0.9807 -1.4632  0.7108
 4998SOL     OW26626   3.435   1.833   5.466  0.0941 -0.4458 -0.2178
 4998SOL    HW126627   3.429   1.927   5.486 -0.5488 -0.6221  0.3975
 4998SOL    HW226628   3.502   1.808   5.529 -0.0024  1.5314  0.6911
 4999SOL     OW26629   2.145   2.029   2.027 -0.4313  0.2400  0.1635
 4999SOL    HW126630   2.098   1.954   2.064  1.5134 -1.3887 -0.6305
 4999SOL    HW226631   2.190   2.001   1.947 -1.4206 -0.4216 -0.1657
 5000SOL     OW26632   4.042   1.626   5.883  0.2385  0.0092 -0.0106
 5000SOL    HW126633   4.116   1.580   5.923 -2.2647 -1.7238  2.6528
 5000SOL    HW226634   4.095   1.663   5.812  1.2773 -2.6091 -0.5796
 5001SOL     OW26635   0.730   0.017   1.524 -0.3938  0.1540 -0.2772
 5001SOL    HW126636   0.644   4.734   1.561 -0.0298 -3.7820 -1.4570
 5001SOL    HW226637   0.729   4.701   1.444 -1.5004  1.0134 -0.8156
 5002SOL     OW26638   3.195   2.255   8.150  0.2350 -0.4126 -0.3467
 5002SOL    HW126639   3.178   2.305   8.230  0.7039  1.1930 -1.2592
 5002SOL    HW226640   3.162   2.171   8.181  0.8035 -0.6689 -0.4422
 5003SOL     OW26641   4.125   2.360  14.124 -0.5813 -0.0657 -0.1381
 5003SOL    HW126642   4.147   2.430  14.185 -1.1811  0.2547 -0.2946
 5003SOL    HW226643   4.208   2.313  14.110  0.6230  1.3737  2.0025
 5004SOL     OW26644   4.059   3.084   7.973 -0.0852 -0.1623  0.0032
 5004SOL    HW126645   4.049   3.008   7.916  1.9156  0.4393 -1.1645
 5004SOL    HW226646   3.977   3.071   8.020 -0.9115  2.6706 -0.6867
 5005SOL     OW26647   1.293   1.459  15.515  0.3615 -0.5842  0.3696
 5005SOL    HW126648   1.288   1.368  15.544  1.9023 -0.5578  0.6847
 5005SOL    HW226649   1.361   1.493  15.572  0.7934  0.2473 -0.6402
 5006SOL     OW26650   3.758   3.294   8.747  0.2291  0.3304  0.5383
 5006SOL    HW126651   3.719   3.252   8.823  0.6444  2.0525  1.7106
 5006SOL    HW226652   3.745   3.388   8.764 -0.6919 -0.2862  3.3253
 5007SOL     OW26653   1.306   0.230   8.738  0.1611 -0.2410 -0.6452
 5007SOL    HW126654   1.346   0.144   8.725  1.3165  0.3644 -1.0277
 5007SOL    HW226655   1.265   0.227   8.824  1.2210 -2.0526 -0.2040
 5008SOL     OW26656   2.096   1.518   2.207 -0.7470  0.2779 -0.5579
 5008SOL    HW126657   2.003   1.538   2.199 -1.1650 -1.7938 -1.0103
 5008SOL    HW226658   2.102   1.424   2.191 -1.4147  0.3850 -1.4057
 5009SOL     OW26659   3.077   3.223   3.092 -0.3830  0.5605 -0.6275
 5009SOL    HW126660   3.033   3.308   3.083 -1.0541  0.3564  0.7114
 5009SOL    HW226661   3.117   3.228   3.179 -2.5342  0.9016  0.3525
 5010SOL     OW26662   2.007   4.393   8.284  0.4060  1.2391  0.2880
 5010SOL    HW126663   1.917   4.359   8.283  0.9775 -0.2267 -1.2185
 5010SOL    HW226664   2.013   4.374   8.378  1.9502  0.9749  0.1398
 5011SOL     OW26665   0.556   2.197   0.922  0.3019 -0.1217 -0.3752
 5011SOL    HW126666   0.536   2.217   0.831 -0.5838 -2.1579 -0.6094
 5011SOL    HW226667   0.631   2.256   0.936 -1.0410  1.1412  1.5178
 5012SOL     OW26668   3.007   3.305   8.081  0.3586 -0.0419  0.2019
 5012SOL    HW126669   3.019   3.326   7.989  0.3640  1.4536  0.5360
 5012SOL    HW226670   3.044   3.217   8.082  1.0922  0.2731  0.9813
 5013SOL     OW26671   2.932   4.326   0.189  0.1533  0.3976 -0.1417
 5013SOL    HW126672   2.845   4.358   0.211 -0.6483 -0.9083 -1.4110
 5013SOL    HW226673   2.968   4.406   0.149 -1.7360  1.3704  0.0864
 5014SOL     OW26674   3.718   0.543   8.998  0.2539  0.4163  0.2820
 5014SOL    HW126675   3.670   0.527   9.079  2.0540 -0.0371  1.2765
 5014SOL    HW226676   3.684   0.625   8.961 -2.3037 -1.1689 -0.8021
 5015SOL     OW26677   3.984   1.216   1.876  0.7245 -0.4489  0.0223
 5015SOL    HW126678   3.979   1.255   1.789 -3.4546  2.3136  1.5229
 5015SOL    HW226679   4.056   1.262   1.919  0.3627 -0.5912  0.7934
 5016SOL     OW26680   2.323   4.670   8.351  0.2215  0.0668 -0.1980
 5016SOL    HW126681   2.294   4.598   8.408  0.3947 -0.3090 -0.5857
 5016SOL    HW226682   2.366   4.625   8.278 -0.8558  1.0887 -1.4590
 5017SOL     OW26683   3.066   0.550   6.057  0.0883  0.4715 -0.1328
 5017SOL    HW126684   3.129   0.523   6.124 -2.0870  0.2227  1.7919
 5017SOL    HW226685   3.037   0.629   6.102  0.1506  1.1888 -1.3535
 5018SOL     OW26686   1.954   3.634   5.558  0.0225 -0.2522  0.3468
 5018SOL    HW126687   1.906   3.567   5.607 -0.6669  1.3435  1.8609
 5018SOL    HW226688   1.884   3.691   5.526  2.3704  3.5155  1.8640
 5019SOL     OW26689   1.553   4.243   9.811  0.0527 -0.1882 -0.5594
 5019SOL    HW126690   1.543   4.150   9.790 -0.8183  0.7105 -4.2463
 5019SOL    HW226691   1.460   4.268   9.811  1.2316  4.2196  0.8657
 5020SOL     OW26692   2.871   3.233  10.618 -0.2191  0.1716  0.5834
 5020SOL    HW126693   2.933   3.215  10.548 -0.2574 -0.8780  0.8240
 5020SOL    HW226694   2.798   3.266  10.566 -0.5973  0.8717  1.5455
 5021SOL     OW26695   1.706   2.824  12.890 -0.1032  0.2391 -0.1446
 5021SOL    HW126696   1.632   2.806  12.948  1.0709  0.4429  1.4208
 5021SOL    HW226697   1.656   2.830  12.809  1.2753  0.1866 -0.9948
 5022SOL     OW26698   2.021   4.547   2.852  0.6710  0.2096  0.0614
 5022SOL    HW126699   2.090   4.484   2.832 -0.9710 -1.4909 -0.1698
 5022SOL    HW226700   2.025   4.560   2.947 -0.2754 -1.4138  0.3098
 5023SOL     OW26701   1.319   1.814   4.671 -0.7430  0.3579 -0.1661
 5023SOL    HW126702   1.307   1.851   4.583 -1.3431  3.8392  1.3994
 5023SOL    HW226703   1.321   1.895   4.721 -0.6797 -0.6183  1.4044
 5024SOL     OW26704   0.773   0.701   4.122 -0.2276 -0.3513 -0.3621
 5024SOL    HW126705   0.701   0.764   4.120  0.1233  0.0984  1.0420
 5024SOL    HW226706   0.772   0.674   4.214  0.2242 -1.0922 -0.5821
 5025SOL     OW26707   4.408   2.271   7.867  0.5137  0.3894  0.3092
 5025SOL    HW126708   4.386   2.362   7.844 -3.0581 -0.3766  0.7387
 5025SOL    HW226709   4.330   2.246   7.916  1.8410 -4.9929 -0.3226
 5026SOL     OW26710   2.075   2.817   8.849  0.4787  0.2706 -0.3440
 5026SOL    HW126711   2.110   2.884   8.791  1.3978 -1.7155 -2.0846
 5026SOL    HW226712   2.146   2.760   8.879 -0.0056 -1.5170 -2.5519
 5027SOL     OW26713   3.058   4.370  10.305 -0.3396  0.0385  0.1270
 5027SOL    HW126714   3.130   4.344  10.248  2.1549  0.2275  3.2472
 5027SOL    HW226715   3.003   4.422  10.246 -0.7835 -2.5539 -1.7346
 5028SOL     OW26716   3.073   3.573   4.523 -0.1501  0.2193  0.2433
 5028SOL    HW126717   3.033   3.626   4.592 -0.2174 -0.9941  1.1383
 5028SOL    HW226718   3.015   3.598   4.450  0.9609 -0.3969 -0.8570
 5029SOL     OW26719   0.180   2.321   1.448  0.1389  0.3139 -0.0327
 5029SOL    HW126720   0.249   2.324   1.514  1.5081 -1.3902 -1.3710
 5029SOL    HW226721   0.137   2.242   1.482 -0.4250  0.7265  0.2101
 5030SOL     OW26722   4.029   3.637   4.980 -0.6232  0.3883  0.1370
 5030SOL    HW126723   3.973   3.715   4.977  0.1509  0.9877  1.2941
 5030SOL    HW226724   3.976   3.568   4.939  0.1962  0.7252 -1.4704
 5031SOL     OW26725   4.611   4.695   6.384 -0.5507 -0.2443 -0.3370
 5031SOL    HW126726   4.632   0.006   6.303 -0.3105 -0.9942 -0.7045
 5031SOL    HW226727   4.532   4.654   6.350 -1.8333  0.7939  1.4444
 5032SOL     OW26728   1.017   4.352   8.387  0.2200  0.2871 -0.4494
 5032SOL    HW126729   1.059   4.338   8.302 -1.1599 -1.6102 -0.7972
 5032SOL    HW226730   0.972   4.268   8.390 -2.1391  1.5388 -1.0615
 5033SOL     OW26731   0.788   2.334   0.870 -0.0152  0.1368 -0.5575
 5033SOL    HW126732   0.774   2.426   0.892  1.7605  0.9581 -2.9626
 5033SOL    HW226733   0.787   2.345   0.775 -0.2092  2.0854 -0.3294
 5034SOL     OW26734   2.918   3.365   1.551 -0.3054 -0.3017  0.2028
 5034SOL    HW126735   2.839   3.311   1.541 -1.4971  1.8110 -1.6609
 5034SOL    HW226736   2.942   3.331   1.637 -0.9446  0.7607  0.7974
 5035SOL     OW26737   2.095   0.827   7.695 -0.1115 -0.8789  0.0730
 5035SOL    HW126738   2.139   0.759   7.643 -0.2807  1.0107 -2.5754
 5035SOL    HW226739   2.086   0.898   7.631  1.7321 -1.0299 -0.3555
 5036SOL     OW26740   3.256   0.802   8.617  0.3186  0.4926  0.6840
 5036SOL    HW126741   3.264   0.818   8.523  0.1868  1.5963  0.8614
 5036SOL    HW226742   3.216   0.716   8.618  1.3930 -0.0100  0.4232
 5037SOL     OW26743   3.938   1.707   9.913 -0.0006 -1.0311  0.3259
 5037SOL    HW126744   3.949   1.751   9.997 -0.7639 -0.4199  0.1082
 5037SOL    HW226745   4.027   1.682   9.889  0.9533  0.4662  2.2972
 5038SOL     OW26746   2.649   4.701  10.456 -0.9182  0.1276  0.4151
 5038SOL    HW126747   2.733   0.010  10.461 -0.5175 -0.7085  1.2151
 5038SOL    HW226748   2.624   4.714  10.365 -1.4223 -0.9864  0.3864
 5039SOL     OW26749   3.647   2.816   3.598  0.3805  0.3869 -0.3378
 5039SOL    HW126750   3.709   2.888   3.612  0.6253  0.0984  0.0516
 5039SOL    HW226751   3.700   2.737   3.586 -0.5836  0.1733 -3.2436
 5040SOL     OW26752   1.789   4.047  10.498 -0.1998 -0.2573  0.4815
 5040SOL    HW126753   1.816   3.967  10.453  1.7307  0.2360  0.7570
 5040SOL    HW226754   1.728   4.086  10.435  0.0731 -0.6998 -0.0577
 5041SOL     OW26755   1.353   2.630   7.397  0.1788  0.1097  0.3409
 5041SOL    HW126756   1.300   2.552   7.380  1.2102 -0.9143  1.8957
 5041SOL    HW226757   1.338   2.683   7.318 -0.2076 -0.1823  0.2190
 5042SOL     OW26758   4.289   1.231   0.832  0.0378 -0.2330  0.5135
 5042SOL    HW126759   4.371   1.187   0.809  1.0751  2.2977 -0.5653
 5042SOL    HW226760   4.312   1.323   0.835 -1.3591  0.0945  1.3672
 5043SOL     OW26761   2.726   3.510   8.251 -0.6030  0.1815 -0.5868
 5043SOL    HW126762   2.797   3.568   8.225 -0.0563 -0.3614 -0.2933
 5043SOL    HW226763   2.750   3.432   8.202  1.1591  1.0235 -1.0616
 5044SOL     OW26764   2.166   2.925   5.379  0.2280 -0.5452 -0.3017
 5044SOL    HW126765   2.134   2.968   5.300  0.1525 -1.7682 -0.9498
 5044SOL    HW226766   2.260   2.931   5.360 -0.1066  0.1395 -1.7468
 5045SOL     OW26767   2.309   2.125   4.466  0.0928  0.7692 -0.2399
 5045SOL    HW126768   2.361   2.081   4.534 -0.2218 -0.8277 -1.0371
 5045SOL    HW226769   2.361   2.196   4.428  0.2876  0.6607 -0.1747
 5046SOL     OW26770   2.438   2.518  17.524 -0.2488  0.5577  0.4858
 5046SOL    HW126771   2.369   2.547  17.464  0.0114 -0.4673 -0.3069
 5046SOL    HW226772   2.467   2.606  17.550  0.3759  0.4071  0.2889
 5047SOL     OW26773   1.056   2.688  12.281 -0.9626 -0.0310 -0.3270
 5047SOL    HW126774   1.102   2.685  12.197 -1.4661  1.7874 -0.6612
 5047SOL    HW226775   0.976   2.649  12.245 -2.5493  0.4987  2.6340
 5048SOL     OW26776   4.201   2.467   7.444  0.5151 -0.2023 -0.5503
 5048SOL    HW126777   4.127   2.463   7.384  0.6985  0.1223 -0.7985
 5048SOL    HW226778   4.170   2.543   7.494  1.2611 -0.7614  0.7774
 5049SOL     OW26779   0.745   3.427   2.533 -0.4795 -0.0278 -0.0896
 5049SOL    HW126780   0.822   3.383   2.567 -1.9628 -2.1567  0.5197
 5049SOL    HW226781   0.671   3.376   2.565 -0.7960 -0.7214 -1.8900
 5050SOL     OW26782   1.414   0.719   5.726  0.1048 -0.0510  0.2059
 5050SOL    HW126783   1.329   0.759   5.707  0.5828  1.1388  0.5599
 5050SOL    HW226784   1.409   0.659   5.651 -2.7799  0.9989 -0.4806
 5051SOL     OW26785   2.273   3.937   2.035  0.2401  0.0915 -0.4266
 5051SOL    HW126786   2.327   3.859   2.047 -0.4280 -0.1960  0.6143
 5051SOL    HW226787   2.188   3.913   1.998  0.5448 -1.1611 -0.3022
 5052SOL     OW26788   3.802   0.717   8.612  0.0158  0.0421 -0.0355
 5052SOL    HW126789   3.871   0.778   8.586  0.6078  0.7602  3.2375
 5052SOL    HW226790   3.738   0.760   8.669  2.5396  1.6327  1.6033
 5053SOL     OW26791   3.466   2.366  10.504  0.0665  0.3814  0.2924
 5053SOL    HW126792   3.387   2.414  10.482  1.1462  1.7496 -0.6473
 5053SOL    HW226793   3.532   2.426  10.470 -0.1200 -0.6325 -1.8420
 5054SOL     OW26794   0.333   0.161   4.066 -0.7018  0.0965  0.1102
 5054SOL    HW126795   0.297   0.165   3.977 -1.2313 -0.3883  0.3006
 5054SOL    HW226796   0.404   0.098   4.051 -0.7086  0.4168 -1.3451
 5055SOL     OW26797   2.103   2.640   9.609 -0.1063  0.1418  0.3654
 5055SOL    HW126798   2.172   2.580   9.580 -1.0080 -0.7390  0.0293
 5055SOL    HW226799   2.135   2.667   9.695  0.4939 -0.2883  0.2810
 5056SOL     OW26800   2.528   2.672  17.247  0.1688  0.5555  0.5135
 5056SOL    HW126801   2.520   2.766  17.261  0.7262  0.6404  0.2702
 5056SOL    HW226802   2.439   2.654  17.216 -0.0809  0.9385  1.0182
 5057SOL     OW26803   3.641   3.257   6.805 -0.5201 -0.4033  0.1912
 5057SOL    HW126804   3.545   3.250   6.806 -0.5854  0.7003  2.0970
 5057SOL    HW226805   3.642   3.350   6.779 -1.3583 -0.4361  0.0301
 5058SOL     OW26806   3.080   0.848  12.266 -0.2661 -0.2877 -0.3384
 5058SOL    HW126807   3.129   0.782  12.316 -1.1729 -0.2905  0.5463
 5058SOL    HW226808   3.088   0.930  12.314  1.4365 -0.3931 -0.4594
 5059SOL     OW26809   2.244   4.165   6.517  0.1316  0.7708  0.0340
 5059SOL    HW126810   2.202   4.176   6.602 -0.5235 -2.8605  0.2072
 5059SOL    HW226811   2.275   4.074   6.521  3.4922  1.9718  1.2795
 5060SOL     OW26812   2.178   2.445   8.002  0.3164 -0.0154  0.5043
 5060SOL    HW126813   2.233   2.465   8.077  0.1390 -0.2204  0.6902
 5060SOL    HW226814   2.238   2.401   7.942 -0.2468  0.9493 -0.7854
 5061SOL     OW26815   3.295   0.845   2.984  0.3821  0.3105 -0.2680
 5061SOL    HW126816   3.217   0.897   2.968  0.4930  0.8624  1.0146
 5061SOL    HW226817   3.273   0.785   3.056 -0.3039 -1.0425 -1.6128
 5062SOL     OW26818   0.923   0.544   5.970  0.4230  0.2231  0.5103
 5062SOL    HW126819   0.835   0.548   6.008 -0.9179  1.8542 -2.7496
 5062SOL    HW226820   0.981   0.513   6.039 -2.0721 -0.5909  2.2324
 5063SOL     OW26821   1.515   1.797   7.303 -0.3038 -0.2661  0.0385
 5063SOL    HW126822   1.494   1.813   7.211 -2.2893 -0.0723  0.5190
 5063SOL    HW226823   1.427   1.793   7.339  0.1388  0.1188  1.1387
 5064SOL     OW26824   0.224   4.300  17.195 -0.4001 -0.3558  0.0275
 5064SOL    HW126825   0.216   4.211  17.229  2.9021 -1.5799 -2.3312
 5064SOL    HW226826   0.146   4.346  17.226 -0.2362  2.0358 -3.0581
 5065SOL     OW26827   1.983   0.896   5.089 -0.2492 -0.3384  0.3882
 5065SOL    HW126828   1.905   0.943   5.119 -0.3044  0.5707 -1.1482
 5065SOL    HW226829   2.006   0.842   5.164 -1.5227  0.3414  1.2785
 5066SOL     OW26830   4.591   3.438  14.611 -0.0520 -0.5502 -0.0971
 5066SOL    HW126831   4.577   3.413  14.519 -1.2841  0.1574 -0.1008
 5066SOL    HW226832   4.584   3.350  14.647 -2.3957 -0.7907 -1.1657
 5067SOL     OW26833   1.975   3.492   9.879 -0.3372 -0.2349  0.1067
 5067SOL    HW126834   1.880   3.483   9.876 -0.4525  1.0584 -0.0930
 5067SOL    HW226835   1.980   3.510   9.973 -0.5985 -1.8394  0.4128
 5068SOL     OW26836   2.640   3.778   7.916  0.1024  0.2333  0.2790
 5068SOL    HW126837   2.621   3.775   7.822 -1.3757  0.3718  0.5670
 5068SOL    HW226838   2.629   3.684   7.936 -3.7599  0.4118 -0.8707
 5069SOL     OW26839   3.079   1.491  12.543  0.2535 -0.6398 -0.0697
 5069SOL    HW126840   3.139   1.482  12.617  0.9360 -1.5745 -0.7432
 5069SOL    HW226841   2.998   1.469  12.589  0.0753  1.6080  0.7069
 5070SOL     OW26842   1.901   0.263   5.076 -0.5103 -0.2836 -0.2302
 5070SOL    HW126843   1.951   0.275   4.995 -0.7141 -2.6164 -0.6892
 5070SOL    HW226844   1.943   0.335   5.124  1.1179 -0.5228 -1.3065
 5071SOL     OW26845   0.751   4.078   0.831 -0.4237  1.0962  0.2977
 5071SOL    HW126846   0.798   4.115   0.756 -1.7647  0.1124 -1.0130
 5071SOL    HW226847   0.728   4.157   0.881  0.2156  1.5309 -0.0966
 5072SOL     OW26848   0.234   2.934   9.348  0.3426  0.3646 -0.0585
 5072SOL    HW126849   0.291   2.865   9.382 -0.8479 -0.6867 -0.1776
 5072SOL    HW226850   0.150   2.895   9.373 -0.0052  1.0366 -0.1864
 5073SOL     OW26851   2.415   1.425   6.072  0.4686  0.3013 -0.1719
 5073SOL    HW126852   2.502   1.459   6.091  0.9667 -0.1178 -1.7346
 5073SOL    HW226853   2.408   1.445   5.979  1.6033 -0.7726 -0.4944
 5074SOL     OW26854   1.347   4.331  15.758  0.1704  0.0860 -0.1627
 5074SOL    HW126855   1.344   4.425  15.740  0.6079  0.2915  0.8861
 5074SOL    HW226856   1.263   4.293  15.730 -0.4989 -0.2671  2.3102
 5075SOL     OW26857   0.361   0.718  12.629  0.1872 -0.0937  0.5381
 5075SOL    HW126858   0.270   0.747  12.623  0.3591 -0.3865 -3.3869
 5075SOL    HW226859   0.370   0.707  12.724 -1.4654  0.7768  0.7817
 5076SOL     OW26860   1.191   1.915   0.146  0.2527  0.2969 -0.2868
 5076SOL    HW126861   1.135   1.983   0.109 -1.3513 -0.2904  1.0299
 5076SOL    HW226862   1.252   1.898   0.075 -0.7143  0.0704 -1.0627
 5077SOL     OW26863   0.751   0.747  16.498  0.0618  0.2147 -0.1830
 5077SOL    HW126864   0.702   0.713  16.423 -0.5647 -0.0984  0.3658
 5077SOL    HW226865   0.834   0.780  16.463 -0.8804 -0.9149 -3.4936
 5078SOL     OW26866   2.719   2.998   8.487 -0.1957 -0.4003  0.1984
 5078SOL    HW126867   2.688   2.985   8.577  3.5945 -1.9959  1.2777
 5078SOL    HW226868   2.691   3.089   8.481 -0.1573 -0.3125  1.3541
 5079SOL     OW26869   3.540   1.251   6.268  0.1523 -0.1921  0.0639
 5079SOL    HW126870   3.538   1.253   6.364 -0.7774  0.0199  0.0413
 5079SOL    HW226871   3.517   1.161   6.244  0.4282 -0.1740 -0.2520
 5080SOL     OW26872   3.277   1.554   6.187 -0.2355 -0.6188 -0.4780
 5080SOL    HW126873   3.261   1.594   6.273 -2.2598  0.2740 -1.2728
 5080SOL    HW226874   3.371   1.537   6.191 -0.3157 -1.2253 -1.3905
 5081SOL     OW26875   4.138   4.633   5.358 -0.4800 -0.0539 -0.0788
 5081SOL    HW126876   4.053   4.609   5.320  0.0839  0.3884 -1.6292
 5081SOL    HW226877   4.100   4.692   5.423  0.9031 -0.8744  1.4976
 5082SOL     OW26878   3.321   3.531   1.554 -0.4192  0.3498  0.3575
 5082SOL    HW126879   3.362   3.505   1.471  1.3701 -0.9322  1.6196
 5082SOL    HW226880   3.401   3.506   1.600  0.4534  1.0719 -0.7558
 5083SOL     OW26881   0.840   4.444   1.467 -0.0177  0.2516  0.3960
 5083SOL    HW126882   0.901   4.479   1.533  0.5901  0.4637 -0.2749
 5083SOL    HW226883   0.773   4.410   1.526 -1.4932  2.2155 -0.1541
 5084SOL     OW26884   3.702   1.640   0.444 -0.3221 -0.4462  0.2044
 5084SOL    HW126885   3.782   1.689   0.423  0.1413 -0.8571  1.0290
 5084SOL    HW226886   3.663   1.615   0.360  0.0827  0.1133 -0.1462
 5085SOL     OW26887   0.034   3.089  16.961 -0.2672 -1.1050  0.2839
 5085SOL    HW126888   4.688   3.044  16.979 -1.3238 -0.2881 -2.4588
 5085SOL    HW226889   0.027   3.173  17.006 -0.2694 -1.1572  0.3802
 5086SOL     OW26890   0.224   3.787   2.664 -0.2700 -0.0038  0.2909
 5086SOL    HW126891   0.216   3.793   2.759  0.2909 -0.1168  0.3401
 5086SOL    HW226892   0.242   3.694   2.650 -0.5458  0.2303 -1.6520
 5087SOL     OW26893   3.531   2.635  14.232 -0.0959  0.2075  0.1191
 5087SOL    HW126894   3.515   2.670  14.145 -1.6521 -1.2205 -0.1725
 5087SOL    HW226895   3.623   2.611  14.225 -0.3777  0.0088 -2.7695
 5088SOL     OW26896   2.429   3.104  15.133 -0.4107  0.1451  1.2365
 5088SOL    HW126897   2.477   3.171  15.084  1.8986 -2.7712 -0.4726
 5088SOL    HW226898   2.367   3.170  15.165  0.7823  1.9466 -0.1716
 5089SOL     OW26899   1.245   4.159   9.262 -0.1145 -0.3261 -0.8474
 5089SOL    HW126900   1.322   4.168   9.206  1.3475 -3.0022  0.7830
 5089SOL    HW226901   1.238   4.245   9.304 -1.2536 -0.7886 -0.0852
 5090SOL     OW26902   3.777   1.572   7.084 -0.0696  0.2070  0.2405
 5090SOL    HW126903   3.723   1.591   7.008 -1.0366  2.1112  1.3964
 5090SOL    HW226904   3.702   1.578   7.143 -0.5846 -2.5392 -0.1213
 5091SOL     OW26905   2.361   2.241   8.642  0.2353  0.1845  0.2299
 5091SOL    HW126906   2.375   2.203   8.555  0.0962  1.0533 -0.1804
 5091SOL    HW226907   2.445   2.281   8.666  1.0235 -2.6479  2.1810
 5092SOL     OW26908   0.670   2.618  13.579  0.0349  0.1373  0.2398
 5092SOL    HW126909   0.712   2.564  13.512  1.7766  1.5978  0.1744
 5092SOL    HW226910   0.584   2.581  13.597  0.5752 -0.5476  1.4297
 5093SOL     OW26911   4.303   1.046  12.188  0.3720  0.7513  0.2176
 5093SOL    HW126912   4.259   1.111  12.132  1.7789 -0.1890 -2.0041
 5093SOL    HW226913   4.358   0.998  12.126  0.1896  0.5461  0.2132
 5094SOL     OW26914   0.112   4.604   5.955  0.1546  0.0427 -0.3672
 5094SOL    HW126915   0.036   4.550   5.977  0.0031  1.2239  2.1012
 5094SOL    HW226916   0.111   4.591   5.861  1.9411 -2.9152 -0.0123
 5095SOL     OW26917   1.275   4.405   9.355  0.4678 -0.0890  0.2289
 5095SOL    HW126918   1.182   4.427   9.358  0.6349  0.6948 -0.2552
 5095SOL    HW226919   1.318   4.488   9.334  0.3766  0.5616  2.6088
 5096SOL     OW26920   1.956   2.204  12.377 -0.0317  0.8402  0.2679
 5096SOL    HW126921   1.893   2.264  12.418  1.0207  0.7650  1.9713
 5096SOL    HW226922   1.995   2.266  12.316  1.7066 -0.4453  0.0650
 5097SOL     OW26923   1.028   4.724   6.572 -0.2046  0.1163 -0.3130
 5097SOL    HW126924   0.935   0.009   6.569  0.1578  1.9622  0.9623
 5097SOL    HW226925   1.020   4.653   6.636 -1.8200  0.7211  0.1677
 5098SOL     OW26926   4.349   0.972   3.784  0.7072 -0.0448 -0.4962
 5098SOL    HW126927   4.436   0.932   3.792  0.4108 -0.7240 -0.6897
 5098SOL    HW226928   4.292   0.896   3.782  3.4555 -2.1302 -0.0259
 5099SOL     OW26929   0.602   4.519   5.161  0.2424 -0.0978  0.0216
 5099SOL    HW126930   0.603   4.544   5.254  1.9079 -0.9714  0.2419
 5099SOL    HW226931   0.693   4.509   5.134 -0.1136  1.1112 -1.5774
 5100SOL     OW26932   3.829   2.829   9.009  0.4421 -0.1374  0.0658
 5100SOL    HW126933   3.779   2.789   8.938  0.2476  0.3341 -0.0673
 5100SOL    HW226934   3.768   2.815   9.082 -0.1069  0.1942 -0.3235
 5101SOL     OW26935   1.656   3.497  15.057 -0.0871 -0.6164  0.1569
 5101SOL    HW126936   1.704   3.556  14.998  0.3819 -2.8545 -1.7245
 5101SOL    HW226937   1.584   3.469  15.001 -1.0411  3.2381 -0.5144
 5102SOL     OW26938   4.105   2.279   4.940  0.6477 -0.2390 -0.2386
 5102SOL    HW126939   4.142   2.304   4.855  0.4513 -1.6143 -0.7251
 5102SOL    HW226940   4.151   2.335   5.003 -0.5383 -0.3311  0.6938
 5103SOL     OW26941   0.017   0.852   4.347 -0.1419 -0.3467  0.3305
 5103SOL    HW126942   0.054   0.918   4.288 -2.5862 -1.3607 -2.3491
 5103SOL    HW226943   0.073   0.858   4.425  0.4513 -1.1445 -0.0463
 5104SOL     OW26944   2.453   2.462  10.124  0.3757  0.0368 -0.0037
 5104SOL    HW126945   2.368   2.447  10.083  0.8437 -0.3745 -0.8167
 5104SOL    HW226946   2.430   2.398  10.191  1.6604 -1.5098 -1.0265
 5105SOL     OW26947   3.192   4.182   6.747  0.3440 -0.4940 -0.9045
 5105SOL    HW126948   3.191   4.095   6.710  0.7101 -0.5477 -0.7898
 5105SOL    HW226949   3.220   4.231   6.670  1.6119 -1.3779 -1.0042
 5106SOL     OW26950   0.445   0.675   5.509 -0.4258 -0.1549 -0.6916
 5106SOL    HW126951   0.432   0.585   5.539  0.1164 -0.0069  0.0056
 5106SOL    HW226952   0.442   0.652   5.416 -2.4778 -1.4891 -0.3009
 5107SOL     OW26953   1.047   4.399  10.774 -0.4743 -0.4979 -0.3292
 5107SOL    HW126954   1.006   4.486  10.776  2.4611  0.9186 -1.9919
 5107SOL    HW226955   1.121   4.415  10.715 -0.3824  1.5974  0.3440
 5108SOL     OW26956   1.536   2.197   7.788 -0.2126 -0.7778  0.0223
 5108SOL    HW126957   1.572   2.278   7.752  0.3098  0.3750  3.1099
 5108SOL    HW226958   1.497   2.149   7.716  1.6215 -0.2038 -1.3390
 5109SOL     OW26959   0.289   4.451  16.972  0.1209  0.2530  0.4187
 5109SOL    HW126960   0.217   4.415  16.920  0.3620  0.6536 -0.1846
 5109SOL    HW226961   0.257   4.426  17.059  0.9973  0.0877  0.6974
 5110SOL     OW26962   2.453   2.291   6.790  0.2495  0.0626 -0.3001
 5110SOL    HW126963   2.455   2.377   6.747 -0.1333 -2.1570 -4.7274
 5110SOL    HW226964   2.391   2.309   6.862  1.1037 -0.9776  0.6895
 5111SOL     OW26965   2.752   3.156   3.924 -0.4391  0.3929  0.5399
 5111SOL    HW126966   2.682   3.126   3.981 -3.1036 -0.2366 -3.0967
 5111SOL    HW226967   2.798   3.213   3.985 -0.1584 -0.7452  1.3821
 5112SOL     OW26968   3.858   1.883   7.594  0.0146 -0.4017  0.2631
 5112SOL    HW126969   3.857   1.936   7.674 -0.2398  0.1053 -0.0730
 5112SOL    HW226970   3.936   1.829   7.607 -0.1445 -0.7664 -0.3331
 5113SOL     OW26971   0.985   2.165   2.578 -0.7759  0.1478 -0.6299
 5113SOL    HW126972   1.011   2.074   2.560 -0.1608  0.1019  0.4673
 5113SOL    HW226973   0.964   2.160   2.671 -1.3735 -0.3577 -0.7909
 5114SOL     OW26974   3.006   1.234   6.004  0.2385  0.2346 -0.2680
 5114SOL    HW126975   2.957   1.234   6.087  0.8786 -0.9952  0.1128
 5114SOL    HW226976   2.951   1.174   5.953 -0.9812  0.1535  1.1020
 5115SOL     OW26977   3.080   2.173   5.640  0.0807 -0.3857 -0.1549
 5115SOL    HW126978   3.153   2.234   5.626  0.2969 -0.7754 -0.7173
 5115SOL    HW226979   3.095   2.108   5.571 -0.1224 -1.1054  0.4878
 5116SOL     OW26980   3.808   0.420   1.271 -0.3233  0.6687 -0.1237
 5116SOL    HW126981   3.718   0.419   1.237  0.2979 -0.4825 -1.7376
 5116SOL    HW226982   3.859   0.386   1.198 -1.3777  3.2345 -2.0661
 5117SOL     OW26983   1.099   0.724   6.816  0.2330 -0.0822  0.1044
 5117SOL    HW126984   1.164   0.667   6.775 -2.1263 -2.8117  0.1046
 5117SOL    HW226985   1.153   0.761   6.885  1.3918  0.7355 -1.2408
 5118SOL     OW26986   2.786   1.977   6.575 -0.1014  0.1680 -0.1558
 5118SOL    HW126987   2.881   1.979   6.579 -0.1700  0.1040  1.4594
 5118SOL    HW226988   2.754   2.022   6.654 -1.9485 -0.6757 -0.4052
 5119SOL     OW26989   1.376   2.314   8.822 -0.0555  0.4788  0.2081
 5119SOL    HW126990   1.290   2.350   8.843 -0.4650 -1.0161  1.1144
 5119SOL    HW226991   1.433   2.312   8.900  0.0803 -0.1453  0.0961
 5120SOL     OW26992   3.767   0.883   7.532  0.4202 -0.0071 -0.2622
 5120SOL    HW126993   3.701   0.856   7.467  0.8950 -2.0339  0.1054
 5120SOL    HW226994   3.840   0.882   7.470  0.7339  2.2196  0.0764
 5121SOL     OW26995   2.882   2.487  10.455 -0.0609 -0.2453 -0.2750
 5121SOL    HW126996   2.882   2.528  10.369  0.0487 -2.6276 -1.4332
 5121SOL    HW226997   2.791   2.501  10.482 -0.1995 -1.2270 -0.2057
 5122SOL     OW26998   3.451   3.838   1.579  0.2692  0.1875 -0.3315
 5122SOL    HW126999   3.491   3.792   1.504 -0.9904  1.5162 -1.8206
 5122SOL    HW227000   3.464   3.779   1.653 -1.9313  1.4396  1.0416
 5123SOL     OW27001   1.792   1.400  16.295 -0.5099  0.5980 -0.3885
 5123SOL    HW127002   1.742   1.461  16.241  1.4450  1.6445 -0.9993
 5123SOL    HW227003   1.729   1.330  16.313  0.1636  0.9606  3.3626
 5124SOL     OW27004   4.089   3.896  12.359  0.4829 -0.0991  0.2584
 5124SOL    HW127005   4.104   3.897  12.265 -1.3010 -2.1719 -0.0508
 5124SOL    HW227006   4.062   3.805  12.375 -2.1992  0.2524 -2.3661
 5125SOL     OW27007   0.799   1.357   9.675  0.0719 -0.2972  0.0984
 5125SOL    HW127008   0.764   1.268   9.678  0.7463 -0.6180 -1.2819
 5125SOL    HW227009   0.863   1.351   9.746 -0.3548 -1.9675  0.3361
 5126SOL     OW27010   4.272   0.720  15.536  0.7076  0.1236 -0.4986
 5126SOL    HW127011   4.314   0.635  15.529 -0.8729 -0.7962  1.1369
 5126SOL    HW227012   4.269   0.721  15.632  0.5738 -1.0619 -0.4970
 5127SOL     OW27013   0.181   4.066   5.605 -0.0324  0.2647 -0.2907
 5127SOL    HW127014   0.197   4.076   5.511 -0.1157  1.0028 -0.2217
 5127SOL    HW227015   0.151   4.152   5.632 -0.4989  0.0306 -0.0609
 5128SOL     OW27016   3.169   3.134   2.863 -0.2942 -0.3379 -0.3136
 5128SOL    HW127017   3.116   3.057   2.841  0.5720 -0.6942 -1.1419
 5128SOL    HW227018   3.114   3.171   2.932  0.1547 -0.2170 -0.0196
 5129SOL     OW27019   2.368   2.577   2.162 -0.7477  0.3492 -0.1052
 5129SOL    HW127020   2.396   2.610   2.248  3.0928  2.3445 -2.0784
 5129SOL    HW227021   2.454   2.562   2.121 -0.6993 -0.0279  0.1345
 5130SOL     OW27022   0.808   2.479   7.951 -0.3300 -0.3702  0.2074
 5130SOL    HW127023   0.793   2.529   8.031 -0.9874  2.8888 -1.9630
 5130SOL    HW227024   0.807   2.390   7.987  0.1527 -0.6967 -0.5744
 5131SOL     OW27025   1.035   1.810   4.510 -0.7765  0.6976 -0.0729
 5131SOL    HW127026   0.968   1.808   4.441  1.6051 -2.8730 -2.2839
 5131SOL    HW227027   1.116   1.823   4.461 -0.5401 -1.6098 -0.2727
 5132SOL     OW27028   2.700   4.158  11.110  0.3770 -0.8521 -0.7726
 5132SOL    HW127029   2.624   4.114  11.073  0.3654  0.0557 -1.8556
 5132SOL    HW227030   2.745   4.172  11.026  0.1326 -2.2307 -1.1360
 5133SOL     OW27031   4.079   3.439   6.334 -0.1423  0.2775 -0.0955
 5133SOL    HW127032   4.138   3.513   6.317  0.5425 -0.3982 -0.6603
 5133SOL    HW227033   4.076   3.397   6.248 -0.6640  2.2374 -1.0473
 5134SOL     OW27034   0.281   1.772   4.333 -0.0252 -0.7447 -0.1692
 5134SOL    HW127035   0.191   1.742   4.334 -0.2129 -0.1683  0.6474
 5134SOL    HW227036   0.325   1.687   4.336  0.5190 -0.4642 -0.1880
 5135SOL     OW27037   3.981   0.612   2.782  0.4101 -0.4557  0.2618
 5135SOL    HW127038   3.891   0.592   2.809  0.3239 -3.3000 -2.0987
 5135SOL    HW227039   4.016   0.576   2.863  3.0434 -1.1960 -1.1913
 5136SOL     OW27040   0.321   4.179   3.471 -0.3468  0.0235 -0.5496
 5136SOL    HW127041   0.268   4.259   3.476 -2.4113 -1.3205 -0.8485
 5136SOL    HW227042   0.252   4.125   3.432 -1.6635  1.2133  0.1021
 5137SOL     OW27043   3.488   3.576   7.188  0.1262  0.6788 -0.8743
 5137SOL    HW127044   3.528   3.496   7.154 -0.5986  0.6569 -1.7005
 5137SOL    HW227045   3.515   3.644   7.126 -0.7705  2.2504  0.4527
 5138SOL     OW27046   3.129   0.175  11.140 -0.1313 -0.0335  0.7654
 5138SOL    HW127047   3.130   0.137  11.053  0.8060  0.8087  0.4048
 5138SOL    HW227048   3.224   0.166  11.144  0.0257  1.0172 -0.6475
 5139SOL     OW27049   1.434   4.043   2.238 -0.0418  0.2451 -0.2394
 5139SOL    HW127050   1.367   4.021   2.303 -1.4056  2.2751 -0.9588
 5139SOL    HW227051   1.396   4.004   2.159  0.7623  0.9064 -0.9396
 5140SOL     OW27052   2.537   3.772   0.278 -0.5883 -0.3338 -0.0726
 5140SOL    HW127053   2.630   3.785   0.296 -0.2677 -0.5020 -1.6271
 5140SOL    HW227054   2.534   3.817   0.193  1.0134 -2.1218 -1.0670
 5141SOL     OW27055   1.098   3.894   8.762  0.3352  0.2093 -0.4485
 5141SOL    HW127056   1.117   3.954   8.690  0.1399  1.1085  0.2554
 5141SOL    HW227057   1.174   3.835   8.755  0.1036 -0.0537 -0.7301
 5142SOL     OW27058   0.824   3.169   6.000 -0.4066 -0.3605  0.1503
 5142SOL    HW127059   0.773   3.119   6.064 -0.7974  0.1785  0.2634
 5142SOL    HW227060   0.748   3.205   5.953 -0.4015 -0.4256  0.0932
 5143SOL     OW27061   2.830   4.529   7.612  0.3851  0.0117  0.8573
 5143SOL    HW127062   2.925   4.520   7.611  0.2937 -0.7531 -0.1886
 5143SOL    HW227063   2.815   4.472   7.688 -0.5698  1.5959  1.8615
 5144SOL     OW27064   2.648   2.328   2.370 -0.7871  0.1156  0.0527
 5144SOL    HW127065   2.591   2.292   2.303  1.9082 -1.8601 -1.1671
 5144SOL    HW227066   2.714   2.376   2.320 -1.0533 -1.4020 -1.7596
 5145SOL     OW27067   1.872   3.268   2.677 -0.0725 -0.3221  0.6588
 5145SOL    HW127068   1.885   3.300   2.587  2.1846 -1.8809  0.4325
 5145SOL    HW227069   1.826   3.186   2.661 -2.3888  1.0792  0.1179
 5146SOL     OW27070   2.725   2.900  13.354 -0.2682  0.4128  0.6446
 5146SOL    HW127071   2.656   2.915  13.417 -0.8407 -1.9566  0.5735
 5146SOL    HW227072   2.752   2.992  13.346 -3.6799  1.4279  0.8760
 5147SOL     OW27073   1.207   2.563  16.871  0.2556  0.3654 -0.1108
 5147SOL    HW127074   1.119   2.527  16.869  0.0930  0.7803 -0.5098
 5147SOL    HW227075   1.200   2.654  16.843  0.0356  0.2743 -0.3474
 5148SOL     OW27076   4.340   0.592   8.980  0.0955 -0.7666 -0.0832
 5148SOL    HW127077   4.382   0.540   8.912  0.0471 -0.9214  0.0060
 5148SOL    HW227078   4.373   0.546   9.058 -3.4993 -3.9625 -0.4537
 5149SOL     OW27079   0.335   0.647   4.371 -0.4026 -0.6850  0.3758
 5149SOL    HW127080   0.259   0.599   4.404  0.2885 -2.6585 -0.9029
 5149SOL    HW227081   0.385   0.667   4.451 -1.0053  2.0149  0.1019
 5150SOL     OW27082   2.136   2.094   7.460  0.7148  0.6778  0.3150
 5150SOL    HW127083   2.051   2.135   7.446  1.3579  2.1487  0.7769
 5150SOL    HW227084   2.125   2.072   7.552 -0.7497  0.7753  0.1560
 5151SOL     OW27085   4.708   0.972   3.208 -0.0983 -0.1755 -0.2668
 5151SOL    HW127086   4.644   0.947   3.274  1.0816 -0.6347  0.7100
 5151SOL    HW227087   0.053   0.983   3.258 -0.9539  1.5726  0.7317
 5152SOL     OW27088   3.786   3.964   9.695 -0.2186 -0.4388 -1.0400
 5152SOL    HW127089   3.855   3.990   9.756 -0.9232 -3.1295  0.8784
 5152SOL    HW227090   3.807   3.871   9.683 -0.7686 -1.0641  3.0386
 5153SOL     OW27091   3.366   0.558   9.062  0.4974  0.4494 -0.2143
 5153SOL    HW127092   3.386   0.630   9.003  0.4952 -1.0438 -2.0421
 5153SOL    HW227093   3.313   0.608   9.123 -0.4852  0.0995 -0.7857
 5154SOL     OW27094   1.566   3.778   7.193 -0.1997 -0.1768 -0.2015
 5154SOL    HW127095   1.475   3.808   7.188  0.4682  1.6468 -1.3056
 5154SOL    HW227096   1.617   3.858   7.202 -2.6260  1.4747 -1.3819
 5155SOL     OW27097   3.515   3.074   7.528  0.7555 -0.2975  0.4744
 5155SOL    HW127098   3.536   2.986   7.498 -1.5108 -0.6436 -0.1498
 5155SOL    HW227099   3.602   3.110   7.542  0.9512 -0.9259  0.9026
 5156SOL     OW27100   3.581   1.123  16.350  0.0523 -0.0096  0.6713
 5156SOL    HW127101   3.601   1.156  16.438 -1.4706 -0.9092  1.3435
 5156SOL    HW227102   3.589   1.030  16.369  1.8104  0.5472  2.8203
 5157SOL     OW27103   1.919   4.213  15.493  0.2190 -0.0616 -0.0817
 5157SOL    HW127104   1.993   4.168  15.452 -0.5397 -0.6308 -0.8449
 5157SOL    HW227105   1.841   4.175  15.451  1.0816 -0.4420 -1.3459
 5158SOL     OW27106   2.470   1.727   8.834 -0.8741  0.1849  0.1809
 5158SOL    HW127107   2.535   1.715   8.903  0.9710  0.5995 -1.4612
 5158SOL    HW227108   2.486   1.817   8.805  0.5292 -0.1526 -0.0933
 5159SOL     OW27109   2.800   0.847   9.034  0.8983 -0.0934  0.2469
 5159SOL    HW127110   2.709   0.873   9.019  0.8295 -0.0942  0.6628
 5159SOL    HW227111   2.815   0.920   9.094 -1.5591  1.6152 -1.1945
 5160SOL     OW27112   1.189   4.282  13.061  0.3733 -0.4553 -0.5364
 5160SOL    HW127113   1.281   4.303  13.043  0.1870  1.4946  0.6961
 5160SOL    HW227114   1.172   4.372  13.090  3.5260 -0.6945  2.0539
 5161SOL     OW27115   1.024   1.893   2.553 -0.2777 -0.3079  0.4295
 5161SOL    HW127116   0.949   1.878   2.494  0.7179  1.0201 -1.1744
 5161SOL    HW227117   1.020   1.822   2.616 -1.1411 -0.5733  0.0797
 5162SOL     OW27118   1.652   1.519   6.323  0.0516 -0.2582  0.0585
 5162SOL    HW127119   1.733   1.476   6.351 -0.2306 -1.5962 -1.1597
 5162SOL    HW227120   1.680   1.590   6.264 -3.0101 -0.1788 -1.3018
 5163SOL     OW27121   4.299   3.758   7.187 -0.7780 -0.3701 -0.3445
 5163SOL    HW127122   4.244   3.825   7.147  0.2517  0.9980  0.5711
 5163SOL    HW227123   4.268   3.748   7.277  0.4557 -0.5134  0.0587
 5164SOL     OW27124   0.787   0.951  13.017  0.1098  0.1768  0.3411
 5164SOL    HW127125   0.869   0.967  13.065  0.8146 -1.2920 -0.3884
 5164SOL    HW227126   0.755   0.871  13.058  0.6423 -1.9572 -3.4435
 5165SOL     OW27127   2.343   4.648  12.734 -0.0230 -0.8815 -0.7474
 5165SOL    HW127128   2.282   4.672  12.664  0.8379 -1.0732 -1.5646
 5165SOL    HW227129   2.277   4.651  12.803  0.9576 -0.4682  0.1773
 5166SOL     OW27130   0.225   0.311   0.836 -0.3570 -0.2866  0.0213
 5166SOL    HW127131   0.254   0.402   0.843  0.0016 -0.3075 -1.1565
 5166SOL    HW227132   0.130   0.310   0.849 -0.4395  0.0211 -0.5659
 5167SOL     OW27133   1.311   2.076   0.489 -0.1189  0.5603  0.0195
 5167SOL    HW127134   1.402   2.053   0.509 -0.2147 -0.8616 -1.2114
 5167SOL    HW227135   1.290   1.998   0.438 -2.3045 -0.1269  1.9885
 5168SOL     OW27136   1.856   4.256   2.411  0.1053  0.1489 -0.3258
 5168SOL    HW127137   1.826   4.338   2.451 -0.5452  1.0077 -2.5421
 5168SOL    HW227138   1.772   4.242   2.366  0.5379 -0.1187 -1.0497
 5169SOL     OW27139   1.286   0.522   9.105  0.2921 -0.5565  0.0950
 5169SOL    HW127140   1.365   0.545   9.056  1.1785  0.5241  2.0300
 5169SOL    HW227141   1.261   0.600   9.155  0.2472 -0.5383  0.0443
 5170SOL     OW27142   2.140   2.081   2.376  0.2114  0.2802 -0.2557
 5170SOL    HW127143   2.204   2.040   2.434 -0.5509 -0.7275 -0.1283
 5170SOL    HW227144   2.098   2.006   2.335 -2.0747  1.7259 -0.5511
 5171SOL     OW27145   0.315   2.412   1.851 -0.4349 -0.1968  0.4580
 5171SOL    HW127146   0.330   2.497   1.891 -1.3031 -0.5580  1.5423
 5171SOL    HW227147   0.236   2.388   1.898 -0.9803 -1.1385 -0.9428
 5172SOL     OW27148   4.110   2.017   3.409 -0.3963  0.1613  0.0332
 5172SOL    HW127149   4.159   2.025   3.491 -2.0730  0.3566  1.0128
 5172SOL    HW227150   4.078   1.927   3.404 -0.5213  0.0976  2.1557
 5173SOL     OW27151   1.101   3.039  14.466 -0.0680 -0.5162 -0.1379
 5173SOL    HW127152   1.035   3.090  14.419 -0.3158  2.0363  3.0587
 5173SOL    HW227153   1.052   3.012  14.544  2.1610 -0.6510  1.2035
 5174SOL     OW27154   0.638   3.683   8.035  0.0492 -0.1254 -0.9252
 5174SOL    HW127155   0.723   3.646   8.059  0.2765  0.1100 -1.3608
 5174SOL    HW227156   0.577   3.629   8.084 -0.6438  0.6703 -0.9192
 5175SOL     OW27157   2.625   2.633   4.151  0.0717  0.6557  0.3966
 5175SOL    HW127158   2.710   2.654   4.111  1.0586 -0.4545  1.9418
 5175SOL    HW227159   2.611   2.714   4.200  0.1056 -0.9663  3.0845
 5176SOL     OW27160   2.445   4.653   3.741 -0.1417 -0.0417  0.3780
 5176SOL    HW127161   2.462   0.005   3.776 -2.5363  0.5908 -0.0465
 5176SOL    HW227162   2.456   4.670   3.648  1.2351 -1.0565  0.3582
 5177SOL     OW27163   2.835   3.110   2.274 -0.5037 -0.1026 -0.5299
 5177SOL    HW127164   2.795   3.145   2.195  1.5073  1.2357 -0.9449
 5177SOL    HW227165   2.777   3.139   2.344 -2.8045  1.5407 -3.1410
 5178SOL     OW27166   3.930   3.560   9.198  0.1178  0.1036 -0.1979
 5178SOL    HW127167   3.987   3.637   9.190  0.5301 -0.1433  0.3182
 5178SOL    HW227168   3.883   3.565   9.115 -1.2998  0.4570  0.6296
 5179SOL     OW27169   2.377   2.392   0.617  1.1157 -0.1451 -0.1408
 5179SOL    HW127170   2.404   2.479   0.587 -0.5389  1.3456  2.7512
 5179SOL    HW227171   2.337   2.415   0.700  1.4105  1.4432 -0.4392
 5180SOL     OW27172   4.217   1.892   0.980  0.2370  0.2928 -0.1381
 5180SOL    HW127173   4.288   1.944   1.019  1.0293 -0.0700 -1.1008
 5180SOL    HW227174   4.153   1.896   1.051  0.3582  2.6378 -0.1614
 5181SOL     OW27175   0.496   0.750   4.552  0.4204 -0.2508  0.3728
 5181SOL    HW127176   0.563   0.810   4.520  0.7986 -1.5810 -1.2812
 5181SOL    HW227177   0.466   0.799   4.629 -3.6714  0.3654 -1.6366
 5182SOL     OW27178   2.719   0.606   4.016  0.2552  0.2161  0.7948
 5182SOL    HW127179   2.797   0.582   4.066  0.0183 -0.1382  0.9938
 5182SOL    HW227180   2.674   0.662   4.079 -1.0627 -0.2480  0.2570
 5183SOL     OW27181   3.171   2.347   6.545  0.0797 -0.2549  0.0448
 5183SOL    HW127182   3.223   2.392   6.478  0.5406  1.0572  1.2900
 5183SOL    HW227183   3.196   2.401   6.621 -0.1219  1.0318 -0.8013
 5184SOL     OW27184   3.711   2.293   3.856  0.1175 -0.3448 -0.7869
 5184SOL    HW127185   3.775   2.365   3.853  1.4020 -1.4535  0.0390
 5184SOL    HW227186   3.626   2.338   3.856  1.2235  1.7807  0.2407
 5185SOL     OW27187   0.210   0.744   4.063 -0.1150  0.5113 -0.3460
 5185SOL    HW127188   0.246   0.711   4.146  0.1651 -2.7168 -1.7921
 5185SOL    HW227189   0.169   0.823   4.099  0.9042  0.2840  1.3236
 5186SOL     OW27190   0.178   3.470   7.020 -0.6092  0.5683 -0.6409
 5186SOL    HW127191   0.146   3.502   7.105  0.8109  1.1023 -0.3026
 5186SOL    HW227192   0.091   3.453   6.984 -2.0701  1.6310  2.3715
 5187SOL     OW27193   4.135   1.885   4.619 -0.0297  0.2420  0.2577
 5187SOL    HW127194   4.155   1.977   4.601  0.7370  0.0147 -0.0627
 5187SOL    HW227195   4.039   1.884   4.618  0.0097 -1.8631 -1.7759
 5188SOL     OW27196   0.233   0.677   5.130  0.3384 -0.2546 -0.5148
 5188SOL    HW127197   0.271   0.601   5.086 -1.0366 -0.5625 -1.1955
 5188SOL    HW227198   0.250   0.666   5.224  1.2220  1.2033 -0.5097
 5189SOL     OW27199   2.283   4.526   7.888  0.0910 -0.2184 -0.2365
 5189SOL    HW127200   2.336   4.534   7.967 -0.5943 -1.9944  0.4034
 5189SOL    HW227201   2.302   4.434   7.872 -0.7732 -0.8889  2.6736
 5190SOL     OW27202   3.733   3.309   7.975  0.0408  0.4620  0.2961
 5190SOL    HW127203   3.710   3.365   7.901 -2.5687  0.2811  0.9865
 5190SOL    HW227204   3.719   3.370   8.047  1.0087 -0.5583  1.3572
 5191SOL     OW27205   4.368   3.467   2.993 -0.1353 -0.4740 -0.0136
 5191SOL    HW127206   4.391   3.378   3.020  0.6794 -0.4749 -0.7167
 5191SOL    HW227207   4.329   3.455   2.906 -0.7220 -0.6392  0.2669
 5192SOL     OW27208   2.508   3.807   2.568  0.9280 -0.0330 -0.0001
 5192SOL    HW127209   2.463   3.726   2.545 -0.3045 -0.4908  4.1511
 5192SOL    HW227210   2.486   3.846   2.483  3.1303 -1.9290 -1.4306
 5193SOL     OW27211   4.042   3.508   9.472  0.0934 -0.0690  0.2221
 5193SOL    HW127212   3.973   3.472   9.527 -0.3542 -2.8914 -2.1432
 5193SOL    HW227213   3.993   3.496   9.391 -1.6678  3.3245  0.7914
 5194SOL     OW27214   2.637   2.649  13.246  0.0961  0.3836 -0.1732
 5194SOL    HW127215   2.697   2.714  13.282  0.2952 -1.9442  3.6546
 5194SOL    HW227216   2.552   2.691  13.253 -1.0667 -1.5567 -2.4037
 5195SOL     OW27217   2.519   2.396   4.076 -0.1754 -0.4945  0.4099
 5195SOL    HW127218   2.588   2.336   4.049  2.1822  1.8779  1.1678
 5195SOL    HW227219   2.565   2.466   4.121 -2.1025  1.0520 -0.0093
 5196SOL     OW27220   2.583   2.259   5.989 -0.7069  0.7100  0.2177
 5196SOL    HW127221   2.521   2.333   5.993 -0.5367  0.8359  0.5213
 5196SOL    HW227222   2.594   2.248   5.895 -1.1405 -0.1206  0.2645
 5197SOL     OW27223   1.382   4.496  12.387 -0.1111 -0.1131 -0.3075
 5197SOL    HW127224   1.291   4.520  12.405  0.1267  0.9147 -0.4737
 5197SOL    HW227225   1.391   4.419  12.442  1.9449  1.2684  1.3168
 5198SOL     OW27226   1.711   0.924   6.048  0.0406 -0.2961  0.0750
 5198SOL    HW127227   1.657   0.981   5.992  0.9934  3.3177  2.8317
 5198SOL    HW227228   1.641   0.861   6.069 -0.6981  0.5525  0.1766
 5199SOL     OW27229   3.940   2.670   9.446  0.2626  0.1602  0.2421
 5199SOL    HW127230   3.995   2.714   9.512 -1.1714  3.2638 -0.6083
 5199SOL    HW227231   3.897   2.743   9.402 -0.4588 -1.0322 -0.9869
 5200SOL     OW27232   1.430   3.408   2.010 -0.1487 -0.6828  0.5099
 5200SOL    HW127233   1.374   3.486   2.021  1.3130  0.6464 -1.6451
 5200SOL    HW227234   1.514   3.448   1.992 -1.6641  1.9133 -0.7765
 5201SOL     OW27235   2.028   2.530   3.504  0.5800  0.0547  0.1702
 5201SOL    HW127236   2.106   2.531   3.449  0.8549  3.3367  0.6288
 5201SOL    HW227237   2.036   2.445   3.548 -0.0066  0.2159  0.5951
 5202SOL     OW27238   2.808   1.338   8.302 -0.4128 -0.1438 -0.2127
 5202SOL    HW127239   2.843   1.421   8.335 -1.0633 -0.9111  2.4736
 5202SOL    HW227240   2.807   1.341   8.207  0.0303 -1.6032 -0.2679
 5203SOL     OW27241   4.026   0.172   2.956 -0.0455  0.2244 -0.5625
 5203SOL    HW127242   4.051   0.170   2.864  0.8741  0.0072 -0.3023
 5203SOL    HW227243   4.114   0.172   2.993  0.3481  0.5473 -1.4904
 5204SOL     OW27244   0.034   2.279  15.491  0.6415 -0.7392  0.1428
 5204SOL    HW127245   4.730   2.301  15.576  1.1755 -0.0265  0.2055
 5204SOL    HW227246   0.095   2.207  15.506  0.8426 -0.3770  1.0806
 5205SOL     OW27247   2.953   0.763  14.292  0.2963  0.1134  0.0520
 5205SOL    HW127248   2.934   0.670  14.297 -3.5304  0.9308  0.4333
 5205SOL    HW227249   2.897   0.787  14.219  0.5513 -1.0284 -0.5182
 5206SOL     OW27250   3.880   4.499   4.719  0.0676 -0.2822 -0.1042
 5206SOL    HW127251   3.845   4.425   4.670  2.9792 -2.1647  0.6651
 5206SOL    HW227252   3.922   4.547   4.648 -1.4799 -0.4161 -1.1106
 5207SOL     OW27253   2.040   4.052   7.567 -0.2098  0.1572 -0.0098
 5207SOL    HW127254   2.077   3.964   7.563 -0.4112  0.0649  0.1945
 5207SOL    HW227255   2.019   4.053   7.660  1.7788 -0.9996  0.4631
 5208SOL     OW27256   2.973   0.824   8.426  0.1651 -0.4512 -0.5429
 5208SOL    HW127257   2.883   0.842   8.453 -0.0755 -0.7635 -1.1427
 5208SOL    HW227258   2.963   0.739   8.382 -0.6929 -0.8959  0.5098
 5209SOL     OW27259   3.756   0.852   9.249 -0.3255  0.4596 -0.0337
 5209SOL    HW127260   3.751   0.801   9.330 -2.4522  1.7352  0.6349
 5209SOL    HW227261   3.823   0.794   9.213 -1.5716  0.9360 -3.1573
 5210SOL     OW27262   4.110   0.206   0.361 -0.0122  0.1692 -1.1707
 5210SOL    HW127263   4.107   0.301   0.368  1.1676  0.0591  0.8955
 5210SOL    HW227264   4.192   0.185   0.317  0.2004  0.7528 -1.0519
 5211SOL     OW27265   4.653   0.349  10.687 -0.0267 -0.2283 -0.5170
 5211SOL    HW127266   4.591   0.281  10.714  0.2973 -0.6922 -0.9391
 5211SOL    HW227267   4.596   0.424  10.674  1.6260  0.7345 -2.2975
 5212SOL     OW27268   3.432   1.657  11.241 -0.2160 -0.2348 -0.0756
 5212SOL    HW127269   3.443   1.694  11.154 -1.5006  2.0305  0.7173
 5212SOL    HW227270   3.510   1.685  11.289 -0.5824  0.6609  0.0046
 5213SOL     OW27271   2.252   3.077   9.824 -0.7511  0.2098  0.0038
 5213SOL    HW127272   2.253   3.075   9.729 -2.0613  0.4820 -0.0185
 5213SOL    HW227273   2.314   3.146   9.847  0.3395  0.3514 -3.4826
 5214SOL     OW27274   4.521   2.228   9.739 -0.3102 -0.3675 -0.0324
 5214SOL    HW127275   4.441   2.255   9.784 -0.4943 -0.4398 -0.3172
 5214SOL    HW227276   4.489   2.168   9.672  2.8011 -0.2863 -1.6115
 5215SOL     OW27277   2.656   4.189  11.915  0.2711 -0.0079 -0.2381
 5215SOL    HW127278   2.669   4.245  11.839 -0.9128  0.9491  0.2676
 5215SOL    HW227279   2.594   4.242  11.965 -0.9518  0.0439 -1.7904
 5216SOL     OW27280   0.535   4.390   4.373  0.0855 -0.6944  0.7031
 5216SOL    HW127281   0.511   4.370   4.282 -0.7344  0.8076  0.5853
 5216SOL    HW227282   0.621   4.427   4.352  0.1408 -0.5517  1.1904
 5217SOL     OW27283   4.685   3.180   4.023  0.1818  0.5460 -0.4258
 5217SOL    HW127284   4.605   3.230   4.039 -0.0283 -0.1472  0.6833
 5217SOL    HW227285   4.662   3.088   4.035  1.3722  0.4781  1.1704
 5218SOL     OW27286   0.446   0.895   5.677  0.2342  0.2250  0.2182
 5218SOL    HW127287   0.539   0.875   5.676  0.2328  0.2214  0.1331
 5218SOL    HW227288   0.411   0.831   5.615  2.6531  0.3477 -1.2594
 5219SOL     OW27289   4.326   2.047   2.174 -0.0035 -0.2344 -0.7066
 5219SOL    HW127290   4.418   2.024   2.184  0.1179  0.7763  0.4509
 5219SOL    HW227291   4.325   2.140   2.198 -0.9203 -0.7509  1.2033
 5220SOL     OW27292   2.782   1.961   2.256  0.7620 -0.2028  0.2348
 5220SOL    HW127293   2.729   2.000   2.325 -0.2101  3.7017 -2.6866
 5220SOL    HW227294   2.857   1.930   2.307  1.4571  0.4405 -0.4043
 5221SOL     OW27295   2.105   2.114  15.692  0.0301 -0.5649  0.3422
 5221SOL    HW127296   2.024   2.164  15.679  0.4732  0.0783  0.0864
 5221SOL    HW227297   2.177   2.176  15.692  0.0239 -0.5588  0.8637
 5222SOL     OW27298   4.425   1.300  17.321 -0.0052  0.0805 -0.2199
 5222SOL    HW127299   4.356   1.361  17.295  0.7189  0.4334 -1.3052
 5222SOL    HW227300   4.421   1.301  17.416  0.2354 -1.3251 -0.1848
 5223SOL     OW27301   2.972   0.197   6.292 -0.2865  0.1509 -0.4035
 5223SOL    HW127302   2.933   0.172   6.376  0.5569  1.4229  0.3691
 5223SOL    HW227303   2.895   0.225   6.242 -0.4008 -0.6237 -0.6610
 5224SOL     OW27304   3.455   3.085   2.280 -0.3635 -0.4729  0.1931
 5224SOL    HW127305   3.429   3.165   2.326 -2.4601 -0.4703 -0.9579
 5224SOL    HW227306   3.393   3.018   2.311 -0.0564 -0.3921  0.9890
 5225SOL     OW27307   2.881   3.313   7.369  0.1279  0.1394 -0.2895
 5225SOL    HW127308   2.927   3.231   7.355 -1.4660 -0.4459 -2.1120
 5225SOL    HW227309   2.804   3.286   7.419 -0.8587 -0.9407 -2.4049
 5226SOL     OW27310   2.267   3.565   9.268 -0.2512 -0.0906  0.5190
 5226SOL    HW127311   2.216   3.623   9.213 -0.9936 -1.3218 -0.0768
 5226SOL    HW227312   2.214   3.552   9.347 -0.2126 -0.5031  0.4749
 5227SOL     OW27313   4.253   3.752   4.858  0.6063  0.1506 -0.2835
 5227SOL    HW127314   4.168   3.724   4.893  0.6736  1.1538  0.6780
 5227SOL    HW227315   4.260   3.689   4.786 -0.0610 -0.3543  0.0909
 5228SOL     OW27316   2.010   2.946   3.548 -0.1039  0.1856 -0.3561
 5228SOL    HW127317   2.012   2.881   3.618 -0.8746  0.2955 -0.2299
 5228SOL    HW227318   1.928   2.925   3.502 -2.1939 -0.3356  3.5409
 5229SOL     OW27319   0.138   2.599  15.557 -0.0566 -0.6072 -0.1785
 5229SOL    HW127320   0.173   2.544  15.487  0.2903  0.6818 -1.0255
 5229SOL    HW227321   0.193   2.567  15.628  0.8905  1.6607  0.1250
 5230SOL     OW27322   4.581   1.254  14.117  0.3374  0.1761 -0.5846
 5230SOL    HW127323   4.670   1.285  14.130  0.0745 -0.3929  2.6205
 5230SOL    HW227324   4.542   1.338  14.094  0.3041  0.4128  0.3105
 5231SOL     OW27325   0.449   4.000   4.044 -0.0301 -0.3862 -0.2503
 5231SOL    HW127326   0.423   3.978   3.955 -0.4346 -1.3910  0.1168
 5231SOL    HW227327   0.464   3.918   4.092 -0.5397  0.0738  0.7074
 5232SOL     OW27328   2.061   1.735  11.638  0.5394 -0.0117  0.2566
 5232SOL    HW127329   2.129   1.675  11.666  0.3331 -0.6230 -0.5374
 5232SOL    HW227330   2.083   1.804  11.700  1.0371 -1.2248  1.4217
 5233SOL     OW27331   0.979   4.061   6.580 -0.1951  0.1048  0.9597
 5233SOL    HW127332   0.956   4.050   6.488  0.1130  1.7383  0.6921
 5233SOL    HW227333   0.890   4.061   6.617 -1.7977  0.1436 -2.9213
 5234SOL     OW27334   0.204   3.131   3.828  0.1418 -0.3337  0.0003
 5234SOL    HW127335   0.110   3.142   3.822  0.3932 -0.3312 -4.0101
 5234SOL    HW227336   0.229   3.038   3.824 -1.7504 -0.7413 -2.2885
 5235SOL     OW27337   4.405   2.669   8.191 -0.0087 -0.1731  0.3319
 5235SOL    HW127338   4.413   2.763   8.205  0.1365 -0.1419  0.0279
 5235SOL    HW227339   4.431   2.629   8.274  2.0684 -0.3125 -0.3661
 5236SOL     OW27340   0.955   4.307  14.321  0.1975  0.8481 -0.7947
 5236SOL    HW127341   1.047   4.298  14.295  0.2015  1.0553 -0.8494
 5236SOL    HW227342   0.928   4.215  14.321  0.2915  0.8147  0.8641
 5237SOL     OW27343   2.715   1.604   5.441 -0.3172  0.1689 -0.1067
 5237SOL    HW127344   2.733   1.591   5.534  1.4082 -0.6178 -0.5465
 5237SOL    HW227345   2.733   1.698   5.450 -0.2860 -0.0150  1.7496
 5238SOL     OW27346   1.225   0.269   9.024 -0.3424 -0.3670  0.0242
 5238SOL    HW127347   1.226   0.360   9.052  0.5899 -0.7731  1.2889
 5238SOL    HW227348   1.280   0.224   9.087  0.8687 -0.7915 -1.3278
 5239SOL     OW27349   4.248   2.570   8.717 -0.0073  0.6423 -0.5857
 5239SOL    HW127350   4.306   2.559   8.792 -1.2334  0.4041  0.3285
 5239SOL    HW227351   4.191   2.641   8.748  0.4219 -0.1296  1.9370
 5240SOL     OW27352   0.360   3.764   4.629 -0.2175  0.5608  0.5304
 5240SOL    HW127353   0.452   3.738   4.625 -0.2006  0.7573 -0.4225
 5240SOL    HW227354   0.374   3.847   4.675  0.5143  0.2044  0.9575
 5241SOL     OW27355   1.030   4.353   1.293 -0.2790 -0.1583 -0.3166
 5241SOL    HW127356   0.961   4.376   1.355  0.9377  0.7679  0.6648
 5241SOL    HW227357   1.006   4.373   1.203  1.2572 -2.9061 -1.3531
 5242SOL     OW27358   0.107   3.018   7.742  0.2920  0.3472 -0.2414
 5242SOL    HW127359   0.120   2.994   7.833 -0.1309  0.4991 -0.1406
 5242SOL    HW227360   0.142   3.106   7.734 -1.7399  1.1614 -0.2559
 5243SOL     OW27361   2.069   2.419   7.625 -0.5322 -0.1128 -0.2691
 5243SOL    HW127362   2.153   2.377   7.639 -0.3464  0.4989  0.4876
 5243SOL    HW227363   2.003   2.352   7.641 -1.9631  1.3800  0.1884
 5244SOL     OW27364   2.908   2.962   3.075  0.3491 -0.2132 -0.1092
 5244SOL    HW127365   2.934   3.043   3.118 -0.2716 -0.6559  1.1171
 5244SOL    HW227366   2.969   2.956   3.002  2.5174  3.3839  1.3987
 5245SOL     OW27367   1.169   1.981   9.615 -0.7423  0.4461 -0.4772
 5245SOL    HW127368   1.134   1.892   9.618 -1.2821  0.7270  0.9626
 5245SOL    HW227369   1.093   2.025   9.652 -1.7374 -2.1822  0.6430
 5246SOL     OW27370   4.420   3.801  10.709  0.0853 -0.4146 -0.1067
 5246SOL    HW127371   4.444   3.807  10.617  1.7999 -0.8232  0.3208
 5246SOL    HW227372   4.506   3.763  10.727  0.0713 -0.8859 -1.0412
 5247SOL     OW27373   3.802   3.431   4.899 -0.2454  0.4201 -0.1081
 5247SOL    HW127374   3.761   3.357   4.943 -0.0629  0.9603  0.9505
 5247SOL    HW227375   3.731   3.487   4.868  0.4011  0.1649 -2.0507
 5248SOL     OW27376   0.393   3.941   7.168  0.0758 -0.0896  0.0776
 5248SOL    HW127377   0.349   3.936   7.253 -3.5238 -2.1295 -1.9254
 5248SOL    HW227378   0.434   4.027   7.167  1.3425 -0.7516 -3.1791
 5249SOL     OW27379   0.284   0.269   9.506 -0.3273 -0.2761  0.2107
 5249SOL    HW127380   0.338   0.345   9.488 -0.2784 -0.8747 -2.1549
 5249SOL    HW227381   0.202   0.291   9.461 -0.1860  1.8475  1.0092
 5250SOL     OW27382   3.523   4.523   7.269 -0.3714 -0.0789 -0.0982
 5250SOL    HW127383   3.448   4.571   7.304 -0.5320  2.3245 -3.6939
 5250SOL    HW227384   3.566   4.512   7.354 -1.0743  1.9750  0.5237
 5251SOL     OW27385   0.753   4.658   7.324 -0.6631 -0.0277  0.1474
 5251SOL    HW127386   0.689   4.689   7.260 -0.5817  1.3541  0.7344
 5251SOL    HW227387   0.693   4.610   7.381  0.9190 -0.1785  1.6640
 5252SOL     OW27388   3.522   3.165   3.582  0.3386 -0.0748 -0.3472
 5252SOL    HW127389   3.538   3.189   3.491 -2.9166 -0.2083 -0.9549
 5252SOL    HW227390   3.557   3.242   3.628  1.7278 -0.9339  0.0127
 5253SOL     OW27391   2.485   2.876   9.787  0.0796 -0.4690  0.0869
 5253SOL    HW127392   2.463   2.796   9.834  0.4482  0.0731  1.1982
 5253SOL    HW227393   2.464   2.941   9.854  1.1717  0.0120 -0.0323
 5254SOL     OW27394   0.289   2.729  15.874  0.4722  0.2290  0.1437
 5254SOL    HW127395   0.272   2.756  15.965  0.5852 -0.0984  0.2589
 5254SOL    HW227396   0.383   2.723  15.863  0.2137 -2.6020 -0.3349
 5255SOL     OW27397   3.971   2.165   0.100 -0.1248 -0.1028  0.3585
 5255SOL    HW127398   4.014   2.230   0.155  0.3058  1.0859 -1.3796
 5255SOL    HW227399   4.044   2.147   0.040  0.9627 -0.4540  1.7877
 5256SOL     OW27400   4.700   2.687   7.455 -0.0376  0.7348  1.1562
 5256SOL    HW127401   0.007   2.652   7.377 -1.6384  2.8545 -0.6511
 5256SOL    HW227402   4.649   2.609   7.477 -0.0015  0.8978  1.8140
 5257SOL     OW27403   4.223   4.012   7.670 -0.5637  0.2893 -0.3346
 5257SOL    HW127404   4.150   4.035   7.727 -0.6692  1.3782 -0.8957
 5257SOL    HW227405   4.185   4.007   7.582  0.7441 -1.7423 -0.7932
 5258SOL     OW27406   0.007   2.843   4.673  0.0165  0.5196  0.0333
 5258SOL    HW127407   4.725   2.772   4.734  0.8379  1.2756  1.1437
 5258SOL    HW227408   4.681   2.905   4.714 -1.0154 -0.7253  0.3708
 5259SOL     OW27409   0.934   3.293   7.517 -0.0004  0.2757 -0.2527
 5259SOL    HW127410   0.866   3.296   7.450 -0.6188 -0.6195  0.3287
 5259SOL    HW227411   0.898   3.236   7.585 -0.3066  0.9021  0.1115
 5260SOL     OW27412   3.800   0.683   0.658  0.8375 -0.3657  0.2088
 5260SOL    HW127413   3.775   0.766   0.697 -2.3151 -1.2005 -0.0319
 5260SOL    HW227414   3.831   0.708   0.571  0.8309  2.5884  1.0602
 5261SOL     OW27415   1.044   1.468   3.854  0.1944  0.3372 -0.3297
 5261SOL    HW127416   1.048   1.519   3.773 -0.1095  2.5050  1.0275
 5261SOL    HW227417   0.979   1.401   3.832  0.5204  0.2221 -0.9235
 5262SOL     OW27418   4.317   1.693   4.556 -0.2698  0.2236 -0.9153
 5262SOL    HW127419   4.254   1.766   4.560  0.5222  0.9704 -2.2060
 5262SOL    HW227420   4.387   1.720   4.497  2.0013 -1.8382  0.8557
 5263SOL     OW27421   1.385   1.633  15.043 -0.0324 -0.5517 -0.9827
 5263SOL    HW127422   1.310   1.669  14.996 -0.8458 -0.2724  0.5267
 5263SOL    HW227423   1.394   1.702  15.109 -1.6350 -2.2363  1.0103
 5264SOL     OW27424   2.375   2.126   3.869  0.4689  0.0509  0.5039
 5264SOL    HW127425   2.284   2.151   3.855  0.6949 -0.0483 -1.1889
 5264SOL    HW227426   2.377   2.079   3.952 -0.8426  1.4657  1.3499
 5265SOL     OW27427   3.603   3.804   4.520  0.2756  0.2139 -0.4879
 5265SOL    HW127428   3.634   3.769   4.604  2.8337  2.0186 -0.6964
 5265SOL    HW227429   3.508   3.795   4.524  0.3373 -0.1829  0.1499
 5266SOL     OW27430   0.627   0.627  11.610  0.1092  0.0875  0.2672
 5266SOL    HW127431   0.684   0.676  11.551  0.2677 -1.0293 -0.4940
 5266SOL    HW227432   0.688   0.564  11.647  0.3542 -0.0967 -0.4590
 5267SOL     OW27433   4.698   1.573   8.566  0.3034  0.4900  0.4132
 5267SOL    HW127434   4.666   1.565   8.656 -1.3278  1.7459 -0.0481
 5267SOL    HW227435   4.631   1.537   8.508 -0.8801  0.5515  1.7641
 5268SOL     OW27436   0.310   1.781   0.038 -0.0497 -0.0268  0.0892
 5268SOL    HW127437   0.406   1.780   0.039 -0.0694  0.7570  2.4318
 5268SOL    HW227438   0.304   1.734  17.696  4.5785  0.0233 -0.3051
 5269SOL     OW27439   0.683   0.617  12.249 -0.1284 -0.2503  0.3098
 5269SOL    HW127440   0.768   0.635  12.289 -0.2580 -1.9991  1.3976
 5269SOL    HW227441   0.664   0.702  12.211  1.8578  1.3283  2.9005
 5270SOL     OW27442   0.644   0.631   3.553 -0.0343 -0.0127  0.1528
 5270SOL    HW127443   0.723   0.640   3.500 -0.2689 -1.1460 -0.4090
 5270SOL    HW227444   0.576   0.616   3.487  1.1119 -2.1429 -0.5724
 5271SOL     OW27445   2.855   1.446  12.687 -0.1620  0.1144  0.3551
 5271SOL    HW127446   2.836   1.359  12.652 -0.1655 -0.4870  1.8477
 5271SOL    HW227447   2.781   1.494  12.649  0.7164 -0.5501 -2.1532
 5272SOL     OW27448   1.275   1.387   4.954  0.2142  0.1270 -0.2509
 5272SOL    HW127449   1.338   1.368   4.885 -0.7695  2.3393 -1.7248
 5272SOL    HW227450   1.317   1.452   5.010  0.1319  0.6218 -0.7650
 5273SOL     OW27451   3.729   2.251   6.234 -0.1500 -0.4191 -0.2672
 5273SOL    HW127452   3.730   2.311   6.159  0.0763 -1.4702 -1.0999
 5273SOL    HW227453   3.644   2.282   6.264  0.8935  1.9570  0.2518
 5274SOL     OW27454   2.227   0.988   4.645 -0.1836 -0.4765  0.3512
 5274SOL    HW127455   2.203   0.907   4.690 -0.0109 -2.3463 -2.9100
 5274SOL    HW227456   2.144   1.008   4.602  1.5646  0.5103 -2.5771
 5275SOL     OW27457   1.890   0.741   6.425  0.4664 -0.4640 -0.4658
 5275SOL    HW127458   1.798   0.759   6.441  1.2915  0.5950  3.0234
 5275SOL    HW227459   1.918   0.803   6.358  0.8401  1.0143  1.0535
 5276SOL     OW27460   2.612   0.874  11.795 -0.1540 -0.0937  0.1072
 5276SOL    HW127461   2.692   0.921  11.817 -0.1262 -0.8075  1.5273
 5276SOL    HW227462   2.603   0.898  11.702  1.6537 -2.0878 -0.6016
 5277SOL     OW27463   0.060   3.797   4.116  0.2559 -0.6797  0.4879
 5277SOL    HW127464   0.040   3.715   4.161 -0.4827  0.2557  1.8624
 5277SOL    HW227465   0.105   3.846   4.185  1.6772 -1.2101 -0.0908
 5278SOL     OW27466   1.668   1.769  16.368  0.2208 -0.2925 -0.3220
 5278SOL    HW127467   1.757   1.803  16.383 -0.0549  0.1266  0.3592
 5278SOL    HW227468   1.658   1.713  16.445  0.3781 -1.4343 -1.1349
 5279SOL     OW27469   0.536   0.806   2.081 -0.2118 -0.0631  0.1276
 5279SOL    HW127470   0.613   0.825   2.136 -1.3689 -1.7303  2.3084
 5279SOL    HW227471   0.556   0.732   2.024  0.8970  1.0014 -0.8929
 5280SOL     OW27472   4.726   2.096   6.951  0.2090 -0.0142 -0.3134
 5280SOL    HW127473   4.655   2.097   7.015  0.5473 -0.8387  0.0740
 5280SOL    HW227474   0.063   2.063   7.004  0.8774  1.0869 -0.5581
 5281SOL     OW27475   3.619   2.856   8.533  0.0827  0.0768  0.1066
 5281SOL    HW127476   3.678   2.830   8.462  0.2691  0.1262  0.2418
 5281SOL    HW227477   3.585   2.771   8.558 -0.8417  0.6960  0.9399
 5282SOL     OW27478   0.073   1.018   6.366 -0.3185 -0.0504 -0.4180
 5282SOL    HW127479   0.137   0.950   6.347 -0.0923  0.1442 -0.3432
 5282SOL    HW227480   0.017   0.960   6.419  0.4395 -0.1741  0.2467
 5283SOL     OW27481   4.538   2.379   2.480  0.5926 -0.7818 -0.0933
 5283SOL    HW127482   4.507   2.350   2.394  0.6448 -0.3920 -0.2417
 5283SOL    HW227483   4.573   2.465   2.456  0.1549  0.0697  2.3405
 5284SOL     OW27484   4.324   1.455   7.966 -0.0402 -0.1401  0.6144
 5284SOL    HW127485   4.229   1.448   7.963 -0.0243 -0.4217  0.7710
 5284SOL    HW227486   4.341   1.363   7.987  1.1520 -0.1162 -0.2114
 5285SOL     OW27487   1.893   0.373   8.162  0.2599  0.2199  0.1873
 5285SOL    HW127488   1.974   0.325   8.179 -1.0373 -3.2262 -3.1873
 5285SOL    HW227489   1.896   0.369   8.067 -1.1584 -1.1595  0.1836
 5286SOL     OW27490   4.121   0.584  15.195  0.0756 -0.6157 -0.2405
 5286SOL    HW127491   4.091   0.528  15.267  0.8923  0.3095  0.8427
 5286SOL    HW227492   4.214   0.564  15.207  0.6339  0.9755 -1.8891
 5287SOL     OW27493   1.076   3.623   4.390  0.0927 -0.1629  0.0928
 5287SOL    HW127494   1.121   3.652   4.310 -1.7721  0.7438 -0.6344
 5287SOL    HW227495   1.061   3.710   4.425 -2.1876 -1.0503  1.3075
 5288SOL     OW27496   1.722   1.698   8.146 -0.6292  0.7935  0.5001
 5288SOL    HW127497   1.809   1.673   8.113 -1.0876  0.7882 -0.7187
 5288SOL    HW227498   1.670   1.680   8.068  0.0877 -3.9235  1.1187
 5289SOL     OW27499   3.024   1.548   7.651  0.4457 -0.2599 -0.1327
 5289SOL    HW127500   3.093   1.577   7.592 -0.8092 -0.7927 -1.8826
 5289SOL    HW227501   2.970   1.626   7.668 -0.5647 -0.6358 -1.6174
 5290SOL     OW27502   0.008   2.113   7.610  0.4451 -0.1953 -0.0638
 5290SOL    HW127503   0.093   2.153   7.624  0.2214  0.9822 -2.1228
 5290SOL    HW227504   0.011   2.030   7.659  0.6098 -0.5054 -0.5977
 5291SOL     OW27505   1.679   0.920   8.033  0.0671 -0.1042 -0.6148
 5291SOL    HW127506   1.608   0.867   7.997  0.8452 -0.7353 -1.2137
 5291SOL    HW227507   1.756   0.885   7.987 -2.0188 -1.1922 -3.2647
 5292SOL     OW27508   3.758   1.944   7.329  0.4117 -0.0086  0.3777
 5292SOL    HW127509   3.717   1.968   7.412 -2.2211 -0.7831 -0.7191
 5292SOL    HW227510   3.845   1.981   7.343 -0.1118  1.0826  0.6781
 5293SOL     OW27511   1.904   3.621   2.724  0.9088  0.4415  0.0019
 5293SOL    HW127512   1.953   3.670   2.790 -0.6617 -0.5983  1.9208
 5293SOL    HW227513   1.972   3.592   2.663 -0.3217 -2.2463 -0.0750
 5294SOL     OW27514   2.497   2.048   4.872 -0.1216  0.5892  0.1286
 5294SOL    HW127515   2.482   2.136   4.836  1.1584 -0.8772 -4.0534
 5294SOL    HW227516   2.490   2.063   4.966 -1.4481 -1.4668  0.3516
 5295SOL     OW27517   1.149   0.652  14.869  0.4801 -0.3272  0.1792
 5295SOL    HW127518   1.131   0.741  14.898  0.4662 -0.3424  0.2181
 5295SOL    HW227519   1.171   0.606  14.951  1.3811  0.5025  0.3983
 5296SOL     OW27520   4.392   1.745   2.887 -0.0635 -0.2233 -0.4052
 5296SOL    HW127521   4.363   1.676   2.827  0.9410 -0.6259 -0.4367
 5296SOL    HW227522   4.472   1.701   2.917  0.0667  0.5708  0.4200
 5297SOL     OW27523   3.700   1.014   0.996  0.4865  0.2446 -0.4043
 5297SOL    HW127524   3.742   1.041   0.914 -0.4338  1.7000 -0.4055
 5297SOL    HW227525   3.612   0.992   0.965  0.3836 -0.7866  0.6481
 5298SOL     OW27526   2.458   0.371   2.506 -0.5011 -0.0046  0.3282
 5298SOL    HW127527   2.453   0.467   2.509 -2.4518 -0.1016  0.3183
 5298SOL    HW227528   2.441   0.359   2.412 -0.2500  0.1538  0.2620
 5299SOL     OW27529   2.066   0.817   3.306 -0.4589 -0.2885 -0.1307
 5299SOL    HW127530   2.109   0.850   3.385 -1.5106  0.3730  0.1629
 5299SOL    HW227531   2.047   0.895   3.253  2.7543 -0.4209 -1.4814
 5300SOL     OW27532   2.890   2.667  15.990  0.1457 -0.3853  0.0569
 5300SOL    HW127533   2.926   2.738  15.937  2.9990 -1.3153  0.7609
 5300SOL    HW227534   2.795   2.674  15.979  0.1035 -0.0895  0.6375
 5301SOL     OW27535   1.266   1.786   0.530 -0.5671 -0.0526 -0.5154
 5301SOL    HW127536   1.338   1.724   0.541 -1.9215 -1.9091 -2.1077
 5301SOL    HW227537   1.247   1.750   0.443 -0.9881  0.3152 -0.5707
 5302SOL     OW27538   1.946   2.353   7.895 -0.0787 -0.4508 -0.1483
 5302SOL    HW127539   1.934   2.258   7.907 -2.2253 -0.3953 -2.0720
 5302SOL    HW227540   2.016   2.376   7.956  1.0088 -1.5748 -0.9504
 5303SOL     OW27541   1.944   4.174   6.348 -0.2572 -0.3816  0.1069
 5303SOL    HW127542   1.937   4.267   6.371 -2.0926 -0.1294 -1.5280
 5303SOL    HW227543   1.920   4.130   6.430  2.5146 -2.3132 -0.1278
 5304SOL     OW27544   2.055   0.784   4.216 -0.1148  0.4085  0.0067
 5304SOL    HW127545   2.144   0.775   4.181 -1.0890 -0.7059 -2.1073
 5304SOL    HW227546   2.050   0.721   4.288 -0.0966 -0.4979 -0.7869
 5305SOL     OW27547   4.125   1.070   5.083 -0.0125 -0.0764  0.3221
 5305SOL    HW127548   4.160   1.068   5.172 -1.0996 -2.6026  0.6855
 5305SOL    HW227549   4.088   0.982   5.080 -1.1554  0.3507  1.8519
 5306SOL     OW27550   3.133   2.279   4.000 -0.0351 -0.3160 -0.1515
 5306SOL    HW127551   3.065   2.331   4.042  0.1698 -0.6998  0.6521
 5306SOL    HW227552   3.141   2.312   3.910  2.8501 -0.2095  0.1364
 5307SOL     OW27553   0.604   3.550   6.791 -0.0935  1.1071 -0.3504
 5307SOL    HW127554   0.549   3.552   6.869 -1.3908  0.9791 -1.2772
 5307SOL    HW227555   0.640   3.638   6.780 -0.9129  1.3931 -0.7228
 5308SOL     OW27556   2.998   2.261  17.673 -0.1368  0.3176 -0.3799
 5308SOL    HW127557   2.915   2.217  17.689 -0.5175  1.4549  0.7745
 5308SOL    HW227558   2.996   2.257  17.577  0.9995 -2.3054 -0.2876
 5309SOL     OW27559   4.682   1.528   5.246 -0.1546  0.4443 -0.0505
 5309SOL    HW127560   4.694   1.473   5.168  1.2763  1.7705 -0.7645
 5309SOL    HW227561   4.603   1.579   5.229 -1.2313 -0.4410  2.3086
 5310SOL     OW27562   3.558   3.979   8.303 -0.4720 -0.3693 -0.4963
 5310SOL    HW127563   3.568   3.884   8.293 -0.6150 -0.5865  1.4815
 5310SOL    HW227564   3.650   4.004   8.292 -0.4199 -0.7428 -0.9099
 5311SOL     OW27565   0.318   1.159   2.967 -0.1991  0.4201  0.7366
 5311SOL    HW127566   0.242   1.205   3.000 -0.4790  0.6711 -0.2549
 5311SOL    HW227567   0.274   1.101   2.904 -1.6716  0.5763  1.6479
 5312SOL     OW27568   0.362   2.322   7.053 -0.4483  0.5275 -1.2038
 5312SOL    HW127569   0.304   2.253   7.085 -1.2308  2.1241  0.8072
 5312SOL    HW227570   0.436   2.271   7.020 -0.4093 -0.3579  0.2594
 5313SOL     OW27571   3.990   2.361   0.526  0.0299  0.6768  0.0233
 5313SOL    HW127572   4.007   2.424   0.456 -5.1352  1.6353 -0.3869
 5313SOL    HW227573   3.895   2.361   0.516  0.2936 -0.7921 -2.5820
 5314SOL     OW27574   1.423   0.127   2.941  0.1898 -0.0774  0.3762
 5314SOL    HW127575   1.367   0.112   2.865  0.4818 -1.2861  0.3951
 5314SOL    HW227576   1.359   0.157   3.006 -0.8142 -0.0696 -0.6251
 5315SOL     OW27577   1.813   0.942   5.570  0.2583  0.4892  0.0340
 5315SOL    HW127578   1.793   1.035   5.563 -0.8852  0.0985 -1.9380
 5315SOL    HW227579   1.726   0.907   5.588  0.2442 -0.3784 -1.7442
 5316SOL     OW27580   2.560   3.936   9.150  0.8522  0.4428  0.1460
 5316SOL    HW127581   2.543   3.853   9.106  1.2453 -0.9551  2.5946
 5316SOL    HW227582   2.482   3.948   9.204 -1.3222 -1.7899 -2.5173
 5317SOL     OW27583   0.435   2.942   2.063  0.6077 -0.3634 -0.0705
 5317SOL    HW127584   0.348   2.939   2.102 -0.3056 -0.3288 -2.1414
 5317SOL    HW227585   0.447   3.034   2.041  0.8503 -0.5928 -0.8948
 5318SOL     OW27586   1.031   3.414  10.866  0.3458 -0.4730 -0.0586
 5318SOL    HW127587   1.120   3.382  10.879  0.3113  0.0981  1.6623
 5318SOL    HW227588   0.988   3.329  10.868 -2.2747  0.8890  1.7242
 5319SOL     OW27589   0.284   0.631  13.253 -0.6412 -0.3607 -0.2202
 5319SOL    HW127590   0.333   0.711  13.237  1.1067 -1.1788  1.0080
 5319SOL    HW227591   0.283   0.633  13.349 -0.8035 -3.4293 -0.1374
 5320SOL     OW27592   2.168   1.375  10.188 -0.4196  0.7353  0.0252
 5320SOL    HW127593   2.194   1.317  10.260  1.4453  0.8314 -0.5718
 5320SOL    HW227594   2.245   1.431  10.188  0.2273 -0.1688 -0.8874
 5321SOL     OW27595   1.065   3.413   2.129 -0.5105  0.5321 -0.3006
 5321SOL    HW127596   1.049   3.329   2.086 -3.2557  0.7959  0.2550
 5321SOL    HW227597   0.991   3.404   2.188 -0.8427  2.9297 -0.3416
 5322SOL     OW27598   0.226   1.569   8.416 -0.0107 -0.4019 -0.1540
 5322SOL    HW127599   0.208   1.483   8.377  1.4682  0.4183 -2.6636
 5322SOL    HW227600   0.146   1.614   8.389 -0.0057 -0.6829 -0.6571
 5323SOL     OW27601   2.926   2.694  11.465 -0.0405  0.7177  0.1673
 5323SOL    HW127602   2.866   2.645  11.521  0.0741 -1.9740 -2.0687
 5323SOL    HW227603   2.934   2.782  11.502  1.4153  1.1019 -1.0375
 5324SOL     OW27604   3.113   0.752   0.456  0.3765 -0.4868  0.2936
 5324SOL    HW127605   3.149   0.717   0.374  0.3128 -0.9899  0.4810
 5324SOL    HW227606   3.088   0.843   0.442 -0.5806 -0.8293 -0.1901
 5325SOL     OW27607   2.360   1.445   3.329  0.1322  0.1826  0.0564
 5325SOL    HW127608   2.339   1.538   3.340  2.1341  0.9563 -2.7788
 5325SOL    HW227609   2.389   1.449   3.238  0.5599  1.0522  0.2285
 5326SOL     OW27610   2.168   4.426   2.282  0.2283  0.2405 -0.4066
 5326SOL    HW127611   2.138   4.342   2.247  1.2752  0.5391 -1.9813
 5326SOL    HW227612   2.114   4.476   2.222 -2.2595 -2.0265 -0.0782
 5327SOL     OW27613   2.026   1.831   2.368 -0.5206  0.3805 -0.5278
 5327SOL    HW127614   1.945   1.822   2.318  0.7555  0.6045 -2.6488
 5327SOL    HW227615   2.045   1.738   2.377  1.2479  0.6693 -1.2074
 5328SOL     OW27616   4.485   3.949   4.153 -0.4354 -0.2736 -0.0900
 5328SOL    HW127617   4.515   4.014   4.217 -1.1860  0.3599 -0.3909
 5328SOL    HW227618   4.492   3.863   4.194  2.3612  0.3160  0.7163
 5329SOL     OW27619   4.132   2.558  12.797  0.3456  0.7501 -0.5134
 5329SOL    HW127620   4.201   2.493  12.788 -1.1517 -0.7680 -1.0585
 5329SOL    HW227621   4.146   2.622  12.728 -0.8800  0.4175 -1.0640
 5330SOL     OW27622   4.054   2.485   3.163  0.1324 -0.1838 -0.6127
 5330SOL    HW127623   4.026   2.451   3.077 -2.3288 -1.7006  0.7789
 5330SOL    HW227624   4.044   2.402   3.209  1.7348  0.7001  1.3250
 5331SOL     OW27625   4.619   2.756   7.991 -0.2114 -1.1173  0.4877
 5331SOL    HW127626   4.675   2.678   8.000  1.1533 -0.0518  1.2544
 5331SOL    HW227627   4.579   2.758   7.905  0.5836  0.7464  0.1774
 5332SOL     OW27628   4.728   4.698   0.943 -0.3082  0.1470 -0.2873
 5332SOL    HW127629   0.015   4.611   0.976 -2.2234  0.0673  0.7907
 5332SOL    HW227630   4.634   4.707   0.957 -0.2055  2.9027 -1.3357
 5333SOL     OW27631   2.946   3.137   5.862 -0.0490 -0.1677 -0.1239
 5333SOL    HW127632   2.894   3.096   5.793 -1.1296 -1.8543  1.7057
 5333SOL    HW227633   2.952   3.225   5.824  0.2111 -0.9512 -1.8792
 5334SOL     OW27634   3.376   4.535   9.364 -0.0670  0.4510 -0.0706
 5334SOL    HW127635   3.384   4.620   9.407 -3.7089  0.0184  1.3757
 5334SOL    HW227636   3.283   4.535   9.343 -0.2728  0.4161  0.8337
 5335SOL     OW27637   1.006   0.975  13.258  0.2168 -0.3185  0.0657
 5335SOL    HW127638   1.023   0.914  13.330  2.0089  2.9774  2.4579
 5335SOL    HW227639   1.070   0.945  13.193  0.1804  0.7230 -0.4553
 5336SOL     OW27640   0.346   0.697  14.563  0.6633  0.2652 -0.6688
 5336SOL    HW127641   0.351   0.612  14.519  1.1575  0.4666 -1.0071
 5336SOL    HW227642   0.436   0.730  14.568  1.6071 -2.3132 -0.6533
 5337SOL     OW27643   3.150   1.210   7.498  0.8085 -0.0656  0.4140
 5337SOL    HW127644   3.121   1.199   7.408  1.9637 -0.8850  0.1319
 5337SOL    HW227645   3.070   1.233   7.544 -0.4414 -0.2432 -1.7004
 5338SOL     OW27646   0.197   4.435  17.636 -0.3802 -0.1942 -0.1165
 5338SOL    HW127647   0.200   4.526  17.667 -1.8066  0.8884 -3.1068
 5338SOL    HW227648   0.165   4.387  17.712 -1.4813  0.7145  0.0018
 5339SOL     OW27649   3.966   2.572   8.165  0.1195  0.3786 -0.1403
 5339SOL    HW127650   3.941   2.565   8.073  0.1017 -1.4669  0.0092
 5339SOL    HW227651   4.049   2.620   8.168 -0.5255  1.5998 -2.6163
 5340SOL     OW27652   2.251   4.707   4.855 -0.1684  0.6960 -0.3439
 5340SOL    HW127653   2.294   4.706   4.940 -0.6937  0.4542 -0.0828
 5340SOL    HW227654   2.325   4.733   4.800  0.2781  0.9748  0.3909
 5341SOL     OW27655   2.895   0.676   3.107  0.4338  0.1628  0.4895
 5341SOL    HW127656   2.891   0.767   3.138  1.6009  1.3014 -2.6985
 5341SOL    HW227657   2.846   0.634   3.177  0.1212 -1.0185 -0.4375
 5342SOL     OW27658   1.790   2.157   9.797  0.0452 -0.0628  0.2005
 5342SOL    HW127659   1.720   2.205   9.841 -0.1167  1.4966 -1.7100
 5342SOL    HW227660   1.740   2.076   9.784  0.0053 -0.3869  2.4296
 5343SOL     OW27661   2.261   0.812   6.948  0.4280 -0.1404 -0.4417
 5343SOL    HW127662   2.355   0.827   6.939  0.0944  0.5514 -2.7143
 5343SOL    HW227663   2.258   0.722   6.979  1.3983 -0.6399 -1.7755
 5344SOL     OW27664   2.803   2.974   9.239 -0.1655  0.1663 -0.0390
 5344SOL    HW127665   2.863   2.909   9.204 -2.1238 -1.4736 -0.3538
 5344SOL    HW227666   2.777   3.001   9.151 -0.5967 -0.7884 -0.2012
 5345SOL     OW27667   4.526   2.096   3.360  0.3906  0.6903  0.1858
 5345SOL    HW127668   4.459   2.035   3.391  2.5423 -0.5737  2.3806
 5345SOL    HW227669   4.578   2.036   3.307  1.4803  0.9178  1.0055
 5346SOL     OW27670   4.308   2.918   2.017  0.0355 -0.4785  0.2909
 5346SOL    HW127671   4.316   2.996   1.963  1.8109 -1.2445 -0.5309
 5346SOL    HW227672   4.225   2.877   1.990  1.1756 -2.3985 -0.3577
 5347SOL     OW27673   2.561   3.690   3.380  0.1056  0.2943  0.1818
 5347SOL    HW127674   2.507   3.752   3.429  0.8263 -0.5683  2.1022
 5347SOL    HW227675   2.588   3.732   3.299  0.3717  1.2776  0.7852
 5348SOL     OW27676   2.687   0.897   7.523  0.1009 -0.5925  0.4924
 5348SOL    HW127677   2.732   0.814   7.511 -1.3107 -1.3066  0.1624
 5348SOL    HW227678   2.749   0.943   7.580  1.7744  1.2463 -2.7984
 5349SOL     OW27679   3.330   4.512   4.381 -0.1958 -0.2285 -0.7011
 5349SOL    HW127680   3.236   4.525   4.395 -0.5278 -0.4333 -2.7105
 5349SOL    HW227681   3.340   4.519   4.286 -0.8034  1.5984 -0.6390
 5350SOL     OW27682   0.768   3.619   8.512 -0.5968 -0.1338  0.2242
 5350SOL    HW127683   0.722   3.687   8.462  1.0154 -0.1180 -1.2560
 5350SOL    HW227684   0.707   3.593   8.581  0.4218  2.5127  2.1001
 5351SOL     OW27685   3.847   3.413   6.487 -0.4385 -0.2704 -0.2367
 5351SOL    HW127686   3.916   3.450   6.432 -0.8797  2.2140  0.9131
 5351SOL    HW227687   3.793   3.491   6.491  1.5954  1.1699 -0.8605
 5352SOL     OW27688   1.018   2.692   0.894  0.2345 -0.0744 -0.1561
 5352SOL    HW127689   0.939   2.730   0.932  0.6456  0.6490 -0.0312
 5352SOL    HW227690   0.978   2.623   0.842 -0.1984  0.3347 -0.3707
 5353SOL     OW27691   1.830   3.507  10.100  0.3886 -0.5235 -0.1022
 5353SOL    HW127692   1.740   3.536  10.113  1.2669  2.5523 -1.0132
 5353SOL    HW227693   1.836   3.441  10.169  1.1240  0.5539  0.8579
 5354SOL     OW27694   4.461   2.358   7.392 -0.2343 -0.5966  0.6079
 5354SOL    HW127695   4.463   2.353   7.297 -2.0483  1.5170  0.4552
 5354SOL    HW227696   4.374   2.396   7.401 -0.6653 -1.3180 -0.6227
 5355SOL     OW27697   2.325   4.361   2.523  0.4511 -0.1494 -0.3169
 5355SOL    HW127698   2.313   4.353   2.428  1.8806  1.8679 -0.6549
 5355SOL    HW227699   2.295   4.450   2.541  1.1257 -0.3697  1.8790
 5356SOL     OW27700   0.644   3.286   5.825 -0.2241 -0.2978  0.1718
 5356SOL    HW127701   0.554   3.280   5.795  0.2090 -1.6945 -0.8735
 5356SOL    HW227702   0.647   3.374   5.861 -2.4735  0.5912 -1.8809
 5357SOL     OW27703   0.592   1.933   4.654  0.1255 -0.4714 -0.6244
 5357SOL    HW127704   0.642   1.853   4.671  1.8709  0.6987 -0.1614
 5357SOL    HW227705   0.638   1.966   4.577 -0.6345 -2.5414 -1.9514
 5358SOL     OW27706   0.391   2.952   0.030 -0.1087  0.0658 -0.0810
 5358SOL    HW127707   0.410   3.003   0.109 -0.2450 -0.9677  0.6233
 5358SOL    HW227708   0.348   3.016  17.715  3.2414  2.8051  0.4430
 5359SOL     OW27709   0.084   2.878   3.785  0.0766  0.1900 -0.7144
 5359SOL    HW127710   0.085   2.852   3.877  0.4243  2.6051 -0.0449
 5359SOL    HW227711   0.106   2.796   3.740 -1.0892 -0.1638 -0.6259
 5360SOL     OW27712   4.193   4.259  13.647 -0.0119  0.2656 -0.0950
 5360SOL    HW127713   4.097   4.250  13.651  0.0668 -0.3184  0.4082
 5360SOL    HW227714   4.192   4.355  13.648  0.3380  0.2970 -2.0124
 5361SOL     OW27715   3.489   0.401   3.680  0.1282  0.1461  0.0506
 5361SOL    HW127716   3.421   0.463   3.705  0.0422  0.1081 -0.0862
 5361SOL    HW227717   3.434   0.328   3.649  1.8952 -0.3809 -1.7924
 5362SOL     OW27718   0.586   4.005   1.690  0.7916 -0.2902  0.4461
 5362SOL    HW127719   0.519   3.956   1.737 -0.3507  0.1570 -0.7053
 5362SOL    HW227720   0.630   4.060   1.755 -0.1928 -1.5705  2.1917
 5363SOL     OW27721   1.152   3.364   8.046 -0.0758  0.1404 -0.1073
 5363SOL    HW127722   1.176   3.431   8.110 -2.4659 -0.6593  1.6458
 5363SOL    HW227723   1.163   3.289   8.105 -3.0499 -0.0741  0.1917
 5364SOL     OW27724   0.179   3.313  11.912  0.1421 -0.3229  0.1682
 5364SOL    HW127725   0.247   3.283  11.972 -0.2883 -3.0817 -0.7134
 5364SOL    HW227726   0.153   3.224  11.887 -1.1898  0.3042 -0.7157
 5365SOL     OW27727   2.588   1.586  15.235  0.5804  0.2542  0.1803
 5365SOL    HW127728   2.645   1.587  15.312  1.5913  2.1721 -0.6137
 5365SOL    HW227729   2.572   1.678  15.212  0.8398  0.7042  1.7925
 5366SOL     OW27730   0.459   3.100   7.413  0.1906  0.0476 -0.0482
 5366SOL    HW127731   0.526   3.032   7.413 -0.9292 -1.0511 -1.4135
 5366SOL    HW227732   0.443   3.103   7.508 -2.9877  0.5256 -0.5860
 5367SOL     OW27733   1.007   4.108  12.513 -0.0132 -0.0772  0.0485
 5367SOL    HW127734   1.030   4.015  12.515 -2.0955 -0.5602  1.4830
 5367SOL    HW227735   1.025   4.137  12.602 -2.2532  2.2268 -0.2773
 5368SOL     OW27736   3.650   2.910   4.125 -0.4295  0.5671 -0.7744
 5368SOL    HW127737   3.594   2.873   4.194 -0.4939  1.4670 -0.3446
 5368SOL    HW227738   3.686   2.826   4.096  0.3872  0.6339  0.0254
 5369SOL     OW27739   1.515   3.858   6.028  0.1540 -0.0809 -0.4097
 5369SOL    HW127740   1.512   3.950   6.002 -0.0610 -0.7743 -2.8397
 5369SOL    HW227741   1.450   3.856   6.098  1.0213  1.0216  0.4364
 5370SOL     OW27742   3.030   0.995   7.043 -0.0003 -0.6180  0.0662
 5370SOL    HW127743   3.092   1.033   6.982  1.9245  0.3657  2.6474
 5370SOL    HW227744   2.952   1.040   7.012  1.0151 -0.3722 -2.0954
 5371SOL     OW27745   0.689   4.398   7.725  0.3741 -0.2747 -0.9326
 5371SOL    HW127746   0.771   4.356   7.698  1.1401  0.2574  0.5876
 5371SOL    HW227747   0.643   4.319   7.751 -0.7525  0.7316  0.1088
 5372SOL     OW27748   1.095   0.424   7.630  0.7492  0.3224 -0.3148
 5372SOL    HW127749   1.116   0.360   7.562 -3.0411 -1.4526  0.1934
 5372SOL    HW227750   1.168   0.412   7.690  0.6832 -2.1063 -0.7125
 5373SOL     OW27751   1.524   1.829   9.010  0.2206  0.1093  0.2578
 5373SOL    HW127752   1.513   1.917   9.045 -0.7352 -0.3584  1.1211
 5373SOL    HW227753   1.483   1.849   8.925 -0.2544  1.7736  0.8808
 5374SOL     OW27754   0.136   1.189   6.159 -0.1056  0.4867 -0.1738
 5374SOL    HW127755   0.102   1.126   6.223 -1.3795  0.2688 -1.0788
 5374SOL    HW227756   0.052   1.214   6.120  0.1316  0.5614 -0.6349
 5375SOL     OW27757   0.150   0.047   2.886 -0.1675  0.0417  0.1012
 5375SOL    HW127758   0.160   0.117   2.951 -0.6393 -0.1602  0.3913
 5375SOL    HW227759   0.190   4.707   2.928 -0.4586  0.1871  0.6367
 5376SOL     OW27760   2.178   4.220   8.146  0.1312  0.9231  0.2118
 5376SOL    HW127761   2.259   4.271   8.150 -0.6862  2.3164 -1.1555
 5376SOL    HW227762   2.127   4.286   8.194  1.0691  1.7122  0.1307
 5377SOL     OW27763   1.029   1.891   6.917  0.1940 -0.0543 -0.4530
 5377SOL    HW127764   1.072   1.901   6.832  1.6361  2.6060  0.5671
 5377SOL    HW227765   1.033   1.797   6.936 -1.8544  0.1961  1.0979
 5378SOL     OW27766   4.121   2.677   6.051 -0.0596 -0.1967  0.2180
 5378SOL    HW127767   4.142   2.733   6.126 -1.8362 -2.9832  2.8142
 5378SOL    HW227768   4.134   2.590   6.088  1.5143 -0.7190 -1.6042
 5379SOL     OW27769   3.600   1.173  13.160  0.4910  0.0354  0.3287
 5379SOL    HW127770   3.672   1.232  13.184 -0.9593  0.9136  2.5745
 5379SOL    HW227771   3.630   1.089  13.195 -0.7462  0.0077  1.3117
 5380SOL     OW27772   0.671   2.148   6.416  0.5406 -0.3997  0.1678
 5380SOL    HW127773   0.710   2.080   6.471 -2.4844 -1.5188  0.9282
 5380SOL    HW227774   0.693   2.220   6.475  0.3783 -0.6542  0.5404
 5381SOL     OW27775   3.605   1.700   7.917 -0.5208  0.3403 -0.1712
 5381SOL    HW127776   3.531   1.652   7.880  0.0996  0.4862 -1.6149
 5381SOL    HW227777   3.657   1.719   7.839 -0.5584 -0.2379 -0.3356
 5382SOL     OW27778   2.442   1.475   6.796  0.0130 -0.3257 -0.6707
 5382SOL    HW127779   2.488   1.504   6.718  0.3615  1.5537  0.2281
 5382SOL    HW227780   2.360   1.439   6.761 -0.5641 -0.2640  0.6129
 5383SOL     OW27781   0.445   3.303   4.614 -0.2615  0.1234 -0.4887
 5383SOL    HW127782   0.356   3.288   4.584  0.4122 -1.6294 -1.6298
 5383SOL    HW227783   0.473   3.211   4.608 -1.0866 -0.1426 -0.2012
 5384SOL     OW27784   1.176   2.193   5.618 -0.0926  0.5538  0.1172
 5384SOL    HW127785   1.244   2.217   5.555  1.0340  2.2011  1.9675
 5384SOL    HW227786   1.187   2.097   5.619 -0.1583  0.5244 -1.3124
 5385SOL     OW27787   4.333   2.179  14.045  0.1414  0.5021  0.1005
 5385SOL    HW127788   4.299   2.132  13.968  0.0551  0.8256 -0.0588
 5385SOL    HW227789   4.310   2.112  14.109  2.2800  0.8809  1.2566
 5386SOL     OW27790   1.480   2.219   9.463  0.0745  0.0195  0.1395
 5386SOL    HW127791   1.416   2.255   9.524  1.5521 -0.6503  2.0944
 5386SOL    HW227792   1.475   2.125   9.481 -1.2375  0.3010  1.1802
 5387SOL     OW27793   4.114   3.706   6.094 -0.3298 -0.4662 -0.1482
 5387SOL    HW127794   4.187   3.722   6.155 -1.5762  2.1250  0.6667
 5387SOL    HW227795   4.045   3.742   6.150  0.4278 -0.0220  0.5127
 5388SOL     OW27796   1.545   0.678   6.981 -0.2536  0.0261 -0.2183
 5388SOL    HW127797   1.621   0.736   6.986  0.3193 -1.0830  3.5944
 5388SOL    HW227798   1.580   0.604   6.932  0.1540 -1.0446  1.6933
 5389SOL     OW27799   2.115   3.969   6.277  0.4925 -0.1166  0.3835
 5389SOL    HW127800   2.089   4.061   6.276 -2.0146 -0.8177  0.5217
 5389SOL    HW227801   2.091   3.942   6.366 -0.3289 -2.1017 -0.4344
 5390SOL     OW27802   0.900   1.073   3.003  0.2039 -0.3256  0.4223
 5390SOL    HW127803   0.810   1.104   2.993  0.5754  1.3503  2.1829
 5390SOL    HW227804   0.933   1.089   2.915 -0.2253 -0.7986  0.1756
 5391SOL     OW27805   2.637   1.335  10.121 -0.0531  0.3286 -0.6004
 5391SOL    HW127806   2.558   1.388  10.133 -0.6106 -0.6963  0.2830
 5391SOL    HW227807   2.602   1.270  10.182 -0.3185  1.2473  0.2268
 5392SOL     OW27808   4.110   1.388  10.786  0.2631 -0.4255 -0.0077
 5392SOL    HW127809   4.158   1.305  10.785  1.8150  0.4899 -1.1828
 5392SOL    HW227810   4.095   1.399  10.880 -1.9251 -2.6098 -0.0893
 5393SOL     OW27811   3.685   0.769   1.313 -0.0665 -0.1518 -0.0704
 5393SOL    HW127812   3.683   0.710   1.237 -1.1890  1.4228 -1.2522
 5393SOL    HW227813   3.767   0.747   1.357  1.6699 -0.1211 -3.3061
 5394SOL     OW27814   2.234   2.639   4.199  0.3134 -0.3281  0.0587
 5394SOL    HW127815   2.275   2.713   4.154 -0.5544  1.5098  2.2957
 5394SOL    HW227816   2.198   2.681   4.277 -2.0752 -0.1819 -1.1184
 5395SOL     OW27817   3.145   3.965   2.993  0.3183 -0.5248 -0.2320
 5395SOL    HW127818   3.226   3.939   2.950  1.5374 -1.5977  2.6509
 5395SOL    HW227819   3.170   4.056   2.980  2.8797 -1.5427 -2.3332
 5396SOL     OW27820   0.064   2.498   8.024  0.6482  0.0807  0.7042
 5396SOL    HW127821   0.054   2.461   8.112  1.2315  0.9344  1.1261
 5396SOL    HW227822   0.008   2.447   7.965  0.8104  1.6520 -0.8226
 5397SOL     OW27823   4.067   4.298   7.590  0.0793 -0.3517 -0.0375
 5397SOL    HW127824   4.153   4.311   7.551  1.2709  0.5483  2.8664
 5397SOL    HW227825   4.013   4.338   7.522  0.4544 -0.7128 -0.5439
 5398SOL     OW27826   0.281   3.570   4.815  0.0686 -0.3250 -0.0167
 5398SOL    HW127827   0.314   3.659   4.830  2.2115 -1.1360 -0.0698
 5398SOL    HW227828   0.298   3.558   4.722  0.1284 -0.6810  0.0435
 5399SOL     OW27829   0.527   4.386   4.117  0.5789  0.1450  0.1701
 5399SOL    HW127830   0.563   4.337   4.043 -1.1971 -1.0356  0.1098
 5399SOL    HW227831   0.609   4.423   4.151  1.1756 -1.0796  0.0681
 5400SOL     OW27832   2.479   0.646   4.786  0.2611 -0.2205 -0.2413
 5400SOL    HW127833   2.494   0.678   4.697 -0.1922  1.7828  0.4025
 5400SOL    HW227834   2.410   0.584   4.765 -1.2207  1.6776 -0.9539
 5401SOL     OW27835   0.956   2.787   8.002  0.4627 -0.2948 -0.1956
 5401SOL    HW127836   0.984   2.697   8.016 -1.4553 -0.7844  0.4964
 5401SOL    HW227837   0.906   2.813   8.079  0.2626  3.8584 -1.6962
 5402SOL     OW27838   3.554   0.006   7.678  0.0564  0.0058  0.0991
 5402SOL    HW127839   3.507   0.042   7.754  0.2272  1.9060 -0.7003
 5402SOL    HW227840   3.641   0.041   7.695  1.0394 -1.7660 -1.3328
 5403SOL     OW27841   0.805   0.365   3.218  0.1804 -0.0483 -0.0200
 5403SOL    HW127842   0.861   0.335   3.147 -0.4565 -1.0852 -0.0781
 5403SOL    HW227843   0.725   0.314   3.211 -1.1653  1.6361  3.3896
 5404SOL     OW27844   3.468   3.243  13.451  0.1226 -0.2724  0.2667
 5404SOL    HW127845   3.451   3.259  13.544 -1.2319  1.9892 -0.3837
 5404SOL    HW227846   3.523   3.315  13.423 -0.3071 -0.0285  0.0638
 5405SOL     OW27847   2.678   1.710   8.359  0.2386 -0.2974 -0.2001
 5405SOL    HW127848   2.635   1.684   8.277 -1.2671 -0.9044  0.7904
 5405SOL    HW227849   2.642   1.639   8.412  0.8524 -0.1656  0.4031
 5406SOL     OW27850   2.934   2.899   4.068 -0.0606 -0.7675  0.1380
 5406SOL    HW127851   2.892   2.925   4.150  1.4653  3.2783 -0.3636
 5406SOL    HW227852   2.875   2.833   4.031 -0.6114 -0.5629  0.6664
 5407SOL     OW27853   4.665   3.764  14.101  0.4395 -0.2620  0.5475
 5407SOL    HW127854   4.615   3.779  14.181 -1.8186 -0.0943 -0.9276
 5407SOL    HW227855   4.608   3.807  14.038 -0.2465 -0.5858  0.9409
 5408SOL     OW27856   2.745   4.414   9.223  0.6523  0.0439 -0.1873
 5408SOL    HW127857   2.809   4.410   9.152  1.6140  0.0535  0.6729
 5408SOL    HW227858   2.794   4.371   9.292  0.4665  0.2344  0.0649
 5409SOL     OW27859   0.963   4.244   4.240  0.0891  0.1580 -0.0122
 5409SOL    HW127860   0.949   4.185   4.166 -1.3104  0.9603 -0.3700
 5409SOL    HW227861   0.998   4.186   4.308  0.6672  0.5054 -0.0089
 5410SOL     OW27862   3.144   4.596   5.686 -0.3204  0.3141 -0.3639
 5410SOL    HW127863   3.177   4.676   5.726 -0.9980  1.1884 -1.5794
 5410SOL    HW227864   3.107   4.553   5.763  0.1821  0.5652  0.0146
 5411SOL     OW27865   1.335   1.818   6.572 -0.9708  0.3238 -0.6521
 5411SOL    HW127866   1.418   1.866   6.569  0.7544 -2.7384 -2.2951
 5411SOL    HW227867   1.277   1.879   6.617  0.7446  1.6862 -0.2587
 5412SOL     OW27868   2.516   2.554   0.843  0.1481  0.0337 -0.3595
 5412SOL    HW127869   2.517   2.621   0.912 -1.8364 -2.0078  1.6363
 5412SOL    HW227870   2.422   2.537   0.848 -0.0838  0.6687 -2.8806
 5413SOL     OW27871   2.890   4.584  10.200 -0.0576  0.7042 -0.3625
 5413SOL    HW127872   2.862   4.647  10.265 -1.2007  0.9969 -1.1519
 5413SOL    HW227873   2.808   4.578  10.152 -0.4685  1.5934  0.2417
 5414SOL     OW27874   1.941   3.369   8.858  0.3482  0.0280 -0.2302
 5414SOL    HW127875   1.879   3.327   8.917 -0.2848 -0.6866 -1.4111
 5414SOL    HW227876   1.953   3.448   8.911 -0.1253 -0.7694  1.0478
 5415SOL     OW27877   2.371   3.741   4.667 -0.2680 -0.3286 -0.0818
 5415SOL    HW127878   2.297   3.688   4.638 -0.3176 -0.4929  0.3454
 5415SOL    HW227879   2.419   3.765   4.588 -1.3479 -0.4173 -0.7760
 5416SOL     OW27880   2.149   3.096   5.160 -0.8497 -0.5552  0.0885
 5416SOL    HW127881   2.206   3.160   5.203  0.4712  0.6124 -3.3837
 5416SOL    HW227882   2.118   3.138   5.080  0.7156 -2.6197 -1.6246
 5417SOL     OW27883   1.021   4.561   8.578 -0.2457 -0.0034  0.0689
 5417SOL    HW127884   1.103   4.530   8.615 -0.0533  1.4601  0.8558
 5417SOL    HW227885   0.975   4.480   8.557  0.4274  0.5864 -3.6614
 5418SOL     OW27886   1.018   4.659   6.221 -0.4704  0.3451 -1.1034
 5418SOL    HW127887   0.933   4.669   6.262  0.7421 -0.2737  1.5748
 5418SOL    HW227888   1.013   4.719   6.147 -0.7430 -0.3797 -1.6730
 5419SOL     OW27889   1.927   1.253  12.767  0.1849 -0.4384 -0.0715
 5419SOL    HW127890   2.022   1.244  12.781 -0.0844  0.0027  2.1029
 5419SOL    HW227891   1.894   1.265  12.856  0.3563 -2.5051  0.2613
 5420SOL     OW27892   2.009   4.684  11.403 -0.1162 -0.1870 -0.4602
 5420SOL    HW127893   2.001   0.022  11.464  2.5906  0.8860 -1.3833
 5420SOL    HW227894   2.032   0.001  11.326  0.2404 -0.4186 -0.5085
 5421SOL     OW27895   0.655   2.465   6.822  0.1267 -0.0845  0.6422
 5421SOL    HW127896   0.693   2.401   6.882  0.7675  2.4500  2.9311
 5421SOL    HW227897   0.567   2.475   6.860  1.0220  1.9176  2.2161
 5422SOL     OW27898   1.061   2.608   1.797 -1.2079 -0.8714 -0.2791
 5422SOL    HW127899   1.016   2.692   1.805  0.8109 -0.0271  2.5070
 5422SOL    HW227900   1.007   2.529   1.799 -1.3192 -0.7966 -0.4358
 5423SOL     OW27901   0.091   4.102  11.805 -0.0565  0.4739  0.2593
 5423SOL    HW127902   0.070   4.195  11.795 -1.4106  0.3913  2.3342
 5423SOL    HW227903   0.042   4.078  11.884 -2.1957 -1.3398 -1.6369
 5424SOL     OW27904   4.287   1.053   5.304 -0.1444 -0.4369 -0.3529
 5424SOL    HW127905   4.354   1.023   5.243  0.2800  1.2453 -0.6981
 5424SOL    HW227906   4.316   1.034   5.393 -1.8579  1.2298  0.5480
 5425SOL     OW27907   0.012   4.573  13.027 -0.6318  0.0185 -0.0728
 5425SOL    HW127908   4.666   4.537  12.991 -0.3402  0.6395 -1.3803
 5425SOL    HW227909   0.069   4.540  12.957 -1.0656  1.4874 -1.1301
 5426SOL     OW27910   1.303   4.171  15.417  0.3792  0.0800  0.0754
 5426SOL    HW127911   1.222   4.153  15.369  0.9910  1.0358 -1.3297
 5426SOL    HW227912   1.273   4.164  15.508  3.3601  0.9472  1.1286
 5427SOL     OW27913   0.540   3.616  13.012 -0.6170 -0.8302 -0.4723
 5427SOL    HW127914   0.578   3.563  13.083 -0.2358 -0.5685 -0.4811
 5427SOL    HW227915   0.622   3.657  12.984  0.0137 -1.1037  0.9781
 5428SOL     OW27916   2.471   1.668   5.728  0.0722 -0.3837  0.2316
 5428SOL    HW127917   2.564   1.683   5.712  0.1198  0.3916  1.2237
 5428SOL    HW227918   2.426   1.679   5.644 -0.6650  0.3380  0.7170
 5429SOL     OW27919   2.733   3.019   1.648  0.1006  0.8365  1.0579
 5429SOL    HW127920   2.752   2.962   1.722  0.0654  1.2015  1.3470
 5429SOL    HW227921   2.789   2.975   1.583 -2.1301  2.4857 -1.9954
 5430SOL     OW27922   2.728   1.578   6.747 -0.0568 -0.2142 -0.7275
 5430SOL    HW127923   2.799   1.628   6.706 -1.0739 -0.0636 -2.2903
 5430SOL    HW227924   2.694   1.648   6.803  0.9226 -1.6524  1.6674
 5431SOL     OW27925   3.457   1.996  16.711  0.2454 -0.2889 -0.8969
 5431SOL    HW127926   3.444   1.903  16.697  2.4951 -0.5432 -1.2693
 5431SOL    HW227927   3.548   2.003  16.683  0.4873 -0.2139 -0.0913
 5432SOL     OW27928   3.285   3.153   8.326 -0.6431  0.6801 -0.0834
 5432SOL    HW127929   3.343   3.207   8.273  1.6295 -0.3364  1.3411
 5432SOL    HW227930   3.317   3.063   8.317  1.3067  1.6876 -3.3559
 5433SOL     OW27931   2.274   4.559   1.295 -0.0869  0.3392  0.4460
 5433SOL    HW127932   2.319   4.635   1.332 -0.6937  0.0972  1.7131
 5433SOL    HW227933   2.183   4.578   1.322  0.0440  0.6314  0.6882
 5434SOL     OW27934   1.714   1.812  17.075 -0.4155  0.1972 -0.0675
 5434SOL    HW127935   1.789   1.834  17.131 -1.8031 -0.1801  1.9157
 5434SOL    HW227936   1.747   1.727  17.047  0.4990  0.2910  0.7387
 5435SOL     OW27937   0.720   3.410   3.439 -0.3837  0.3842 -0.4339
 5435SOL    HW127938   0.688   3.434   3.352 -1.8797  1.1759  0.3487
 5435SOL    HW227939   0.778   3.483   3.462  0.8262 -0.6542 -0.1658
 5436SOL     OW27940   4.166   0.857   8.160 -0.2424  0.1173  0.0035
 5436SOL    HW127941   4.247   0.809   8.143  0.5852  1.6925 -0.4618
 5436SOL    HW227942   4.165   0.918   8.086  2.1053  0.9638  0.6640
 5437SOL     OW27943   4.568   3.642   2.503 -0.0557 -0.1317 -0.4409
 5437SOL    HW127944   4.588   3.708   2.569 -2.1846 -0.8655  0.9141
 5437SOL    HW227945   4.656   3.621   2.470  0.3494  0.9769 -0.0799
 5438SOL     OW27946   3.519   0.302   2.214  0.0320 -0.1148 -0.7992
 5438SOL    HW127947   3.535   0.215   2.250 -0.9544  0.2852  0.6620
 5438SOL    HW227948   3.607   0.338   2.224 -0.2724  0.2875  0.4540
 5439SOL     OW27949   1.494   2.427   4.998  0.2525  0.2904 -0.0467
 5439SOL    HW127950   1.423   2.492   4.996 -1.2060 -1.3292 -0.2931
 5439SOL    HW227951   1.518   2.422   5.090 -3.8485 -0.2065  0.9844
 5440SOL     OW27952   2.677   3.753  13.857  0.1236 -0.0258 -0.1890
 5440SOL    HW127953   2.621   3.685  13.820 -2.1435  1.5215  0.4281
 5440SOL    HW227954   2.747   3.771  13.793 -0.2968  2.2302 -0.0166
 5441SOL     OW27955   3.090   0.666   8.854  0.0184 -0.1331 -0.2384
 5441SOL    HW127956   3.134   0.616   8.785 -3.2502 -0.8524 -1.8037
 5441SOL    HW227957   3.020   0.703   8.800 -0.6769  1.4093  1.7160
 5442SOL     OW27958   1.950   4.426   8.543  0.7494  0.2596  0.2450
 5442SOL    HW127959   1.909   4.347   8.581  2.5886 -0.4490  0.7766
 5442SOL    HW227960   1.870   4.477   8.533  0.5452 -0.4199 -1.5471
 5443SOL     OW27961   1.552   1.102   5.927  0.0589  0.0725 -1.0136
 5443SOL    HW127962   1.460   1.086   5.947  0.2456  0.9332  0.5402
 5443SOL    HW227963   1.557   1.197   5.917 -1.6987  0.2944  0.3105
 5444SOL     OW27964   1.674   2.436  10.933 -0.0034  0.6681 -0.0326
 5444SOL    HW127965   1.664   2.415  11.025 -0.5599 -1.6872 -0.6205
 5444SOL    HW227966   1.608   2.505  10.922 -1.6533 -1.5091 -3.9957
 5445SOL     OW27967   1.264   2.434   7.694  0.2717  0.0119  0.0267
 5445SOL    HW127968   1.350   2.436   7.651  0.5632 -0.0344  0.6142
 5445SOL    HW227969   1.202   2.425   7.621 -0.0808 -1.0408  0.4571
 5446SOL     OW27970   4.211   1.515  10.075 -0.6686  0.9598  0.0954
 5446SOL    HW127971   4.230   1.556   9.991 -2.8149  1.0354 -0.3566
 5446SOL    HW227972   4.131   1.548  10.114 -1.8424 -2.0960  0.2646
 5447SOL     OW27973   1.425   3.428   9.679 -0.0924 -0.4098  0.0267
 5447SOL    HW127974   1.385   3.383   9.605 -0.3055  2.4257 -1.5769
 5447SOL    HW227975   1.380   3.509   9.657  0.4780  0.1704  0.9778
 5448SOL     OW27976   4.504   0.078  17.155  0.2366 -0.2482 -0.2706
 5448SOL    HW127977   4.468   0.055  17.068 -2.6175 -0.0785  0.8492
 5448SOL    HW227978   4.570   0.142  17.128  0.9387 -0.5330  0.7860
 5449SOL     OW27979   3.856   0.160  14.673  0.6378  0.1651  0.1272
 5449SOL    HW127980   3.802   0.210  14.735 -2.4809 -3.3914  0.3163
 5449SOL    HW227981   3.792   0.097  14.639 -0.7487  0.8247  1.5051
 5450SOL     OW27982   3.946   0.085  11.946 -0.2927  0.5655  0.1132
 5450SOL    HW127983   3.914   0.175  11.954  1.0988  0.9789  1.0828
 5450SOL    HW227984   4.012   0.087  11.877 -1.2789 -0.1994 -0.8412
 5451SOL     OW27985   2.151   2.989  14.870 -0.4875 -0.2842  0.9460
 5451SOL    HW127986   2.112   2.929  14.807  0.2527  1.6733 -1.3484
 5451SOL    HW227987   2.234   2.948  14.892  0.5588  1.1790 -0.2985
 5452SOL     OW27988   0.441   4.724  16.970  0.1866  0.0758 -0.3352
 5452SOL    HW127989   0.393   4.642  16.978  1.2128 -0.6250 -1.3928
 5452SOL    HW227990   0.439   0.017  17.062 -0.0823 -1.3103  0.0907
 5453SOL     OW27991   2.769   2.053   5.966 -0.5558  0.4713 -0.2597
 5453SOL    HW127992   2.712   2.113   6.015  1.8099  0.8511  2.0487
 5453SOL    HW227993   2.705   2.024   5.901  0.4196  1.4539 -1.6425
 5454SOL     OW27994   4.272   4.137  13.898 -0.5755  0.0532 -0.2356
 5454SOL    HW127995   4.244   4.172  13.813 -0.1530 -1.9376 -1.2008
 5454SOL    HW227996   4.360   4.111  13.873 -0.1569  1.7223 -0.5053
 5455SOL     OW27997   3.243   1.504   2.648 -0.0204 -0.1149 -0.0698
 5455SOL    HW127998   3.158   1.496   2.605 -0.6869  1.7530  0.9258
 5455SOL    HW227999   3.302   1.458   2.587 -2.1183 -1.1517 -1.3140
 5456SOL     OW28000   1.949   3.418   6.912  0.1490  0.2427 -0.1466
 5456SOL    HW128001   1.968   3.417   7.006  1.8512  1.4782 -0.4729
 5456SOL    HW228002   2.036   3.405   6.875  0.2363 -0.7578  0.4078
 5457SOL     OW28003   3.757   1.522   8.858 -0.1556  0.0443  0.2497
 5457SOL    HW128004   3.694   1.521   8.785 -0.5021  2.2007  0.5260
 5457SOL    HW228005   3.804   1.445   8.825 -0.1693  0.2299 -0.2144
 5458SOL     OW28006   0.758   2.202   6.905  0.0697 -0.2399 -0.4710
 5458SOL    HW128007   0.692   2.134   6.920 -1.5112  1.3501 -0.2405
 5458SOL    HW228008   0.765   2.223   6.998 -0.7737  0.3728 -0.5498
 5459SOL     OW28009   4.521   3.556   6.084  0.3274 -0.3722 -0.3115
 5459SOL    HW128010   4.492   3.645   6.063  0.2260 -0.8435 -2.1243
 5459SOL    HW228011   4.443   3.510   6.054  0.0379 -1.2979  1.8798
 5460SOL     OW28012   0.218   1.255   3.487  0.4496  0.0215 -0.0943
 5460SOL    HW128013   0.150   1.309   3.447  0.7930  1.4982  1.3053
 5460SOL    HW228014   0.213   1.274   3.581  0.2367  0.1815 -0.1392
 5461SOL     OW28015   4.586   0.783   0.789 -0.1325 -0.7268  0.1103
 5461SOL    HW128016   4.585   0.730   0.710 -0.6470 -2.4694  1.2944
 5461SOL    HW228017   4.498   0.775   0.824  0.2538 -0.8840  1.0432
 5462SOL     OW28018   4.016   1.849   4.983 -0.0188 -0.1778  0.3754
 5462SOL    HW128019   4.043   1.889   5.066 -0.1487 -0.0231  0.3431
 5462SOL    HW228020   4.061   1.764   4.986  1.3516  0.5258 -0.3600
 5463SOL     OW28021   3.123   1.365   3.448  0.0518  0.1717 -0.0380
 5463SOL    HW128022   3.112   1.460   3.441  0.4353  0.1563 -0.9013
 5463SOL    HW228023   3.103   1.345   3.356 -0.0070  0.4995 -0.0991
 5464SOL     OW28024   3.878   4.362  14.858  0.1852 -0.1044 -0.0688
 5464SOL    HW128025   3.798   4.374  14.806 -0.0513  0.2922  0.3837
 5464SOL    HW228026   3.946   4.400  14.803  1.8029 -0.0729  1.9714
 5465SOL     OW28027   0.347   1.189   9.602  0.3615  0.2068 -0.2018
 5465SOL    HW128028   0.323   1.281   9.614  0.2159  0.4795 -2.5689
 5465SOL    HW228029   0.358   1.190   9.507  0.3339 -1.4304 -0.2154
 5466SOL     OW28030   2.439   0.765   2.767  0.2821  0.4673  0.4042
 5466SOL    HW128031   2.380   0.805   2.830 -0.2844 -1.6817  1.2502
 5466SOL    HW228032   2.508   0.732   2.824  0.1024  1.8060  1.4010
 5467SOL     OW28033   2.699   1.025   0.040 -0.3725 -0.4904  0.2743
 5467SOL    HW128034   2.673   1.109   0.077 -0.8669 -0.7127  0.4438
 5467SOL    HW228035   2.708   0.975   0.121  1.7377  0.0530  0.3646
 5468SOL     OW28036   1.250   0.003   1.753  0.2494  0.0221  0.0953
 5468SOL    HW128037   1.224   4.659   1.709 -0.0738  0.5265 -0.6287
 5468SOL    HW228038   1.239   0.072   1.687 -2.0063  0.5877  1.0743
 5469SOL     OW28039   0.026   2.646   9.686 -0.2811 -0.3956 -0.3533
 5469SOL    HW128040   0.068   2.586   9.748 -0.7874 -1.9829 -1.5258
 5469SOL    HW228041   4.675   2.606   9.674 -1.3896  2.2208 -0.9873
 5470SOL     OW28042   3.323   1.251  14.257  0.1228 -0.0872  0.0247
 5470SOL    HW128043   3.374   1.314  14.206  1.8736 -0.1878  1.6722
 5470SOL    HW228044   3.286   1.202  14.183 -0.5689 -0.0429  0.3434
 5471SOL     OW28045   2.371   3.509   7.508 -0.0899  0.5161 -0.1891
 5471SOL    HW128046   2.365   3.585   7.566 -1.0043  1.7721 -1.9493
 5471SOL    HW228047   2.432   3.529   7.437  2.6647 -1.6904  1.5323
 5472SOL     OW28048   1.303   3.141  13.686  0.6271 -0.4270  1.0196
 5472SOL    HW128049   1.339   3.226  13.710 -0.6401  1.1434 -2.7087
 5472SOL    HW228050   1.298   3.102  13.774  0.7019  1.4089  1.8283
 5473SOL     OW28051   2.976   4.262   7.609  0.0097  0.0833  0.2507
 5473SOL    HW128052   2.981   4.170   7.582 -3.0518 -0.2102  0.6663
 5473SOL    HW228053   3.030   4.312   7.548  3.1364  0.1473  3.1324
 5474SOL     OW28054   0.206   4.186   6.259  0.3453  0.2842  0.6042
 5474SOL    HW128055   0.164   4.205   6.343  1.2222 -0.4296  1.2011
 5474SOL    HW228056   0.146   4.115   6.238 -0.4546  0.9470  0.6136
 5475SOL     OW28057   3.349   0.211   3.520  0.1775 -0.0504  0.0211
 5475SOL    HW128058   3.254   0.220   3.524  0.3125  0.3800  2.4261
 5475SOL    HW228059   3.376   0.130   3.476  2.1229  1.6597 -1.9627
 5476SOL     OW28060   3.425   0.702   9.409  0.1249 -0.1595 -0.5278
 5476SOL    HW128061   3.451   0.786   9.372  0.4576  0.4459  1.1171
 5476SOL    HW228062   3.335   0.686   9.380 -0.3617  0.3711  0.7146
 5477SOL     OW28063   4.581   1.216   5.431  0.3429 -0.4024 -0.2773
 5477SOL    HW128064   4.664   1.201   5.385  0.6696  1.6582 -0.3783
 5477SOL    HW228065   4.605   1.195   5.521  2.4425  1.3307 -0.4222
 5478SOL     OW28066   0.981   1.080  15.076 -0.6832  0.8238  0.0227
 5478SOL    HW128067   1.027   1.022  15.014 -2.3668 -0.6103  0.1070
 5478SOL    HW228068   1.050   1.116  15.131  0.0836 -1.0127  0.2643
 5479SOL     OW28069   3.517   4.647  12.052 -0.1261  0.0548  0.1537
 5479SOL    HW128070   3.559   4.731  12.066 -1.4587  0.8332 -0.5564
 5479SOL    HW228071   3.487   4.627  12.140  2.6378 -2.1180  0.6239
 5480SOL     OW28072   1.590   1.959   9.755 -0.0547  0.3502  0.3514
 5480SOL    HW128073   1.613   1.866   9.749  2.3311  0.9518  0.0126
 5480SOL    HW228074   1.532   1.970   9.680  0.2405 -0.2903  0.0213
 5481SOL     OW28075   3.729   0.725   6.353  0.3871 -0.3024 -0.2896
 5481SOL    HW128076   3.802   0.776   6.319  0.6499 -1.3150 -1.2432
 5481SOL    HW228077   3.753   0.709   6.444  1.5247  1.3119 -0.2972
 5482SOL     OW28078   1.211   3.756  10.497 -0.0161 -0.5338 -0.1227
 5482SOL    HW128079   1.162   3.830  10.532  1.1701  0.3355 -0.2984
 5482SOL    HW228080   1.261   3.729  10.575  0.6050  1.8524  0.2932
 5483SOL     OW28081   1.942   1.662   7.935  0.0914 -0.2510 -0.0565
 5483SOL    HW128082   1.927   1.585   7.880  1.1740 -0.0010 -0.7029
 5483SOL    HW228083   1.921   1.726   7.868 -0.2374 -0.5594 -0.2492
 5484SOL     OW28084   4.098   0.207  12.531 -0.3417 -0.4890 -0.3084
 5484SOL    HW128085   4.012   0.246  12.544  0.4950  2.2707 -3.0513
 5484SOL    HW228086   4.158   0.275  12.500 -1.2281  0.3607 -0.1543
 5485SOL     OW28087   4.434   2.210   1.572  0.0042 -0.2842  0.4655
 5485SOL    HW128088   4.442   2.301   1.598 -2.6258  0.3312 -0.8192
 5485SOL    HW228089   4.525   2.182   1.562  0.4880  0.9287  1.5438
 5486SOL     OW28090   4.312   0.631   5.937 -0.4193 -0.4890 -0.0267
 5486SOL    HW128091   4.389   0.628   5.880  0.2803  1.5443  0.8045
 5486SOL    HW228092   4.292   0.723   5.918  0.1023 -0.2776  0.4596
 5487SOL     OW28093   0.135   2.870  11.553  0.5472 -0.1596  0.6283
 5487SOL    HW128094   0.192   2.936  11.592  1.8451 -1.3097  0.6419
 5487SOL    HW228095   0.044   2.895  11.570  1.2463  0.9185  2.7528
 5488SOL     OW28096   1.719   4.532   9.444 -0.2738 -0.8406 -0.0209
 5488SOL    HW128097   1.692   4.512   9.534 -2.5474 -2.0816 -0.9771
 5488SOL    HW228098   1.813   4.538   9.464  0.6349 -0.0327 -4.4125
 5489SOL     OW28099   1.393   3.816   2.742 -0.7112 -0.4651  0.2427
 5489SOL    HW128100   1.480   3.777   2.731 -0.6772 -0.4044  0.2905
 5489SOL    HW228101   1.391   3.880   2.671  0.2149  1.1335  1.6570
 5490SOL     OW28102   0.992   3.991   3.574  0.2034 -0.4694 -0.4860
 5490SOL    HW128103   1.018   4.065   3.519 -1.2290 -1.3336 -2.3284
 5490SOL    HW228104   0.996   4.032   3.660 -1.6609 -0.4501 -0.3974
 5491SOL     OW28105   1.712   4.028  11.909 -0.2770  0.1195  0.4616
 5491SOL    HW128106   1.677   4.106  11.866 -0.1432 -0.1806 -0.1793
 5491SOL    HW228107   1.793   4.064  11.944  0.2427 -0.4207 -0.2029
 5492SOL     OW28108   2.159   3.638   6.303  0.3328 -0.1802 -0.7479
 5492SOL    HW128109   2.215   3.649   6.225 -0.7600  2.4741 -1.1558
 5492SOL    HW228110   2.150   3.728   6.331  1.4789 -0.4137  0.3514
 5493SOL     OW28111   4.103   3.611  11.147 -0.3509  0.1863 -0.2202
 5493SOL    HW128112   4.064   3.614  11.235  0.0361 -3.8018  0.0863
 5493SOL    HW228113   4.184   3.657  11.169  0.0250 -0.4736 -0.2327
 5494SOL     OW28114   4.730   1.393   9.463  0.7493  0.0285 -0.6255
 5494SOL    HW128115   4.685   1.477   9.450  0.6693 -0.3959 -3.0093
 5494SOL    HW228116   0.085   1.416   9.448  0.6422 -0.2426 -1.6550
 5495SOL     OW28117   1.361   0.694   6.494 -0.0675 -1.0721  0.1462
 5495SOL    HW128118   1.339   0.700   6.587 -2.2611 -1.1764 -0.3508
 5495SOL    HW228119   1.349   0.602   6.468 -1.0490 -0.8863 -0.0613
 5496SOL     OW28120   2.187   0.578   3.655 -0.3687 -0.9293  0.3446
 5496SOL    HW128121   2.269   0.609   3.617  0.7668 -3.0061  1.0754
 5496SOL    HW228122   2.153   0.537   3.576 -2.7167 -3.7143  2.7877
 5497SOL     OW28123   0.277   2.856   4.649 -0.6753  0.1708 -0.0555
 5497SOL    HW128124   0.296   2.769   4.685  0.5971 -0.4464 -2.2296
 5497SOL    HW228125   0.187   2.865   4.679 -0.1088 -2.2292  2.4491
 5498SOL     OW28126   2.093   4.549   1.819  0.9303  0.5292 -0.2598
 5498SOL    HW128127   1.997   4.543   1.828  1.2240 -1.0414  1.8324
 5498SOL    HW228128   2.091   4.522   1.727 -1.5463 -0.0650 -0.0458
 5499SOL     OW28129   2.352   1.770   8.367  0.1000  0.0769  0.5848
 5499SOL    HW128130   2.380   1.842   8.311 -0.5021 -0.7116 -0.7183
 5499SOL    HW228131   2.298   1.815   8.432 -0.7185 -0.7644  0.4813
 5500SOL     OW28132   3.320   1.878   4.229 -0.3234 -0.3886  0.0779
 5500SOL    HW128133   3.375   1.871   4.151 -0.9389  1.6098 -0.5357
 5500SOL    HW228134   3.333   1.793   4.271  0.9406  0.2133  0.9121
 5501SOL     OW28135   0.022   1.207   3.034  0.0266 -0.2777  0.6290
 5501SOL    HW128136   4.726   1.127   3.076  2.2933 -1.0870  0.8131
 5501SOL    HW228137   4.683   1.235   2.981  0.4806  1.5064  0.9433
 5502SOL     OW28138   3.466   2.690   9.536 -0.0492  0.0608  0.2783
 5502SOL    HW128139   3.485   2.781   9.517 -0.7935 -0.1000 -1.2364
 5502SOL    HW228140   3.523   2.638   9.480 -0.3458  0.3681 -0.3045
 5503SOL     OW28141   4.046   2.418   7.223  0.3159 -0.1654  0.5038
 5503SOL    HW128142   4.095   2.409   7.141 -0.7253 -0.2856 -0.0980
 5503SOL    HW228143   3.961   2.388   7.191 -0.9566  0.5020  3.2567
 5504SOL     OW28144   2.173   2.186   5.118  0.1315 -0.2530 -0.2480
 5504SOL    HW128145   2.223   2.144   5.187 -0.3304 -1.4406 -0.6276
 5504SOL    HW228146   2.199   2.276   5.138  2.5873 -1.0266  0.0011
 5505SOL     OW28147   4.401   2.596   8.454 -0.3943  0.2235 -0.3521
 5505SOL    HW128148   4.437   2.643   8.530 -0.9394 -1.4820  0.9633
 5505SOL    HW228149   4.348   2.531   8.500  1.8738 -0.7053  0.9758
 5506SOL     OW28150   2.677   3.361  10.017  0.0622 -0.0679  0.0920
 5506SOL    HW128151   2.659   3.442  10.063 -0.6252 -0.1521 -0.0358
 5506SOL    HW228152   2.684   3.391   9.926 -0.1633  2.4899  0.9262
 5507SOL     OW28153   1.715   0.704   4.514  0.1162  0.6654 -0.0150
 5507SOL    HW128154   1.639   0.727   4.460  0.4799  0.7274 -0.5008
 5507SOL    HW228155   1.689   0.617   4.547  0.5373  1.0748  1.3718
 5508SOL     OW28156   1.043   0.754   3.514  0.1432  0.1181  0.0101
 5508SOL    HW128157   0.974   0.813   3.546 -0.1059 -0.7304  1.0467
 5508SOL    HW228158   0.991   0.704   3.451  0.2049  1.9057 -1.4535
 5509SOL     OW28159   0.904   4.544   0.327 -0.4297 -0.0770 -0.1546
 5509SOL    HW128160   0.939   4.619   0.279 -1.7113  1.2808  0.9996
 5509SOL    HW228161   0.825   4.515   0.282  0.2382 -1.2004 -0.5848
 5510SOL     OW28162   2.535   1.296  17.341 -0.0089 -0.5076 -0.5398
 5510SOL    HW128163   2.628   1.305  17.362 -0.2777  1.0671 -0.0405
 5510SOL    HW228164   2.536   1.263  17.251 -0.0109  0.7485 -0.9952
 5511SOL     OW28165   2.373   1.774  14.376  0.1074 -0.0231  0.3205
 5511SOL    HW128166   2.362   1.867  14.358 -2.7593 -0.1367  1.4449
 5511SOL    HW228167   2.364   1.753  14.283  2.2971 -0.1724  0.1333
 5512SOL     OW28168   4.328   3.610   8.284 -0.9415  0.3814  0.2213
 5512SOL    HW128169   4.291   3.675   8.224  0.0542  0.4217 -0.3484
 5512SOL    HW228170   4.264   3.545   8.310  1.2518 -1.1417  1.7426
 5513SOL     OW28171   4.671   4.513   8.780 -0.7157  0.0453  0.8348
 5513SOL    HW128172   4.612   4.493   8.707  0.9254 -1.7009 -0.0168
 5513SOL    HW228173   4.603   4.535   8.844  1.7656 -0.3190  3.6001
 5514SOL     OW28174   0.613   0.449   4.184 -0.3191  0.4740  0.2278
 5514SOL    HW128175   0.597   0.504   4.107 -1.0728  1.2810  0.9732
 5514SOL    HW228176   0.648   0.511   4.248 -0.8593  2.5615 -1.5158
 5515SOL     OW28177   2.284   4.168   3.872 -0.1717 -0.4297  0.6051
 5515SOL    HW128178   2.288   4.259   3.843  0.1136  0.3408  2.9880
 5515SOL    HW228179   2.247   4.169   3.961 -2.2964  1.3198 -0.2940
 5516SOL     OW28180   4.304   2.923   3.902  1.1405  0.2351 -0.0449
 5516SOL    HW128181   4.265   2.893   3.820 -0.3157 -2.5495  1.6653
 5516SOL    HW228182   4.267   3.011   3.908 -2.0568 -1.1276  0.5156
 5517SOL     OW28183   1.459   2.554  16.755 -0.8231 -0.2030  0.2646
 5517SOL    HW128184   1.367   2.553  16.780 -0.6200  0.5920  1.0228
 5517SOL    HW228185   1.462   2.508  16.670  1.2873 -1.5379  1.0666
 5518SOL     OW28186   3.368   2.295   9.507  0.1142 -0.1430  0.3629
 5518SOL    HW128187   3.353   2.325   9.417  1.4015  2.8053  1.1503
 5518SOL    HW228188   3.436   2.230   9.488 -1.0900 -0.6926 -2.0951
 5519SOL     OW28189   2.864   0.938   5.569  0.0035  0.5066 -0.0749
 5519SOL    HW128190   2.951   0.968   5.542  1.4684 -2.2270  1.5597
 5519SOL    HW228191   2.884   0.844   5.576 -1.1862  0.4871  3.0773
 5520SOL     OW28192   2.054   1.300   6.170 -0.6847 -0.2256  0.4554
 5520SOL    HW128193   2.047   1.361   6.097  2.7689  1.7071  1.7390
 5520SOL    HW228194   1.963   1.269   6.176 -0.9754  0.5918  0.1848
 5521SOL     OW28195   1.825   4.230  16.656  0.1554  0.0540 -0.4188
 5521SOL    HW128196   1.809   4.136  16.658 -0.8271  0.2504  1.1392
 5521SOL    HW228197   1.783   4.252  16.740  2.2821 -0.0777  0.6923
 5522SOL     OW28198   3.480   2.919   7.964  0.0118  0.1915  0.2109
 5522SOL    HW128199   3.470   2.937   8.057  1.5972 -1.4919  0.7020
 5522SOL    HW228200   3.542   2.846   7.970  0.5256  0.6531  0.4454
 5523SOL     OW28201   2.589   2.861   4.323 -0.4425  0.1127  0.2371
 5523SOL    HW128202   2.646   2.934   4.296 -1.1278  1.6786  3.0050
 5523SOL    HW228203   2.504   2.900   4.345 -0.1093  1.2800 -0.5337
 5524SOL     OW28204   1.643   4.706   6.325 -0.6405 -0.4088  0.0075
 5524SOL    HW128205   1.686   4.709   6.239 -1.2421 -0.5119 -0.3009
 5524SOL    HW228206   1.710   0.013   6.379  0.2451 -1.9922  0.1668
 5525SOL     OW28207   0.395   2.830   6.397 -0.4478 -0.0302  0.6633
 5525SOL    HW128208   0.365   2.921   6.399 -2.0345 -0.5270 -0.6985
 5525SOL    HW228209   0.310   2.788   6.383  0.0436 -0.3677 -1.2022
 5526SOL     OW28210   0.422   2.142  15.525 -0.4653 -0.2727  0.7296
 5526SOL    HW128211   0.398   2.227  15.563  0.4848  0.9277 -1.3122
 5526SOL    HW228212   0.473   2.176  15.451 -0.2645  1.5521  1.7066
 5527SOL     OW28213   3.281   3.085   4.621  0.1989 -0.0370 -0.0711
 5527SOL    HW128214   3.242   3.095   4.708 -1.5236  0.9055 -0.9494
 5527SOL    HW228215   3.266   3.176   4.596 -0.7461 -0.1832 -0.0346
 5528SOL     OW28216   3.784   3.931   1.554  0.7332 -0.1836  0.6616
 5528SOL    HW128217   3.738   3.872   1.614  1.8685 -2.1180 -0.3718
 5528SOL    HW228218   3.874   3.897   1.556  0.5294 -0.8702 -2.4731
 5529SOL     OW28219   2.065   2.162   4.432  0.2044 -0.0211 -0.1775
 5529SOL    HW128220   2.024   2.170   4.518 -2.3180 -1.2893 -1.2705
 5529SOL    HW228221   2.158   2.149   4.451  0.8640 -0.1042 -3.5711
 5530SOL     OW28222   1.628   1.756   0.694 -0.1677  0.2859 -0.1832
 5530SOL    HW128223   1.715   1.737   0.658 -0.1074 -0.6522  0.4679
 5530SOL    HW228224   1.581   1.710   0.624 -0.3910  1.6485 -0.9353
 5531SOL     OW28225   4.070   4.516   3.233  0.1954 -0.1491 -0.0058
 5531SOL    HW128226   4.130   4.513   3.159 -1.3860  1.0820 -1.3414
 5531SOL    HW228227   4.002   4.464   3.190 -1.2003  2.1983 -0.6256
 5532SOL     OW28228   4.371   2.964   7.073 -0.8191 -0.0345  0.4202
 5532SOL    HW128229   4.389   2.919   7.156  1.5990  1.3924  0.6648
 5532SOL    HW228230   4.410   3.046   7.103 -0.1301  0.8674 -2.8833
 5533SOL     OW28231   0.152   0.537   9.402  0.4887 -0.1354  1.0093
 5533SOL    HW128232   0.126   0.491   9.322  0.6939  1.6995 -0.1257
 5533SOL    HW228233   0.068   0.544   9.448 -0.2334  0.6375 -0.3957
 5534SOL     OW28234   1.233   3.831   3.340  0.0626  0.5173  0.2686
 5534SOL    HW128235   1.228   3.735   3.349 -2.2002  0.5623 -0.3457
 5534SOL    HW228236   1.217   3.847   3.247 -2.6583  0.5124  0.7315
 5535SOL     OW28237   2.664   1.815  15.474 -0.8904  0.7677  0.6989
 5535SOL    HW128238   2.754   1.844  15.457 -1.2135  2.7548  2.3737
 5535SOL    HW228239   2.609   1.843  15.402 -1.2287  0.4477  0.8340
 5536SOL     OW28240   1.590   3.461   4.577  0.4204  0.5916  0.6106
 5536SOL    HW128241   1.577   3.554   4.596 -3.2235  0.5328 -1.6288
 5536SOL    HW228242   1.618   3.430   4.663  0.2155 -0.4430  0.2971
 5537SOL     OW28243   2.071   1.875   3.143  0.1335  0.3224 -0.6614
 5537SOL    HW128244   2.086   1.858   3.050 -0.2548 -3.8215  0.0334
 5537SOL    HW228245   2.046   1.786   3.165  1.9439  0.2767  1.2617
 5538SOL     OW28246   2.005   4.367  11.205 -0.3621  0.0226  0.1759
 5538SOL    HW128247   1.924   4.390  11.250  0.5205  0.3202  1.6560
 5538SOL    HW228248   1.970   4.319  11.130  1.8358  2.3442 -2.3491
 5539SOL     OW28249   3.486   1.761  13.086 -0.1300 -0.2740 -0.3462
 5539SOL    HW128250   3.522   1.673  13.099  0.9194  0.2811  0.4655
 5539SOL    HW228251   3.559   1.818  13.110 -0.7965 -0.0392  1.1128
 5540SOL     OW28252   1.044   3.639   4.814  0.0588  0.4854  0.1407
 5540SOL    HW128253   1.106   3.614   4.746 -0.3176  0.2971 -0.1333
 5540SOL    HW228254   0.968   3.590   4.782  0.8922 -1.4884  1.1719
 5541SOL     OW28255   1.363   0.806   0.156  0.3318 -0.2309  0.0208
 5541SOL    HW128256   1.359   0.711   0.147 -2.4390 -0.2870  1.7906
 5541SOL    HW228257   1.352   0.838   0.066 -0.2443 -0.6449 -0.0509
 5542SOL     OW28258   4.248   1.241   6.995 -0.1320 -0.0163 -0.4731
 5542SOL    HW128259   4.260   1.315   7.056  0.1205 -0.2860 -0.1931
 5542SOL    HW228260   4.181   1.195   7.045  0.6234 -1.0660 -0.4241
 5543SOL     OW28261   1.821   0.804   0.115  0.3523 -0.4818  1.0285
 5543SOL    HW128262   1.858   0.717   0.126  0.1444 -0.3803  2.6388
 5543SOL    HW228263   1.825   0.800   0.020  1.2516  0.1743  1.0379
 5544SOL     OW28264   2.191   2.701   9.846  0.3772 -0.1800  0.2691
 5544SOL    HW128265   2.108   2.728   9.885  1.7926  0.3797  2.8974
 5544SOL    HW228266   2.247   2.761   9.894  0.6685 -0.9201  0.8508
 5545SOL     OW28267   1.947   4.520   0.164 -0.3272 -0.4997 -0.2359
 5545SOL    HW128268   1.952   4.449   0.228 -1.5061 -1.1132 -0.8370
 5545SOL    HW228269   1.873   4.488   0.113 -1.0104  2.8424 -1.3071
 5546SOL     OW28270   2.646   2.054   4.294  0.1295  0.3019  0.4076
 5546SOL    HW128271   2.696   2.119   4.245 -2.1006  2.1433  0.5947
 5546SOL    HW228272   2.604   2.108   4.360 -0.5257 -0.5889  0.7242
 5547SOL     OW28273   4.399   3.442   2.570  0.0030 -0.5128  0.1466
 5547SOL    HW128274   4.453   3.520   2.566  0.1642 -0.4893  2.5232
 5547SOL    HW228275   4.319   3.480   2.604  0.4115  0.9105 -0.4815
 5548SOL     OW28276   4.277   3.776   9.711  0.2347  0.0324  0.0167
 5548SOL    HW128277   4.371   3.792   9.708  0.2778 -0.2606 -0.1818
 5548SOL    HW228278   4.256   3.767   9.618  0.0441 -1.9029  0.2522
 5549SOL     OW28279   4.102   1.646   8.285 -0.2321  0.7088 -0.3796
 5549SOL    HW128280   4.110   1.552   8.268  0.7273  0.7412 -0.1457
 5549SOL    HW228281   4.194   1.672   8.297  0.0223  0.3118 -1.5083
 5550SOL     OW28282   2.517   1.939   5.447 -0.2726  0.3574 -0.1977
 5550SOL    HW128283   2.447   1.874   5.446 -1.6038  1.7924  0.0633
 5550SOL    HW228284   2.602   1.896   5.432 -0.0963  1.2106 -1.5564
 5551SOL     OW28285   3.997   0.071   5.496 -0.2082 -0.3226  0.5619
 5551SOL    HW128286   4.044   0.097   5.575 -0.9388  2.2756  0.1195
 5551SOL    HW228287   3.911   0.038   5.523  0.0222 -1.8071 -0.5212
 5552SOL     OW28288   0.948   2.815  11.195 -0.1141 -0.3628  0.1661
 5552SOL    HW128289   1.030   2.765  11.194  0.4573  0.6257 -2.3833
 5552SOL    HW228290   0.948   2.828  11.290  2.6442 -0.4985  0.1957
 5553SOL     OW28291   0.832   4.116   1.431 -0.2063  0.2483 -0.2646
 5553SOL    HW128292   0.913   4.152   1.467  0.0692  1.3830 -2.0085
 5553SOL    HW228293   0.775   4.115   1.508  0.5356 -3.1747  0.2529
 5554SOL     OW28294   2.176   4.098   7.087  0.1769 -0.6850  0.0189
 5554SOL    HW128295   2.166   4.188   7.057 -1.2084 -1.1929 -1.0471
 5554SOL    HW228296   2.109   4.109   7.154 -0.2701 -1.2278 -0.3386
 5555SOL     OW28297   3.329   4.554  10.469  0.1685  0.1001 -0.1401
 5555SOL    HW128298   3.366   4.469  10.444 -0.5140 -0.4528  0.7493
 5555SOL    HW228299   3.237   4.536  10.489  0.3306 -0.8970 -0.2638
 5556SOL     OW28300   3.137   4.134  10.896 -0.0365 -0.5275  0.1553
 5556SOL    HW128301   3.117   4.213  10.847 -0.9405  0.0217  1.4144
 5556SOL    HW228302   3.217   4.106  10.851  0.6215 -0.4678  1.2939
 5557SOL     OW28303   4.246   1.508   2.270  0.5044  0.3503 -0.1066
 5557SOL    HW128304   4.339   1.496   2.250  1.2018  1.7712  2.3066
 5557SOL    HW228305   4.220   1.559   2.193 -1.0294 -0.8567 -0.3799
 5558SOL     OW28306   0.757   3.778  12.986 -0.4554  0.1044 -0.5822
 5558SOL    HW128307   0.840   3.744  12.954  0.0860  2.6491 -1.8560
 5558SOL    HW228308   0.771   3.873  12.990  1.2045 -0.1743 -0.0274
 5559SOL     OW28309   4.462   3.679  14.631 -0.1162  0.2392  0.1573
 5559SOL    HW128310   4.473   3.738  14.706 -0.6041  1.0801 -0.4283
 5559SOL    HW228311   4.513   3.602  14.656 -0.7264  0.9315  3.6193
 5560SOL     OW28312   3.978   2.210   1.467 -0.0112 -0.0453 -0.2987
 5560SOL    HW128313   3.937   2.291   1.440  1.8639  1.4543  1.3155
 5560SOL    HW228314   3.907   2.149   1.484 -0.6461  0.3349 -1.6326
 5561SOL     OW28315   1.600   0.249  12.582 -0.4226  0.0205  0.3056
 5561SOL    HW128316   1.654   0.187  12.533  0.8910  2.8560 -1.8167
 5561SOL    HW228317   1.553   0.296  12.514 -0.5537 -0.8393 -0.2006
 5562SOL     OW28318   4.580   1.550  14.295  0.4212  0.0103  0.2066
 5562SOL    HW128319   4.611   1.520  14.210  2.2914 -0.4630  1.0501
 5562SOL    HW228320   4.615   1.491  14.362 -3.4074 -2.7711 -0.2275
 5563SOL     OW28321   2.451   0.565   3.229  0.3854  0.0617 -0.0808
 5563SOL    HW128322   2.518   0.536   3.167  2.4816  1.9672  1.3077
 5563SOL    HW228323   2.372   0.574   3.176  0.2489  2.3405  0.5361
 5564SOL     OW28324   0.528   0.739   3.777 -0.4447 -0.3793  0.0875
 5564SOL    HW128325   0.580   0.669   3.818 -0.3593 -0.5096 -0.2442
 5564SOL    HW228326   0.554   0.729   3.686  0.4783  3.2841 -0.0324
 5565SOL     OW28327   1.884   1.047   3.384 -0.1123 -0.0826 -0.2955
 5565SOL    HW128328   1.862   0.975   3.443  0.9048 -0.3076 -0.1949
 5565SOL    HW228329   1.801   1.094   3.391 -0.8170 -1.6005  1.5347
 5566SOL     OW28330   0.620   2.827   9.164  0.1752  0.3748  0.1525
 5566SOL    HW128331   0.592   2.797   9.250  1.4766  1.1735  0.8548
 5566SOL    HW228332   0.531   2.841   9.131 -0.8970 -0.2841  2.7481
 5567SOL     OW28333   1.492   1.019   0.789 -0.1167  0.8544 -0.5480
 5567SOL    HW128334   1.511   0.955   0.720 -0.6659 -1.6318  1.6335
 5567SOL    HW228335   1.554   1.091   0.788 -0.4197  1.1284  2.0894
 5568SOL     OW28336   1.611   2.693   1.836 -0.3907 -0.9890 -0.0852
 5568SOL    HW128337   1.523   2.677   1.871 -0.2704 -3.0930 -0.7278
 5568SOL    HW228338   1.594   2.777   1.793 -0.3384 -0.3309  1.1807
 5569SOL     OW28339   3.501   2.882   8.957 -0.3536 -0.0323 -0.4789
 5569SOL    HW128340   3.544   2.832   8.887 -3.4100 -1.9220 -0.9725
 5569SOL    HW228341   3.538   2.851   9.040  0.4605  1.3698 -0.3134
 5570SOL     OW28342   1.209   3.315   4.712  0.1375 -0.5293  0.7179
 5570SOL    HW128343   1.252   3.399   4.697  1.0385 -0.8979  1.2285
 5570SOL    HW228344   1.224   3.310   4.807  0.7596 -3.1047  0.4918
 5571SOL     OW28345   0.414   3.870  12.964 -0.1386  0.2770  0.6072
 5571SOL    HW128346   0.469   3.909  12.895 -0.1058  1.3747  1.2653
 5571SOL    HW228347   0.463   3.789  12.978  0.7530  0.7079 -0.0136
 5572SOL     OW28348   1.753   4.345   8.258  0.1411 -0.1381 -0.1091
 5572SOL    HW128349   1.695   4.386   8.322  1.2116 -0.3352  0.9870
 5572SOL    HW228350   1.711   4.351   8.172  0.9663 -1.8301 -0.6405
 5573SOL     OW28351   1.443   0.879   1.845 -0.1351 -0.5178 -0.0151
 5573SOL    HW128352   1.419   0.879   1.752 -3.1821 -1.4312  0.7685
 5573SOL    HW228353   1.468   0.787   1.851  0.7400 -0.4623 -2.7400
 5574SOL     OW28354   3.764   0.103   1.010  0.1551 -0.3917  0.4728
 5574SOL    HW128355   3.800   0.017   1.033 -1.5370 -0.9842  0.9065
 5574SOL    HW228356   3.691   0.110   1.071  0.7166  0.9644  0.9890
 5575SOL     OW28357   4.180   2.862   6.596 -0.2522  0.1392  0.0408
 5575SOL    HW128358   4.134   2.902   6.671 -2.2660 -5.2266  1.6920
 5575SOL    HW228359   4.104   2.829   6.548  1.4835 -3.4419 -0.2582
 5576SOL     OW28360   4.268   4.529   4.328  0.1333 -0.3137  0.8046
 5576SOL    HW128361   4.250   4.541   4.421 -0.4753  0.4206  0.5944
 5576SOL    HW228362   4.280   4.434   4.321 -0.4154 -0.2426 -1.0157
 5577SOL     OW28363   0.857   3.702   0.063  0.1197  0.2307 -0.0944
 5577SOL    HW128364   0.950   3.715   0.080  0.1630  0.5411 -0.5629
 5577SOL    HW228365   0.841   3.763  17.733  1.2896  0.9050  0.2245
 5578SOL     OW28366   2.011   4.638   9.222 -0.2489  0.2120 -1.0978
 5578SOL    HW128367   2.028   4.645   9.128 -0.1257  2.4021 -0.9016
 5578SOL    HW228368   2.093   4.669   9.261  0.1577 -1.6190 -0.4755
 5579SOL     OW28369   1.824   1.481  14.292  0.3931  0.1262 -0.6049
 5579SOL    HW128370   1.819   1.545  14.363 -3.2276  0.4318 -1.1452
 5579SOL    HW228371   1.915   1.486  14.264  1.2614 -0.2645  2.0883
 5580SOL     OW28372   0.279   4.678  17.717 -0.2387  0.4176  0.4383
 5580SOL    HW128373   0.211   0.005  17.738  0.0355  0.9665 -0.2952
 5580SOL    HW228374   0.343   4.733  17.671 -0.4500 -1.0936 -1.6626
 5581SOL     OW28375   0.364   3.732  16.232  0.0926 -0.2758 -0.4029
 5581SOL    HW128376   0.359   3.642  16.263  1.7497  0.6566  2.5686
 5581SOL    HW228377   0.296   3.742  16.166 -1.2442 -1.3458  0.8007
 5582SOL     OW28378   0.882   1.952   3.052  1.0259  0.1810 -0.3270
 5582SOL    HW128379   0.787   1.950   3.053  1.0461 -0.1991  1.0356
 5582SOL    HW228380   0.910   1.879   3.108 -1.4050 -0.3469  0.1806
 5583SOL     OW28381   0.977   3.277   2.593 -0.3033 -0.2450 -0.1720
 5583SOL    HW128382   1.008   3.224   2.520 -0.1047 -0.1854 -0.1296
 5583SOL    HW228383   1.053   3.327   2.620 -0.8337  1.3205 -1.5639
 5584SOL     OW28384   0.178   3.714   5.975 -0.0244  0.5273  0.1131
 5584SOL    HW128385   0.212   3.698   6.063  1.0764  4.4408  0.4282
 5584SOL    HW228386   0.231   3.651   5.926 -2.2661 -0.5650 -0.8924
 5585SOL     OW28387   3.487   1.375   0.808  0.2951  0.2900 -0.2324
 5585SOL    HW128388   3.434   1.370   0.887  2.7536 -2.0787  1.2806
 5585SOL    HW228389   3.525   1.462   0.818  0.2514  0.1152  1.4086
 5586SOL     OW28390   0.474   1.650   4.664 -0.6909 -0.0025  0.2065
 5586SOL    HW128391   0.381   1.626   4.657 -0.7282 -0.4158  2.1745
 5586SOL    HW228392   0.477   1.696   4.747  2.9562 -0.2313  0.1827
 5587SOL     OW28393   3.480   3.820  17.172 -0.4150 -0.1660  0.0948
 5587SOL    HW128394   3.495   3.911  17.147 -3.5014  0.2820 -0.1167
 5587SOL    HW228395   3.433   3.793  17.092 -1.5084 -1.7461  1.2719
 5588SOL     OW28396   0.996   4.594   0.743 -0.5513  0.1207 -0.2770
 5588SOL    HW128397   1.040   4.555   0.818 -2.0048  1.1430  1.0965
 5588SOL    HW228398   1.019   4.685   0.763 -0.6672  0.4302 -1.5581
 5589SOL     OW28399   0.871   3.347  10.349 -0.4668  0.2579 -0.6198
 5589SOL    HW128400   0.837   3.308  10.430  0.2109  1.0996  0.0789
 5589SOL    HW228401   0.962   3.377  10.359 -0.9971  2.0735 -1.2721
 5590SOL     OW28402   4.087   3.142  15.975 -0.1422  0.1705  0.3571
 5590SOL    HW128403   4.016   3.134  16.038  0.4874 -0.4785  0.9795
 5590SOL    HW228404   4.061   3.177  15.890 -2.9650  0.0220  1.1712
 5591SOL     OW28405   1.636   1.549   7.214  0.7058  0.3134  0.1579
 5591SOL    HW128406   1.604   1.637   7.233 -0.2831  0.5639 -2.6553
 5591SOL    HW228407   1.697   1.566   7.143  0.2224  1.3067 -0.0132
 5592SOL     OW28408   0.230   4.584   4.369  0.0830 -0.3305  0.1880
 5592SOL    HW128409   0.209   4.640   4.444 -1.8260 -2.0901  0.9564
 5592SOL    HW228410   0.319   4.613   4.348 -0.3906  1.0679  0.0427
 5593SOL     OW28411   4.385   0.100   8.765  0.5871  0.1394 -0.0873
 5593SOL    HW128412   4.307   0.144   8.799 -0.1214 -0.2710 -1.2107
 5593SOL    HW228413   4.448   0.120   8.835  0.5665  0.9326 -0.2920
 5594SOL     OW28414   2.635   1.107   7.329 -0.1628  0.3274  0.3553
 5594SOL    HW128415   2.660   1.041   7.394 -0.0936 -1.6383 -1.6485
 5594SOL    HW228416   2.549   1.073   7.304 -0.8862  0.6259  2.5015
 5595SOL     OW28417   0.886   0.561   1.612 -0.5013 -0.5993 -0.0328
 5595SOL    HW128418   0.816   0.602   1.561  2.1756  1.7480 -1.8089
 5595SOL    HW228419   0.872   0.466   1.615 -2.5724 -0.2625  0.9289
 5596SOL     OW28420   1.268   3.685   7.761  0.2385 -0.2665 -0.2741
 5596SOL    HW128421   1.309   3.600   7.779  0.2764 -0.3010 -0.5235
 5596SOL    HW228422   1.186   3.681   7.811  0.6715 -0.1979  0.4349
 5597SOL     OW28423   0.054   0.705   4.861  0.4458  0.0547 -0.1906
 5597SOL    HW128424   0.007   0.730   4.782 -0.5337  1.3295  0.7949
 5597SOL    HW228425   4.715   0.668   4.909  1.3349 -0.2574  0.9542
 5598SOL     OW28426   2.762   3.349  14.827 -0.2774  0.2283 -0.0968
 5598SOL    HW128427   2.793   3.389  14.908  0.5180  1.5911 -1.0888
 5598SOL    HW228428   2.798   3.407  14.760 -1.3016  0.7576 -0.1746
 5599SOL     OW28429   1.420   2.673  17.088 -0.1527 -0.4206  0.4833
 5599SOL    HW128430   1.332   2.695  17.057 -0.6069 -3.9546 -0.7172
 5599SOL    HW228431   1.460   2.748  17.133  0.3968  0.3609 -1.2973
 5600SOL     OW28432   0.874   0.895   6.829  0.3118 -0.3709  0.1262
 5600SOL    HW128433   0.937   0.843   6.779 -0.1919 -2.2410  1.4368
 5600SOL    HW228434   0.917   0.944   6.899 -0.6164 -0.8948  1.0725
 5601SOL     OW28435   3.369   2.940   2.750 -0.1717 -0.2412  0.2471
 5601SOL    HW128436   3.338   2.928   2.660  0.5743 -0.4843  0.0159
 5601SOL    HW228437   3.325   3.020   2.777  1.1274 -0.5829  3.3916
 5602SOL     OW28438   0.844   0.314   2.781  0.7953 -0.1309  0.0593
 5602SOL    HW128439   0.906   0.387   2.779  1.0004 -0.3505 -1.5884
 5602SOL    HW228440   0.875   0.268   2.702  0.3028 -1.3424  0.5712
 5603SOL     OW28441   0.967   1.024   4.896  0.1115 -0.0071 -0.1158
 5603SOL    HW128442   0.980   1.027   4.991 -0.6413 -3.8429  0.0932
 5603SOL    HW228443   1.056   0.995   4.873  0.6858  1.1411  0.6598
 5604SOL     OW28444   2.745   2.700   5.948  0.5332  0.4387 -0.7086
 5604SOL    HW128445   2.744   2.640   6.023  0.7187 -0.5950 -1.5321
 5604SOL    HW228446   2.743   2.636   5.878 -4.1107  1.9141 -1.8960
 5605SOL     OW28447   3.622   0.394   6.160 -0.1425  0.8658  0.7306
 5605SOL    HW128448   3.580   0.316   6.123 -2.2128  2.5601 -0.4784
 5605SOL    HW228449   3.699   0.373   6.213 -1.5338 -2.2230  1.5464
 5606SOL     OW28450   4.024   3.422   2.308 -0.2195  0.0733 -0.1025
 5606SOL    HW128451   4.004   3.333   2.277  1.4489 -0.2281 -0.3128
 5606SOL    HW228452   4.119   3.419   2.302 -0.3167 -0.1333 -1.4606
 5607SOL     OW28453   3.648   2.765   9.191 -0.7462 -0.0952  0.6240
 5607SOL    HW128454   3.600   2.685   9.210 -0.0565 -0.7928 -0.5920
 5607SOL    HW228455   3.681   2.786   9.279  2.0986  1.1372 -0.7271
 5608SOL     OW28456   3.531   0.177   6.798 -0.5910 -0.3704  0.3008
 5608SOL    HW128457   3.456   0.218   6.755 -1.4338 -1.3167  0.8851
 5608SOL    HW228458   3.550   0.108   6.735  0.4137 -0.3150  0.5395
 5609SOL     OW28459   0.340   0.341   7.624 -0.9194  0.3376  0.8292
 5609SOL    HW128460   0.393   0.297   7.691 -0.5350  0.0769  0.3533
 5609SOL    HW228461   0.411   0.396   7.590 -0.9705  0.4249  0.8628
 5610SOL     OW28462   2.594   3.387   3.379  0.1462  0.3425  0.3531
 5610SOL    HW128463   2.534   3.356   3.447 -2.5168  2.1729 -1.1651
 5610SOL    HW228464   2.573   3.479   3.365 -1.2396 -0.1832 -1.0717
 5611SOL     OW28465   0.292   3.233   7.263  0.2761 -0.1270 -0.0773
 5611SOL    HW128466   0.367   3.182   7.292  0.9849  0.8797 -0.1306
 5611SOL    HW228467   0.310   3.216   7.171  0.2121 -0.5320 -0.0155
 5612SOL     OW28468   1.812   0.592   2.453 -0.4437 -0.6691  0.0412
 5612SOL    HW128469   1.856   0.557   2.376 -0.1320  0.6072 -0.3611
 5612SOL    HW228470   1.860   0.674   2.463 -0.1912 -0.9247  0.9268
 5613SOL     OW28471   2.003   4.019   4.244  0.0345  0.3133  0.3281
 5613SOL    HW128472   1.938   3.949   4.240  0.2173  0.1007  1.0293
 5613SOL    HW228473   2.008   4.032   4.339  1.8449 -0.9100  0.4207
 5614SOL     OW28474   2.816   3.350   9.018 -0.5949  0.4159 -0.1101
 5614SOL    HW128475   2.817   3.407   8.941 -1.4609  2.2989  1.2703
 5614SOL    HW228476   2.856   3.413   9.079  1.1689 -2.2481  1.4896
 5615SOL     OW28477   3.684   1.786   1.842 -0.1209 -0.1581 -0.3007
 5615SOL    HW128478   3.746   1.721   1.807 -0.0486 -1.2049  1.7350
 5615SOL    HW228479   3.714   1.801   1.932  2.3657 -1.4677 -0.9064
 5616SOL     OW28480   2.220   0.960   6.323 -0.3232 -0.1276 -0.5325
 5616SOL    HW128481   2.253   0.874   6.349  0.3835 -0.2475 -1.8497
 5616SOL    HW228482   2.213   0.957   6.227 -0.6332  1.0376 -0.5489
 5617SOL     OW28483   2.734   3.115   2.012 -0.4432 -0.0570 -0.6478
 5617SOL    HW128484   2.661   3.053   2.009 -1.3518  1.0356 -0.7175
 5617SOL    HW228485   2.806   3.062   1.978  0.2149  0.7290 -0.4860
 5618SOL     OW28486   1.975   2.636   1.902  0.2672  0.1339 -0.0108
 5618SOL    HW128487   2.066   2.666   1.902 -0.0256  0.9994  0.6883
 5618SOL    HW228488   1.988   2.574   1.830 -1.0001 -1.1051  0.8294
 5619SOL     OW28489   0.642   0.708  12.542  0.2291 -0.1274  0.1447
 5619SOL    HW128490   0.669   0.619  12.567  0.1629 -0.1875  0.0072
 5619SOL    HW228491   0.651   0.761  12.621 -0.2915  0.7116 -0.3659
 5620SOL     OW28492   4.565   0.353   6.325  0.2392  0.7573 -0.5918
 5620SOL    HW128493   4.569   0.424   6.389 -0.8131  0.3217 -0.0440
 5620SOL    HW228494   4.493   0.376   6.267  0.1726 -1.4998 -1.4156
 5621SOL     OW28495   3.103   4.714   0.310  0.0216 -0.1302  0.0253
 5621SOL    HW128496   3.120   0.071   0.327 -0.0279 -0.0192 -0.5128
 5621SOL    HW228497   3.115   4.661   0.388 -0.3822  0.5128  0.5202
 5622SOL     OW28498   2.722   3.728  17.681  0.0769  0.2376 -0.4381
 5622SOL    HW128499   2.650   3.771  17.727  0.1874 -0.1266  0.0779
 5622SOL    HW228500   2.789   3.796  17.674  0.0669  0.1057 -1.9173
 5623SOL     OW28501   2.393   3.409  11.190 -0.0036 -0.2841  0.7348
 5623SOL    HW128502   2.447   3.435  11.265  0.5922 -0.7586  0.4688
 5623SOL    HW228503   2.309   3.396  11.234  0.9336 -1.9086  2.0325
 5624SOL     OW28504   4.664   4.368   1.063  0.2388 -0.2352  0.2248
 5624SOL    HW128505   4.586   4.384   1.116  0.4761  2.2207 -0.1725
 5624SOL    HW228506   4.726   4.390   1.133 -0.7616 -0.2039  1.1013
 5625SOL     OW28507   3.282   2.166   4.226  0.2360  0.0005  0.1189
 5625SOL    HW128508   3.289   2.070   4.226 -1.1960 -0.1155 -1.4357
 5625SOL    HW228509   3.245   2.196   4.143  0.8619  0.0707 -0.1349
 5626SOL     OW28510   1.956   2.133  13.012  0.3949 -0.2927 -0.2197
 5626SOL    HW128511   1.992   2.046  13.031  1.9684  0.1235 -1.2871
 5626SOL    HW228512   1.871   2.135  13.056  0.3432 -0.4682 -0.3140
 5627SOL     OW28513   3.910   2.955  14.292 -0.0533  0.1107 -0.2074
 5627SOL    HW128514   3.907   3.050  14.300  3.3365  0.0782  1.3909
 5627SOL    HW228515   3.993   2.942  14.337  0.2263  2.0632 -0.1346
 5628SOL     OW28516   3.452   4.302   6.288 -0.0035  0.5607  0.0258
 5628SOL    HW128517   3.524   4.245   6.315 -1.1204 -0.6661  0.4250
 5628SOL    HW228518   3.416   4.254   6.214 -1.2848  1.0470  0.3297
 5629SOL     OW28519   1.338   4.513   0.766 -0.6170 -0.4591  0.4038
 5629SOL    HW128520   1.306   4.537   0.679  0.6753  1.2710  0.4102
 5629SOL    HW228521   1.386   4.432   0.745 -0.5257 -0.1801 -0.4537
 5630SOL     OW28522   1.559   1.863   8.632  0.3197 -0.8709  0.3023
 5630SOL    HW128523   1.485   1.815   8.593  1.3086 -0.6395 -1.8702
 5630SOL    HW228524   1.519   1.908   8.706  0.2779 -0.7201  0.1861
 5631SOL     OW28525   2.007   2.218   6.924  0.1656 -0.4908  0.0739
 5631SOL    HW128526   1.963   2.138   6.896 -0.1213 -0.3684  0.1749
 5631SOL    HW228527   2.099   2.200   6.907  0.6392  0.5195  1.5049
 5632SOL     OW28528   1.552   0.284   2.325  0.2893  0.0001 -0.5689
 5632SOL    HW128529   1.524   0.375   2.335  2.8653  0.4888  2.3386
 5632SOL    HW228530   1.480   0.234   2.285 -1.6842  1.2492  1.4229
 5633SOL     OW28531   3.337   2.605   9.887 -0.2661  0.2751  0.0102
 5633SOL    HW128532   3.271   2.670   9.912 -2.0243 -1.9983  1.2128
 5633SOL    HW228533   3.304   2.523   9.923  0.3430  0.5127  1.1151
 5634SOL     OW28534   4.154   1.320  14.116 -0.0314  0.2447 -0.5162
 5634SOL    HW128535   4.236   1.274  14.097 -0.3015 -0.0037 -1.0685
 5634SOL    HW228536   4.143   1.314  14.211 -0.1984  2.8108 -0.3716
 5635SOL     OW28537   2.996   0.258   8.885  0.4089  0.0302  0.6056
 5635SOL    HW128538   3.075   0.254   8.830  0.9505  1.9179  1.2359
 5635SOL    HW228539   3.014   0.330   8.946  0.7213  0.9548 -0.5803
 5636SOL     OW28540   3.305   0.394   5.361  0.4038 -0.4049  0.1821
 5636SOL    HW128541   3.382   0.446   5.383  1.7844 -2.1553 -0.5212
 5636SOL    HW228542   3.341   0.336   5.294 -1.0824  0.7462 -1.6052
 5637SOL     OW28543   3.043   2.167   8.621  0.8840 -0.1599 -0.1333
 5637SOL    HW128544   2.989   2.216   8.683 -1.6513 -1.5404 -1.2855
 5637SOL    HW228545   3.005   2.197   8.539  0.5777  2.1457  0.8446
 5638SOL     OW28546   0.416   1.444   7.809  0.2834  0.0270 -0.5192
 5638SOL    HW128547   0.453   1.498   7.879 -1.4769  1.0745 -0.3819
 5638SOL    HW228548   0.372   1.508   7.752  2.3761  0.3701 -1.7470
 5639SOL     OW28549   0.125   3.914  14.993 -0.0916  1.1328 -0.0420
 5639SOL    HW128550   0.091   3.956  15.072  0.0271  0.3738  0.4086
 5639SOL    HW228551   0.195   3.866  15.038 -0.1149 -0.4934 -1.7327
 5640SOL     OW28552   3.412   1.331  17.668  0.5835 -0.2870  0.7416
 5640SOL    HW128553   3.401   1.251  17.719  0.7600 -0.8694 -0.1529
 5640SOL    HW228554   3.383   1.403  17.724 -1.6984 -0.4732 -0.1703
 5641SOL     OW28555   4.463   4.387   8.618  0.1990  0.0521 -1.0924
 5641SOL    HW128556   4.393   4.321   8.617  0.4427 -0.2220  0.2202
 5641SOL    HW228557   4.541   4.332   8.617  0.4429  0.3957 -0.8450
 5642SOL     OW28558   4.278   0.335  12.722  0.1047 -0.4725  0.6073
 5642SOL    HW128559   4.208   0.282  12.760  0.0340 -0.0781  1.0308
 5642SOL    HW228560   4.356   0.283  12.741  0.1066 -0.4885  0.5550
 5643SOL     OW28561   2.949   2.155   4.513 -0.0358 -0.0905 -0.1603
 5643SOL    HW128562   2.862   2.191   4.498 -0.6158 -1.3019  0.3077
 5643SOL    HW228563   2.924   2.067   4.543  3.0924 -1.2661 -0.9649
 5644SOL     OW28564   0.941   3.815   8.416  0.0361 -0.2550  0.1241
 5644SOL    HW128565   0.852   3.781   8.430  0.0058 -0.1939  0.0830
 5644SOL    HW228566   0.925   3.849   8.328 -0.8291  0.9106  0.7294
 5645SOL     OW28567   4.580   4.144   3.188  0.3277  0.8505 -0.5593
 5645SOL    HW128568   4.518   4.215   3.203 -1.6295 -1.5587  2.6740
 5645SOL    HW228569   4.645   4.171   3.254 -0.9483 -0.1403  1.0972
 5646SOL     OW28570   3.128   2.550   3.542 -0.0658 -0.3813 -0.7570
 5646SOL    HW128571   3.098   2.636   3.572 -0.2543 -1.2187  1.5249
 5646SOL    HW228572   3.095   2.553   3.452 -1.0341  1.7111 -0.3384
 5647SOL     OW28573   3.524   2.232  10.220  0.2255 -0.0804  0.1119
 5647SOL    HW128574   3.593   2.245  10.286 -0.1782  0.8309  0.3580
 5647SOL    HW228575   3.484   2.149  10.246  0.1545  0.0080  0.2835
 5648SOL     OW28576   4.028   4.339   6.466 -0.4769 -0.1238 -0.3721
 5648SOL    HW128577   4.025   4.253   6.508 -0.6465  0.2581  0.3942
 5648SOL    HW228578   4.106   4.336   6.411  0.2103 -1.3249  0.6378
 5649SOL     OW28579   0.023   3.805   5.774 -0.3458 -0.0038 -0.5274
 5649SOL    HW128580   0.046   3.774   5.861 -1.7897  0.5045  0.0164
 5649SOL    HW228581   0.108   3.795   5.730  0.7154  2.5380  0.9523
 5650SOL     OW28582   1.526   0.548   8.096 -0.2608  0.1895 -0.5812
 5650SOL    HW128583   1.533   0.460   8.059 -1.2711  0.5815 -1.6968
 5650SOL    HW228584   1.446   0.547   8.149 -0.3699 -0.6714 -0.7523
 5651SOL     OW28585   0.710   1.204   5.024  0.2538  0.3050  0.3121
 5651SOL    HW128586   0.711   1.289   4.979  0.0920  0.4976  0.6681
 5651SOL    HW228587   0.668   1.156   4.953  0.4931 -1.2732  1.2432
 5652SOL     OW28588   1.604   1.047   7.219 -0.1058 -0.0248 -0.3242
 5652SOL    HW128589   1.587   1.121   7.161  1.1177  0.0715 -0.5551
 5652SOL    HW228590   1.516   1.009   7.209 -0.3570  0.6680 -0.7524
 5653SOL     OW28591   1.460   3.753  10.354 -0.2430 -0.0431  0.0756
 5653SOL    HW128592   1.427   3.678  10.304  1.3017  0.8335 -2.2498
 5653SOL    HW228593   1.385   3.770  10.411 -0.4686 -0.9265  0.0520
 5654SOL     OW28594   1.936   2.932   4.519 -0.2024  0.1542 -0.0808
 5654SOL    HW128595   1.900   3.008   4.564  1.7818  0.3726  1.1610
 5654SOL    HW228596   1.885   2.856   4.549 -3.7204  3.2908  1.8138
 5655SOL     OW28597   0.026   1.893   7.765  0.1682  0.2578  0.0943
 5655SOL    HW128598   4.672   1.869   7.787  0.4885  0.3165  1.4607
 5655SOL    HW228599   0.071   1.866   7.845  2.7139 -1.3801 -1.8929
 5656SOL     OW28600   2.775   4.166   4.741 -0.4432  0.2711 -0.4293
 5656SOL    HW128601   2.815   4.215   4.813 -1.6305 -1.1536  1.2061
 5656SOL    HW228602   2.700   4.224   4.727 -1.1792 -0.4150  0.7105
 5657SOL     OW28603   1.417   1.168   4.515  0.5185 -0.2795  0.1687
 5657SOL    HW128604   1.508   1.164   4.484 -0.0766 -1.8832 -1.3868
 5657SOL    HW228605   1.381   1.228   4.449 -0.5187 -0.7884  0.2817
 5658SOL     OW28606   3.705   1.472  13.494 -0.3655 -0.6680  0.3241
 5658SOL    HW128607   3.789   1.511  13.520 -0.4657 -1.2079  1.4665
 5658SOL    HW228608   3.689   1.527  13.417  2.8739 -2.0457 -1.3437
 5659SOL     OW28609   4.087   1.596   8.929  0.2609  0.0965  0.2068
 5659SOL    HW128610   4.030   1.569   9.001  1.2020  0.9305  1.2616
 5659SOL    HW228611   4.014   1.631   8.878 -0.4799 -2.7899 -0.6845
 5660SOL     OW28612   0.706   3.775  13.836 -0.3370  0.3909 -0.2624
 5660SOL    HW128613   0.650   3.803  13.764 -1.3294  0.2408  0.4489
 5660SOL    HW228614   0.697   3.680  13.830 -3.0596  0.6233 -0.0198
 5661SOL     OW28615   0.590   0.441   2.062  0.0055 -0.0164 -0.0030
 5661SOL    HW128616   0.634   0.381   2.122  1.6518 -0.1232 -1.3121
 5661SOL    HW228617   0.658   0.448   1.996 -1.7968 -0.0486 -1.8633
 5662SOL     OW28618   1.878   4.407   6.472  0.5723  0.4854  0.3660
 5662SOL    HW128619   1.859   4.378   6.561 -1.0336 -2.2179 -0.8342
 5662SOL    HW228620   1.800   4.455   6.444  1.4386  1.8770  0.3293
 5663SOL     OW28621   0.233   1.597   4.823 -0.3697  0.5227  0.4076
 5663SOL    HW128622   0.305   1.536   4.840  0.9696  2.2247  0.8130
 5663SOL    HW228623   0.228   1.648   4.904  1.6619  5.7832 -2.7945
 5664SOL     OW28624   1.095   2.767   5.251 -0.9817  0.0122 -0.0543
 5664SOL    HW128625   1.128   2.713   5.180 -0.3340 -0.7357  0.8126
 5664SOL    HW228626   1.135   2.850   5.225 -1.5733  0.3320  0.0369
 5665SOL     OW28627   1.817   3.363  17.093  0.2822 -0.5469 -0.0486
 5665SOL    HW128628   1.872   3.428  17.049 -1.3835  1.2918  0.5917
 5665SOL    HW228629   1.789   3.309  17.019 -1.7697 -0.0300  0.3548
 5666SOL     OW28630   0.090   1.873   8.331  0.5611 -0.0518 -0.3989
 5666SOL    HW128631   0.006   1.902   8.367  0.1074 -1.3657 -0.4021
 5666SOL    HW228632   0.057   1.792   8.292 -0.8415  0.5436 -0.4513
 5667SOL     OW28633   3.545   2.385   2.156  0.8188  0.0725 -0.1222
 5667SOL    HW128634   3.451   2.367   2.158  0.6770  0.8600  0.4044
 5667SOL    HW228635   3.554   2.431   2.240  1.0287  1.6075 -0.9942
 5668SOL     OW28636   0.988   2.899   8.775 -0.1988  0.1249  0.6137
 5668SOL    HW128637   1.070   2.875   8.819  1.3078  0.0654 -2.2693
 5668SOL    HW228638   0.927   2.839   8.818 -2.2943  1.5506 -0.3966
 5669SOL     OW28639   2.020   0.163   4.498 -0.2024  0.7247  0.3246
 5669SOL    HW128640   1.989   0.179   4.409  1.1284  0.2580 -0.2318
 5669SOL    HW228641   2.044   0.252   4.524 -0.6723  0.3478  1.9855
 5670SOL     OW28642   3.596   2.388   1.573 -0.3154  0.3723 -0.4123
 5670SOL    HW128643   3.575   2.295   1.583 -0.0225  0.3482 -0.0213
 5670SOL    HW228644   3.632   2.398   1.661 -0.4256  2.9163 -0.6650
 5671SOL     OW28645   0.612   3.197  16.383 -0.0117 -0.3769 -0.6722
 5671SOL    HW128646   0.678   3.146  16.430 -3.0435 -1.4974  2.3566
 5671SOL    HW228647   0.535   3.165  16.429 -0.3916  1.6696  0.0982
 5672SOL     OW28648   3.217   4.437   3.392  0.5842 -0.4752 -0.6140
 5672SOL    HW128649   3.186   4.349   3.411  1.9617 -0.2038  2.7819
 5672SOL    HW228650   3.292   4.414   3.338 -0.4863 -0.7418 -1.9962
 5673SOL     OW28651   3.598   1.004   8.155  0.0277 -0.3847  0.1002
 5673SOL    HW128652   3.639   0.943   8.095  3.3329  1.7432  0.1753
 5673SOL    HW228653   3.569   0.948   8.227  1.1454  0.9876  1.6248
 5674SOL     OW28654   3.397   2.744   4.818  0.6723  0.5866 -0.3305
 5674SOL    HW128655   3.449   2.680   4.866 -0.0950  0.2950  0.1127
 5674SOL    HW228656   3.470   2.781   4.768  0.5686  1.1001 -0.1108
 5675SOL     OW28657   2.016   2.374   3.034 -0.1105 -0.7268  0.6735
 5675SOL    HW128658   1.978   2.442   3.090  0.5729 -1.8617  2.5006
 5675SOL    HW228659   2.066   2.327   3.101  1.4544  0.4293  0.3232
 5676SOL     OW28660   1.193   0.979   3.443 -0.1573 -0.0033 -0.3467
 5676SOL    HW128661   1.165   0.965   3.352 -1.3486 -0.1742  0.0436
 5676SOL    HW228662   1.141   0.914   3.490  1.6348 -0.5072  0.9397
 5677SOL     OW28663   0.688   3.948   2.403 -0.1798 -0.7668  0.0740
 5677SOL    HW128664   0.599   3.952   2.436 -1.4347 -0.6800 -3.3413
 5677SOL    HW228665   0.704   3.854   2.408 -0.1204 -0.7792 -0.3472
 5678SOL     OW28666   4.570   0.996  14.110  0.7409 -0.1239 -0.1764
 5678SOL    HW128667   4.647   0.965  14.157 -0.3356 -2.7346 -0.1503
 5678SOL    HW228668   4.594   1.088  14.116  1.5146 -0.3167 -0.3062
 5679SOL     OW28669   3.962   0.157   2.249  0.2154  0.4620  0.1285
 5679SOL    HW128670   4.056   0.143   2.252  0.4638  1.9877 -1.0163
 5679SOL    HW228671   3.951   0.230   2.310 -3.3869  0.4205 -0.4709
 5680SOL     OW28672   4.093   4.282   7.998 -0.2633 -0.1538  0.0415
 5680SOL    HW128673   4.088   4.307   8.090  0.2903 -1.8076  0.5024
 5680SOL    HW228674   4.187   4.284   7.982 -0.4415  2.0000 -0.7896
 5681SOL     OW28675   4.255   4.551   7.486  0.8761  0.3231 -0.4024
 5681SOL    HW128676   4.278   4.639   7.457 -0.0344  0.6792 -0.0346
 5681SOL    HW228677   4.336   4.503   7.470  1.4746  1.4528 -0.7454
 5682SOL     OW28678   0.159   3.243  16.306 -0.1158 -0.3535 -0.2179
 5682SOL    HW128679   0.080   3.254  16.359 -0.6337  0.1326 -1.0955
 5682SOL    HW228680   0.126   3.167  16.258  2.1585 -1.6564  0.2973
 5683SOL     OW28681   2.848   2.999   2.601  0.5365 -0.6891  0.3779
 5683SOL    HW128682   2.813   3.079   2.639  2.4594 -0.4311  1.6203
 5683SOL    HW228683   2.777   2.935   2.599 -1.2793  1.3454  0.9492
 5684SOL     OW28684   0.636   0.613   6.376 -0.4543 -0.1910  0.5509
 5684SOL    HW128685   0.652   0.586   6.466 -0.4467 -0.8543  0.3449
 5684SOL    HW228686   0.542   0.593   6.376 -0.6233  0.5486 -1.8969
 5685SOL     OW28687   2.791   1.609   5.697  0.2067  0.0037  0.8637
 5685SOL    HW128688   2.848   1.680   5.726  1.3874 -0.7100  0.2681
 5685SOL    HW228689   2.848   1.541   5.733  0.0943 -0.4739  0.1484
 5686SOL     OW28690   2.462   1.129  10.084 -0.5475 -0.0277 -0.8730
 5686SOL    HW128691   2.384   1.094  10.041 -1.4322  2.0925 -1.0107
 5686SOL    HW228692   2.513   1.058  10.123  1.1724  1.3894 -0.5026
 5687SOL     OW28693   1.900   1.214  15.179 -0.0041 -0.0580 -0.0639
 5687SOL    HW128694   1.975   1.257  15.139 -0.0000 -1.0416 -1.1251
 5687SOL    HW228695   1.917   1.242  15.269 -1.4790 -1.1663  0.5543
 5688SOL     OW28696   3.111   1.188   3.961  0.1148  0.4557  0.6745
 5688SOL    HW128697   3.176   1.141   4.015  2.0365 -0.0155 -2.0366
 5688SOL    HW228698   3.168   1.241   3.905 -0.3571  0.0294 -0.1968
 5689SOL     OW28699   0.918   0.789   4.710  0.1644  0.1007  0.0304
 5689SOL    HW128700   0.936   0.879   4.683 -1.0889 -0.1969 -1.7735
 5689SOL    HW228701   0.846   0.798   4.772 -1.6206 -2.2111 -1.7339
 5690SOL     OW28702   0.096   0.157   3.873 -0.2246 -0.2951  0.2879
 5690SOL    HW128703   0.064   0.113   3.952 -3.1865 -1.2339 -1.4648
 5690SOL    HW228704   0.059   0.095   3.810  0.5784  0.5603 -1.0301
 5691SOL     OW28705   2.336   4.488  17.032 -0.1785  0.2396 -0.4583
 5691SOL    HW128706   2.375   4.404  17.008 -0.0602  0.7828 -2.1891
 5691SOL    HW228707   2.289   4.459  17.110 -0.4959 -1.2330 -1.1985
 5692SOL     OW28708   1.677   2.612   4.222  0.0287  0.3673  0.4709
 5692SOL    HW128709   1.731   2.686   4.197 -0.9950  1.2692  0.9284
 5692SOL    HW228710   1.608   2.652   4.276 -0.4406  0.3278 -0.0994
 5693SOL     OW28711   0.356   3.805   8.013 -0.6786 -0.1680 -0.0835
 5693SOL    HW128712   0.431   3.756   8.048  0.9631  1.7109 -0.9656
 5693SOL    HW228713   0.297   3.733   7.990  0.9267 -1.6321  0.3043
 5694SOL     OW28714   2.885   0.881  10.173  0.0221 -0.4764  0.2508
 5694SOL    HW128715   2.882   0.826  10.251  0.0503  0.0557  0.6217
 5694SOL    HW228716   2.932   0.958  10.205 -0.9344  0.3483 -0.3412
 5695SOL     OW28717   4.271   1.998   6.957 -0.0546  1.1147  0.0632
 5695SOL    HW128718   4.195   2.056   6.969 -1.6796 -1.3795  1.6607
 5695SOL    HW228719   4.330   2.057   6.910  1.9549 -0.2370  0.9164
 5696SOL     OW28720   2.158   1.044   5.576 -0.1315  0.2403 -0.4447
 5696SOL    HW128721   2.175   1.007   5.489 -1.2703 -0.3125 -0.4225
 5696SOL    HW228722   2.236   1.030   5.631 -0.1466  2.2368  0.0826
 5697SOL     OW28723   2.227   2.435   9.477  0.1170  0.8844  0.5775
 5697SOL    HW128724   2.295   2.372   9.451 -1.4337 -0.3190 -0.5638
 5697SOL    HW228725   2.233   2.485   9.396 -2.7021 -1.1559 -0.8907
 5698SOL     OW28726   2.211   0.624  13.267 -0.0925  0.0504  0.4202
 5698SOL    HW128727   2.182   0.617  13.358  0.7257  0.2064  0.6927
 5698SOL    HW228728   2.146   0.678  13.223  1.1364  0.5178 -0.8529
 5699SOL     OW28729   0.237   4.592   3.071  0.8677  0.2097  0.1878
 5699SOL    HW128730   0.159   4.571   3.123 -0.1300 -1.7985 -2.1454
 5699SOL    HW228731   0.275   4.506   3.055  1.3521  0.4716 -0.0628
 5700SOL     OW28732   0.388   2.856   6.847 -0.0369  0.5724  0.1988
 5700SOL    HW128733   0.352   2.838   6.935  0.3407 -0.8370  0.0750
 5700SOL    HW228734   0.365   2.773   6.805 -2.3911  1.1155  0.4209
 5701SOL     OW28735   1.227   4.249  11.758  0.3997  0.4435  0.3624
 5701SOL    HW128736   1.246   4.271  11.849  2.4743  5.4980 -1.3247
 5701SOL    HW228737   1.186   4.331  11.731 -1.9344 -1.4693 -1.8896
 5702SOL     OW28738   2.898   3.043   9.507 -0.4427 -0.4400 -0.5233
 5702SOL    HW128739   2.863   3.011   9.424 -0.7841  0.3696 -0.6847
 5702SOL    HW228740   2.847   2.990   9.568 -3.0454 -0.1176 -2.4249
 5703SOL     OW28741   2.432   2.003  10.351 -0.8816 -0.1318 -0.0312
 5703SOL    HW128742   2.515   2.047  10.332 -0.9950 -0.6558 -1.6683
 5703SOL    HW228743   2.370   2.074  10.367  2.0081  1.8072  2.7190
 5704SOL     OW28744   2.065   1.441  16.219 -0.1482  0.7911  0.4721
 5704SOL    HW128745   2.070   1.523  16.170  0.1650 -0.4346 -1.5388
 5704SOL    HW228746   1.972   1.438  16.241  0.0340 -0.0801  1.1503
 5705SOL     OW28747   4.395   0.708  15.012  0.3076  0.5176  0.2750
 5705SOL    HW128748   4.374   0.640  15.076 -0.8421 -1.0359 -1.7653
 5705SOL    HW228749   4.490   0.708  15.004  0.3800 -2.6431  1.3038
 5706SOL     OW28750   1.782   0.665   2.807 -0.2805  0.0588 -0.4107
 5706SOL    HW128751   1.780   0.751   2.847 -0.9734 -0.3152  0.3629
 5706SOL    HW228752   1.687   0.654   2.810 -0.3521  0.5013 -1.1309
 5707SOL     OW28753   1.902   2.729   5.043  0.3126  0.2956 -0.2365
 5707SOL    HW128754   1.861   2.660   4.991  1.9251 -1.1330  0.3916
 5707SOL    HW228755   1.911   2.802   4.981 -0.6174 -0.1144 -0.8450
 5708SOL     OW28756   3.486   4.337   3.751  0.5006  0.2500 -0.6238
 5708SOL    HW128757   3.482   4.277   3.826 -1.0072 -0.7622 -1.5030
 5708SOL    HW228758   3.406   4.388   3.765 -1.2773 -2.0201 -2.4376
 5709SOL     OW28759   1.203   4.699   8.386  0.0881 -0.2509  0.3652
 5709SOL    HW128760   1.153   4.656   8.455 -0.8189 -0.8854 -0.6755
 5709SOL    HW228761   1.237   4.626   8.334  0.2946 -0.2372  0.4828
 5710SOL     OW28762   3.182   2.539   3.193  0.0597 -0.1235  0.9920
 5710SOL    HW128763   3.189   2.462   3.250 -0.9882 -0.7518  0.2801
 5710SOL    HW228764   3.266   2.586   3.190 -1.4883  2.5518 -0.4509
 5711SOL     OW28765   1.403   3.646   4.994  0.6208 -0.0706  0.2629
 5711SOL    HW128766   1.474   3.709   4.980  0.4733 -0.0446 -0.3394
 5711SOL    HW228767   1.424   3.618   5.084 -0.5018 -0.3726  0.4317
 5712SOL     OW28768   3.364   3.121  10.209  0.4306  0.1017 -0.1651
 5712SOL    HW128769   3.423   3.050  10.231 -1.8168 -1.5887  0.4040
 5712SOL    HW228770   3.302   3.108  10.281  1.4627  2.1349  1.1057
 5713SOL     OW28771   4.168   3.205   2.530 -0.2854  0.0412 -0.4399
 5713SOL    HW128772   4.215   3.250   2.460  1.0128  0.4380  0.7056
 5713SOL    HW228773   4.177   3.119   2.489  1.1999 -0.3556  0.7004
 5714SOL     OW28774   3.978   2.403   1.720  0.2591  0.0157  0.3867
 5714SOL    HW128775   3.979   2.309   1.699  0.6007  0.0716  0.1545
 5714SOL    HW228776   4.050   2.412   1.783  0.5639  1.1101 -0.1268
 5715SOL     OW28777   3.202   2.929   6.408 -0.4611 -0.7250 -0.0874
 5715SOL    HW128778   3.213   2.858   6.472  0.6351  0.2151  0.7662
 5715SOL    HW228779   3.111   2.929   6.379 -0.6311 -1.9236  0.4294
 5716SOL     OW28780   1.556   3.481  17.129 -0.3860  0.0973 -0.4529
 5716SOL    HW128781   1.599   3.561  17.097 -0.5854 -0.4032 -1.9947
 5716SOL    HW228782   1.627   3.417  17.125 -0.7383 -0.3081 -0.2037
 5717SOL     OW28783   0.928   1.737  16.010  0.2063  0.2446  0.6798
 5717SOL    HW128784   0.834   1.736  16.025  0.0540 -3.4909 -0.5590
 5717SOL    HW228785   0.928   1.714  15.918  1.5393  1.3175  0.4078
 5718SOL     OW28786   0.728   0.686   6.135 -0.0415  0.0103 -0.3847
 5718SOL    HW128787   0.696   0.647   6.216  2.1271 -0.0786  0.4343
 5718SOL    HW228788   0.776   0.761   6.169  1.5002 -1.3741  0.5258
 5719SOL     OW28789   0.099   0.393   8.339  0.6189 -0.1666 -0.0063
 5719SOL    HW128790   0.005   0.401   8.326  0.5964  0.1267  0.3505
 5719SOL    HW228791   0.113   0.341   8.418  0.7045  0.3323  0.3117
 5720SOL     OW28792   0.328   4.547  11.959  0.1779 -0.4983  0.6967
 5720SOL    HW128793   0.351   4.475  12.017 -2.2953 -0.7605  1.3739
 5720SOL    HW228794   0.319   4.614  12.028  0.7590 -0.9681  1.2320
 5721SOL     OW28795   4.548   1.522   5.660 -0.4803 -0.1816 -0.4830
 5721SOL    HW128796   4.517   1.601   5.616 -1.0570  0.7349  1.5382
 5721SOL    HW228797   4.622   1.490   5.609 -0.3173  0.4623 -0.6536
 5722SOL     OW28798   3.793   4.457  13.269 -0.3923 -0.0725 -0.5274
 5722SOL    HW128799   3.845   4.484  13.193 -0.4866 -0.8911 -0.8815
 5722SOL    HW228800   3.711   4.501  13.247 -1.1490 -1.1958  0.0833
 5723SOL     OW28801   2.765   0.876   9.319 -0.1106 -0.4386  0.0546
 5723SOL    HW128802   2.712   0.832   9.386 -0.2409 -0.1424  0.1431
 5723SOL    HW228803   2.853   0.863   9.353  0.4681  0.5751 -1.0917
 5724SOL     OW28804   3.953   4.081   7.087 -0.2671  0.3016 -0.2672
 5724SOL    HW128805   3.862   4.085   7.117  0.6811  3.9310  2.1847
 5724SOL    HW228806   3.946   4.140   7.012 -0.3417  1.3657  0.5702
 5725SOL     OW28807   4.086   2.815   9.651 -0.7200  0.6265 -0.7349
 5725SOL    HW128808   4.003   2.834   9.696  0.0564  0.3333  0.8080
 5725SOL    HW228809   4.140   2.788   9.724 -1.4082  1.7076  0.1825
 5726SOL     OW28810   2.025   4.008   3.594 -0.6872  0.3259  0.1645
 5726SOL    HW128811   1.960   4.020   3.663 -0.5208  0.2624  0.3321
 5726SOL    HW228812   1.975   3.984   3.516 -0.1031  0.4996 -0.2676
 5727SOL     OW28813   2.785   4.577   4.389 -0.0282 -0.1618  0.1499
 5727SOL    HW128814   2.871   4.535   4.388  0.4782  0.8538  2.0773
 5727SOL    HW228815   2.806   4.633   4.464 -1.8048  1.0415 -0.2468
 5728SOL     OW28816   3.205   4.707   2.969  0.1637 -0.5013 -0.4346
 5728SOL    HW128817   3.238   4.643   2.906  0.0211 -0.8161 -0.1862
 5728SOL    HW228818   3.190   0.048   2.914 -0.1253 -0.7656 -0.7296
 5729SOL     OW28819   2.705   1.631   9.602  0.4257  0.2641  0.1067
 5729SOL    HW128820   2.752   1.584   9.671 -4.0408 -2.3478  1.3857
 5729SOL    HW228821   2.692   1.559   9.541 -1.1078  0.0166  0.7043
 5730SOL     OW28822   1.759   1.929   5.799  0.4160 -0.1007 -0.2404
 5730SOL    HW128823   1.764   2.012   5.846 -0.4207  0.8389 -1.7837
 5730SOL    HW228824   1.800   1.943   5.713  1.3559  0.4485  0.3058
 5731SOL     OW28825   0.944   2.785   4.676  0.3144 -0.4311  0.2282
 5731SOL    HW128826   0.922   2.733   4.599 -0.0693  0.3218 -0.1696
 5731SOL    HW228827   0.858   2.823   4.698 -0.3202 -1.6070 -0.2581
 5732SOL     OW28828   2.202   0.691   0.508 -0.1995  0.0863  0.2358
 5732SOL    HW128829   2.239   0.608   0.478  0.6360  0.6108 -0.1773
 5732SOL    HW228830   2.240   0.710   0.593  0.3916 -2.8517  0.6370
 5733SOL     OW28831   2.367   2.781   7.489 -0.0572 -0.4737  0.6734
 5733SOL    HW128832   2.407   2.698   7.517  0.0183 -0.0168  1.8965
 5733SOL    HW228833   2.406   2.803   7.404  0.3468  0.3724  1.0820
 5734SOL     OW28834   2.362   3.166   9.282 -0.1185  0.2988 -0.1569
 5734SOL    HW128835   2.275   3.133   9.304  0.1645 -0.2326  0.1476
 5734SOL    HW228836   2.420   3.118   9.341  1.6949  1.4570 -0.9934
 5735SOL     OW28837   0.567   0.083  16.192  0.5516 -0.1017 -0.4771
 5735SOL    HW128838   0.549   0.130  16.273 -0.3203 -2.2626  0.5965
 5735SOL    HW228839   0.649   0.037  16.210  0.0105  0.8699  4.3873
 5736SOL     OW28840   4.583   0.418   2.019  0.1386  0.1481  0.4193
 5736SOL    HW128841   4.675   0.420   1.996 -0.2307  0.8490 -1.0211
 5736SOL    HW228842   4.583   0.434   2.113 -1.5311 -1.0583  0.6332
 5737SOL     OW28843   1.468   3.575   8.003  0.3201 -0.7449 -0.9340
 5737SOL    HW128844   1.476   3.611   7.915  1.8613  0.5596 -0.2723
 5737SOL    HW228845   1.436   3.486   7.989 -1.1651 -0.5962  1.3810
 5738SOL     OW28846   4.195   1.945   2.757  0.5274 -0.2319 -0.2047
 5738SOL    HW128847   4.205   1.956   2.852  0.0720  0.6966 -0.2608
 5738SOL    HW228848   4.134   1.873   2.738  0.2423  0.1245 -0.6431
 5739SOL     OW28849   4.558   1.442  14.616 -0.5524  1.0732  0.4691
 5739SOL    HW128850   4.529   1.522  14.659 -0.0425  1.1046  0.7549
 5739SOL    HW228851   4.649   1.455  14.589 -1.3858  2.1530 -1.8338
 5740SOL     OW28852   0.707   2.504   3.238  0.7520  0.1006  0.7622
 5740SOL    HW128853   0.783   2.523   3.183  0.0755 -0.7780 -0.4751
 5740SOL    HW228854   0.694   2.577   3.298 -2.8990 -1.0282  1.3151
 5741SOL     OW28855   2.567   0.163   9.380 -0.0891  0.1085  0.5371
 5741SOL    HW128856   2.518   0.162   9.462  1.1336  1.9430  1.2804
 5741SOL    HW228857   2.551   0.256   9.365 -1.3612 -0.6223 -2.7245
 5742SOL     OW28858   4.571   0.092   2.211  0.2578 -0.0595  0.3131
 5742SOL    HW128859   4.553   0.099   2.305 -0.6068 -0.7228  0.2024
 5742SOL    HW228860   4.634   0.162   2.197  0.4743 -0.4532 -0.6462
 5743SOL     OW28861   2.203   1.002  11.081  0.2390  0.3484 -0.3635
 5743SOL    HW128862   2.165   0.931  11.134 -1.0249  0.5707 -0.9486
 5743SOL    HW228863   2.145   1.075  11.105 -2.9239 -1.8228 -1.3398
 5744SOL     OW28864   1.664   4.567  17.203 -0.7645 -0.3279 -0.3705
 5744SOL    HW128865   1.649   4.651  17.158  0.4940  0.4979  0.7287
 5744SOL    HW228866   1.617   4.507  17.146  0.0946 -1.3977  0.0530
 5745SOL     OW28867   1.878   4.151   7.027  0.6102 -0.1902  0.3291
 5745SOL    HW128868   1.854   4.239   6.997  2.9313  0.6962  1.0103
 5745SOL    HW228869   1.928   4.179   7.104  1.5127  2.2816 -1.1519
 5746SOL     OW28870   3.267   2.698  16.976  0.6883  0.2870 -0.5465
 5746SOL    HW128871   3.248   2.673  17.066  2.1843 -0.9483 -0.5677
 5746SOL    HW228872   3.299   2.619  16.932  2.9111  1.1560 -0.4514
 5747SOL     OW28873   2.548   3.049   8.744  0.5880  0.3539  0.5239
 5747SOL    HW128874   2.506   3.129   8.775 -0.7371 -0.2793  0.3729
 5747SOL    HW228875   2.605   3.030   8.818  0.2201 -0.3916  0.6152
 5748SOL     OW28876   0.016   1.018  10.171  0.0844  0.1501  0.0959
 5748SOL    HW128877   0.040   1.055  10.256  1.3599 -1.2043  0.3288
 5748SOL    HW228878   0.076   0.943  10.175  0.0168 -0.0103 -1.8911
 5749SOL     OW28879   1.069   2.638  13.672  0.7591 -0.4529  0.1073
 5749SOL    HW128880   1.097   2.560  13.624  1.3149 -1.3693  1.9143
 5749SOL    HW228881   1.015   2.598  13.740  0.1480  0.6088  0.2340
 5750SOL     OW28882   2.675   2.245   2.799 -0.1179  0.4865 -0.4000
 5750SOL    HW128883   2.672   2.154   2.770  1.4481  0.7581 -1.4328
 5750SOL    HW228884   2.770   2.249   2.794 -0.0242  0.4614  1.2474
 5751SOL     OW28885   1.289   0.672   7.030  0.4728  0.1182  0.5384
 5751SOL    HW128886   1.311   0.616   7.104 -1.4377 -0.4694  0.6616
 5751SOL    HW228887   1.381   0.675   7.004 -0.3589  2.3707 -2.1753
 5752SOL     OW28888   0.397   3.198   2.423  0.0460  0.1133 -0.0431
 5752SOL    HW128889   0.386   3.291   2.442  0.3963  0.6318 -2.3934
 5752SOL    HW228890   0.354   3.168   2.503 -1.4314  0.8088 -0.5813
 5753SOL     OW28891   4.538   4.348   5.418  0.1564 -0.1367 -0.6362
 5753SOL    HW128892   4.450   4.341   5.455  0.5443  1.0841  0.5326
 5753SOL    HW228893   4.566   4.257   5.429 -1.6651 -0.6030  0.2205
 5754SOL     OW28894   3.826   2.522   9.818  0.8425 -0.1869 -0.0150
 5754SOL    HW128895   3.813   2.501   9.910 -0.7825  1.8136  0.2006
 5754SOL    HW228896   3.735   2.529   9.790  0.8069  0.5557  0.3089
 5755SOL     OW28897   1.422   3.159   4.556  0.4573  0.3495  0.4377
 5755SOL    HW128898   1.510   3.169   4.592 -0.4268  1.2821  2.3456
 5755SOL    HW228899   1.362   3.206   4.616 -0.1161 -0.3643  0.4213
 5756SOL     OW28900   1.779   1.066  11.080 -0.0882  0.1233 -0.1707
 5756SOL    HW128901   1.790   0.994  11.143 -1.3102  1.2954  1.3765
 5756SOL    HW228902   1.868   1.096  11.065  0.7235 -2.7351 -1.1270
 5757SOL     OW28903   3.530   0.723   8.740  0.2705  0.0011  0.4011
 5757SOL    HW128904   3.528   0.770   8.823  1.0104  0.4072  0.1839
 5757SOL    HW228905   3.466   0.762   8.681  1.2662  1.0190  0.0079
 5758SOL     OW28906   2.932   1.546   5.089  0.8169  0.0415 -0.4981
 5758SOL    HW128907   3.002   1.602   5.122 -1.0091  0.9260  1.8684
 5758SOL    HW228908   2.864   1.611   5.075 -1.7068 -1.8071  3.2613
 5759SOL     OW28909   3.417   2.813  11.760 -0.1948 -0.2337 -0.2479
 5759SOL    HW128910   3.464   2.896  11.762 -2.2271  0.9396 -1.4105
 5759SOL    HW228911   3.331   2.843  11.787  0.3834  0.6113  0.6459
 5760SOL     OW28912   2.410   4.243   3.373 -0.2725 -0.2351 -0.1683
 5760SOL    HW128913   2.492   4.257   3.421  1.0857 -1.7833 -2.0465
 5760SOL    HW228914   2.346   4.276   3.436  0.4327 -3.8608  2.4276
 5761SOL     OW28915   1.789   1.751  11.971  0.2249  0.1897  0.2354
 5761SOL    HW128916   1.883   1.769  11.975  0.1997  0.2965  0.3319
 5761SOL    HW228917   1.766   1.821  12.032 -1.2766  1.1604 -1.4342
 5762SOL     OW28918   3.855   4.727   3.181 -0.3978  0.0602  0.0743
 5762SOL    HW128919   3.871   0.086   3.175  1.5500 -0.4269 -2.6090
 5762SOL    HW228920   3.937   4.698   3.221 -1.1012 -1.2124  0.5799
 5763SOL     OW28921   2.503   4.081   5.953  0.1760  0.2583  0.1061
 5763SOL    HW128922   2.449   4.155   5.927  0.1521  0.6915  1.3621
 5763SOL    HW228923   2.463   4.067   6.039  1.3288  1.2291  0.8116
 5764SOL     OW28924   1.479   0.988   6.589 -0.2492  0.0562  0.4856
 5764SOL    HW128925   1.468   0.956   6.679  0.0133 -1.2973  0.0365
 5764SOL    HW228926   1.512   1.077   6.601 -2.0421  0.5914  1.4655
 5765SOL     OW28927   4.682   1.512   6.395 -0.4443  0.3690  0.2021
 5765SOL    HW128928   4.724   1.537   6.313  0.0806  1.2280  0.7376
 5765SOL    HW228929   4.605   1.463   6.364 -0.6962  0.5385  0.5620
 5766SOL     OW28930   2.600   3.639  15.867  0.2174  0.5711 -0.2721
 5766SOL    HW128931   2.506   3.657  15.876 -0.2220 -0.5820 -2.6401
 5766SOL    HW228932   2.593   3.561  15.813  0.8646  0.1719  0.2210
 5767SOL     OW28933   0.482   2.983   5.523 -0.1413 -0.5296  0.2942
 5767SOL    HW128934   0.422   3.019   5.457  0.8041  0.6880  0.1038
 5767SOL    HW228935   0.519   3.059   5.568 -1.2031 -0.6294  1.3363
 5768SOL     OW28936   2.494   3.806   8.548 -0.1518 -0.4744  0.8467
 5768SOL    HW128937   2.534   3.874   8.601  0.1501  0.8690 -1.0879
 5768SOL    HW228938   2.445   3.859   8.485  0.9684 -0.9952 -0.4653
 5769SOL     OW28939   2.122   2.042   7.727 -0.6673 -0.1065  0.0308
 5769SOL    HW128940   2.123   2.085   7.812 -1.5388  0.5455 -0.2926
 5769SOL    HW228941   2.053   1.978   7.746  0.3265 -1.9368 -2.4989
 5770SOL     OW28942   2.726   0.156   8.047 -0.0570  0.1381 -1.0098
 5770SOL    HW128943   2.697   0.110   8.126  0.2364  0.2076 -0.8625
 5770SOL    HW228944   2.664   0.228   8.040 -0.0106  0.3534  0.7119
 5771SOL     OW28945   3.287   0.141  16.407  0.0217  0.9923 -0.2492
 5771SOL    HW128946   3.348   0.215  16.402  0.2215  0.8415 -0.0033
 5771SOL    HW228947   3.344   0.065  16.416 -0.7631  0.3669 -0.6364
 5772SOL     OW28948   3.463   0.568   2.094  0.5755  0.4036  0.0170
 5772SOL    HW128949   3.455   0.493   2.153  0.3426 -0.7590 -1.4963
 5772SOL    HW228950   3.368   0.582   2.095  0.3933 -0.8741  1.0273
 5773SOL     OW28951   2.301   0.959  10.295  0.0994 -0.3720 -0.8174
 5773SOL    HW128952   2.207   0.970  10.309  0.5984  2.5039  0.2025
 5773SOL    HW228953   2.323   1.050  10.311 -0.3510 -0.1809 -1.2819
 5774SOL     OW28954   3.916   2.743   2.511 -0.1504 -1.0711  0.2453
 5774SOL    HW128955   3.902   2.656   2.474 -0.7921 -0.5912 -0.6121
 5774SOL    HW228956   3.835   2.794   2.508  1.1105  0.9873  1.2854
 5775SOL     OW28957   1.896   3.562   9.230 -1.1643  0.2355  0.6212
 5775SOL    HW128958   1.807   3.597   9.238 -1.7033 -1.5630  2.5734
 5775SOL    HW228959   1.915   3.544   9.322 -3.7942  2.3307  1.5776
 5776SOL     OW28960   2.252   0.450   5.654 -0.4793 -0.0472 -0.3509
 5776SOL    HW128961   2.247   0.546   5.654 -2.3518 -0.1595  1.2549
 5776SOL    HW228962   2.332   0.437   5.706 -0.5428  0.1788 -0.1935
 5777SOL     OW28963   2.117   3.885   3.874  0.9084  0.3790  0.5290
 5777SOL    HW128964   2.098   3.974   3.904 -2.9087 -0.5463  0.8856
 5777SOL    HW228965   2.105   3.912   3.783 -0.3324  1.6198  1.0473
 5778SOL     OW28966   3.907   3.122   7.688  0.0938 -0.3645  0.3011
 5778SOL    HW128967   3.935   3.103   7.778  0.8427 -0.2642  0.0850
 5778SOL    HW228968   3.817   3.089   7.697 -0.1366  0.5482  1.3383
 5779SOL     OW28969   0.587   1.045   7.043  0.2506 -0.2091 -0.3146
 5779SOL    HW128970   0.617   0.956   7.061 -1.7365 -1.6712 -4.0378
 5779SOL    HW228971   0.664   1.094   7.072 -0.6800  0.3768  1.1910
 5780SOL     OW28972   4.624   0.374  12.535 -0.0661  0.3187  0.6260
 5780SOL    HW128973   4.625   0.378  12.630 -1.0551 -1.7068  0.7364
 5780SOL    HW228974   4.696   0.316  12.509  1.6222  2.7051  0.0338
 5781SOL     OW28975   2.745   3.875  14.084 -0.1294  0.3396 -0.2364
 5781SOL    HW128976   2.760   3.969  14.078 -0.5923  0.2236 -3.0024
 5781SOL    HW228977   2.701   3.858  14.001  0.7341  0.8314 -0.7929
 5782SOL     OW28978   4.323   1.757  14.971  0.3182  0.0623 -0.4177
 5782SOL    HW128979   4.400   1.792  14.927  0.4025 -1.0928 -1.1854
 5782SOL    HW228980   4.262   1.831  14.974  2.0963  1.4795  0.3169
 5783SOL     OW28981   4.500   0.540   6.623 -0.1883  0.3058  0.2656
 5783SOL    HW128982   4.556   0.586   6.686  1.9743 -0.6307 -1.0052
 5783SOL    HW228983   4.468   0.470   6.680  1.1734 -0.7802 -0.3094
 5784SOL     OW28984   2.713   2.448   6.114  0.0624 -0.4479 -0.0049
 5784SOL    HW128985   2.661   2.372   6.087 -0.0400 -1.2249  2.3651
 5784SOL    HW228986   2.788   2.408   6.157  0.3748  0.2893  0.1328
 5785SOL     OW28987   4.428   1.362   6.434  0.3028  0.1409 -0.0773
 5785SOL    HW128988   4.471   1.291   6.482  0.2556 -1.9357 -3.1566
 5785SOL    HW228989   4.387   1.408   6.508 -0.2974 -3.3928  1.8025
 5786SOL     OW28990   3.228   0.976  16.874 -0.3085  0.0281  0.0932
 5786SOL    HW128991   3.272   1.052  16.913 -0.3442  0.5514 -0.8796
 5786SOL    HW228992   3.188   1.007  16.793  1.8626 -3.4524 -2.2796
 5787SOL     OW28993   0.262   2.569   5.164 -0.6640 -0.3074  0.0335
 5787SOL    HW128994   0.349   2.537   5.141  0.3691  0.6658  2.5374
 5787SOL    HW228995   0.216   2.512   5.102 -1.4895  1.8324 -1.2846
 5788SOL     OW28996   2.854   3.186   4.775 -0.3270  0.1039 -0.5052
 5788SOL    HW128997   2.786   3.118   4.768 -0.7549  0.6421 -1.6099
 5788SOL    HW228998   2.917   3.161   4.708  2.2107 -0.9176  2.2770
 5789SOL     OW28999   1.679   2.725   7.241 -0.1249  0.4197 -0.6211
 5789SOL    HW129000   1.617   2.797   7.248  0.1402  0.6583 -0.7596
 5789SOL    HW229001   1.753   2.777   7.211 -0.1625  0.4793 -0.6110
 5790SOL     OW29002   2.609   3.821   0.565 -0.4211 -0.1669  0.4077
 5790SOL    HW129003   2.576   3.741   0.526  0.9455 -0.7311  0.4140
 5790SOL    HW229004   2.648   3.861   0.488  0.8268 -2.0499  0.0822
 5791SOL     OW29005   3.431   2.543   3.497  0.0754 -0.1117 -0.0878
 5791SOL    HW129006   3.363   2.522   3.561 -0.0816  1.1221  0.1428
 5791SOL    HW229007   3.431   2.638   3.491 -1.9244 -0.0087  1.3889
 5792SOL     OW29008   1.190   2.250   4.561 -0.3377  0.6546  0.6008
 5792SOL    HW129009   1.234   2.251   4.645  2.1418 -1.9395 -0.6802
 5792SOL    HW229010   1.133   2.174   4.574  1.1965  0.2039  4.4732
 5793SOL     OW29011   1.791   4.091   1.926  0.8563 -0.5395 -0.2160
 5793SOL    HW129012   1.773   4.171   1.975 -0.0667 -2.1974  2.1249
 5793SOL    HW229013   1.703   4.077   1.890 -0.3328  0.7452  2.1797
 5794SOL     OW29014   3.003   3.419   6.063 -0.0360  0.0616 -0.4220
 5794SOL    HW129015   2.987   3.509   6.033  0.2708  1.0307  2.3200
 5794SOL    HW229016   3.030   3.396   5.974  1.9956 -1.3341  0.5566
 5795SOL     OW29017   3.366   1.369   2.399  0.1740  0.2763 -0.3153
 5795SOL    HW129018   3.388   1.276   2.408 -0.1783  0.2353  0.1315
 5795SOL    HW229019   3.453   1.408   2.401  0.0728  0.5215 -0.7555
 5796SOL     OW29020   1.807   3.324   6.502  0.2650 -0.2865  0.5632
 5796SOL    HW129021   1.841   3.300   6.589  0.5912 -0.8786  0.2718
 5796SOL    HW229022   1.848   3.410   6.489 -4.4805  1.6312 -1.3908
 5797SOL     OW29023   3.954   0.829   2.595  0.1601  0.2771  0.0369
 5797SOL    HW129024   3.865   0.803   2.572  0.7968 -0.2306 -1.8340
 5797SOL    HW229025   3.963   0.790   2.682  3.1592 -1.2225 -0.9179
 5798SOL     OW29026   0.815   4.477   0.575 -0.2480 -0.2042  0.0744
 5798SOL    HW129027   0.840   4.514   0.491 -1.0932  2.2622  0.9085
 5798SOL    HW229028   0.885   4.509   0.633 -2.2147  0.3684  2.1390
 5799SOL     OW29029   1.077   2.915   3.850  0.1877 -0.1795 -0.0048
 5799SOL    HW129030   1.121   2.842   3.806  0.3845  0.2534 -0.5159
 5799SOL    HW229031   1.141   2.947   3.913 -0.6228 -0.8492  1.1672
 5800SOL     OW29032   3.036   0.951   0.278 -0.1614 -0.2742 -0.3020
 5800SOL    HW129033   3.008   0.948   0.187  1.2930  0.0848 -0.7525
 5800SOL    HW229034   2.973   1.008   0.323  0.8511  0.8319 -0.2724
 5801SOL     OW29035   0.410   4.680   2.420 -0.4691 -0.2885 -0.0611
 5801SOL    HW129036   0.351   4.670   2.495  1.7780  1.0647  1.8915
 5801SOL    HW229037   0.480   4.720   2.473 -2.8426  2.3378  1.1345
 5802SOL     OW29038   2.337   1.890   1.801  0.1411 -0.0794  0.3332
 5802SOL    HW129039   2.285   1.821   1.759 -0.5015  1.1345 -0.8609
 5802SOL    HW229040   2.425   1.888   1.762 -0.4800  1.3267 -1.1371
 5803SOL     OW29041   3.804   4.136   8.312  0.0996 -0.3573 -0.0292
 5803SOL    HW129042   3.881   4.164   8.362 -0.8606  1.9685  0.1570
 5803SOL    HW229043   3.824   4.142   8.219 -2.6363  0.8319 -0.5659
 5804SOL     OW29044   0.521   2.122  15.939 -0.1791  0.6993 -0.1647
 5804SOL    HW129045   0.541   2.082  16.024 -2.1986 -0.1222 -0.0865
 5804SOL    HW229046   0.447   2.176  15.968 -1.8511 -1.6589 -0.0287
 5805SOL     OW29047   1.618   3.153  12.294 -0.1833  0.0100  0.4182
 5805SOL    HW129048   1.620   3.211  12.219 -0.3756 -0.7097 -0.1408
 5805SOL    HW229049   1.703   3.110  12.284  0.0553  0.0702  2.0841
 5806SOL     OW29050   4.247   0.030  10.489 -0.0570 -0.4241 -0.3208
 5806SOL    HW129051   4.312   0.051  10.557 -0.5276 -1.4957  0.4453
 5806SOL    HW229052   4.182   0.099  10.500 -1.6046 -2.2111  1.6905
 5807SOL     OW29053   0.638   2.850   4.617 -0.6864  0.1192  0.2296
 5807SOL    HW129054   0.631   2.856   4.521 -1.6354  1.4996  0.3778
 5807SOL    HW229055   0.625   2.756   4.626 -0.3984 -0.1957 -2.5091
 5808SOL     OW29056   4.234   1.068   3.542 -0.3108  0.3273 -0.1228
 5808SOL    HW129057   4.265   1.057   3.632 -1.8200 -3.8421 -0.0991
 5808SOL    HW229058   4.209   0.979   3.520  0.8439  0.0741 -0.3943
 5809SOL     OW29059   1.144   2.612   6.768 -0.0941  0.2720 -0.4131
 5809SOL    HW129060   1.238   2.615   6.786 -0.1672  0.9229 -0.1321
 5809SOL    HW229061   1.148   2.579   6.678 -1.2306 -2.3265  0.4764
 5810SOL     OW29062   1.647   3.325   2.242 -0.4948 -0.0852 -0.2870
 5810SOL    HW129063   1.614   3.382   2.173  0.2925  2.2400  1.2702
 5810SOL    HW229064   1.608   3.373   2.315  1.7217  2.2241 -0.6609
 5811SOL     OW29065   2.079   1.846  11.946 -0.0911  0.8917 -0.0121
 5811SOL    HW129066   2.165   1.833  11.907 -0.6210 -2.3219 -0.1314
 5811SOL    HW229067   2.061   1.939  11.930  0.7201  1.0366 -0.0758
 5812SOL     OW29068   3.211   3.479   7.796 -0.2538 -0.2418  0.0285
 5812SOL    HW129069   3.174   3.565   7.781 -1.5464 -0.7638  0.2533
 5812SOL    HW229070   3.250   3.489   7.883 -0.9047 -5.0996  0.8809
 5813SOL     OW29071   2.131   2.773   2.231 -0.4057  0.1078 -0.4193
 5813SOL    HW129072   2.043   2.777   2.268  0.0074 -1.0097  0.6902
 5813SOL    HW229073   2.146   2.679   2.236  0.9799  0.3667  0.3203
 5814SOL     OW29074   4.085   3.209   6.122  0.3928 -0.1585 -0.2521
 5814SOL    HW129075   4.063   3.193   6.214 -0.9747  0.4331 -0.4642
 5814SOL    HW229076   4.051   3.126   6.088 -0.6713  0.5815 -1.0050
 5815SOL     OW29077   2.584   0.068   1.988  0.2459  0.1840 -0.0379
 5815SOL    HW129078   2.547   4.716   1.999 -2.6835  1.0682 -2.8596
 5815SOL    HW229079   2.510   0.114   2.027 -0.9223 -2.2873  0.7007
 5816SOL     OW29080   0.091   0.732  10.656  0.1453  0.5680 -0.3252
 5816SOL    HW129081   0.081   0.655  10.713  1.0437  1.1166  0.5898
 5816SOL    HW229082   0.047   0.799  10.708 -1.7282  0.6517 -2.0316
 5817SOL     OW29083   0.309   0.166   6.242  0.3852 -0.2417 -0.4001
 5817SOL    HW129084   0.238   0.225   6.267  0.7401 -0.7537  1.8190
 5817SOL    HW229085   0.387   0.208   6.281 -2.0478  3.7338  0.2015
 5818SOL     OW29086   4.511   4.048  13.758  0.1418  0.3359 -0.6107
 5818SOL    HW129087   4.487   3.986  13.827 -2.3563  1.7623 -0.1830
 5818SOL    HW229088   4.550   3.971  13.716  0.1793 -1.1421  2.1266
 5819SOL     OW29089   4.648   2.831   5.224 -0.1561  0.3811  0.2833
 5819SOL    HW129090   4.576   2.796   5.277  0.1160 -1.2399 -0.4182
 5819SOL    HW229091   4.720   2.775   5.250 -0.6253  0.4954  1.8044
 5820SOL     OW29092   1.079   4.390   9.600  0.1210 -0.2988 -0.1462
 5820SOL    HW129093   1.063   4.400   9.506 -2.7850  0.5903  0.4356
 5820SOL    HW229094   0.991   4.396   9.637 -0.0018 -0.5265 -0.4031
 5821SOL     OW29095   2.392   4.630  10.006 -0.4253  0.0937  0.1080
 5821SOL    HW129096   2.339   4.708  10.024 -0.1560  0.0167  1.2073
 5821SOL    HW229097   2.336   4.562  10.041  0.0341 -0.4248 -0.1608
 5822SOL     OW29098   4.720   3.351   9.266  0.0594 -0.0123  0.0133
 5822SOL    HW129099   0.054   3.353   9.332  0.5436 -1.4022 -0.4576
 5822SOL    HW229100   4.648   3.306   9.310 -1.6944  3.9850  1.1719
 5823SOL     OW29101   2.365   1.397   4.469 -0.3268 -0.2273 -0.1284
 5823SOL    HW129102   2.402   1.418   4.383  0.3240  1.3614  0.5408
 5823SOL    HW229103   2.317   1.477   4.490  0.9098 -0.2888  2.9559
 5824SOL     OW29104   0.161   2.925  15.688  0.5651 -0.3098  0.3009
 5824SOL    HW129105   0.179   2.848  15.742 -2.8106 -0.4225  1.2106
 5824SOL    HW229106   0.105   2.974  15.748  1.4377  0.9800  0.0828
 5825SOL     OW29107   0.318   3.119   5.363  0.7934  0.0236  0.4441
 5825SOL    HW129108   0.256   3.077   5.303  0.2443  1.9867 -0.3651
 5825SOL    HW229109   0.299   3.211   5.344  1.8243  0.0287 -0.5263
 5826SOL     OW29110   3.582   1.645   5.846  0.7774  0.0716 -0.3061
 5826SOL    HW129111   3.649   1.584   5.818 -0.1886  0.0873 -2.6557
 5826SOL    HW229112   3.623   1.682   5.924  0.1426 -3.7335  1.7827
 5827SOL     OW29113   0.023   2.331   1.912  0.9139 -0.1938 -0.1656
 5827SOL    HW129114   4.716   2.273   1.975  2.8519  2.0840  3.2326
 5827SOL    HW229115   0.035   2.415   1.955  0.1063  0.9985 -2.2331
 5828SOL     OW29116   4.579   0.127   8.399 -0.4976 -0.4351 -0.2599
 5828SOL    HW129117   4.589   0.034   8.419 -0.3212 -0.5932 -1.0883
 5828SOL    HW229118   4.502   0.161   8.444 -1.0490 -1.3559 -0.5269
 5829SOL     OW29119   2.853   1.399   5.297  0.5835 -0.1089 -0.2868
 5829SOL    HW129120   2.880   1.437   5.214 -1.9875  2.8277  0.1952
 5829SOL    HW229121   2.818   1.480   5.335  2.9133  1.5484 -1.7149
 5830SOL     OW29122   2.243   1.976   7.988 -0.1674 -0.6766  0.1813
 5830SOL    HW129123   2.309   2.022   7.936 -2.0406  0.7603 -0.9509
 5830SOL    HW229124   2.261   2.001   8.079 -1.5977  0.8097  0.0597
 5831SOL     OW29125   4.579   2.153   7.161 -0.0614  0.0599 -0.0065
 5831SOL    HW129126   4.487   2.180   7.161 -0.7666 -2.2786 -0.5500
 5831SOL    HW229127   4.583   2.078   7.221 -1.1301  0.8374  1.0580
 5832SOL     OW29128   0.838   0.448   7.530 -0.1002 -0.5518  0.1719
 5832SOL    HW129129   0.920   0.406   7.555  0.2205 -0.4755 -0.7519
 5832SOL    HW229130   0.799   0.461   7.617 -1.2268 -2.2240 -0.0887
 5833SOL     OW29131   1.561   3.902   8.822 -0.0123  0.0980  0.7096
 5833SOL    HW129132   1.542   3.986   8.863 -2.9768  0.2070 -0.9027
 5833SOL    HW229133   1.655   3.906   8.805  0.1412  2.0094  2.0489
 5834SOL     OW29134   2.313   0.170   1.128  0.1915 -0.0362 -0.5827
 5834SOL    HW129135   2.257   0.110   1.177  2.5563 -1.5138  0.3334
 5834SOL    HW229136   2.268   0.254   1.132 -1.4089 -0.9765  0.8592
 5835SOL     OW29137   1.876   1.239   9.455 -0.0933  0.0368  0.2205
 5835SOL    HW129138   1.831   1.177   9.513 -1.0757  0.5287 -0.0113
 5835SOL    HW229139   1.916   1.304   9.513 -1.5701  0.2722  0.9760
 5836SOL     OW29140   0.299   3.489  16.341  0.3366 -0.3554 -0.0068
 5836SOL    HW129141   0.241   3.417  16.317  1.8715 -0.9505 -1.9431
 5836SOL    HW229142   0.268   3.504  16.430  3.5571 -2.1067  1.4369
 5837SOL     OW29143   2.824   1.401   4.517  0.2539  0.4318  0.2562
 5837SOL    HW129144   2.890   1.334   4.534  0.4771  1.0665  1.7958
 5837SOL    HW229145   2.742   1.360   4.544  0.6026 -0.8876 -0.6819
 5838SOL     OW29146   3.463   1.411   2.817 -0.8776 -0.0147  0.3224
 5838SOL    HW129147   3.501   1.481   2.870  1.7363 -1.0302 -0.2251
 5838SOL    HW229148   3.395   1.452   2.764  0.8594 -0.6925 -2.4513
 5839SOL     OW29149   0.107   1.029   5.549  0.4487 -0.6827  0.2865
 5839SOL    HW129150   0.020   0.993   5.532 -0.6650  1.9472  0.3349
 5839SOL    HW229151   0.160   0.951   5.563  0.5405 -0.8369 -0.9151
 5840SOL     OW29152   4.371   2.088   8.353 -0.1238 -0.0476  0.2268
 5840SOL    HW129153   4.305   2.101   8.284  0.1826  0.2545 -0.0072
 5840SOL    HW229154   4.443   2.135   8.312  0.8818 -1.3103  0.5493
 5841SOL     OW29155   1.521   0.643   2.886 -0.1752  0.6801  0.0936
 5841SOL    HW129156   1.434   0.612   2.912  0.3439 -0.5081  0.4159
 5841SOL    HW229157   1.560   0.655   2.973  0.8055 -0.9562 -0.1051
 5842SOL     OW29158   1.778   0.503  12.735 -0.5368  0.0316  0.0146
 5842SOL    HW129159   1.842   0.504  12.665  2.2511 -0.4073  2.5548
 5842SOL    HW229160   1.742   0.416  12.715 -0.1039  0.1120 -1.0968
 5843SOL     OW29161   2.527   3.148   6.263 -0.6217 -0.0702 -0.9072
 5843SOL    HW129162   2.459   3.099   6.308 -1.9994  1.7080 -1.0612
 5843SOL    HW229163   2.592   3.080   6.249 -1.5763 -1.0645 -0.4609
 5844SOL     OW29164   2.212   4.322   6.299 -0.1114 -0.3819 -0.4526
 5844SOL    HW129165   2.212   4.278   6.384  1.5866  1.9412  0.7579
 5844SOL    HW229166   2.292   4.293   6.254 -1.2506  0.4628 -3.0483
 5845SOL     OW29167   1.362   2.730   6.418  0.4355 -0.1740  0.1291
 5845SOL    HW129168   1.445   2.778   6.411  1.4854 -1.8601  0.9607
 5845SOL    HW229169   1.347   2.714   6.324  0.7645 -0.0395  0.0535
 5846SOL     OW29170   1.378   3.742  10.694 -0.3759  0.1460 -0.8215
 5846SOL    HW129171   1.353   3.694  10.773 -0.3771  0.6654 -0.5045
 5846SOL    HW229172   1.473   3.744  10.703 -0.3866  1.3445 -0.9909
 5847SOL     OW29173   2.651   3.616  10.117  0.2203 -0.0755 -0.2269
 5847SOL    HW129174   2.660   3.683  10.185  0.3270 -2.3951  2.0518
 5847SOL    HW229175   2.560   3.594  10.133  0.4461  1.0687  2.6704
 5848SOL     OW29176   1.762   3.168   2.023  0.3527  0.2896 -0.1703
 5848SOL    HW129177   1.718   3.204   2.100 -0.2376 -0.1009 -0.3348
 5848SOL    HW229178   1.706   3.189   1.948 -0.0917 -0.8099 -0.1444
 5849SOL     OW29179   4.577   4.468   4.297  0.2250  0.4822  0.4552
 5849SOL    HW129180   4.588   4.421   4.379  2.0773 -4.6526 -2.7335
 5849SOL    HW229181   4.666   4.477   4.262  0.2563 -1.4900  0.0206
 5850SOL     OW29182   1.153   4.414   3.141 -0.4129  0.9643  0.4942
 5850SOL    HW129183   1.209   4.437   3.067 -0.6046  2.2185  0.7359
 5850SOL    HW229184   1.169   4.320   3.154 -1.7132  0.7980  0.9140
 5851SOL     OW29185   3.413   4.651  14.065  0.2083  0.4963 -0.0396
 5851SOL    HW129186   3.445   4.731  14.106 -1.0760  0.4093  1.1290
 5851SOL    HW229187   3.494   4.600  14.053 -0.0670  0.1547 -0.4707
 5852SOL     OW29188   0.253   1.238   6.460 -0.1320  0.2400  0.0641
 5852SOL    HW129189   0.329   1.230   6.403 -0.2678  1.5955 -0.2905
 5852SOL    HW229190   0.198   1.175   6.413  0.0416  0.5302 -0.5300
 5853SOL     OW29191   1.512   0.625   0.851  0.1367  0.1916  0.6188
 5853SOL    HW129192   1.604   0.614   0.827  0.0161  2.1190 -0.6568
 5853SOL    HW229193   1.494   0.548   0.905  2.8293 -0.1918  0.9687
 5854SOL     OW29194   3.668   1.746   3.128  0.6228  0.3314 -0.3054
 5854SOL    HW129195   3.715   1.829   3.133  1.3101 -0.0063 -1.1126
 5854SOL    HW229196   3.704   1.710   3.047 -0.1561  0.4478 -0.7039
 5855SOL     OW29197   2.854   1.037  13.512 -0.0241 -0.0811  0.4820
 5855SOL    HW129198   2.845   1.083  13.596 -0.1483 -0.5070  0.7044
 5855SOL    HW229199   2.924   1.086  13.471  0.7299 -1.4950  0.0898
 5856SOL     OW29200   0.231   1.479   8.039  0.0633  0.7050  0.0875
 5856SOL    HW129201   0.323   1.469   8.065 -0.5971 -0.2884  2.0246
 5856SOL    HW229202   0.234   1.437   7.953 -3.5201  1.7259 -0.5413
 5857SOL     OW29203   3.339   1.694   6.902  0.3328  0.4027  0.5868
 5857SOL    HW129204   3.358   1.764   6.965  0.6450  0.3113  0.5950
 5857SOL    HW229205   3.369   1.733   6.819  0.6944  0.1448  0.5994
 5858SOL     OW29206   0.958   0.574   2.782  0.0931  0.0459 -0.4754
 5858SOL    HW129207   0.954   0.669   2.785  0.1100  0.0119  0.6939
 5858SOL    HW229208   1.053   0.564   2.797 -0.1439 -1.2616  0.1843
 5859SOL     OW29209   2.326   4.297   5.847  0.9063  0.5020 -0.3393
 5859SOL    HW129210   2.386   4.357   5.891 -0.4019  2.1985 -0.8771
 5859SOL    HW229211   2.243   4.309   5.893  1.0165  1.0046 -0.2771
 5860SOL     OW29212   3.332   1.916   1.530  0.1143  0.1695  0.0900
 5860SOL    HW129213   3.357   1.874   1.612  0.2000  0.4020  0.1825
 5860SOL    HW229214   3.347   1.844   1.470 -2.5080 -0.8568  0.6510
 5861SOL     OW29215   1.507   3.406   6.427 -0.3039  0.5189  0.1388
 5861SOL    HW129216   1.586   3.460   6.432  0.2934 -0.3025 -0.6029
 5861SOL    HW229217   1.468   3.424   6.513  1.2749 -0.8228  1.1337
 5862SOL     OW29218   1.750   1.035   0.364  0.3019  0.2326 -0.1305
 5862SOL    HW129219   1.690   1.103   0.395  1.2495  1.2326 -0.4692
 5862SOL    HW229220   1.715   1.029   0.275  0.1436 -2.4938  0.1342
 5863SOL     OW29221   1.880   2.177   7.401 -0.0562  0.0443 -0.4997
 5863SOL    HW129222   1.861   2.192   7.494 -1.7839  2.0614 -1.1673
 5863SOL    HW229223   1.794   2.149   7.368 -0.4718  0.0005  0.6068
 5864SOL     OW29224   3.423   0.142   9.126  0.3773  0.1973  0.3557
 5864SOL    HW129225   3.388   0.186   9.204  0.7027  0.8538  0.1319
 5864SOL    HW229226   3.353   0.089   9.087  0.5909  0.1466  0.0452
 5865SOL     OW29227   2.944   4.632   6.163  0.9666  0.4143  0.3053
 5865SOL    HW129228   2.997   4.642   6.242 -1.2342 -1.2344  1.9865
 5865SOL    HW229229   2.962   4.708   6.108  0.0925  0.3405 -0.0794
 5866SOL     OW29230   3.350   4.478  11.893  0.3389  0.0897 -0.5673
 5866SOL    HW129231   3.420   4.516  11.945 -0.6879 -0.3236  1.1211
 5866SOL    HW229232   3.404   4.451  11.819  1.8045  0.6390  0.3144
 5867SOL     OW29233   3.002   0.244   7.553  0.3462  0.4537 -0.0052
 5867SOL    HW129234   2.961   0.229   7.638  1.1910  2.5249  0.7618
 5867SOL    HW229235   2.928   0.233   7.493  0.7835 -0.2047 -0.4296
 5868SOL     OW29236   2.297   2.896  10.005 -0.2006  0.1519  0.7583
 5868SOL    HW129237   2.349   2.933  10.077  1.1921  1.3037 -0.8415
 5868SOL    HW229238   2.295   2.970   9.944 -3.4027 -0.2908  0.3372
 5869SOL     OW29239   1.747   1.680   6.124  0.1049  0.0251 -0.3518
 5869SOL    HW129240   1.793   1.763   6.110 -1.9621  1.0025 -1.4950
 5869SOL    HW229241   1.815   1.615   6.112 -0.1811 -0.2202 -0.6453
 5870SOL     OW29242   4.719   2.235  13.660  0.0629 -0.1244 -0.2599
 5870SOL    HW129243   4.653   2.188  13.710 -1.0840 -0.5599 -2.2062
 5870SOL    HW229244   4.669   2.302  13.614  2.7335 -0.4266 -3.5630
 5871SOL     OW29245   2.838   0.444  16.327  0.3937 -0.0203  0.4186
 5871SOL    HW129246   2.901   0.482  16.265  0.2423 -2.4234 -1.1997
 5871SOL    HW229247   2.887   0.444  16.409 -1.9072  1.0868  1.7837
 5872SOL     OW29248   1.878   3.789   4.146 -0.3975  0.1467  0.0499
 5872SOL    HW129249   1.840   3.789   4.058  2.9448  0.0423 -1.3905
 5872SOL    HW229250   1.810   3.729   4.179  0.0174 -0.1734  0.3233
 5873SOL     OW29251   1.204   2.237   1.943  0.5355 -0.1004 -0.3238
 5873SOL    HW129252   1.114   2.252   1.973 -0.0074 -0.8229 -1.5890
 5873SOL    HW229253   1.184   2.205   1.855  0.3729 -1.8675  0.3550
 5874SOL     OW29254   4.007   2.101   7.028  0.2673 -0.0322  0.1797
 5874SOL    HW129255   3.940   2.169   7.034  1.0938  0.6395  1.6612
 5874SOL    HW229256   3.964   2.054   6.957 -0.3742  2.5686 -1.1550
 5875SOL     OW29257   1.371   2.938   5.985 -0.4286  0.4552  0.2319
 5875SOL    HW129258   1.400   2.997   6.054 -0.4020  1.3692 -0.5715
 5875SOL    HW229259   1.277   2.955   5.979 -0.6728 -1.2245 -0.7204
 5876SOL     OW29260   0.058   2.094   2.416 -0.6799 -0.9365  0.3890
 5876SOL    HW129261   0.102   2.139   2.489 -0.6663 -2.9482  1.6243
 5876SOL    HW229262   0.053   2.162   2.349  1.6130  0.1253  1.2948
 5877SOL     OW29263   2.896   2.873  10.217 -0.3141  0.1187 -0.2099
 5877SOL    HW129264   2.895   2.961  10.254 -1.1180  0.4365 -0.9718
 5877SOL    HW229265   2.808   2.840  10.238  0.4258 -2.0579 -0.5262
 5878SOL     OW29266   4.306   4.273   6.067  0.1160 -0.3365 -0.3670
 5878SOL    HW129267   4.312   4.334   5.993 -0.3936  1.1194  0.7717
 5878SOL    HW229268   4.389   4.226   6.058 -0.3052 -0.9370 -1.0163
 5879SOL     OW29269   1.722   0.726   8.388 -0.5951 -0.0932  0.2909
 5879SOL    HW129270   1.734   0.725   8.293 -1.5878  1.8244  0.1450
 5879SOL    HW229271   1.692   0.637   8.405  0.1280 -0.3342  0.3224
 5880SOL     OW29272   0.430   2.653  10.768  0.0665 -0.0109 -0.1281
 5880SOL    HW129273   0.448   2.596  10.693 -2.4320  1.4625 -1.8462
 5880SOL    HW229274   0.388   2.591  10.827 -0.8843 -0.0799 -0.8668
 5881SOL     OW29275   2.103   1.789   0.734  0.2795 -0.2343 -0.4825
 5881SOL    HW129276   2.068   1.846   0.803 -1.3004 -0.9200 -0.7005
 5881SOL    HW229277   2.193   1.799   0.763 -0.7891  1.7728  2.1103
 5882SOL     OW29278   3.260   0.908   8.869 -0.1973  0.6205  0.0833
 5882SOL    HW129279   3.252   0.897   8.774 -0.1186 -0.3278  0.1895
 5882SOL    HW229280   3.203   0.834   8.890  3.1360 -1.2111  2.8359
 5883SOL     OW29281   4.294   1.094  11.150 -0.6965  0.0835 -0.0748
 5883SOL    HW129282   4.245   1.155  11.205 -2.2735  1.2618 -2.7515
 5883SOL    HW229283   4.268   1.120  11.061  0.2563 -0.7992 -0.6086
 5884SOL     OW29284   3.356   1.604   7.819  0.0566  0.3201 -0.1872
 5884SOL    HW129285   3.311   1.521   7.804 -0.6624  1.0262 -2.0589
 5884SOL    HW229286   3.278   1.654   7.846  0.7351  0.9344  0.6239
 5885SOL     OW29287   4.646   3.195   5.741 -0.6538 -0.1561  0.6041
 5885SOL    HW129288   4.660   3.258   5.812  1.3538  0.0681  0.0139
 5885SOL    HW229289   4.730   3.193   5.694 -0.5691  1.6196  0.6691
 5886SOL     OW29290   4.288   3.171  12.157  0.4291  0.0642  0.0436
 5886SOL    HW129291   4.329   3.084  12.151  0.7949  0.3644 -1.8496
 5886SOL    HW229292   4.208   3.167  12.105  0.5888  0.0898 -0.2070
 5887SOL     OW29293   1.357   3.159   1.557 -0.2123  0.4290  0.0927
 5887SOL    HW129294   1.421   3.105   1.511 -0.4543 -1.8951  2.4609
 5887SOL    HW229295   1.413   3.218   1.606 -1.2926  0.4095  1.3443
 5888SOL     OW29296   0.644   3.740   3.813 -0.0155 -0.0908  0.1779
 5888SOL    HW129297   0.549   3.741   3.803  0.2832  0.8627 -2.7073
 5888SOL    HW229298   0.671   3.784   3.732 -0.1640  0.7824  0.5946
 5889SOL     OW29299   0.451   3.349  13.578  0.9410 -0.2078  0.2441
 5889SOL    HW129300   0.359   3.322  13.570  1.0495 -0.3303 -0.6119
 5889SOL    HW229301   0.464   3.393  13.494 -0.0288  0.0006  0.2017
 5890SOL     OW29302   1.464   4.614   9.342 -0.4953  0.8394 -0.0323
 5890SOL    HW129303   1.533   4.595   9.405 -1.5143 -0.7761  0.6064
 5890SOL    HW229304   1.515   4.653   9.271  0.3133 -0.7477 -0.3477
 5891SOL     OW29305   0.604   3.348   2.045  0.2302 -0.3780 -0.0508
 5891SOL    HW129306   0.529   3.330   1.988 -0.7894  1.0110  0.8693
 5891SOL    HW229307   0.603   3.280   2.113 -1.2255 -1.3380 -1.0293
 5892SOL     OW29308   4.410   1.148   1.927 -0.1471 -0.0142 -0.5902
 5892SOL    HW129309   4.389   1.086   1.857 -1.2706 -0.7090  0.3687
 5892SOL    HW229310   4.459   1.090   1.986  1.4265  1.0202 -0.8879
 5893SOL     OW29311   0.205   4.499   4.891  0.0347 -0.1967  0.3181
 5893SOL    HW129312   0.229   4.591   4.879  1.1027 -0.6482 -0.9948
 5893SOL    HW229313   0.120   4.502   4.935  0.1378 -6.2626  0.9072
 5894SOL     OW29314   0.102   1.437   3.156 -0.0691 -0.5710  0.0026
 5894SOL    HW129315   0.073   1.405   3.241 -0.3214 -0.3130  0.0139
 5894SOL    HW229316   0.067   1.366   3.102 -0.7202  1.0894 -1.7713
 5895SOL     OW29317   3.701   4.521   8.040  0.0725  0.6309  0.5107
 5895SOL    HW129318   3.754   4.589   8.081  0.3182 -0.1689  1.5303
 5895SOL    HW229319   3.616   4.533   8.083  0.6732 -1.5037  2.2677
 5896SOL     OW29320   0.940   3.413   6.611  0.4019 -0.7973  0.6125
 5896SOL    HW129321   1.017   3.415   6.554 -0.5082 -0.0635 -0.5761
 5896SOL    HW229322   0.974   3.462   6.686  1.2969 -1.2046  0.4754
 5897SOL     OW29323   1.977   3.020   2.056  0.2842  0.1852  0.1681
 5897SOL    HW129324   1.897   3.068   2.035  0.8333  1.8270  1.7551
 5897SOL    HW229325   1.987   3.059   2.143  1.4920 -0.4525  0.3206
 5898SOL     OW29326   2.010   2.701   6.868  0.2690 -0.6194 -0.4472
 5898SOL    HW129327   2.075   2.767   6.844  0.6029 -0.8824 -0.2676
 5898SOL    HW229328   2.071   2.634   6.898 -1.2627 -0.8753  2.1548
 5899SOL     OW29329   0.418   0.860   0.958 -0.4711 -0.6675 -1.2212
 5899SOL    HW129330   0.338   0.848   0.907 -0.0291 -1.9082 -1.6361
 5899SOL    HW229331   0.455   0.936   0.913  0.3408 -0.9411 -1.0088
 5900SOL     OW29332   2.039   3.710   8.692  0.1025  0.0355  0.1893
 5900SOL    HW129333   2.053   3.784   8.633 -0.0199  0.0005  0.1162
 5900SOL    HW229334   2.118   3.722   8.745  0.9412 -1.8637 -0.6090
 5901SOL     OW29335   2.419   2.641   2.765 -0.1745  0.2616 -0.2931
 5901SOL    HW129336   2.335   2.597   2.774  0.2421 -0.2680  1.0001
 5901SOL    HW229337   2.462   2.564   2.727  0.2224  0.8360 -0.9913
 5902SOL     OW29338   1.387   4.271   1.105 -0.0189  0.4446 -0.5210
 5902SOL    HW129339   1.463   4.214   1.108 -0.7301 -0.4963 -0.4211
 5902SOL    HW229340   1.323   4.223   1.158  0.4746 -0.3867 -0.6866
 5903SOL     OW29341   0.873   3.731   7.544 -0.4953 -0.2228  0.6985
 5903SOL    HW129342   0.927   3.657   7.572  0.6392  0.2523 -0.2396
 5903SOL    HW229343   0.804   3.687   7.494 -1.3267  1.8609  0.0097
 5904SOL     OW29344   2.113   0.332   1.642  0.2893 -0.1910 -0.2356
 5904SOL    HW129345   2.100   0.378   1.726 -1.0283 -0.4077 -0.3193
 5904SOL    HW229346   2.035   0.278   1.634 -0.3956  0.8510 -0.6579
 5905SOL     OW29347   1.577   2.403   5.779 -0.2953 -0.2236  0.5201
 5905SOL    HW129348   1.537   2.488   5.764  0.7481  0.4379  1.5424
 5905SOL    HW229349   1.662   2.432   5.812  1.0613 -1.7266 -1.6353
 5906SOL     OW29350   2.626   0.105  16.650  0.2591 -0.6775  0.1721
 5906SOL    HW129351   2.627   0.019  16.692  1.6489 -0.0919  1.3170
 5906SOL    HW229352   2.661   0.079  16.565  0.5174  0.6529 -0.1276
 5907SOL     OW29353   3.508   0.460   3.381 -0.0581  0.8022 -0.6246
 5907SOL    HW129354   3.507   0.379   3.432 -0.8703  1.8884  1.0723
 5907SOL    HW229355   3.544   0.522   3.444 -0.1570  0.4486 -0.2177
 5908SOL     OW29356   1.852   0.171   2.722 -0.2551 -0.2037  0.0365
 5908SOL    HW129357   1.846   0.258   2.681 -3.2612  0.5332  2.0457
 5908SOL    HW229358   1.877   0.206   2.807 -1.8553 -1.3603  0.9890
 5909SOL     OW29359   1.534   2.012   8.405  0.3421 -0.3879 -0.3115
 5909SOL    HW129360   1.524   2.103   8.432  0.7509 -0.4102 -0.0853
 5909SOL    HW229361   1.556   1.977   8.491  1.8331 -0.3203 -0.6663
 5910SOL     OW29362   2.236   4.461   8.495 -0.0267  0.0759 -0.8229
 5910SOL    HW129363   2.268   4.484   8.582  0.1547 -1.1524 -0.5665
 5910SOL    HW229364   2.143   4.453   8.518  0.4280 -3.2241 -0.1393
 5911SOL     OW29365   1.435   0.033   6.129 -0.1508  0.2622 -0.2685
 5911SOL    HW129366   1.502   0.018   6.196  0.0233 -1.6148 -0.8854
 5911SOL    HW229367   1.408   4.680   6.107  1.8981 -0.0269 -1.5742
 5912SOL     OW29368   3.317   0.038   4.108  0.6429 -0.4910 -0.2246
 5912SOL    HW129369   3.300   0.064   4.017  0.0239 -0.4656 -0.0986
 5912SOL    HW229370   3.411   0.023   4.106  0.7742  0.2783 -0.0193
 5913SOL     OW29371   1.690   4.399   6.993 -0.4286  0.1344  0.3929
 5913SOL    HW129372   1.603   4.373   7.023 -1.3180  2.7435  0.0458
 5913SOL    HW229373   1.713   4.466   7.057  1.4501  0.0200 -0.1506
 5914SOL     OW29374   4.283   1.380   3.240  0.2173  0.1532 -0.1985
 5914SOL    HW129375   4.308   1.471   3.227 -0.8355  0.4966  0.1175
 5914SOL    HW229376   4.188   1.390   3.250  0.1852  1.3755 -1.7067
 5915SOL     OW29377   1.095   1.654  15.534 -0.7171  0.0124  0.0559
 5915SOL    HW129378   1.168   1.594  15.549 -0.1546  1.0452  1.5880
 5915SOL    HW229379   1.098   1.669  15.440  0.4962  0.4416  0.1535
 5916SOL     OW29380   3.310   4.381   8.648  0.3966 -0.6893 -0.4406
 5916SOL    HW129381   3.384   4.352   8.702 -0.9732  2.1075  2.9285
 5916SOL    HW229382   3.251   4.307   8.662 -1.2200  0.3492 -1.7743
 5917SOL     OW29383   2.627   1.383   2.534  0.0387  0.2264  0.3747
 5917SOL    HW129384   2.685   1.394   2.609  0.6633 -1.3017  0.1156
 5917SOL    HW229385   2.678   1.319   2.485  1.1636  2.3941 -1.3007
 5918SOL     OW29386   3.419   3.039   1.025 -0.3066  0.0963 -0.1777
 5918SOL    HW129387   3.449   3.126   1.048  0.4007  0.4649 -2.4311
 5918SOL    HW229388   3.481   3.018   0.954 -0.4572 -0.6541 -0.0920
 5919SOL     OW29389   1.509   1.947   8.142 -0.4045 -0.1550  1.0757
 5919SOL    HW129390   1.525   1.957   8.236 -3.4356 -0.2966  1.6207
 5919SOL    HW229391   1.453   1.870   8.139 -2.0274  1.0054  1.5311
 5920SOL     OW29392   2.004   2.615   3.179  0.1539  0.4453  0.0555
 5920SOL    HW129393   1.924   2.668   3.170  0.4743  0.6290 -1.7830
 5920SOL    HW229394   2.050   2.662   3.248 -0.6711  1.7364 -0.2666
 5921SOL     OW29395   3.329   1.229  16.114 -0.3239 -0.3383 -0.4340
 5921SOL    HW129396   3.308   1.276  16.033 -0.3345  0.5012  0.0468
 5921SOL    HW229397   3.376   1.159  16.069 -1.4056 -1.0298 -0.4778
 5922SOL     OW29398   1.194   0.806   8.569 -0.0184 -0.6499  0.5394
 5922SOL    HW129399   1.288   0.820   8.558 -0.2171 -1.2799 -2.0540
 5922SOL    HW229400   1.157   0.831   8.484 -2.2229 -0.9273  1.4235
 5923SOL     OW29401   0.298   1.144   7.147  0.2266 -0.2897 -0.0618
 5923SOL    HW129402   0.205   1.136   7.128  0.6940 -0.5511 -2.1901
 5923SOL    HW229403   0.319   1.231   7.113 -1.8400 -0.4338 -1.7100
 5924SOL     OW29404   1.639   1.700   5.473  0.0626 -0.2098  0.5479
 5924SOL    HW129405   1.731   1.724   5.480  0.2681 -0.9461  0.3406
 5924SOL    HW229406   1.645   1.630   5.539 -1.6349 -0.6763  0.2194
 5925SOL     OW29407   2.446   0.495  15.460 -0.1110 -0.2577 -0.1197
 5925SOL    HW129408   2.371   0.462  15.509 -0.2373  0.3623  0.1037
 5925SOL    HW229409   2.403   0.527  15.380  2.1129  0.3287 -1.0783
 5926SOL     OW29410   2.508   4.708   6.876 -0.1566  0.4283 -0.0622
 5926SOL    HW129411   2.436   0.018   6.920 -0.5795 -0.5592  0.2885
 5926SOL    HW229412   2.454   4.648   6.823  0.6963 -1.0169  0.6912
 5927SOL     OW29413   0.759   3.875   3.603  0.3517  0.2359 -0.1932
 5927SOL    HW129414   0.694   3.945   3.602 -0.0627 -0.1726 -1.6219
 5927SOL    HW229415   0.844   3.913   3.581 -0.0899  1.3502  0.0179
 5928SOL     OW29416   2.605   2.450  10.794 -0.0821  0.1145 -0.3557
 5928SOL    HW129417   2.577   2.423  10.707  0.9934 -1.8904 -0.1015
 5928SOL    HW229418   2.539   2.515  10.816  0.9753  0.6502  1.2666
 5929SOL     OW29419   1.755   1.944  12.168 -0.2964  0.4795 -0.1222
 5929SOL    HW129420   1.674   1.984  12.198 -0.1871  0.8165 -0.2784
 5929SOL    HW229421   1.820   2.011  12.188  0.4092  0.1985 -1.4979
 5930SOL     OW29422   0.103   0.369  12.322  0.0639 -0.3378  0.0349
 5930SOL    HW129423   0.130   0.393  12.411 -0.3905  1.6948 -0.3721
 5930SOL    HW229424   0.178   0.313  12.301  0.1086  0.1307 -1.0490
 5931SOL     OW29425   1.157   0.804   0.830 -0.1874 -0.2128  0.2606
 5931SOL    HW129426   1.075   0.795   0.878  0.3441  0.1284  1.2546
 5931SOL    HW229427   1.160   0.896   0.802 -0.3270 -1.1013 -2.6738
 5932SOL     OW29428   2.490   2.995   2.376  0.7912 -0.2195 -0.3343
 5932SOL    HW129429   2.534   3.077   2.400  1.2766 -0.4921 -0.2885
 5932SOL    HW229430   2.462   2.954   2.457 -0.7655  0.3863 -0.5677
 5933SOL     OW29431   2.594   3.932  14.688 -0.2336  1.2179  0.4584
 5933SOL    HW129432   2.630   4.019  14.703 -2.1408  1.8464  1.4457
 5933SOL    HW229433   2.629   3.903  14.604 -1.0021  3.0524 -0.4995
 5934SOL     OW29434   2.584   4.252   2.911 -0.8280  0.5983  0.3055
 5934SOL    HW129435   2.530   4.189   2.862  1.7644 -1.5711  0.2470
 5934SOL    HW229436   2.546   4.257   2.998 -2.0622 -0.4066 -0.1678
 5935SOL     OW29437   2.717   2.944   8.064 -0.4905 -0.2392 -0.8537
 5935SOL    HW129438   2.676   2.918   8.146  2.6122  0.0972  0.8088
 5935SOL    HW229439   2.636   2.954   8.013 -1.1459 -0.2029  0.1971
 5936SOL     OW29440   1.671   3.977   9.222 -0.7494  0.5168  0.4909
 5936SOL    HW129441   1.622   3.998   9.143  0.2866  0.9328 -0.0475
 5936SOL    HW229442   1.600   3.954   9.281 -0.0396  1.8529  1.8777
 5937SOL     OW29443   2.004   2.073  15.283 -0.3141  0.8413 -0.1249
 5937SOL    HW129444   1.918   2.059  15.322  0.1305 -1.7592 -0.0777
 5937SOL    HW229445   2.002   2.166  15.259  0.2700  1.1931  1.2064
 5938SOL     OW29446   2.684   3.374   9.359  0.7644 -0.4425  0.2137
 5938SOL    HW129447   2.612   3.435   9.342  0.3527 -1.2054 -0.7917
 5938SOL    HW229448   2.757   3.411   9.310  0.4231  0.1950  0.1875
 5939SOL     OW29449   2.360   2.993   4.364  0.4296  0.2096  0.2466
 5939SOL    HW129450   2.280   2.940   4.359  1.1085 -0.8379  0.6014
 5939SOL    HW229451   2.347   3.015   4.271 -0.1058 -1.2695 -0.0231
 5940SOL     OW29452   0.493   2.358   5.349  0.5673  0.0604 -0.1843
 5940SOL    HW129453   0.555   2.413   5.300  0.0805  1.2258  0.4968
 5940SOL    HW229454   0.530   2.354   5.438  3.9149  0.8682 -1.5521
 5941SOL     OW29455   1.981   2.489  14.357  0.4979  0.6577  0.3136
 5941SOL    HW129456   1.938   2.409  14.326 -1.3212  1.0330  1.8866
 5941SOL    HW229457   1.953   2.539  14.281  3.4254  1.2670 -0.3605
 5942SOL     OW29458   1.795   3.306   3.993 -0.0416 -0.0743 -0.3772
 5942SOL    HW129459   1.854   3.367   4.036  0.2647 -0.2576 -0.5382
 5942SOL    HW229460   1.832   3.313   3.905 -0.0299 -1.5029 -0.4898
 5943SOL     OW29461   2.224   3.962   7.846  0.0973  0.1847 -0.2864
 5943SOL    HW129462   2.149   3.995   7.895  0.1606  1.6932 -1.1927
 5943SOL    HW229463   2.298   4.018   7.868 -1.4600  1.8285  0.7165
 5944SOL     OW29464   3.005   4.557   3.515  0.1061  0.1747  0.1212
 5944SOL    HW129465   2.994   4.652   3.518  2.4688  0.4708 -1.0755
 5944SOL    HW229466   3.088   4.548   3.469  1.3385 -2.6507  2.9393
 5945SOL     OW29467   3.891   3.388  16.026  0.3156  0.7486  0.0323
 5945SOL    HW129468   3.829   3.448  16.069 -3.0964 -1.7296 -1.4313
 5945SOL    HW229469   3.975   3.414  16.062  0.6061 -0.3999  0.1604
 5946SOL     OW29470   3.644   1.965  10.474  0.8252  0.0664  0.6359
 5946SOL    HW129471   3.561   2.012  10.477  0.7858  0.0641 -0.6287
 5946SOL    HW229472   3.711   2.031  10.492  0.7841  0.0804  0.7363
 5947SOL     OW29473   2.500   0.890   9.218  0.0798  0.7422  0.1497
 5947SOL    HW129474   2.418   0.844   9.237  0.6600 -1.3257 -2.3173
 5947SOL    HW229475   2.550   0.862   9.294 -1.0448 -1.1302  0.2073
 5948SOL     OW29476   1.332   1.391  14.863  0.1996 -0.8527 -0.4754
 5948SOL    HW129477   1.348   1.480  14.895  0.2759 -0.5351 -1.4134
 5948SOL    HW229478   1.274   1.376  14.938  0.9455 -0.8015  0.1033
 5949SOL     OW29479   3.503   4.635   3.591  0.6566 -0.3548 -0.0074
 5949SOL    HW129480   3.542   4.612   3.507 -0.4977  0.2611 -0.7104
 5949SOL    HW229481   3.589   4.659   3.626 -0.0300  1.6613  0.3118
 5950SOL     OW29482   1.591   0.507  17.096 -0.2632  0.6425 -0.2662
 5950SOL    HW129483   1.579   0.422  17.053  1.1117 -0.6019  1.8189
 5950SOL    HW229484   1.680   0.521  17.064 -0.0727  0.0844  0.0155
 5951SOL     OW29485   4.326   1.394  13.278  0.1608  0.2817  0.2178
 5951SOL    HW129486   4.372   1.313  13.257 -2.9438 -1.1130 -1.1813
 5951SOL    HW229487   4.401   1.454  13.271 -1.0325  1.7780  0.3612
 5952SOL     OW29488   3.286   0.907  12.027  0.1184  0.1702  0.1343
 5952SOL    HW129489   3.329   0.852  11.962 -0.8155 -0.8180  0.3553
 5952SOL    HW229490   3.203   0.862  12.042  0.1890 -0.5149 -1.5334
 5953SOL     OW29491   2.828   4.535   3.160 -0.2754  0.3961  0.1551
 5953SOL    HW129492   2.779   4.555   3.081 -0.0556  2.2444  0.4884
 5953SOL    HW229493   2.879   4.464   3.122  0.3170  0.2629  1.1956
 5954SOL     OW29494   2.153   2.639   6.080 -0.1187 -0.2854 -0.4180
 5954SOL    HW129495   2.230   2.695   6.092 -0.2981  0.1439 -1.2607
 5954SOL    HW229496   2.093   2.687   6.022  0.6376 -1.2203 -1.9717
 5955SOL     OW29497   2.122   2.511   2.319 -0.1549 -0.2411  0.0398
 5955SOL    HW129498   2.140   2.446   2.251 -1.3627 -1.3559  0.7854
 5955SOL    HW229499   2.155   2.471   2.400  0.1165  1.3147  0.7067
 5956SOL     OW29500   2.632   3.320   4.293  0.0944 -0.7698  0.3086
 5956SOL    HW129501   2.603   3.272   4.215 -0.9019 -1.2321  0.9718
 5956SOL    HW229502   2.725   3.330   4.273 -0.2357  2.6544  0.5320
 5957SOL     OW29503   4.597   2.136   6.259  0.2278  0.2880  0.5000
 5957SOL    HW129504   4.508   2.102   6.270  0.1814  0.1013 -0.4429
 5957SOL    HW229505   4.630   2.103   6.343  1.0696 -1.0017 -0.3334
 5958SOL     OW29506   0.584   2.601  15.845  0.1090  0.5917  0.0486
 5958SOL    HW129507   0.584   2.512  15.881 -0.3687 -0.3011 -2.1512
 5958SOL    HW229508   0.593   2.580  15.752 -0.7936 -1.2587  0.3938
 5959SOL     OW29509   4.498   2.857   7.306  0.0379 -0.4448  0.3712
 5959SOL    HW129510   4.528   2.945   7.327 -2.9472  0.3432  1.3313
 5959SOL    HW229511   4.569   2.803   7.341  0.4227  0.0274  0.3157
 5960SOL     OW29512   0.868   4.347  14.596  0.1138 -0.3516 -0.1402
 5960SOL    HW129513   0.872   4.366  14.503 -1.9970 -0.4140 -0.2531
 5960SOL    HW229514   0.963   4.350  14.605  0.0805  1.0913 -0.3049
 5961SOL     OW29515   2.887   3.873   6.555  0.3839 -0.0531 -0.1074
 5961SOL    HW129516   2.888   3.783   6.522 -0.2668 -0.5985  1.3506
 5961SOL    HW229517   2.894   3.922   6.473  2.7270  2.0107  1.3212
 5962SOL     OW29518   1.593   4.236  12.907 -0.4485  0.0464  0.9415
 5962SOL    HW129519   1.546   4.262  12.987  0.9787  0.4357  1.6446
 5962SOL    HW229520   1.672   4.204  12.950  0.9149  1.3432 -0.6042
 5963SOL     OW29521   0.311   4.614   6.117 -0.2185 -0.0057 -0.6838
 5963SOL    HW129522   0.229   4.624   6.068 -1.4976 -0.9651  1.2923
 5963SOL    HW229523   0.331   4.704   6.141  0.0739 -0.3469  0.3451
 5964SOL     OW29524   1.853   2.329   3.276 -0.1059  0.0997 -0.8341
 5964SOL    HW129525   1.945   2.331   3.302 -0.5935  1.1067  0.8062
 5964SOL    HW229526   1.822   2.419   3.291  4.0961  1.7059 -1.6816
 5965SOL     OW29527   3.778   4.684  16.312  0.3096  0.0064  0.7055
 5965SOL    HW129528   3.775   0.023  16.372  0.7048  0.0893  0.6191
 5965SOL    HW229529   3.868   4.655  16.321  0.5756  0.6613  0.2150
 5966SOL     OW29530   3.845   1.142   2.775 -0.1684  0.1305  0.2674
 5966SOL    HW129531   3.756   1.164   2.803 -0.3384  0.1364 -0.2680
 5966SOL    HW229532   3.842   1.089   2.695  0.0172  2.1437 -1.0606
 5967SOL     OW29533   2.056   0.774  13.110 -0.3750 -0.4166  0.0050
 5967SOL    HW129534   2.053   0.717  13.033  1.1345 -1.0908  0.4375
 5967SOL    HW229535   2.098   0.848  13.066 -2.1848 -0.1033 -1.1870
 5968SOL     OW29536   0.570   1.321  16.312  0.3635 -0.2167 -0.3083
 5968SOL    HW129537   0.525   1.317  16.228 -0.2178  0.5109 -0.0308
 5968SOL    HW229538   0.593   1.413  16.322 -1.2805 -0.0935  2.4302
 5969SOL     OW29539   0.499   0.666   5.252 -0.2781  0.4419  0.1881
 5969SOL    HW129540   0.561   0.605   5.213  0.7086 -0.0043  2.4847
 5969SOL    HW229541   0.533   0.749   5.217 -1.4458  1.2215  0.8700
 5970SOL     OW29542   3.122   1.051   5.522 -0.3647  0.0578  0.4539
 5970SOL    HW129543   3.144   1.108   5.595  2.6195 -0.8580  0.2995
 5970SOL    HW229544   3.092   1.116   5.459 -0.7126 -0.6585 -0.1219
 5971SOL     OW29545   0.566   4.072   8.219  0.2301  0.2264 -0.0791
 5971SOL    HW129546   0.576   4.135   8.290 -0.0213  0.4636 -0.2533
 5971SOL    HW229547   0.625   4.111   8.155  0.0434 -1.2752 -1.1767
 5972SOL     OW29548   1.570   0.571   4.983  0.4507  0.2219 -0.2832
 5972SOL    HW129549   1.579   0.476   4.986 -1.0251  0.1330  1.4431
 5972SOL    HW229550   1.520   0.581   4.903 -3.1020 -1.0635  1.8034
 5973SOL     OW29551   1.357   2.270   4.797  0.2018 -0.2179  0.2398
 5973SOL    HW129552   1.351   2.184   4.839 -0.3852  0.7491  2.1499
 5973SOL    HW229553   1.406   2.315   4.866 -2.0729  1.2204  0.8953
 5974SOL     OW29554   1.941   1.584   4.360  0.3858  0.5700  0.3131
 5974SOL    HW129555   1.993   1.665   4.365 -1.4068  1.7137  0.5700
 5974SOL    HW229556   1.891   1.614   4.284 -0.7718 -0.6941  0.5964
 5975SOL     OW29557   0.057   1.969   1.794  0.2101 -0.1579  0.4313
 5975SOL    HW129558   0.059   1.994   1.702 -0.6909  0.5606  0.6070
 5975SOL    HW229559   0.146   1.969   1.827 -0.2352 -2.6166  1.6019
 5976SOL     OW29560   1.768   3.981   2.173 -0.1879 -0.2232 -0.0588
 5976SOL    HW129561   1.787   4.016   2.087  0.2874  0.6265  0.3931
 5976SOL    HW229562   1.853   3.973   2.217  0.4725 -0.6531 -1.4386
 5977SOL     OW29563   3.914   4.234   7.814  0.1699  0.0413 -0.3215
 5977SOL    HW129564   3.960   4.216   7.733  1.4499 -1.2274  0.7011
 5977SOL    HW229565   3.981   4.253   7.880  1.4243  1.1902 -1.9339
 5978SOL     OW29566   2.693   4.582   7.358  0.3572  0.3889 -0.0171
 5978SOL    HW129567   2.759   4.652   7.353  0.8039  0.1047  1.7259
 5978SOL    HW229568   2.714   4.528   7.434  0.7274  0.2263 -0.2373
 5979SOL     OW29569   1.940   1.943  12.499  0.9269 -0.9818 -0.3401
 5979SOL    HW129570   1.897   1.983  12.575 -2.1618 -2.6880 -1.2259
 5979SOL    HW229571   1.968   2.024  12.456  2.6013 -1.3158  0.1263
 5980SOL     OW29572   0.114   0.771   7.208  0.2945  0.1419 -0.4744
 5980SOL    HW129573   0.192   0.780   7.153 -0.1524 -1.3377 -1.3659
 5980SOL    HW229574   0.052   0.740   7.141  0.0737 -0.5172  0.0294
 5981SOL     OW29575   1.595   3.390  10.335 -0.4113 -0.0007 -0.0036
 5981SOL    HW129576   1.683   3.365  10.304  0.0868  2.4800 -0.5673
 5981SOL    HW229577   1.543   3.323  10.291 -0.1463  0.2110 -0.6339
 5982SOL     OW29578   2.810   1.807   9.861 -0.3367  0.2503  0.5842
 5982SOL    HW129579   2.827   1.771   9.948  0.0465  0.2646  0.5122
 5982SOL    HW229580   2.825   1.732   9.805 -0.1383 -0.4977  1.6414
 5983SOL     OW29581   1.415   0.877   8.875 -0.6141 -0.2252  0.6428
 5983SOL    HW129582   1.329   0.918   8.876 -0.4537  0.1570 -1.0783
 5983SOL    HW229583   1.427   0.874   8.780 -1.2181 -0.0021  0.5598
 5984SOL     OW29584   0.337   3.804   5.312  0.5377  0.2234  0.0554
 5984SOL    HW129585   0.404   3.867   5.341  0.4685  0.5392 -0.4682
 5984SOL    HW229586   0.397   3.733   5.288 -1.0985 -1.1433  0.0733
 5985SOL     OW29587   4.549   2.277   8.198 -0.3256 -0.1540 -0.0577
 5985SOL    HW129588   4.640   2.308   8.195 -0.1993 -0.5479 -0.2222
 5985SOL    HW229589   4.518   2.298   8.110 -1.0130 -0.3170  0.1525
 5986SOL     OW29590   1.182   1.074   4.662  0.2313  0.7680 -0.2298
 5986SOL    HW129591   1.226   1.142   4.612  0.7104  1.4442  1.1152
 5986SOL    HW229592   1.126   1.040   4.591  2.1159 -0.7881 -0.9620
 5987SOL     OW29593   0.047   2.211   3.674 -0.0905  0.0431 -0.1010
 5987SOL    HW129594   0.039   2.301   3.706  2.0987 -0.2873  1.4249
 5987SOL    HW229595   0.040   2.162   3.756  2.6951  0.5927  0.4892
 5988SOL     OW29596   2.640   4.495   8.560  0.3359 -0.3088 -0.0191
 5988SOL    HW129597   2.553   4.527   8.584  0.5397  0.7414 -0.6710
 5988SOL    HW229598   2.684   4.552   8.623  1.0739  1.2038 -1.9155
 5989SOL     OW29599   2.534   0.255   6.326 -0.0899  0.8838 -0.7598
 5989SOL    HW129600   2.490   0.271   6.243 -1.7747 -0.0593 -0.0469
 5989SOL    HW229601   2.626   0.240   6.304 -0.0722 -0.0516 -0.0184
 5990SOL     OW29602   1.371   1.719   7.734 -0.1863  0.1632  0.5421
 5990SOL    HW129603   1.288   1.742   7.777 -0.9973  0.5498 -1.2336
 5990SOL    HW229604   1.346   1.742   7.645 -0.9925  1.1759  1.0309
 5991SOL     OW29605   0.337   4.340   5.460 -0.6295 -0.6987  0.4719
 5991SOL    HW129606   0.308   4.260   5.417  0.5943 -0.6310 -0.5019
 5991SOL    HW229607   0.427   4.314   5.480 -0.8235 -0.4957  1.6143
 5992SOL     OW29608   2.832   4.586  15.427  0.0729 -0.3800 -0.4316
 5992SOL    HW129609   2.768   4.520  15.452 -0.0146 -0.5907 -1.2360
 5992SOL    HW229610   2.779   4.663  15.403 -0.6770  0.4343  3.8295
 5993SOL     OW29611   2.753   3.360  13.952  0.2335  0.0864  0.4155
 5993SOL    HW129612   2.742   3.441  14.001 -3.7761  0.0915 -0.4529
 5993SOL    HW229613   2.710   3.294  14.008 -0.4304  0.3988  0.2713
 5994SOL     OW29614   2.552   3.300  15.016 -0.2039  0.0732 -0.0437
 5994SOL    HW129615   2.641   3.331  14.998 -0.0435 -0.2184  0.2389
 5994SOL    HW229616   2.505   3.374  14.976  3.9008  2.1975 -0.9329
 5995SOL     OW29617   2.019   1.020   1.564 -0.2985 -0.2305 -0.4073
 5995SOL    HW129618   1.956   0.984   1.626  2.9455 -2.6656  1.4949
 5995SOL    HW229619   1.985   0.980   1.484  2.8297  1.0215 -2.3889
 5996SOL     OW29620   3.897   3.250  15.786  0.1781  0.0381  0.0497
 5996SOL    HW129621   3.859   3.328  15.745  1.3562  0.4584 -0.2488
 5996SOL    HW229622   3.889   3.274  15.878  1.0534  2.5323 -0.5013
 5997SOL     OW29623   2.398   3.348  16.194 -0.0421  0.2873  0.1245
 5997SOL    HW129624   2.321   3.355  16.138 -0.5952 -0.3482  0.8158
 5997SOL    HW229625   2.376   3.406  16.267 -0.7112 -1.6303  1.4186
 5998SOL     OW29626   0.450   4.671  13.293 -0.3852 -0.0752 -0.0648
 5998SOL    HW129627   0.534   4.717  13.295 -1.9022  2.6957 -0.5233
 5998SOL    HW229628   0.404   4.701  13.215  0.5569 -0.5952 -0.8248
 5999SOL     OW29629   4.690   4.529   7.103  0.1646 -0.2250 -0.9198
 5999SOL    HW129630   0.025   4.592   7.118  0.5139 -1.0424  0.9488
 5999SOL    HW229631   4.731   4.454   7.146  0.0215  1.0453  1.4095
 6000SOL     OW29632   4.528   0.396  13.187  0.3252 -0.1785  0.1018
 6000SOL    HW129633   4.618   0.405  13.154  0.4979 -1.0276  0.3604
 6000SOL    HW229634   4.538   0.405  13.282 -1.5515 -1.0536  0.3728
 6001SOL     OW29635   3.181   2.504   6.760 -0.0291  0.0219  0.5131
 6001SOL    HW129636   3.154   2.435   6.821  0.5489 -0.5203  0.1512
 6001SOL    HW229637   3.253   2.545   6.808  0.0066  0.3410  0.1839
 6002SOL     OW29638   4.598   0.307   9.658 -0.3697 -0.1925 -0.0888
 6002SOL    HW129639   4.559   0.229   9.618 -0.5777  0.8049 -1.8690
 6002SOL    HW229640   4.603   0.278   9.749  0.7316  0.4628  0.0628
 6003SOL     OW29641   3.872   1.626   2.077 -0.4076  0.0893  0.1149
 6003SOL    HW129642   3.929   1.553   2.054 -1.1509 -0.4714  0.0456
 6003SOL    HW229643   3.812   1.630   2.002 -1.4105 -1.4149  0.8257
 6004SOL     OW29644   2.488   2.823   2.974  0.1593 -0.2065  0.1347
 6004SOL    HW129645   2.506   2.813   2.881  0.2936 -0.8612  0.2318
 6004SOL    HW229646   2.420   2.755   2.972  0.5126 -0.5554 -0.2003
 6005SOL     OW29647   2.016   0.435  17.078  0.7008 -0.3370  0.3416
 6005SOL    HW129648   1.973   0.373  17.019  1.0370 -0.4493  0.2148
 6005SOL    HW229649   2.105   0.402  17.094  0.2730 -1.2066  0.8866
 6006SOL     OW29650   3.432   2.091  10.544 -0.2638 -0.2665 -0.5920
 6006SOL    HW129651   3.337   2.087  10.547 -0.3113 -0.3184 -2.1588
 6006SOL    HW229652   3.440   2.184  10.524 -1.8712 -0.0688 -0.2980
 6007SOL     OW29653   0.343   1.625   5.352  0.5652 -0.1588  0.2947
 6007SOL    HW129654   0.402   1.700   5.354  0.4815 -0.1153  1.3761
 6007SOL    HW229655   0.380   1.567   5.419  0.6690  0.0543  0.4205
 6008SOL     OW29656   1.984   3.163   3.087 -1.0240  0.3223 -0.1816
 6008SOL    HW129657   1.908   3.146   3.031 -0.5176  2.9099 -1.6118
 6008SOL    HW229658   2.048   3.172   3.017 -0.7734  1.4618  0.2029
 6009SOL     OW29659   1.205   0.294   3.771  0.0878 -0.1948  0.6499
 6009SOL    HW129660   1.285   0.318   3.726  0.1872  1.3746  1.6343
 6009SOL    HW229661   1.152   0.370   3.747 -0.5850 -1.3466 -1.5084
 6010SOL     OW29662   1.538   4.615   4.327  0.1179  0.0813 -0.3663
 6010SOL    HW129663   1.477   4.688   4.339 -0.8155 -1.0649  1.8374
 6010SOL    HW229664   1.514   4.580   4.241 -1.4299 -0.6785  0.3585
 6011SOL     OW29665   3.206   2.834   1.061  1.0898 -0.1328 -0.2515
 6011SOL    HW129666   3.280   2.775   1.080  3.2082  2.4749 -0.3114
 6011SOL    HW229667   3.251   2.914   1.033  2.9911 -0.2269  2.4537
 6012SOL     OW29668   3.175   1.128   9.023  0.2905 -0.0549 -0.8446
 6012SOL    HW129669   3.181   1.068   8.949  0.8222 -1.8041  0.5855
 6012SOL    HW229670   3.264   1.162   9.027  0.7357 -1.1329 -1.4290
 6013SOL     OW29671   3.400   3.905   2.383 -0.1011  0.3119  0.3065
 6013SOL    HW129672   3.314   3.937   2.355  0.6269 -0.3319 -2.6465
 6013SOL    HW229673   3.454   3.964   2.330  2.4675  0.4263  2.9871
 6014SOL     OW29674   0.351   4.371   8.005  0.0427 -0.7872  0.4655
 6014SOL    HW129675   0.443   4.398   8.001 -0.4011  0.6912  0.0105
 6014SOL    HW229676   0.320   4.405   8.089  1.5631 -0.3692  0.8657
 6015SOL     OW29677   0.082   3.066  11.863  0.4813 -0.0207  0.6913
 6015SOL    HW129678   0.011   3.001  11.866  0.8006 -0.4226 -0.2397
 6015SOL    HW229679   0.128   3.044  11.944 -1.2700 -2.3552  1.0522
 6016SOL     OW29680   1.416   3.366   4.371 -0.0999  0.1050  0.7914
 6016SOL    HW129681   1.415   3.273   4.395 -1.5651 -0.0286  0.1792
 6016SOL    HW229682   1.464   3.397   4.448  1.0047  1.5273 -0.4753
 6017SOL     OW29683   2.359   3.495   6.769  0.0200  0.2859 -0.3080
 6017SOL    HW129684   2.286   3.434   6.759 -0.8005  1.3440 -0.7416
 6017SOL    HW229685   2.304   3.573   6.769 -0.1565  0.1506 -2.1780
 6018SOL     OW29686   0.614   3.153  13.425 -0.3981  0.1825  0.1272
 6018SOL    HW129687   0.561   3.215  13.474 -0.0846 -0.0977  0.8255
 6018SOL    HW229688   0.620   3.091  13.498  0.7024 -0.5336 -0.5789
 6019SOL     OW29689   3.021   2.605   8.455 -0.0056  0.2822  0.1604
 6019SOL    HW129690   2.997   2.692   8.422  0.2928  0.2796 -0.0656
 6019SOL    HW229691   2.999   2.609   8.548 -1.0684 -0.5756 -0.0450
 6020SOL     OW29692   1.454   0.193   0.757 -0.3542  0.3886 -0.8065
 6020SOL    HW129693   1.477   0.105   0.729 -1.2247  0.0955 -0.6004
 6020SOL    HW229694   1.543   0.224   0.776 -0.2852 -0.4387  0.2040
 6021SOL     OW29695   1.944   3.665   3.699  0.2342 -0.5822  0.0533
 6021SOL    HW129696   2.025   3.699   3.736  0.1071  1.5585 -1.6169
 6021SOL    HW229697   1.925   3.727   3.628 -0.2469 -0.8902 -0.0857
 6022SOL     OW29698   1.659   4.277   2.820  0.3263 -0.1513  0.3835
 6022SOL    HW129699   1.688   4.367   2.802  0.0316  0.2306  1.8886
 6022SOL    HW229700   1.670   4.266   2.914  1.1475 -0.1329  0.2869
 6023SOL     OW29701   2.617   2.081   2.480  0.0270 -0.5905  0.6160
 6023SOL    HW129702   2.653   2.056   2.565 -0.2698 -0.0337  0.9056
 6023SOL    HW229703   2.634   2.172   2.455 -1.7355 -0.2476  0.7111
 6024SOL     OW29704   3.154   0.719   0.725  0.3054 -0.3608  0.2193
 6024SOL    HW129705   3.133   0.747   0.636  2.1676  0.0158 -0.0921
 6024SOL    HW229706   3.121   0.790   0.780 -0.0836 -1.2969  1.1959
 6025SOL     OW29707   2.042   0.253   2.052  0.0951 -0.0346  0.0586
 6025SOL    HW129708   2.136   0.247   2.069  0.3135 -1.1654 -1.5296
 6025SOL    HW229709   2.008   0.214   2.132 -0.2120 -4.1691 -2.0754
 6026SOL     OW29710   1.137   3.099   8.527  0.2013 -0.3518  0.2693
 6026SOL    HW129711   1.141   3.023   8.469  1.3555  0.2818 -0.5014
 6026SOL    HW229712   1.054   3.089   8.574 -1.2424 -0.0103 -2.2316
 6027SOL     OW29713   1.871   2.691   8.119 -0.4361 -0.3703  0.9036
 6027SOL    HW129714   1.837   2.629   8.054 -1.5975 -1.4155  2.5105
 6027SOL    HW229715   1.898   2.765   8.065 -1.5725 -1.7982 -1.6320
 6028SOL     OW29716   0.699   0.489   4.654  0.3435 -0.5864  0.2798
 6028SOL    HW129717   0.614   0.459   4.621  0.3573 -0.2591 -0.0567
 6028SOL    HW229718   0.666   0.544   4.725 -1.7824  0.0782 -1.2082
 6029SOL     OW29719   2.478   2.943  10.202  0.7005 -0.4071 -0.8200
 6029SOL    HW129720   2.445   2.999  10.272  0.5671 -1.3020 -0.1738
 6029SOL    HW229721   2.531   2.876  10.243 -2.7521 -1.8644  1.2850
 6030SOL     OW29722   3.755   2.204  14.906  0.1369  0.7220  0.0845
 6030SOL    HW129723   3.715   2.193  14.992  0.5214 -1.7076 -0.0458
 6030SOL    HW229724   3.678   2.245  14.865  1.2618  0.9273 -1.8128
 6031SOL     OW29725   2.474   2.423   4.470  0.2437 -0.5464  0.5988
 6031SOL    HW129726   2.408   2.411   4.402  0.8498 -1.1620  0.1256
 6031SOL    HW229727   2.525   2.499   4.444  1.3350 -1.2024  0.8351
 6032SOL     OW29728   1.435   0.998   2.916 -0.2509  0.1127  0.2224
 6032SOL    HW129729   1.487   0.940   2.859 -1.5275  0.8191 -1.6695
 6032SOL    HW229730   1.505   1.061   2.934 -1.2443  1.0795  0.6388
 6033SOL     OW29731   4.038   3.330   7.572 -0.1356  0.0825  0.1141
 6033SOL    HW129732   3.992   3.264   7.624 -0.0542 -1.2678 -1.5281
 6033SOL    HW229733   3.973   3.364   7.510 -1.5700  0.2599  1.7190
 6034SOL     OW29734   3.046   0.121   9.518 -0.0113 -0.4881 -1.1206
 6034SOL    HW129735   3.065   0.112   9.612  0.7869 -0.2554 -1.2651
 6034SOL    HW229736   3.132   0.099   9.483  0.1261  1.6776 -2.1059
 6035SOL     OW29737   0.620   0.784   7.128 -0.2570  0.3924 -0.4078
 6035SOL    HW129738   0.667   0.755   7.206 -2.4308  0.3872  0.9008
 6035SOL    HW229739   0.595   0.695   7.105  1.2829 -0.6663  2.0030
 6036SOL     OW29740   2.677   0.499  13.220  0.2484 -0.1199  0.7837
 6036SOL    HW129741   2.606   0.531  13.164  0.5638 -2.1993 -0.7988
 6036SOL    HW229742   2.618   0.447  13.275 -1.7275  1.9766  0.6960
 6037SOL     OW29743   0.028   4.273   5.906 -0.6134 -0.3820 -0.0283
 6037SOL    HW129744   0.050   4.313   5.822  0.6344  2.5286  1.6764
 6037SOL    HW229745   0.112   4.232   5.930  0.2210  0.8214 -0.9020
 6038SOL     OW29746   2.442   2.703   6.072 -0.3037  0.4288 -0.0120
 6038SOL    HW129747   2.460   2.779   6.016  1.8456 -0.0282  0.0629
 6038SOL    HW229748   2.496   2.735   6.144 -1.0749 -0.6254  1.0321
 6039SOL     OW29749   2.700   0.691   1.727  0.7860  1.0969 -0.8482
 6039SOL    HW129750   2.700   0.603   1.689  1.6355  1.3267 -1.3756
 6039SOL    HW229751   2.613   0.718   1.699 -0.0671 -0.4462  0.2698
 6040SOL     OW29752   0.978   1.767  13.566 -0.1444 -0.3767  0.3569
 6040SOL    HW129753   0.965   1.696  13.503 -0.0697  1.5089 -1.7995
 6040SOL    HW229754   0.884   1.776  13.583 -0.1026  0.6099  0.0658
 6041SOL     OW29755   2.316   3.849   9.929 -0.0238  0.6574  0.0575
 6041SOL    HW129756   2.300   3.820  10.018  2.0987 -0.5786  0.0523
 6041SOL    HW229757   2.364   3.930   9.946  0.8579  0.1588  0.0056
 6042SOL     OW29758   3.348   0.228   4.676  0.9206 -0.6554 -0.3442
 6042SOL    HW129759   3.331   0.313   4.717  1.0809 -1.1168  0.6727
 6042SOL    HW229760   3.402   0.186   4.742  1.8141 -0.7833 -1.1430
 6043SOL     OW29761   4.061   1.311   2.867 -0.0134 -0.7534 -0.4878
 6043SOL    HW129762   3.988   1.279   2.814 -0.0197 -1.8553  0.1898
 6043SOL    HW229763   4.018   1.393   2.891  0.7484 -0.8275  1.0751
 6044SOL     OW29764   1.948   4.021   4.730 -0.0155  0.3773  0.4830
 6044SOL    HW129765   1.895   4.001   4.807  1.1170  1.7660  1.6316
 6044SOL    HW229766   2.027   4.045   4.778  0.6081 -0.9961  0.1374
 6045SOL     OW29767   3.625   2.487   6.969  0.7278  0.2392  0.0119
 6045SOL    HW129768   3.701   2.544   6.961  0.0301  1.1314 -0.2112
 6045SOL    HW229769   3.599   2.505   7.059 -1.1618 -0.3397 -0.4100
 6046SOL     OW29770   4.205   3.673   7.445 -0.1947 -0.2934 -0.3930
 6046SOL    HW129771   4.144   3.724   7.499  0.3946  0.1751 -0.1602
 6046SOL    HW229772   4.243   3.616   7.512 -1.0413  0.0400  0.3680
 6047SOL     OW29773   1.147   1.039   9.376  0.5907  0.1731  0.1326
 6047SOL    HW129774   1.069   0.996   9.340 -0.7450  0.7336  2.3648
 6047SOL    HW229775   1.116   1.062   9.464 -0.8303 -2.2066  0.2613
 6048SOL     OW29776   3.848   4.027   8.003  0.3352 -1.2876 -0.4259
 6048SOL    HW129777   3.882   4.093   7.943  1.6566 -0.0768  1.6768
 6048SOL    HW229778   3.929   3.999   8.044  0.8447  0.0702 -0.5286
 6049SOL     OW29779   0.924   0.764  11.489 -0.0892  0.3625  0.0327
 6049SOL    HW129780   0.889   0.797  11.406 -0.1745 -1.2653 -0.5862
 6049SOL    HW229781   0.948   0.674  11.467  1.3294  0.3427  1.7011
 6050SOL     OW29782   0.266   4.412   1.538 -0.0491 -0.4054  0.4249
 6050SOL    HW129783   0.323   4.335   1.536 -1.5654 -1.4496 -2.7578
 6050SOL    HW229784   0.208   4.405   1.462 -1.2319  0.4356  1.2553
 6051SOL     OW29785   4.684   3.016   8.765  0.6686 -0.0810  0.2527
 6051SOL    HW129786   4.615   3.061   8.813  0.8117  0.3578  0.0472
 6051SOL    HW229787   0.015   3.083   8.749  1.3870 -0.4551  1.6467
 6052SOL     OW29788   0.855   4.540  17.737 -0.0362  0.4148  0.5030
 6052SOL    HW129789   0.776   4.565   0.043 -0.1913  0.4783  0.2116
 6052SOL    HW229790   0.836   4.446  17.728 -0.5500  0.6863 -1.2511
 6053SOL     OW29791   4.376   0.478  15.623  0.7174  0.7977 -0.7775
 6053SOL    HW129792   4.315   0.413  15.660  1.6454  0.9144  0.9577
 6053SOL    HW229793   4.454   0.425  15.637  0.0488  0.1745  0.6159
 6054SOL     OW29794   1.289   4.172   9.670 -0.6006  0.0435  0.1383
 6054SOL    HW129795   1.213   4.230   9.673 -0.0275  0.8234 -0.2533
 6054SOL    HW229796   1.243   4.096   9.705  0.8212  0.0311  1.9933
 6055SOL     OW29797   0.740   3.522   7.738  0.0433 -0.0657  0.2779
 6055SOL    HW129798   0.720   3.470   7.816  1.9157  0.2795  0.9611
 6055SOL    HW229799   0.835   3.533   7.739 -0.0229  0.6865 -1.5383
 6056SOL     OW29800   2.270   1.379   8.997  0.5955  0.1067  0.5587
 6056SOL    HW129801   2.270   1.315   8.926  0.2761 -0.5059  1.1131
 6056SOL    HW229802   2.246   1.332   9.077 -0.2565 -1.8858 -0.8716
 6057SOL     OW29803   4.333   2.350  12.794  0.5109 -0.3254  0.2893
 6057SOL    HW129804   4.374   2.264  12.800  1.3753 -0.0017 -0.9784
 6057SOL    HW229805   4.368   2.388  12.714 -1.4883  1.6202  0.3203
 6058SOL     OW29806   0.157   2.510   4.000  0.2430  0.5519  0.1773
 6058SOL    HW129807   0.159   2.567   4.077 -3.1506 -2.1522  2.2760
 6058SOL    HW229808   0.193   2.427   4.033 -0.5209 -0.5388 -1.7208
 6059SOL     OW29809   2.640   1.539   1.851  1.0386 -0.3548  0.0050
 6059SOL    HW129810   2.655   1.602   1.780 -0.0777  1.0685  1.0247
 6059SOL    HW229811   2.730   1.528   1.883  1.5941  4.4356  0.1881
 6060SOL     OW29812   4.354   1.556   4.790  0.3745 -0.2524 -0.3068
 6060SOL    HW129813   4.325   1.469   4.763 -2.5454  0.5568  0.2761
 6060SOL    HW229814   4.350   1.615   4.715  3.5889  0.8196  0.3252
 6061SOL     OW29815   1.229   3.432   2.522  0.1979 -0.0002 -0.0532
 6061SOL    HW129816   1.270   3.392   2.445  0.9478 -1.6823  1.2086
 6061SOL    HW229817   1.310   3.442   2.572 -0.2727 -1.3837  0.9612
 6062SOL     OW29818   2.443   1.473   2.022  0.1707 -0.6983  0.6550
 6062SOL    HW129819   2.487   1.492   2.105  0.9225 -0.3330  0.1791
 6062SOL    HW229820   2.518   1.499   1.969  0.2291 -0.3586  0.9033
 6063SOL     OW29821   2.714   4.594   4.743  0.5398  0.3641  0.3718
 6063SOL    HW129822   2.748   4.513   4.780 -0.8505  0.4929  1.9131
 6063SOL    HW229823   2.796   4.640   4.724  0.4356 -0.3776 -1.8685
 6064SOL     OW29824   4.173   0.969  12.573  0.0234 -0.5816  0.1946
 6064SOL    HW129825   4.077   0.972  12.569  0.1296  0.4789 -1.9003
 6064SOL    HW229826   4.182   0.885  12.616 -0.0578 -0.8474 -0.3085
 6065SOL     OW29827   3.209   0.366   4.896  0.2529 -0.3325  0.2928
 6065SOL    HW129828   3.207   0.418   4.815  0.4849 -0.6766  0.0702
 6065SOL    HW229829   3.153   0.416   4.956  1.1726  1.7936 -0.5988
 6066SOL     OW29830   4.354   1.700   8.348 -0.5762 -0.2800  0.2928
 6066SOL    HW129831   4.410   1.623   8.359  1.9317  1.3542 -0.8829
 6066SOL    HW229832   4.340   1.729   8.438 -1.1628 -1.3686  0.5508
 6067SOL     OW29833   2.975   3.021   3.774 -0.2510  0.0445  0.1478
 6067SOL    HW129834   2.906   3.042   3.837  1.2934 -1.5443  2.3844
 6067SOL    HW229835   3.049   3.071   3.809 -0.8188  1.0189 -0.0604
 6068SOL     OW29836   3.659   3.205   0.522 -0.5758  0.5503 -0.2981
 6068SOL    HW129837   3.703   3.265   0.582  1.7773 -1.1102 -0.3874
 6068SOL    HW229838   3.626   3.272   0.462  0.9733  0.9663 -0.6790
 6069SOL     OW29839   1.591   1.549   3.826 -0.2334  0.3783  0.0469
 6069SOL    HW129840   1.539   1.604   3.886  2.5525  2.1504  0.8256
 6069SOL    HW229841   1.678   1.584   3.842  0.3942 -1.6229  1.0519
 6070SOL     OW29842   0.799   3.862  16.316 -0.1169  0.4893  0.1976
 6070SOL    HW129843   0.760   3.796  16.372  0.0096 -0.7958 -1.2292
 6070SOL    HW229844   0.881   3.820  16.291  0.5439 -0.2194  3.5420
 6071SOL     OW29845   1.260   3.374   5.226  0.2704  1.3121  0.1086
 6071SOL    HW129846   1.325   3.441   5.246 -0.2637  1.6963  0.5728
 6071SOL    HW229847   1.236   3.360   5.317  3.0409 -4.0162 -0.0041
 6072SOL     OW29848   3.916   0.256   7.541 -0.4129 -0.5076 -0.2704
 6072SOL    HW129849   3.915   0.224   7.451 -1.4828  0.5506 -0.6384
 6072SOL    HW229850   4.007   0.255   7.569 -0.2550 -1.5833 -0.8440
 6073SOL     OW29851   0.873   1.752   4.291 -0.0578  0.8023 -0.6058
 6073SOL    HW129852   0.876   1.807   4.213  0.7574  0.4355 -0.8343
 6073SOL    HW229853   0.778   1.746   4.303 -0.1515  2.1862 -0.6563
 6074SOL     OW29854   3.543   1.239  16.616 -0.3031 -0.2566 -0.1389
 6074SOL    HW129855   3.453   1.206  16.615 -0.1643 -0.6854  1.4840
 6074SOL    HW229856   3.583   1.160  16.651 -0.4004  0.4665  1.6327
 6075SOL     OW29857   4.303   1.404   6.211  0.0238  0.4432  0.1141
 6075SOL    HW129858   4.259   1.479   6.251  2.5660  0.5932  2.6268
 6075SOL    HW229859   4.370   1.392   6.278  0.5736  1.6124 -0.2124
 6076SOL     OW29860   2.249   0.686   9.294  0.3677 -0.1613 -0.3367
 6076SOL    HW129861   2.235   0.593   9.276 -3.5961  0.9019 -2.7492
 6076SOL    HW229862   2.227   0.721   9.208  2.2030 -0.7167 -1.0379
 6077SOL     OW29863   0.406   3.729   4.148  0.4456 -0.3825 -0.1858
 6077SOL    HW129864   0.378   3.674   4.075  1.2972  0.3527 -1.0601
 6077SOL    HW229865   0.348   3.719   4.223  0.2288 -0.1329 -0.3228
 6078SOL     OW29866   4.501   1.933   1.902  0.0434  0.0668 -0.2816
 6078SOL    HW129867   4.451   2.015   1.908  2.2608  1.5038 -1.4178
 6078SOL    HW229868   4.586   1.967   1.874  0.4045 -1.1095 -0.5944
 6079SOL     OW29869   1.691   0.857  15.284 -0.0664 -0.2666 -0.0117
 6079SOL    HW129870   1.607   0.815  15.304 -0.9118  0.7559 -1.4495
 6079SOL    HW229871   1.676   0.949  15.303 -1.0267 -0.8566  2.0949
 6080SOL     OW29872   0.189   3.288   4.552 -0.0342  0.0275  0.5208
 6080SOL    HW129873   0.128   3.269   4.623  0.4187 -0.9409  0.6446
 6080SOL    HW229874   0.175   3.211   4.497  2.2181 -0.0442  0.0547
 6081SOL     OW29875   2.767   2.147  12.794 -0.4174 -0.4537  0.4298
 6081SOL    HW129876   2.721   2.153  12.710 -0.1028 -0.1029  0.2817
 6081SOL    HW229877   2.856   2.173  12.769 -0.6704 -0.9392 -0.9464
 6082SOL     OW29878   2.021   3.862   6.502 -0.0239 -0.1528 -0.0187
 6082SOL    HW129879   1.953   3.918   6.540  1.0593  0.6523  0.7149
 6082SOL    HW229880   2.083   3.865   6.575  0.0834 -1.4561 -0.0503
 6083SOL     OW29881   1.763   1.440   4.981  0.5391 -0.0863  0.0002
 6083SOL    HW129882   1.815   1.361   4.993  0.6274 -0.0694 -0.2546
 6083SOL    HW229883   1.768   1.446   4.885  2.7490  3.1921  0.2888
 6084SOL     OW29884   0.430   1.415   3.452 -0.5620 -0.1086 -0.0771
 6084SOL    HW129885   0.341   1.386   3.431 -1.7250  1.8246  2.2006
 6084SOL    HW229886   0.476   1.397   3.370  0.6739  0.2181  0.5432
 6085SOL     OW29887   3.530   2.611   1.925 -0.0885 -0.1102  0.2380
 6085SOL    HW129888   3.602   2.558   1.890  0.7594  1.5602 -0.5805
 6085SOL    HW229889   3.456   2.551   1.924  1.0261 -1.5035  1.6347
 6086SOL     OW29890   0.578   3.333   6.177 -0.1630 -0.2612 -0.3479
 6086SOL    HW129891   0.616   3.245   6.173  1.2477  0.2772  1.1454
 6086SOL    HW229892   0.491   3.312   6.210  1.0657 -1.0027  2.4229
 6087SOL     OW29893   4.236   0.945   0.792  0.2981  0.1163 -0.3591
 6087SOL    HW129894   4.272   1.033   0.801  0.7595  0.0083 -1.1872
 6087SOL    HW229895   4.273   0.900   0.869  2.8476  1.2453 -0.9375
 6088SOL     OW29896   2.399   2.952   5.954 -0.3029  0.3399  0.2165
 6088SOL    HW129897   2.360   3.036   5.930 -3.9450 -1.2202  0.6208
 6088SOL    HW229898   2.334   2.924   6.019 -0.0812 -0.1081  0.2472
 6089SOL     OW29899   1.710   1.340   2.350 -0.1541  0.2772  0.3153
 6089SOL    HW129900   1.684   1.249   2.336  0.8050  0.5348 -3.0093
 6089SOL    HW229901   1.636   1.364   2.406 -1.2935 -2.0024 -0.2361
 6090SOL     OW29902   3.255   0.876   1.802 -0.1449  0.5618 -0.1359
 6090SOL    HW129903   3.261   0.847   1.893  0.5818 -0.8346 -0.6283
 6090SOL    HW229904   3.261   0.970   1.818  2.6841  0.5520 -1.2237
 6091SOL     OW29905   2.552   0.927   5.626  0.2148  0.0821 -0.4045
 6091SOL    HW129906   2.644   0.932   5.653  0.9089  0.2265 -2.8401
 6091SOL    HW229907   2.510   0.973   5.699 -1.2185 -2.8191  0.5812
 6092SOL     OW29908   1.423   2.532   2.939 -0.3782 -0.4823  0.2446
 6092SOL    HW129909   1.467   2.571   2.864  0.1748 -1.6569 -0.0386
 6092SOL    HW229910   1.497   2.521   2.999 -1.1920 -0.9618  1.1555
 6093SOL     OW29911   2.381   3.087   7.327  0.1822  0.0132 -0.1755
 6093SOL    HW129912   2.395   3.170   7.372  1.6099 -0.5971  0.4963
 6093SOL    HW229913   2.324   3.101   7.251  0.5250 -1.4148 -0.7045
 6094SOL     OW29914   4.401   0.068   7.445 -0.0501  0.0445 -0.4701
 6094SOL    HW129915   4.466   0.033   7.384  1.3521 -1.0025  1.6095
 6094SOL    HW229916   4.459   0.073   7.521  0.3919 -1.2969 -0.7280
 6095SOL     OW29917   4.254   2.956   2.489  1.0226  0.3357  0.1236
 6095SOL    HW129918   4.246   2.902   2.567 -0.5728  0.1807 -0.1385
 6095SOL    HW229919   4.268   2.887   2.425  0.9994  0.4648 -0.0223
 6096SOL     OW29920   3.317   2.133   2.121  1.0294 -0.1547  0.3174
 6096SOL    HW129921   3.323   2.219   2.163  0.2171  0.7767 -1.4390
 6096SOL    HW229922   3.306   2.152   2.028 -0.2110  0.3312  0.5535
 6097SOL     OW29923   0.271   1.899  10.985  0.3245  0.0214 -0.1096
 6097SOL    HW129924   0.212   1.845  11.037 -1.8268  1.4607 -1.0903
 6097SOL    HW229925   0.235   1.903  10.897  1.0574 -1.8262 -0.4969
 6098SOL     OW29926   0.687   1.166  14.382 -0.7465  0.6044  0.0989
 6098SOL    HW129927   0.700   1.074  14.356 -1.2204  0.8696 -1.1196
 6098SOL    HW229928   0.753   1.183  14.449 -0.3645 -0.1378 -0.0822
 6099SOL     OW29929   1.539   1.384   0.944 -0.6267  0.1616 -0.1938
 6099SOL    HW129930   1.617   1.365   0.891  1.0143  3.5372  1.0061
 6099SOL    HW229931   1.498   1.298   0.950 -0.5578  0.1936  0.7041
 6100SOL     OW29932   0.054   0.936   2.574 -0.0492  0.2952  0.8141
 6100SOL    HW129933   0.069   1.026   2.545  0.0188 -0.1958 -0.7154
 6100SOL    HW229934   4.706   0.942   2.619  0.0175 -1.6508  1.2050
 6101SOL     OW29935   3.391   2.751  12.688  0.1672 -0.0300  0.1046
 6101SOL    HW129936   3.320   2.754  12.624  0.3754 -1.1904 -0.1829
 6101SOL    HW229937   3.343   2.750  12.771 -1.7971  0.7281 -1.0311
 6102SOL     OW29938   4.207   3.378   4.950  0.3547 -0.1444  0.3823
 6102SOL    HW129939   4.188   3.427   4.871  0.2322  1.3303  1.3203
 6102SOL    HW229940   4.282   3.425   4.987 -0.8055  3.6013 -2.0696
 6103SOL     OW29941   1.538   2.415   7.616 -0.1469 -0.2579  0.3446
 6103SOL    HW129942   1.578   2.374   7.540 -0.0960  0.4659 -0.0225
 6103SOL    HW229943   1.547   2.508   7.595  0.6943  0.0769  2.1290
 6104SOL     OW29944   3.582   4.265   2.460 -0.3198  0.5498  0.7198
 6104SOL    HW129945   3.606   4.322   2.387  0.1003 -1.9293 -1.0769
 6104SOL    HW229946   3.605   4.306   2.543 -1.5135  1.9192  0.3787
 6105SOL     OW29947   0.560   4.529  17.730  0.2966  0.1170 -0.6904
 6105SOL    HW129948   0.600   4.445  17.704  0.9300  0.4386 -0.7715
 6105SOL    HW229949   0.551   4.564  17.641 -0.6391 -0.1614 -0.7000
 6106SOL     OW29950   1.457   0.960   0.481 -0.5781  0.2504  0.3817
 6106SOL    HW129951   1.523   0.919   0.425  0.8933  1.2815  1.3906
 6106SOL    HW229952   1.414   0.884   0.519  0.2326 -0.0460  0.6976
 6107SOL     OW29953   0.367   2.885   9.073 -0.1473 -0.1347  0.2227
 6107SOL    HW129954   0.298   2.875   9.138 -0.6681  3.2101  0.2211
 6107SOL    HW229955   0.319   2.949   9.020  0.9616  0.3799 -0.1525
 6108SOL     OW29956   4.480   3.879   7.579  0.3547 -0.6180  0.2922
 6108SOL    HW129957   4.403   3.918   7.621 -0.3261 -1.0098 -0.5782
 6108SOL    HW229958   4.515   3.961   7.544  2.0204 -1.3059  0.3690
 6109SOL     OW29959   1.431   3.395   8.299  0.0739  0.0892 -0.2823
 6109SOL    HW129960   1.503   3.395   8.363  0.9675  0.4994 -1.2865
 6109SOL    HW229961   1.438   3.309   8.258 -1.8898 -0.1112 -0.1693
 6110SOL     OW29962   1.063   0.439   6.509  0.0387  0.3135  0.3065
 6110SOL    HW129963   1.033   0.409   6.423  2.7949 -0.9762 -0.1991
 6110SOL    HW229964   1.000   0.511   6.516  0.8544  0.9050  1.5377
 6111SOL     OW29965   2.508   3.224   6.729 -0.0424 -0.2782 -0.4467
 6111SOL    HW129966   2.529   3.132   6.711  0.6827  0.2986 -2.4989
 6111SOL    HW229967   2.497   3.266   6.644  1.1492  0.0852 -0.4272
 6112SOL     OW29968   1.567   1.704   7.928  0.2106  0.2713  0.5954
 6112SOL    HW129969   1.592   1.796   7.919  3.4406 -0.5441  1.5007
 6112SOL    HW229970   1.504   1.703   7.855  0.2296 -0.2309  0.5840
 6113SOL     OW29971   3.245   2.569   4.567  0.1954  0.0942  0.3739
 6113SOL    HW129972   3.208   2.486   4.539 -0.5535  0.2025  1.0448
 6113SOL    HW229973   3.338   2.550   4.560  0.5205  1.5346  0.7609
 6114SOL     OW29974   3.003   3.955   5.494 -0.5294 -0.6166 -0.1288
 6114SOL    HW129975   2.981   3.873   5.451  0.9036  0.5889 -3.1857
 6114SOL    HW229976   3.086   3.932   5.537  0.1344  0.1579 -0.9752
 6115SOL     OW29977   3.842   0.026   9.185 -0.7243  0.2328  0.0156
 6115SOL    HW129978   3.796   0.106   9.210  0.1430  0.6967  0.1242
 6115SOL    HW229979   3.779   4.692   9.199 -0.0154  0.0291  2.1550
 6116SOL     OW29980   3.105   4.150   4.721  0.1930 -0.6626  0.4734
 6116SOL    HW129981   3.023   4.149   4.673  1.6991  0.8713 -2.1162
 6116SOL    HW229982   3.091   4.102   4.803 -0.6600  0.5400  1.0199
 6117SOL     OW29983   0.879   3.217   4.747 -0.0127  0.1608 -0.7098
 6117SOL    HW129984   0.942   3.210   4.676  0.2546 -1.8375 -0.2699
 6117SOL    HW229985   0.930   3.156   4.800 -0.5669 -0.8837 -1.3659
 6118SOL     OW29986   0.048   3.881   0.416  0.3790  0.1635 -0.0959
 6118SOL    HW129987   0.129   3.846   0.378  1.2041 -0.2035  2.0172
 6118SOL    HW229988   0.007   3.806   0.459 -0.8288  0.6384 -0.4135
 6119SOL     OW29989   4.208   1.753   3.859  0.3639 -0.1101  0.5156
 6119SOL    HW129990   4.210   1.674   3.806 -1.1706  0.3705 -0.2420
 6119SOL    HW229991   4.277   1.736   3.923  0.4410  1.9461  0.9663
 6120SOL     OW29992   1.772   3.879   3.510  0.1618  0.7000 -0.1746
 6120SOL    HW129993   1.778   3.960   3.561 -0.8675  1.2945 -1.0004
 6120SOL    HW229994   1.677   3.871   3.508  0.1385  0.8577  0.2131
 6121SOL     OW29995   0.823   2.988   9.069 -0.3221 -0.1619 -0.3240
 6121SOL    HW129996   0.897   2.958   9.122  0.7219  1.3823 -0.9261
 6121SOL    HW229997   0.763   2.920   9.099  1.0756 -1.2216  0.0519
 6122SOL     OW29998   1.430   2.824   7.986  0.3716 -0.4782  0.0299
 6122SOL    HW129999   1.395   2.738   7.962 -3.0309  1.7155 -2.9600
 6122SOL    HW230000   1.355   2.876   7.957 -0.0466 -0.4755  1.1085
 6123SOL     OW30001   1.205   4.515   1.544 -0.4792 -0.3020 -0.7922
 6123SOL    HW130002   1.111   4.512   1.560 -0.5813  0.2605 -1.2871
 6123SOL    HW230003   1.237   4.444   1.600  0.9016  0.5358 -0.5055
 6124SOL     OW30004   1.573   4.467  15.103 -0.1516  0.4681 -0.8338
 6124SOL    HW130005   1.635   4.520  15.053  0.1557 -0.3579 -1.3351
 6124SOL    HW230006   1.495   4.486  15.051 -0.5883 -1.2391 -0.8274
 6125SOL     OW30007   1.902   4.303   4.138 -0.1492  0.0159  0.6426
 6125SOL    HW130008   1.961   4.230   4.116  0.0046  0.7077 -1.2267
 6125SOL    HW230009   1.836   4.259   4.191 -0.1503 -1.5968 -0.6789
 6126SOL     OW30010   3.734   1.574  17.539 -0.1476  0.3087  0.7564
 6126SOL    HW130011   3.701   1.644  17.596 -2.6795 -0.4157  0.1959
 6126SOL    HW230012   3.823   1.564  17.571  0.3695 -0.2526 -0.8488
 6127SOL     OW30013   2.730   2.444   4.716 -0.0305 -0.1649  0.1387
 6127SOL    HW130014   2.718   2.496   4.795 -0.7410  0.2445 -0.2339
 6127SOL    HW230015   2.705   2.504   4.646 -2.3867 -2.5660 -1.1033
 6128SOL     OW30016   2.600   1.187  10.378  0.0765 -0.0075  0.4031
 6128SOL    HW130017   2.602   1.097  10.409  0.4722 -0.9346 -2.3013
 6128SOL    HW230018   2.672   1.223  10.430  0.6676 -2.8781  1.5558
 6129SOL     OW30019   1.692   2.814  13.189 -0.2094  0.0125  0.6892
 6129SOL    HW130020   1.746   2.736  13.177  1.7752  1.7050 -1.3327
 6129SOL    HW230021   1.684   2.817  13.284 -1.2054  1.8932  0.5517
 6130SOL     OW30022   3.924   3.350  13.173 -0.0494 -0.0589 -0.0960
 6130SOL    HW130023   3.994   3.286  13.177 -0.2216 -0.3359 -1.2835
 6130SOL    HW230024   3.964   3.436  13.185 -0.7109  0.2866 -0.3728
 6131SOL     OW30025   4.634   0.499   4.508  0.0763 -0.5664  0.5420
 6131SOL    HW130026   4.659   0.529   4.421 -3.6397  1.6466  0.1951
 6131SOL    HW230027   4.615   0.408   4.486 -1.3485  0.6545 -3.1967
 6132SOL     OW30028   1.039   2.726   6.206 -0.1062  0.4493 -0.8155
 6132SOL    HW130029   1.051   2.815   6.238 -1.2355  0.9193 -1.6851
 6132SOL    HW230030   1.131   2.703   6.193  0.3391  0.9688  1.4160
 6133SOL     OW30031   3.162   1.676   8.953 -0.4707 -0.1270 -0.8122
 6133SOL    HW130032   3.144   1.767   8.976  1.8659 -0.8349  3.6831
 6133SOL    HW230033   3.251   1.678   8.920  0.4237 -0.6805  1.5422
 6134SOL     OW30034   1.186   0.204   4.570  0.1235 -0.6764  0.8527
 6134SOL    HW130035   1.122   0.254   4.519  1.9470 -1.5084 -2.2312
 6134SOL    HW230036   1.161   0.225   4.660 -0.7260  0.3428  0.3919
 6135SOL     OW30037   0.519   1.625   7.454 -0.0374  0.2198  0.2423
 6135SOL    HW130038   0.456   1.656   7.519  0.6850 -0.3689  1.2171
 6135SOL    HW230039   0.540   1.539   7.489  0.5128  0.5025  0.6066
 6136SOL     OW30040   3.220   1.233   5.700  0.2721 -0.2091  0.5359
 6136SOL    HW130041   3.288   1.245   5.766 -0.7716  1.4011  1.3084
 6136SOL    HW230042   3.185   1.322   5.697  1.6893  0.3213 -0.0761
 6137SOL     OW30043   2.149   2.484  12.883  0.4829 -0.2218  0.4974
 6137SOL    HW130044   2.074   2.542  12.884 -0.3132 -1.2516  0.5427
 6137SOL    HW230045   2.110   2.402  12.853 -1.8546  1.3679 -0.8038
 6138SOL     OW30046   2.555   4.276  17.115  0.0455  0.7062 -0.4937
 6138SOL    HW130047   2.471   4.234  17.132  0.3328  0.8740  1.3665
 6138SOL    HW230048   2.557   4.270  17.019 -1.2418  1.4305 -0.5678
 6139SOL     OW30049   3.255   3.938  10.550 -0.4884 -0.1997  0.3367
 6139SOL    HW130050   3.346   3.955  10.525 -1.5040  3.6981 -0.7602
 6139SOL    HW230051   3.241   3.895  10.634 -2.0933  0.6114  0.4985
 6140SOL     OW30052   1.008   0.739  17.738  0.2727  0.5605  0.1636
 6140SOL    HW130053   0.960   0.766  17.660  0.7955 -0.2539 -0.4362
 6140SOL    HW230054   1.091   0.772  17.703  0.4254 -0.7449 -0.6774
 6141SOL     OW30055   3.695   3.721   4.284  0.7291 -0.1995  0.1234
 6141SOL    HW130056   3.743   3.645   4.316  0.4547  0.8649  3.0183
 6141SOL    HW230057   3.673   3.754   4.371 -0.0306  0.5128 -0.3396
 6142SOL     OW30058   4.122   3.437   4.111 -0.1478  0.1426 -0.0351
 6142SOL    HW130059   4.187   3.474   4.051 -0.1919  0.5388  0.1567
 6142SOL    HW230060   4.052   3.410   4.052  2.3160  1.2592 -3.4662
 6143SOL     OW30061   0.307   3.472  11.451  0.1588 -0.0556  0.6428
 6143SOL    HW130062   0.314   3.540  11.384 -0.8639  1.0204  1.6187
 6143SOL    HW230063   0.247   3.515  11.513  1.3642 -1.5648  2.8611
 6144SOL     OW30064   0.441   1.652  15.118  0.1496  0.0695 -0.3082
 6144SOL    HW130065   0.407   1.566  15.092 -0.5918  1.0314 -2.4599
 6144SOL    HW230066   0.505   1.624  15.184  1.1268  1.8413 -0.5030
 6145SOL     OW30067   1.023   2.269   0.781 -0.2078  0.4201  0.0814
 6145SOL    HW130068   0.936   2.288   0.818 -0.0018 -0.3861  0.9967
 6145SOL    HW230069   0.993   2.205   0.717 -1.3150  1.1370 -0.1250
 6146SOL     OW30070   4.430   1.414  14.915  0.5847 -0.0431  0.1002
 6146SOL    HW130071   4.394   1.344  14.860 -0.2953  1.6127 -1.4517
 6146SOL    HW230072   4.525   1.407  14.903  0.6782 -0.2481  0.9541
 6147SOL     OW30073   0.930   0.669  12.601  0.7577 -0.2539 -0.2895
 6147SOL    HW130074   0.898   0.645  12.513  1.4946 -2.0206 -0.0712
 6147SOL    HW230075   0.860   0.718  12.645 -0.3852  0.5210 -2.9443
 6148SOL     OW30076   1.445   0.435  16.309  0.0253 -0.1261 -0.0241
 6148SOL    HW130077   1.475   0.345  16.297 -2.4058 -0.9506 -0.0161
 6148SOL    HW230078   1.386   0.424  16.383  1.5225 -1.3727  0.9757
 6149SOL     OW30079   1.249   0.000  12.010  0.0301  0.2318 -0.0769
 6149SOL    HW130080   1.176   0.005  12.072  1.3955  2.5448  1.3374
 6149SOL    HW230081   1.245   0.087  11.969 -0.2609  1.3019  2.2230
 6150SOL     OW30082   1.884   3.260   9.319 -0.0549 -0.2080 -0.0640
 6150SOL    HW130083   1.862   3.251   9.227 -3.2426  2.5624  0.4437
 6150SOL    HW230084   1.949   3.190   9.326 -0.0393 -0.1780  0.1037
 6151SOL     OW30085   1.149   0.513  12.332  0.2317 -0.2100 -0.4305
 6151SOL    HW130086   1.226   0.544  12.286  2.0688  0.0495  2.8047
 6151SOL    HW230087   1.181   0.499  12.421  0.7911 -0.3658 -0.6536
 6152SOL     OW30088   4.671   4.354   7.479 -0.5708 -0.7622 -0.7963
 6152SOL    HW130089   4.645   4.403   7.557  2.3418  2.8277 -2.0411
 6152SOL    HW230090   4.631   4.411   7.413 -0.6006 -0.9134 -0.9090
 6153SOL     OW30091   2.498   0.558   9.557  0.3572 -0.1218 -0.1880
 6153SOL    HW130092   2.547   0.540   9.637  1.5380  0.6741 -0.7398
 6153SOL    HW230093   2.432   0.621   9.588 -0.2746 -0.5310 -0.6888
 6154SOL     OW30094   2.425   2.765  10.572  0.1032 -0.4989 -0.2520
 6154SOL    HW130095   2.359   2.740  10.508 -0.8744  0.3933  0.4077
 6154SOL    HW230096   2.423   2.861  10.569 -0.5476 -0.5147 -0.3090
 6155SOL     OW30097   2.732   0.324  15.432 -0.0514 -0.0169  0.5568
 6155SOL    HW130098   2.678   0.286  15.502 -2.7857  2.3796 -0.2561
 6155SOL    HW230099   2.667   0.382  15.393 -0.0346 -0.8326 -0.6880
 6156SOL     OW30100   1.593   2.532   3.629 -0.2727 -0.9823 -0.2809
 6156SOL    HW130101   1.653   2.530   3.554 -0.2424 -1.4461 -0.2428
 6156SOL    HW230102   1.526   2.472   3.597 -1.4226 -0.2405  0.7645
 6157SOL     OW30103   0.821   3.884   7.903  0.3713 -0.1282  0.0971
 6157SOL    HW130104   0.729   3.867   7.918  0.4129  0.1775  0.7076
 6157SOL    HW230105   0.816   3.910   7.811 -0.6833 -0.6845 -0.0055
 6158SOL     OW30106   3.544   0.170   5.985  0.2003 -0.0647  0.0375
 6158SOL    HW130107   3.465   0.223   5.990  1.1130  1.2275  0.9816
 6158SOL    HW230108   3.556   0.181   5.891 -0.3870  1.3010  0.1127
 6159SOL     OW30109   1.028   1.317   2.488  0.0649  0.2719  0.5239
 6159SOL    HW130110   1.018   1.254   2.559 -0.0208  0.3992  0.6246
 6159SOL    HW230111   1.090   1.373   2.534 -0.5887 -0.3158  2.1081
 6160SOL     OW30112   0.335   1.911   6.969  0.3509 -0.2995  0.7064
 6160SOL    HW130113   0.383   1.847   6.917 -1.3150 -1.0400  0.0888
 6160SOL    HW230114   0.260   1.857   6.992 -1.3694  1.5943 -0.4483
 6161SOL     OW30115   4.370   3.972   8.072 -0.2030 -0.7179  0.9374
 6161SOL    HW130116   4.403   4.019   8.149 -1.3738  2.0230 -0.2398
 6161SOL    HW230117   4.418   4.012   8.000 -2.7205  0.1820 -0.2175
 6162SOL     OW30118   3.999   3.368   2.691 -0.5491  0.3135 -0.0451
 6162SOL    HW130119   4.068   3.319   2.644 -0.8680 -0.5059  0.3399
 6162SOL    HW230120   4.056   3.444   2.702  0.4454 -0.3250 -0.8011
 6163SOL     OW30121   2.848   0.336   1.844  0.0095  0.6825  0.2569
 6163SOL    HW130122   2.852   0.349   1.749 -0.6155 -2.2480 -0.1666
 6163SOL    HW230123   2.753   0.335   1.852 -0.0364  0.8673 -0.2475
 6164SOL     OW30124   2.294   0.281   9.857  0.2237 -0.1005 -0.1981
 6164SOL    HW130125   2.349   0.304   9.932  2.4185 -0.3470 -1.7542
 6164SOL    HW230126   2.245   0.363   9.851  0.2085 -0.4362 -4.2850
 6165SOL     OW30127   4.098   4.115   4.792  0.1864 -0.2652  0.2599
 6165SOL    HW130128   4.048   4.167   4.855  0.9794 -0.2307  0.8556
 6165SOL    HW230129   4.030   4.059   4.755 -1.1300  0.9769  0.7923
 6166SOL     OW30130   1.913   2.645  12.864  0.2357  0.7782 -0.4260
 6166SOL    HW130131   1.875   2.594  12.935  2.2183 -1.4726 -0.9754
 6166SOL    HW230132   1.837   2.702  12.854 -0.5497 -0.4736 -1.5577
 6167SOL     OW30133   4.296   3.738   6.304  0.0282  0.0870 -0.1889
 6167SOL    HW130134   4.385   3.762   6.279  0.0824 -0.2254 -0.2998
 6167SOL    HW230135   4.287   3.810   6.366  0.7387  1.5706 -1.8148
 6168SOL     OW30136   4.653   1.796   6.152  0.2152  0.5578  0.1534
 6168SOL    HW130137   4.585   1.753   6.101  0.4933  0.1202  0.1531
 6168SOL    HW230138   4.723   1.731   6.164 -1.9249 -2.0776 -1.6676
 6169SOL     OW30139   4.350   1.805  11.228  0.5055  0.9195 -0.4005
 6169SOL    HW130140   4.286   1.852  11.175  0.3129  1.1861  0.0618
 6169SOL    HW230141   4.389   1.888  11.256  2.0688 -0.6410  2.0838
 6170SOL     OW30142   1.496   1.402   4.695  0.5857 -0.5652 -0.2976
 6170SOL    HW130143   1.471   1.409   4.603  0.0513  0.6498 -0.0651
 6170SOL    HW230144   1.543   1.484   4.681  0.9622 -0.8193 -0.5290
 6171SOL     OW30145   0.834   1.929   7.697  0.0090  0.1806 -0.0502
 6171SOL    HW130146   0.868   2.015   7.721  2.4530 -0.6930 -0.4154
 6171SOL    HW230147   0.749   1.952   7.661  0.1437  1.5202  0.4887
 6172SOL     OW30148   0.342   4.172   6.738  0.1734  0.0793  0.8989
 6172SOL    HW130149   0.396   4.101   6.774 -0.5053 -1.7495 -1.6979
 6172SOL    HW230150   0.316   4.220   6.816  1.3476  0.6526  0.9363
 6173SOL     OW30151   1.949   4.019   5.390 -0.4003 -0.0604 -0.4128
 6173SOL    HW130152   1.901   3.937   5.404 -0.5373 -0.1402 -1.3962
 6173SOL    HW230153   2.041   3.994   5.399 -0.7360 -1.9814 -2.4107
 6174SOL     OW30154   3.202   1.811   2.639 -0.1016  0.4912 -0.0273
 6174SOL    HW130155   3.213   1.716   2.634 -0.9544  0.4408 -0.9430
 6174SOL    HW230156   3.145   1.814   2.715  0.4359  2.8651  0.2771
 6175SOL     OW30157   2.657   3.496   2.603 -0.3870  0.3988  0.2424
 6175SOL    HW130158   2.715   3.538   2.540 -1.0452 -0.3656 -0.8620
 6175SOL    HW230159   2.572   3.530   2.578 -0.9597 -0.0417  1.5987
 6176SOL     OW30160   4.714   2.466   3.761 -0.5634  0.3828  0.5004
 6176SOL    HW130161   4.644   2.518   3.723 -0.1266  0.4996 -0.1532
 6176SOL    HW230162   0.040   2.536   3.784 -0.6338  0.0259  1.7524
 6177SOL     OW30163   2.316   2.564   9.249  0.2633  0.1357 -0.1497
 6177SOL    HW130164   2.388   2.517   9.207  2.0408  4.2466 -1.6961
 6177SOL    HW230165   2.360   2.634   9.297 -0.5136  1.1756 -0.9712
 6178SOL     OW30166   3.850   2.089   1.146 -0.0279  0.7611  0.0465
 6178SOL    HW130167   3.886   2.023   1.206 -0.3304  1.7731  1.3501
 6178SOL    HW230168   3.927   2.125   1.102 -0.5771  0.5222 -1.0876
 6179SOL     OW30169   3.692   0.460  10.755  0.4410 -0.1462 -0.1516
 6179SOL    HW130170   3.714   0.487  10.844  0.5171  0.1274 -0.2535
 6179SOL    HW230171   3.618   0.402  10.772 -0.7184  1.3523 -0.1328
 6180SOL     OW30172   0.460   1.507   0.053  0.4965  0.1508  0.5500
 6180SOL    HW130173   0.396   1.446   0.015  2.9208 -2.9125  1.3450
 6180SOL    HW230174   0.458   1.563  17.718  1.1816 -0.6384 -0.0470
 6181SOL     OW30175   2.746   4.599   2.910  0.3961  0.1999 -0.1871
 6181SOL    HW130176   2.710   4.672   2.861 -0.7396 -0.9840 -1.1097
 6181SOL    HW230177   2.831   4.601   2.866  0.7150 -0.2808  0.4097
 6182SOL     OW30178   2.071   4.309  13.123 -0.8439 -0.3334  0.3758
 6182SOL    HW130179   2.090   4.402  13.133  2.1426 -1.1025  2.0858
 6182SOL    HW230180   2.155   4.270  13.149 -0.7307  0.2457  0.8813
 6183SOL     OW30181   0.620   2.087   8.441 -0.5155  0.1114 -0.1187
 6183SOL    HW130182   0.659   2.056   8.360 -0.0755 -2.8471  1.2255
 6183SOL    HW230183   0.697   2.094   8.499 -0.3150 -3.0041  0.0023
 6184SOL     OW30184   0.972   0.387   8.911  0.6012  0.3822  0.2431
 6184SOL    HW130185   1.037   0.325   8.943  1.4510  0.7565 -0.7137
 6184SOL    HW230186   0.952   0.439   8.988  0.1740  3.1916 -1.7557
 6185SOL     OW30187   0.248   3.945   4.400 -0.7478  0.2188  0.2170
 6185SOL    HW130188   0.277   4.017   4.456  1.1457  0.1719 -0.6936
 6185SOL    HW230189   0.271   3.986   4.316  4.0061 -3.9208 -0.5043
 6186SOL     OW30190   2.377   4.250  10.595 -0.1286  0.2804 -0.2234
 6186SOL    HW130191   2.453   4.252  10.653  0.1036 -0.6084 -0.5018
 6186SOL    HW230192   2.399   4.312  10.525  0.2996 -1.7552 -1.8894
 6187SOL     OW30193   1.451   4.575   1.475 -0.4007 -0.2722 -0.1210
 6187SOL    HW130194   1.358   4.556   1.482 -0.2371 -0.3092  2.0172
 6187SOL    HW230195   1.486   4.494   1.437  1.4070  1.2827 -1.8081
 6188SOL     OW30196   0.347   2.118   4.467  0.2991 -0.4407 -0.0563
 6188SOL    HW130197   0.398   2.037   4.474  0.0168 -0.9559 -4.0059
 6188SOL    HW230198   0.415   2.175   4.430 -1.9472  1.6646 -0.9092
 6189SOL     OW30199   0.080   4.417   2.711  0.0154  0.0479  0.4174
 6189SOL    HW130200   0.155   4.394   2.767 -0.0414  0.3785  0.6255
 6189SOL    HW230201   0.068   4.332   2.668 -1.5294  0.1942  0.5828
 6190SOL     OW30202   4.126   0.454   0.469  0.2995  0.0315  0.2648
 6190SOL    HW130203   4.063   0.524   0.453  1.8751  1.0578 -1.4548
 6190SOL    HW230204   4.206   0.503   0.454  0.1496  0.8371  2.1327
 6191SOL     OW30205   1.121   2.935   5.545  0.2748 -0.2119 -0.0236
 6191SOL    HW130206   1.039   2.983   5.561  1.4829  1.2589  1.8357
 6191SOL    HW230207   1.078   2.850   5.551  0.2510 -0.2518 -0.7810
 6192SOL     OW30208   3.681   1.463   7.705 -0.5449  0.1047  0.1367
 6192SOL    HW130209   3.668   1.394   7.641 -2.8309  0.7470 -0.0870
 6192SOL    HW230210   3.664   1.538   7.648 -0.6021  0.4230  0.5672
 6193SOL     OW30211   2.255   1.095   7.643 -0.2175 -0.1779 -0.1070
 6193SOL    HW130212   2.316   1.029   7.609 -2.4896 -0.6144 -3.3065
 6193SOL    HW230213   2.173   1.078   7.597 -1.5319 -0.0934  2.2077
 6194SOL     OW30214   3.256   1.365   7.726 -0.2905  0.1790  0.1023
 6194SOL    HW130215   3.194   1.334   7.659 -0.6025  1.6814 -0.3104
 6194SOL    HW230216   3.316   1.292   7.712 -1.2203 -0.4797 -0.5010
 6195SOL     OW30217   2.110   4.198   3.123 -0.1170 -0.1796 -0.4254
 6195SOL    HW130218   2.075   4.270   3.176 -1.5331 -1.1373 -0.0403
 6195SOL    HW230219   2.038   4.180   3.063  0.4881  1.1801 -1.5322
 6196SOL     OW30220   1.905   2.943  14.546  0.1110  0.6146  0.2803
 6196SOL    HW130221   1.905   3.025  14.594 -1.1229  1.1409 -0.6091
 6196SOL    HW230222   1.949   2.882  14.606 -0.1323 -1.1802 -1.3596
 6197SOL     OW30223   0.335   3.066  15.496 -0.5025  0.2526  0.0683
 6197SOL    HW130224   0.270   3.013  15.543  0.1989 -0.2102  0.5210
 6197SOL    HW230225   0.372   3.114  15.569 -1.3993  0.0087  0.6898
 6198SOL     OW30226   1.745   1.646  13.320  0.4227 -0.1848  0.0079
 6198SOL    HW130227   1.803   1.712  13.283 -1.3299  0.4464 -1.6338
 6198SOL    HW230228   1.675   1.655  13.255 -0.4973  0.5244  1.1069
 6199SOL     OW30229   2.905   0.612   7.838 -0.1657  0.6606 -0.3057
 6199SOL    HW130230   2.919   0.540   7.900  0.9538  0.8411 -0.3630
 6199SOL    HW230231   2.986   0.659   7.858 -0.4130  2.3670 -3.3397
 6200SOL     OW30232   0.153   1.297   8.625 -0.0479 -0.1032  0.1603
 6200SOL    HW130233   0.136   1.386   8.595 -1.6138  0.6971  3.3836
 6200SOL    HW230234   0.154   1.304   8.721 -0.9161  0.9944  0.0847
 6201SOL     OW30235   4.567   3.568   3.981  0.5904  0.3004 -0.3740
 6201SOL    HW130236   4.600   3.653   3.953  0.1982  0.4135 -0.4891
 6201SOL    HW230237   4.638   3.511   3.951  0.6426 -0.8202  1.8521
 6202SOL     OW30238   2.193   3.928   8.187  0.1964 -0.0370 -0.3010
 6202SOL    HW130239   2.114   3.877   8.169 -0.6462  1.0196  0.4171
 6202SOL    HW230240   2.163   4.013   8.155 -1.0865 -0.9727 -1.5993
 6203SOL     OW30241   1.127   4.351   3.987  0.3606  0.2208 -0.5377
 6203SOL    HW130242   1.146   4.366   4.079  2.8418 -1.7654 -0.7242
 6203SOL    HW230243   1.034   4.374   3.983  0.2024 -0.4260 -0.5755
 6204SOL     OW30244   3.718   2.992   9.674  0.3508 -0.1834  0.0288
 6204SOL    HW130245   3.664   2.947   9.739 -0.3038  1.3657  0.5334
 6204SOL    HW230246   3.700   3.085   9.686  2.1069  0.0872  0.5604
 6205SOL     OW30247   4.423   2.977   8.088 -0.3085  0.1676  0.1137
 6205SOL    HW130248   4.330   2.994   8.071  0.0302  1.1682 -0.7335
 6205SOL    HW230249   4.453   2.908   8.029 -0.5733 -0.4461  0.6933
 6206SOL     OW30250   3.138   0.445   0.692 -0.3044  0.3709  0.8423
 6206SOL    HW130251   3.118   0.538   0.695  0.0440  0.5950 -2.9473
 6206SOL    HW230252   3.099   0.421   0.608  2.5804 -0.7764 -0.1887
 6207SOL     OW30253   3.968   3.174   8.560 -0.4944 -0.1765 -0.3033
 6207SOL    HW130254   3.914   3.196   8.635 -1.7973  0.2315 -1.3756
 6207SOL    HW230255   4.050   3.182   8.609 -0.4877 -1.2432 -0.1540
 6208SOL     OW30256   1.048   2.197  17.505 -0.3503  0.2053  0.0059
 6208SOL    HW130257   1.095   2.268  17.461 -2.2582  0.1426 -2.1739
 6208SOL    HW230258   1.009   2.163  17.424  1.0919  0.6980 -0.8879
 6209SOL     OW30259   3.984   0.585   6.761 -0.1090  0.2546  0.4248
 6209SOL    HW130260   4.079   0.572   6.758 -0.0143  1.7493 -3.3821
 6209SOL    HW230261   3.950   0.498   6.736  2.2486 -1.1640  2.1391
 6210SOL     OW30262   3.379   0.756   2.677  0.3639 -0.4849  0.2475
 6210SOL    HW130263   3.374   0.738   2.770 -1.1805 -0.5138  0.1557
 6210SOL    HW230264   3.290   0.751   2.642 -0.1033  0.2820  1.3271
 6211SOL     OW30265   4.099   1.683  12.018 -0.1687 -0.3760 -0.4759
 6211SOL    HW130266   4.112   1.708  11.926 -1.4598  1.4342 -0.1613
 6211SOL    HW230267   4.051   1.759  12.052  0.7245 -0.8095  1.6782
 6212SOL     OW30268   4.122   2.472   6.557  0.4083  0.3863 -0.3733
 6212SOL    HW130269   4.109   2.386   6.597  2.7230  0.7083  1.0849
 6212SOL    HW230270   4.162   2.524   6.627  0.2620 -0.5255  0.3865
 6213SOL     OW30271   1.758   0.336   1.087  0.4030 -0.1777  0.0404
 6213SOL    HW130272   1.744   0.342   1.181 -0.1956 -0.2713 -0.0413
 6213SOL    HW230273   1.832   0.276   1.078  0.2820 -0.5702  1.6845
 6214SOL     OW30274   4.482   4.092   7.814 -0.2752  0.4545 -0.0227
 6214SOL    HW130275   4.468   4.177   7.855  2.7443  0.6325  0.6827
 6214SOL    HW230276   4.427   4.102   7.736 -0.9839 -2.7646  0.0466
 6215SOL     OW30277   2.761   4.113   9.795 -0.5231 -0.6761 -0.5642
 6215SOL    HW130278   2.722   4.138   9.711 -0.2320 -0.3506 -0.6024
 6215SOL    HW230279   2.853   4.111   9.771 -0.4870 -0.4391 -0.4524
 6216SOL     OW30280   4.322   2.396  16.831  0.1358  0.1839  0.4188
 6216SOL    HW130281   4.282   2.424  16.748 -0.6302 -1.4448  0.2298
 6216SOL    HW230282   4.260   2.415  16.901 -0.5419  0.2025 -0.1807
 6217SOL     OW30283   0.385   3.483   2.345 -0.9191  0.0255  0.6056
 6217SOL    HW130284   0.467   3.529   2.326 -1.0474 -1.7955 -4.3421
 6217SOL    HW230285   0.358   3.510   2.432 -0.4222 -0.2246  0.8365
 6218SOL     OW30286   2.064   4.111   2.539  0.2916 -0.2250  0.6439
 6218SOL    HW130287   2.003   4.178   2.509  0.9645  0.3798  0.6297
 6218SOL    HW230288   2.031   4.034   2.492  3.0208 -1.4109  0.6257
 6219SOL     OW30289   2.597   3.962   6.332 -0.1585  0.5114  0.2144
 6219SOL    HW130290   2.572   4.028   6.397 -1.2141  0.4156 -0.0833
 6219SOL    HW230291   2.570   3.882   6.377  1.9669  0.9016  2.1603
 6220SOL     OW30292   2.240   0.889   2.482 -0.0483 -0.0495 -0.1828
 6220SOL    HW130293   2.151   0.864   2.457 -0.1380  0.4803 -0.4102
 6220SOL    HW230294   2.223   0.962   2.543  0.8917 -1.8265  2.2226
 6221SOL     OW30295   4.729   1.767  15.975 -0.0094  0.3069 -0.0368
 6221SOL    HW130296   0.019   1.800  15.889  0.4024 -0.1103 -0.0795
 6221SOL    HW230297   4.635   1.784  15.981  0.0232  0.6528 -0.4534
 6222SOL     OW30298   0.679   3.927   3.071 -0.3984 -0.0923  0.2138
 6222SOL    HW130299   0.719   3.855   3.120 -1.2513  0.0476  1.1199
 6222SOL    HW230300   0.757   3.968   3.032  0.1335 -1.1444  0.1538
 6223SOL     OW30301   0.489   2.590   3.876 -0.1838 -0.2040  0.2219
 6223SOL    HW130302   0.464   2.616   3.964  1.4537 -1.0651  0.9453
 6223SOL    HW230303   0.522   2.676   3.852 -0.0066 -0.6781 -1.2462
 6224SOL     OW30304   4.457   3.209   2.986 -0.4513  0.1062  0.1377
 6224SOL    HW130305   4.470   3.133   3.043 -3.7085  1.2326  2.4004
 6224SOL    HW230306   4.390   3.172   2.929 -0.2959  3.3579 -2.1611
 6225SOL     OW30307   4.173   0.821   7.792 -0.2370  0.2284 -0.1056
 6225SOL    HW130308   4.077   0.812   7.789 -0.1830 -0.5365  0.4736
 6225SOL    HW230309   4.184   0.833   7.697  0.1608 -0.6668 -0.1676
 6226SOL     OW30310   1.095   3.136   2.381  0.4325  0.2403  0.5553
 6226SOL    HW130311   1.157   3.177   2.322  0.0202 -0.2039 -0.1825
 6226SOL    HW230312   1.162   3.086   2.428 -1.9551 -2.2253  1.3767
 6227SOL     OW30313   3.314   0.874   5.608  0.1775 -0.4000  0.3804
 6227SOL    HW130314   3.251   0.945   5.594  1.0955  0.0906 -1.3321
 6227SOL    HW230315   3.390   0.907   5.656 -1.0228 -0.6021  2.4123
 6228SOL     OW30316   1.633   0.821  15.571  0.0086  0.6232  0.0974
 6228SOL    HW130317   1.625   0.785  15.660 -1.4807 -0.0453 -0.3045
 6228SOL    HW230318   1.715   0.794  15.530 -0.4083 -0.1851 -0.2115
 6229SOL     OW30319   2.495   0.375   1.317 -0.2679 -0.4642  0.5931
 6229SOL    HW130320   2.491   0.431   1.239  1.5413  0.7932  1.3972
 6229SOL    HW230321   2.520   0.290   1.280  0.1697  0.8477 -2.1178
 6230SOL     OW30322   0.889   3.121   5.178 -0.0951 -0.0359 -0.4567
 6230SOL    HW130323   0.931   3.137   5.263 -1.3666 -0.1921  0.2103
 6230SOL    HW230324   0.798   3.119   5.206  0.5639 -2.5264  1.5511
 6231SOL     OW30325   1.211   3.489   0.217 -0.4893  0.5030  0.3072
 6231SOL    HW130326   1.289   3.497   0.273 -0.0629  0.7768 -0.3346
 6231SOL    HW230327   1.249   3.484   0.130 -0.9263  0.4854  0.1186
 6232SOL     OW30328   3.892   0.115   5.119 -0.1393 -0.3526  0.0949
 6232SOL    HW130329   3.824   0.079   5.176  0.8236 -0.3061  1.2502
 6232SOL    HW230330   3.970   0.064   5.142 -0.7802 -1.9453 -1.2512
 6233SOL     OW30331   2.418   0.870  10.922  0.9784  0.7653  0.2076
 6233SOL    HW130332   2.390   0.780  10.937  2.5105  0.4242  1.0560
 6233SOL    HW230333   2.349   0.927  10.954 -0.0723 -0.8882  0.8556
 6234SOL     OW30334   1.312   3.046   2.506  0.6051  0.0077 -0.0303
 6234SOL    HW130335   1.380   3.106   2.536  0.3029  1.1923 -1.7258
 6234SOL    HW230336   1.371   2.971   2.495 -0.1040 -0.3689 -1.3006
 6235SOL     OW30337   4.049   4.057   9.329 -0.2673  0.2822  0.2792
 6235SOL    HW130338   4.137   4.021   9.333  0.0037  1.0150  0.9011
 6235SOL    HW230339   4.008   3.989   9.276 -0.2280 -0.5284  1.2770
 6236SOL     OW30340   2.712   2.153  10.693 -0.0277  0.1252 -0.6986
 6236SOL    HW130341   2.666   2.095  10.754  3.1085 -1.5591  0.0658
 6236SOL    HW230342   2.645   2.208  10.653 -1.0146  0.6755  1.6786
 6237SOL     OW30343   1.238   3.895   5.317  0.0589 -0.4077 -0.2361
 6237SOL    HW130344   1.189   3.836   5.375  1.1023 -1.6592 -0.6423
 6237SOL    HW230345   1.156   3.921   5.274  0.8803  1.6734 -0.5336
 6238SOL     OW30346   1.687   2.464   0.855 -0.0360 -0.0830  0.6639
 6238SOL    HW130347   1.632   2.415   0.794 -0.9586  0.4364  1.0831
 6238SOL    HW230348   1.650   2.552   0.853  1.6408  0.6256  0.7129
 6239SOL     OW30349   4.555   2.046  17.225  0.1028 -0.0352  1.0531
 6239SOL    HW130350   4.498   2.123  17.220 -1.1801 -1.0491  0.2124
 6239SOL    HW230351   4.634   2.086  17.188  1.5563 -0.9873  3.0888
 6240SOL     OW30352   2.531   0.297   8.274 -0.1411  0.5897  0.5188
 6240SOL    HW130353   2.444   0.312   8.236  0.1009 -0.0178 -0.2701
 6240SOL    HW230354   2.548   0.385   8.307  2.1197 -0.3653  1.9458
 6241SOL     OW30355   3.577   1.358   7.937 -0.1730 -0.9014  0.0582
 6241SOL    HW130356   3.610   1.270   7.918 -0.7127 -0.7876 -1.3824
 6241SOL    HW230357   3.589   1.404   7.854 -0.0711  0.9859  1.1044
 6242SOL     OW30358   2.923   4.336   5.690  0.2611  0.1808  0.0168
 6242SOL    HW130359   2.842   4.373   5.725  0.4817 -0.7930  1.5733
 6242SOL    HW230360   2.975   4.355   5.768 -1.1397  0.7622  0.8261
 6243SOL     OW30361   2.506   0.652  12.503 -0.2647  0.4290  0.4979
 6243SOL    HW130362   2.531   0.563  12.529  0.3939  0.3151 -0.5251
 6243SOL    HW230363   2.548   0.654  12.417 -0.7609  1.0425  0.2718
 6244SOL     OW30364   3.055   2.221   5.327  0.4067  0.0769 -0.6906
 6244SOL    HW130365   3.145   2.217   5.292  1.1413  0.4056  1.1895
 6244SOL    HW230366   3.026   2.133   5.304 -3.3058  0.8985  1.0062
 6245SOL     OW30367   0.700   4.084  14.676 -0.2473 -0.5330  0.0693
 6245SOL    HW130368   0.741   4.140  14.610 -0.6032 -0.8991 -0.4623
 6245SOL    HW230369   0.776   4.067  14.731 -1.3320  0.0498  1.7759
 6246SOL     OW30370   1.801   2.477   4.600 -0.2425  0.0082  0.0302
 6246SOL    HW130371   1.828   2.387   4.618  2.5916  1.2857  2.1922
 6246SOL    HW230372   1.736   2.484   4.670 -1.6143  2.8717 -1.4990
 6247SOL     OW30373   4.108   4.303   4.210 -0.5661  0.0825  0.2808
 6247SOL    HW130374   4.195   4.267   4.196 -0.3019  0.8838 -0.1026
 6247SOL    HW230375   4.097   4.292   4.304  0.7540  1.3336  0.5761
 6248SOL     OW30376   3.469   3.899   7.446  0.1724 -0.5033 -0.5324
 6248SOL    HW130377   3.503   3.809   7.444 -0.1643 -0.6891  1.8953
 6248SOL    HW230378   3.510   3.930   7.527  0.9689  2.5253 -2.0967
 6249SOL     OW30379   0.022   0.523   4.212  0.1356  0.1989 -0.1257
 6249SOL    HW130380   0.109   0.495   4.183  0.0260 -1.4107  1.1441
 6249SOL    HW230381   4.724   0.558   4.129 -1.7263  0.4066  0.7161
 6250SOL     OW30382   3.587   0.102  13.241 -0.3484 -0.5189 -0.1214
 6250SOL    HW130383   3.625   0.157  13.173  1.8962 -1.2052  0.5711
 6250SOL    HW230384   3.669   0.079  13.286  0.9817  0.6626 -1.9459
 6251SOL     OW30385   0.998   2.496   5.202 -0.0997  0.0552  0.1467
 6251SOL    HW130386   1.018   2.468   5.113  1.4053  0.1016  0.4764
 6251SOL    HW230387   0.942   2.574   5.209  0.3225  0.6956 -3.8780
 6252SOL     OW30388   2.930   2.352   9.818 -0.0410 -0.1713  0.1326
 6252SOL    HW130389   2.928   2.447   9.822 -0.7447 -0.1807  0.0004
 6252SOL    HW230390   3.013   2.327   9.778  0.6231  0.5510  1.0612
 6253SOL     OW30391   1.248   2.271  15.900 -0.1610  0.3492 -0.0775
 6253SOL    HW130392   1.222   2.293  15.811  0.0527 -0.4494 -0.3351
 6253SOL    HW230393   1.238   2.176  15.899 -1.7584  0.5245 -1.4638
 6254SOL     OW30394   0.091   0.030   4.118  0.6837 -0.8424 -0.2624
 6254SOL    HW130395   0.176   0.074   4.110  0.8486 -1.3531 -1.3241
 6254SOL    HW230396   0.055   0.061   4.201  3.2235 -0.5431  0.7190
 6255SOL     OW30397   1.660   2.483  12.295  0.4237  0.7342 -0.4848
 6255SOL    HW130398   1.668   2.579  12.289 -0.8436  1.0973  4.2826
 6255SOL    HW230399   1.566   2.472  12.287  0.5824 -0.7304 -0.3588
 6256SOL     OW30400   3.781   2.313  11.307  0.0721 -0.1207 -0.1579
 6256SOL    HW130401   3.739   2.340  11.389  0.8975  0.7220 -0.0125
 6256SOL    HW230402   3.869   2.295  11.341  0.6818  1.9371 -0.6605
 6257SOL     OW30403   0.024   4.427   3.176  0.0282 -0.2190 -0.1982
 6257SOL    HW130404   4.728   4.492   3.113  2.3587 -0.0368 -1.1567
 6257SOL    HW230405   4.673   4.404   3.211  0.9562  0.5722  2.5813
 6258SOL     OW30406   3.551   1.509   6.235  0.0543  0.3989 -0.0328
 6258SOL    HW130407   3.552   1.415   6.249 -1.1569 -0.2482 -4.4910
 6258SOL    HW230408   3.628   1.517   6.179 -1.6644 -0.2759 -2.4428
 6259SOL     OW30409   1.715   1.666   2.984 -0.0462 -0.0843  0.2686
 6259SOL    HW130410   1.758   1.722   2.920 -0.4878 -0.6257 -0.5079
 6259SOL    HW230411   1.668   1.736   3.028 -1.1058 -0.0139 -0.9735
 6260SOL     OW30412   4.467   3.677   9.997 -0.1241  0.1503  0.4149
 6260SOL    HW130413   4.375   3.651  10.002 -0.6987  1.8311 -1.1571
 6260SOL    HW230414   4.501   3.614   9.934 -0.2377  0.6132 -0.1068
 6261SOL     OW30415   4.218   3.790   8.568 -0.2966 -0.3086  0.4888
 6261SOL    HW130416   4.208   3.713   8.512 -1.1639 -0.4161  0.8005
 6261SOL    HW230417   4.313   3.793   8.582 -0.3638 -1.7024  1.2714
 6262SOL     OW30418   3.512   2.003   3.556 -0.4696  0.3904 -0.5735
 6262SOL    HW130419   3.480   1.928   3.505 -1.3364  0.6215 -0.3601
 6262SOL    HW230420   3.499   2.073   3.492 -1.1900  0.0270 -0.8275
 6263SOL     OW30421   4.086   2.215   6.731  0.0323  0.2212 -0.3439
 6263SOL    HW130422   4.037   2.272   6.791 -1.2917 -2.4305  1.1036
 6263SOL    HW230423   4.178   2.229   6.754 -0.2364  0.8256  0.3654
 6264SOL     OW30424   3.978   0.803  14.872 -0.4142  0.1187 -0.7498
 6264SOL    HW130425   4.003   0.710  14.876 -1.4030 -0.1351 -0.5752
 6264SOL    HW230426   3.985   0.819  14.966  1.4227  1.4160 -1.1064
 6265SOL     OW30427   1.343   1.744  11.892  0.5234 -0.3372 -0.6245
 6265SOL    HW130428   1.415   1.806  11.888  0.2741  0.0900  1.4242
 6265SOL    HW230429   1.401   1.670  11.909 -0.0941 -0.5576  0.5149
 6266SOL     OW30430   2.129   3.466   2.226  0.6184  0.5814 -0.3617
 6266SOL    HW130431   2.076   3.460   2.146  0.2179  3.3784 -0.2994
 6266SOL    HW230432   2.063   3.454   2.294  1.1465  0.9352  0.2033
 6267SOL     OW30433   2.021   4.077  12.181 -0.2261  0.4514  0.3067
 6267SOL    HW130434   1.991   4.094  12.091 -3.2155 -1.6380  0.9234
 6267SOL    HW230435   1.942   4.056  12.229  1.1868  1.2608  2.9657
 6268SOL     OW30436   3.843   3.555   7.478 -0.6158  0.0416 -0.7837
 6268SOL    HW130437   3.841   3.606   7.396 -2.1627  1.3257  0.0368
 6268SOL    HW230438   3.752   3.554   7.508  0.0921 -1.9489  1.2741
 6269SOL     OW30439   4.544   0.485   0.682  0.1444  0.2844  0.7963
 6269SOL    HW130440   4.491   0.474   0.760 -0.3729  0.3739  0.4550
 6269SOL    HW230441   4.633   0.479   0.717  0.7726  2.9210 -0.3328
 6270SOL     OW30442   0.899   4.553  10.984  0.3587  0.3109 -0.1650
 6270SOL    HW130443   0.828   4.527  11.042 -0.8740  1.7099 -1.0568
 6270SOL    HW230444   0.968   4.507  11.032 -1.2671 -0.3174  1.5640
 6271SOL     OW30445   3.016   1.476   2.458  0.0171 -0.6338  0.6619
 6271SOL    HW130446   2.964   1.422   2.398 -1.0330  0.6287  0.4351
 6271SOL    HW230447   3.072   1.530   2.401 -1.0006  0.3267  0.5741
 6272SOL     OW30448   4.632   2.206  14.017  0.5777 -0.4580 -0.1352
 6272SOL    HW130449   4.621   2.291  13.975  0.9927 -0.8150 -0.9549
 6272SOL    HW230450   4.541   2.183  14.036  0.5838 -0.2466  0.1570
 6273SOL     OW30451   3.128   2.596   6.146 -0.3989 -0.6991  0.1094
 6273SOL    HW130452   3.112   2.643   6.064 -0.5902 -0.1313  0.4745
 6273SOL    HW230453   3.051   2.626   6.194 -0.7271  2.5661 -2.4490
 6274SOL     OW30454   1.953   2.598   1.004  0.2013 -0.0688  0.2871
 6274SOL    HW130455   1.942   2.655   0.928  1.3436 -0.5964 -0.2654
 6274SOL    HW230456   1.959   2.513   0.961 -1.3726 -0.2124  0.3441
 6275SOL     OW30457   2.565   0.612   8.672  0.0665  0.2075 -0.5647
 6275SOL    HW130458   2.526   0.699   8.662 -0.4027  0.2357  1.6010
 6275SOL    HW230459   2.596   0.607   8.762  1.5541 -0.8179 -1.1193
 6276SOL     OW30460   0.646   0.033  11.466  0.0019  0.0934  0.3607
 6276SOL    HW130461   0.621   0.117  11.504 -0.0073  0.9360 -1.5155
 6276SOL    HW230462   0.740   0.030  11.484 -0.2789  0.7241  1.9043
 6277SOL     OW30463   1.333   1.478   8.940  0.0777 -0.1580  0.3660
 6277SOL    HW130464   1.300   1.436   8.860 -1.9010  0.4974  0.8394
 6277SOL    HW230465   1.427   1.472   8.924  0.0136 -0.1398 -0.0266
 6278SOL     OW30466   0.223   0.629   2.860 -0.2889  0.0889 -0.0425
 6278SOL    HW130467   0.313   0.653   2.879  0.2364 -2.5389  0.7840
 6278SOL    HW230468   0.170   0.675   2.925  1.0428  0.6506  0.6495
 6279SOL     OW30469   3.704   3.282   1.947  0.4003 -0.8773 -0.0837
 6279SOL    HW130470   3.707   3.204   2.003  0.7124 -0.8230 -0.0262
 6279SOL    HW230471   3.768   3.333   1.996  0.4674  0.2170 -1.3339
 6280SOL     OW30472   4.243   1.713   9.568 -0.4630  0.0465 -0.3901
 6280SOL    HW130473   4.192   1.791   9.544 -0.0987  0.1435 -0.8390
 6280SOL    HW230474   4.287   1.703   9.484  0.7151 -1.8243  0.4482
 6281SOL     OW30475   0.817   3.047  13.002 -0.1085 -0.0548 -0.3421
 6281SOL    HW130476   0.801   3.123  13.058 -1.6891  0.8568 -2.0568
 6281SOL    HW230477   0.815   2.973  13.063  3.5298 -0.4324 -0.6630
 6282SOL     OW30478   3.704   3.604   9.489  0.1239 -0.4240 -0.4218
 6282SOL    HW130479   3.611   3.614   9.508  0.3008  1.3640 -0.4979
 6282SOL    HW230480   3.753   3.609   9.570  3.6752  1.4928 -2.6834
 6283SOL     OW30481   1.927   0.401   5.929  0.1163  0.1250  0.3605
 6283SOL    HW130482   1.891   0.489   5.942 -0.7917  0.0096 -1.4753
 6283SOL    HW230483   1.853   0.348   5.957 -0.2882  1.1778  1.2919
 6284SOL     OW30484   0.302   4.326   3.838 -0.1956 -0.3826  0.1284
 6284SOL    HW130485   0.298   4.230   3.831 -0.8752 -0.3693  0.3314
 6284SOL    HW230486   0.393   4.355   3.831 -0.0634 -0.0266  3.4246
 6285SOL     OW30487   2.276   1.142   1.508 -0.4799  0.5214 -0.0981
 6285SOL    HW130488   2.197   1.188   1.482  0.0292  0.4536 -1.7741
 6285SOL    HW230489   2.235   1.058   1.531 -0.9676  0.3618 -1.5366
 6286SOL     OW30490   1.442   4.676  10.934 -0.5404 -0.3420 -0.1040
 6286SOL    HW130491   1.477   4.720  11.011  0.1073  0.8323 -1.0661
 6286SOL    HW230492   1.370   4.624  10.970 -0.3531 -2.5639 -2.9762
 6287SOL     OW30493   2.809   1.011  11.950  0.2484 -0.3253  0.6632
 6287SOL    HW130494   2.867   1.080  11.984 -1.2494  1.0604  0.3906
 6287SOL    HW230495   2.803   0.965  12.033 -0.4307  0.2929  0.9564
 6288SOL     OW30496   2.190   0.822   1.220 -0.2890  0.3041 -0.0276
 6288SOL    HW130497   2.240   0.822   1.139 -1.8744  0.3903 -0.9976
 6288SOL    HW230498   2.260   0.810   1.285 -0.4919  0.3807  0.2059
 6289SOL     OW30499   3.200   2.689   8.845 -0.2637  0.5360  0.2737
 6289SOL    HW130500   3.214   2.770   8.797  2.2153  0.1420  0.2909
 6289SOL    HW230501   3.255   2.629   8.794  0.3797  0.5823  0.9126
 6290SOL     OW30502   1.528   0.948   4.640 -0.1545  0.1238 -0.4118
 6290SOL    HW130503   1.624   0.938   4.642 -0.3635 -1.9652 -0.5871
 6290SOL    HW230504   1.521   1.041   4.620  0.8916 -0.2755 -2.6983
 6291SOL     OW30505   1.105   1.969   4.248 -0.4781  0.5423  0.0934
 6291SOL    HW130506   1.030   2.027   4.265 -2.0582 -1.9241  1.5020
 6291SOL    HW230507   1.119   1.986   4.155  0.9689 -0.8588  0.0702
 6292SOL     OW30508   3.454   0.859  12.808  0.4028 -0.0711  0.0803
 6292SOL    HW130509   3.399   0.900  12.742  0.9474 -1.6586 -1.3721
 6292SOL    HW230510   3.513   0.933  12.824  1.0636 -1.1502  2.7986
 6293SOL     OW30511   0.958   2.198   3.821  0.2674  0.1512 -0.4166
 6293SOL    HW130512   0.979   2.289   3.840  2.6579 -0.5254  0.1931
 6293SOL    HW230513   0.902   2.209   3.744 -0.5002 -1.4203 -0.0890
 6294SOL     OW30514   3.289   2.327   5.545 -0.1246  0.2711 -0.3015
 6294SOL    HW130515   3.319   2.392   5.482 -1.0221  3.2324  2.3772
 6294SOL    HW230516   3.336   2.362   5.621 -0.5269 -1.4664  0.7536
 6295SOL     OW30517   1.206   0.454  15.351  0.2125  0.4711  0.1989
 6295SOL    HW130518   1.161   0.379  15.391  3.4519 -2.4266 -1.6460
 6295SOL    HW230519   1.232   0.501  15.430  0.2213  1.2639 -0.2721
 6296SOL     OW30520   0.461   0.749   0.268 -0.8008  0.1496  0.2174
 6296SOL    HW130521   0.537   0.702   0.235 -0.1960  2.0302 -1.0661
 6296SOL    HW230522   0.429   0.778   0.182 -0.6326 -1.2807 -0.3179
 6297SOL     OW30523   3.519   2.913  10.287 -0.2570 -0.0817 -0.4662
 6297SOL    HW130524   3.443   2.860  10.312  1.4036 -1.9195  0.6841
 6297SOL    HW230525   3.583   2.889  10.355  0.7687  3.7684 -0.0602
 6298SOL     OW30526   0.837   4.465  17.424 -0.0612  0.2167 -0.4994
 6298SOL    HW130527   0.883   4.521  17.363  1.5125 -0.6327 -0.0821
 6298SOL    HW230528   0.762   4.430  17.374 -0.7540 -1.3714  1.6359
 6299SOL     OW30529   2.495   0.424  15.033 -0.3927 -0.4258 -0.5041
 6299SOL    HW130530   2.497   0.494  15.099 -0.0943 -1.4775  0.5990
 6299SOL    HW230531   2.402   0.408  15.017 -0.8479  0.1893  1.5252
 6300SOL     OW30532   2.914   3.606   6.432  0.6202  0.2743  0.4057
 6300SOL    HW130533   2.985   3.633   6.373  0.5487 -0.2237  0.0822
 6300SOL    HW230534   2.962   3.569   6.506  2.3195  0.7757 -0.4335
 6301SOL     OW30535   0.434   2.272   8.460  0.3254  0.5256 -0.1647
 6301SOL    HW130536   0.500   2.202   8.467 -0.6342 -0.5903 -2.1213
 6301SOL    HW230537   0.381   2.232   8.391  1.0602  0.4768 -0.7129
 6302SOL     OW30538   1.910   2.182   2.505 -0.6624  0.6129 -0.1023
 6302SOL    HW130539   1.908   2.269   2.466 -1.1103 -0.0490 -1.5320
 6302SOL    HW230540   1.994   2.148   2.474 -1.8296 -2.0937 -0.3108
 6303SOL     OW30541   1.478   0.106   1.414  0.4498 -0.0726  0.4523
 6303SOL    HW130542   1.492   0.016   1.444  1.9769  0.3358  0.9560
 6303SOL    HW230543   1.395   0.096   1.368 -0.5280 -0.4794  2.2992
 6304SOL     OW30544   3.472   2.918   7.103  0.2059 -0.2548 -0.0504
 6304SOL    HW130545   3.508   2.838   7.143 -2.0079 -0.9475  0.5810
 6304SOL    HW230546   3.397   2.934   7.161 -0.8486  0.3296 -1.5881
 6305SOL     OW30547   3.894   2.790   9.864  0.1726  0.2762  0.0405
 6305SOL    HW130548   3.888   2.696   9.851  3.1377  0.0461  0.4362
 6305SOL    HW230549   3.809   2.817   9.828  0.5334 -0.2922 -1.2424
 6306SOL     OW30550   0.916   0.677   6.527 -0.5102 -1.0210  0.2571
 6306SOL    HW130551   0.908   0.754   6.470  1.3985 -0.0752  1.2362
 6306SOL    HW230552   0.897   0.721   6.610  1.7087  2.0514 -0.8522
 6307SOL     OW30553   1.466   2.833   8.558 -0.1899 -0.4749 -0.0453
 6307SOL    HW130554   1.491   2.745   8.531 -1.0044 -1.1259  1.3449
 6307SOL    HW230555   1.548   2.878   8.541 -0.1118 -0.4083  0.5313
 6308SOL     OW30556   1.167   3.108   8.945 -0.4290 -0.6224  0.3898
 6308SOL    HW130557   1.145   3.043   9.011 -1.7839  0.1929  0.7397
 6308SOL    HW230558   1.239   3.062   8.902  0.3792  1.6070 -0.6901
 6309SOL     OW30559   0.197   1.572   4.097  0.6825  0.2272 -0.7526
 6309SOL    HW130560   0.125   1.599   4.154  0.3564 -1.2939 -0.4499
 6309SOL    HW230561   0.148   1.532   4.026  2.0046  0.3879 -1.7623
 6310SOL     OW30562   2.563   4.243  10.781 -0.2254  0.0229  0.5117
 6310SOL    HW130563   2.539   4.156  10.811 -0.0076  0.0104  0.6578
 6310SOL    HW230564   2.656   4.254  10.805  0.1425 -1.4543 -0.2818
 6311SOL     OW30565   0.349   3.909   9.460 -0.1668 -0.0797  1.0202
 6311SOL    HW130566   0.335   3.957   9.542 -1.4413  1.1616  0.0591
 6311SOL    HW230567   0.297   3.954   9.394  1.3015 -0.9014 -0.6870
 6312SOL     OW30568   1.672   4.224   3.196  0.1326 -0.1377 -0.0121
 6312SOL    HW130569   1.749   4.198   3.145 -1.4265  0.2270 -2.5309
 6312SOL    HW230570   1.607   4.207   3.128 -1.5854 -0.8361  1.7936
 6313SOL     OW30571   2.963   1.215  14.982  0.0689  0.2427  0.9259
 6313SOL    HW130572   3.028   1.203  15.051  1.1675  2.2692  0.2451
 6313SOL    HW230573   3.015   1.173  14.914  2.3299  2.0139  1.5445
 6314SOL     OW30574   0.410   2.648  12.094 -0.3232  0.1623  0.0012
 6314SOL    HW130575   0.326   2.675  12.132  0.0166  3.6259 -1.7329
 6314SOL    HW230576   0.451   2.590  12.158 -0.4808  0.4540  0.3704
 6315SOL     OW30577   1.151   2.177   5.239 -0.2863  0.3839 -0.6492
 6315SOL    HW130578   1.202   2.258   5.241 -0.8852  0.7257  0.9899
 6315SOL    HW230579   1.212   2.106   5.261 -0.3025  1.3798  2.5908
 6316SOL     OW30580   0.471   1.062  12.996 -0.2022 -0.3470  0.5394
 6316SOL    HW130581   0.490   1.117  13.072 -1.5560 -1.6772  1.8341
 6316SOL    HW230582   0.459   1.126  12.925  0.9318 -1.7026 -0.8774
 6317SOL     OW30583   3.866   3.943  13.411 -0.4760 -0.5703  0.4630
 6317SOL    HW130584   3.897   4.011  13.471 -0.5747  0.2880 -0.4599
 6317SOL    HW230585   3.788   3.919  13.462  0.4915 -1.2331  1.6278
 6318SOL     OW30586   4.260   0.022   5.635 -0.0872 -0.3627  0.0921
 6318SOL    HW130587   4.311   0.091   5.677 -0.2292  1.2555 -2.4056
 6318SOL    HW230588   4.268   0.061   5.548 -0.7905  0.5242  0.4277
 6319SOL     OW30589   4.037   3.650   8.128 -0.7706  0.1945  0.2078
 6319SOL    HW130590   4.026   3.555   8.137  1.2713 -0.1062 -0.6037
 6319SOL    HW230591   3.956   3.674   8.082 -0.3959  0.3073 -0.3980
 6320SOL     OW30592   1.148   2.528   5.865 -0.5194  0.8217  0.1809
 6320SOL    HW130593   1.134   2.434   5.859 -1.2842  0.9836 -0.6287
 6320SOL    HW230594   1.206   2.542   5.940  1.2352  0.6188 -1.1436
 6321SOL     OW30595   1.160   4.545  14.109 -0.0683  0.2735  0.0313
 6321SOL    HW130596   1.165   4.456  14.143 -0.4664  1.2542  2.7146
 6321SOL    HW230597   1.082   4.573  14.158 -0.9159 -0.1095 -1.1196
 6322SOL     OW30598   4.332   2.108  11.300 -0.1048  0.6317 -0.4814
 6322SOL    HW130599   4.322   2.138  11.391 -1.6055  0.5494 -0.6278
 6322SOL    HW230600   4.368   2.188  11.262  2.7711 -0.7389 -0.6562
 6323SOL     OW30601   3.333   0.603   1.771  0.0433  0.2127  0.1067
 6323SOL    HW130602   3.273   0.559   1.831  0.3185  0.0693  0.2783
 6323SOL    HW230603   3.292   0.688   1.785  1.4708  1.4881 -3.4356
 6324SOL     OW30604   1.982   1.178   6.812  0.3161 -0.3168 -0.5085
 6324SOL    HW130605   1.974   1.121   6.735 -1.2566 -1.2816  0.3586
 6324SOL    HW230606   1.956   1.267   6.787 -1.4101 -1.0923 -1.5201
 6325SOL     OW30607   3.535   0.353  15.944  0.4803  0.6887 -0.4237
 6325SOL    HW130608   3.490   0.271  15.967 -0.5211  0.8101 -1.9880
 6325SOL    HW230609   3.627   0.341  15.967  0.3447  0.1430 -0.1522
 6326SOL     OW30610   4.138   3.756   9.193 -1.0825 -0.3829  0.7488
 6326SOL    HW130611   4.160   3.807   9.115 -0.5481  1.6269  2.1897
 6326SOL    HW230612   4.221   3.708   9.194 -1.1327 -0.4094  3.4649
 6327SOL     OW30613   2.816   3.847   7.323  0.5809  0.1407  0.3727
 6327SOL    HW130614   2.780   3.862   7.236 -1.5958 -0.5943  1.1504
 6327SOL    HW230615   2.805   3.752   7.334 -1.2076  0.1155 -1.6190
 6328SOL     OW30616   3.813   0.743   4.987 -0.2108 -0.3231  0.8968
 6328SOL    HW130617   3.802   0.830   4.948  1.9639 -0.3186  0.2802
 6328SOL    HW230618   3.744   0.740   5.053 -0.3080 -0.6300  0.7821
 6329SOL     OW30619   0.922   3.928   8.163 -0.2846 -0.0882 -0.1087
 6329SOL    HW130620   0.900   3.879   8.083  1.4148  0.1274 -0.7166
 6329SOL    HW230621   0.865   4.004   8.162  1.1950  1.0354  0.3138
 6330SOL     OW30622   3.958   4.426   8.462 -0.1226 -0.7602 -0.0194
 6330SOL    HW130623   3.966   4.421   8.557 -2.0625 -0.1025  0.1679
 6330SOL    HW230624   4.016   4.501   8.450  0.4724 -1.3744 -0.9781
 6331SOL     OW30625   3.632   1.598   4.784  0.4019 -0.1456 -0.1825
 6331SOL    HW130626   3.696   1.596   4.714  0.0885 -0.3859 -0.4647
 6331SOL    HW230627   3.553   1.628   4.738 -1.6593 -1.1792  2.6335
 6332SOL     OW30628   2.972   3.210   0.554  0.0803  0.4494  0.3731
 6332SOL    HW130629   2.999   3.119   0.536 -0.4685  0.4202 -0.3334
 6332SOL    HW230630   3.031   3.248   0.489  0.0366  0.4038  0.3059
 6333SOL     OW30631   3.631   3.518   6.730  0.7431 -0.2621 -0.2564
 6333SOL    HW130632   3.705   3.568   6.764 -0.5496  0.0184  2.1150
 6333SOL    HW230633   3.640   3.543   6.638  0.5438  0.0929 -0.1808
 6334SOL     OW30634   1.319   3.298   2.244  0.5354 -0.0704  0.3340
 6334SOL    HW130635   1.379   3.329   2.177 -0.1026 -2.0402 -1.1322
 6334SOL    HW230636   1.241   3.343   2.211  0.9712  3.5787  4.2591
 6335SOL     OW30637   2.744   1.116   1.539  0.3690 -0.3945 -0.0829
 6335SOL    HW130638   2.716   1.192   1.488  1.1748 -0.6508 -0.8978
 6335SOL    HW230639   2.674   1.111   1.605  0.6669  0.1373  0.2737
 6336SOL     OW30640   2.078   0.558   3.195 -0.1391  0.1998 -0.6436
 6336SOL    HW130641   2.068   0.650   3.218  0.6349  0.0353  0.3514
 6336SOL    HW230642   2.146   0.560   3.129  0.4805  0.2836 -0.0032
 6337SOL     OW30643   1.851   1.491  12.120  0.2583 -0.4878 -0.2920
 6337SOL    HW130644   1.810   1.563  12.072  0.7132 -0.4156 -0.5677
 6337SOL    HW230645   1.830   1.526  12.207 -1.6941  0.9956 -1.3635
 6338SOL     OW30646   4.079   0.296   2.724 -0.8381  0.2755  0.4595
 6338SOL    HW130647   4.036   0.356   2.784 -1.1178  2.1530 -1.6101
 6338SOL    HW230648   4.174   0.308   2.735 -0.5664 -0.4149 -1.1378
 6339SOL     OW30649   3.909   4.154  13.593 -0.0922 -0.1869 -0.3875
 6339SOL    HW130650   3.827   4.166  13.642  0.3917  1.6521 -0.0273
 6339SOL    HW230651   3.895   4.226  13.532  0.8346  0.6430  0.3744
 6340SOL     OW30652   2.537   0.483   2.801  0.4106 -0.4366 -0.1048
 6340SOL    HW130653   2.474   0.423   2.760  1.4262 -0.5884 -1.4477
 6340SOL    HW230654   2.585   0.515   2.724 -0.0913  1.7575  0.4979
 6341SOL     OW30655   0.814   2.621   6.665 -0.5169  0.3409  0.0420
 6341SOL    HW130656   0.744   2.665   6.617 -2.3078 -1.6416  0.8347
 6341SOL    HW230657   0.760   2.563   6.719  0.9005 -1.5597 -0.6164
 6342SOL     OW30658   3.465   1.069   5.165 -0.2778 -0.7877  0.4438
 6342SOL    HW130659   3.498   1.096   5.251 -0.2679 -0.1665  0.2453
 6342SOL    HW230660   3.523   1.108   5.100 -0.0163  1.4781  2.0435
 6343SOL     OW30661   0.157   1.768   9.605  0.0613  0.5663  0.3881
 6343SOL    HW130662   0.072   1.797   9.638 -0.9927  0.6228 -2.3065
 6343SOL    HW230663   0.201   1.843   9.564  0.2348  0.3874  0.2441
 6344SOL     OW30664   1.175   3.976   8.273  0.0695  0.0810 -0.2645
 6344SOL    HW130665   1.237   3.906   8.249 -0.1321  0.7362 -2.7502
 6344SOL    HW230666   1.104   3.960   8.210  0.5389  1.3298 -1.1027
 6345SOL     OW30667   4.252   0.464  17.479  0.2595  0.3183 -0.2231
 6345SOL    HW130668   4.324   0.474  17.542 -0.4221  1.6592  0.3242
 6345SOL    HW230669   4.273   0.381  17.435 -1.7744 -0.6125  0.5432
 6346SOL     OW30670   0.802   1.346   5.630 -0.2852  0.1685  0.3174
 6346SOL    HW130671   0.712   1.379   5.620  0.1148  0.4029 -2.3293
 6346SOL    HW230672   0.821   1.368   5.721  0.7598 -0.4616  0.2466
 6347SOL     OW30673   3.098   3.697   3.986  0.0703  0.5672  0.7044
 6347SOL    HW130674   3.105   3.708   3.891  2.3216 -0.6210  0.7219
 6347SOL    HW230675   3.053   3.613   3.982 -1.7048  1.5631 -0.0607
 6348SOL     OW30676   4.393   1.286   4.350  0.3155 -0.0178 -0.4301
 6348SOL    HW130677   4.352   1.204   4.378  1.1810  0.7083  2.9382
 6348SOL    HW230678   4.325   1.332   4.300 -1.0200 -1.7309 -0.2025
 6349SOL     OW30679   3.948   1.227   2.495  0.7471  0.0043  0.2920
 6349SOL    HW130680   3.902   1.285   2.555 -0.4628  0.3663 -0.9906
 6349SOL    HW230681   3.876   1.164   2.502  0.3826  0.0795 -2.6356
 6350SOL     OW30682   3.858   3.643   7.909  0.2451  0.1738  0.1486
 6350SOL    HW130683   3.943   3.628   7.867 -0.0550  0.2141 -0.4835
 6350SOL    HW230684   3.786   3.632   7.847 -0.0900 -0.0217  0.5741
 6351SOL     OW30685   1.739   4.416  16.467  0.2733  0.1008 -0.0846
 6351SOL    HW130686   1.773   4.337  16.509 -0.6186 -0.2039  0.0723
 6351SOL    HW230687   1.668   4.446  16.525 -1.0419 -2.1170 -0.5348
 6352SOL     OW30688   3.199   4.570   5.230  0.2512 -0.2885 -0.1540
 6352SOL    HW130689   3.226   4.537   5.316 -0.4056  1.1928  0.6343
 6352SOL    HW230690   3.105   4.553   5.237 -0.2530  2.5791  0.2004
 6353SOL     OW30691   1.742   3.549  12.300  0.1243  0.1051 -0.0857
 6353SOL    HW130692   1.667   3.608  12.308  1.5552  1.9049 -0.0971
 6353SOL    HW230693   1.706   3.466  12.266 -2.3537  1.0276  0.2744
 6354SOL     OW30694   1.605   3.115   8.333 -0.2347 -0.1402 -0.2241
 6354SOL    HW130695   1.597   3.128   8.428  0.2416 -1.8980  0.0687
 6354SOL    HW230696   1.608   3.020   8.320 -0.5664 -0.0440 -0.9699
 6355SOL     OW30697   1.532   3.732  12.313  0.1971  0.5896 -0.0466
 6355SOL    HW130698   1.477   3.807  12.291  0.3061  0.8613  0.6075
 6355SOL    HW230699   1.470   3.663  12.337 -0.4668 -0.0476 -3.5487
 6356SOL     OW30700   3.585   3.625   2.025  0.0400 -0.1082 -0.0316
 6356SOL    HW130701   3.542   3.580   2.098  2.4044 -1.3191  0.6265
 6356SOL    HW230702   3.659   3.565   2.018  1.5794  1.6801  1.0461
 6357SOL     OW30703   3.213   1.178   8.358  0.5011  0.4292 -0.6424
 6357SOL    HW130704   3.157   1.246   8.396 -1.0076 -1.7695  1.1003
 6357SOL    HW230705   3.197   1.209   8.269 -4.1414 -1.9780 -0.6520
 6358SOL     OW30706   4.208   3.190   3.931  0.0314 -0.4519  0.3337
 6358SOL    HW130707   4.121   3.223   3.957 -0.4936 -2.2085  0.8051
 6358SOL    HW230708   4.263   3.208   4.007  1.9179  0.1379 -1.1668
 6359SOL     OW30709   4.351   2.101  15.044  0.5383 -0.3833  0.0561
 6359SOL    HW130710   4.409   2.127  14.973 -0.5713  1.5577 -0.1480
 6359SOL    HW230711   4.277   2.077  14.989 -0.0730  0.2830  0.5733
 6360SOL     OW30712   3.533   1.545   8.150 -0.0698  0.1472  0.1049
 6360SOL    HW130713   3.571   1.592   8.076 -1.7558 -0.1194 -0.9309
 6360SOL    HW230714   3.540   1.458   8.112  0.4227  0.0932  0.3222
 6361SOL     OW30715   2.464   2.525   3.819  0.1688 -0.3067 -0.6050
 6361SOL    HW130716   2.394   2.485   3.767  2.0070 -0.8659 -2.6573
 6361SOL    HW230717   2.469   2.472   3.898 -0.3486  2.4306  1.2423
 6362SOL     OW30718   3.262   2.964   0.177  0.2913 -0.2113  0.4117
 6362SOL    HW130719   3.194   2.897   0.173 -0.6163  0.7018  0.3265
 6362SOL    HW230720   3.298   2.965   0.265  0.3161 -0.1121  0.4004
 6363SOL     OW30721   1.367   4.482   2.102  0.4634  0.6765  0.1800
 6363SOL    HW130722   1.381   4.468   2.196  2.5941  1.6722  0.0094
 6363SOL    HW230723   1.271   4.491   2.097  0.2732  0.0251  2.4389
 6364SOL     OW30724   0.510   2.284   5.647  0.7944 -0.2453  0.3622
 6364SOL    HW130725   0.538   2.209   5.595 -0.1307 -2.4844  3.1007
 6364SOL    HW230726   0.488   2.232   5.724 -0.2128  0.2007  0.3897
 6365SOL     OW30727   1.373   0.037   7.967  0.0790  0.4348  0.4553
 6365SOL    HW130728   1.397   4.683   7.987 -1.9520  0.0095  1.0220
 6365SOL    HW230729   1.278   0.033   7.954  0.8384 -1.8978 -4.1801
 6366SOL     OW30730   2.793   2.270   4.148  0.0029  0.1409  0.2258
 6366SOL    HW130731   2.861   2.314   4.199 -0.1290  0.0826  0.4487
 6366SOL    HW230732   2.812   2.302   4.060  1.7961 -1.5106  0.0041
 6367SOL     OW30733   1.623   4.134   4.717  0.1374  0.0924 -0.1853
 6367SOL    HW130734   1.629   4.226   4.745 -0.3394  0.6155 -1.8164
 6367SOL    HW230735   1.535   4.108   4.745  1.6337 -4.4777  0.2569
 6368SOL     OW30736   0.496   4.617   0.374 -0.4581  0.1079  0.0688
 6368SOL    HW130737   0.517   4.589   0.463  1.2387  0.1677 -0.3122
 6368SOL    HW230738   0.484   4.712   0.380  0.3513  0.3363 -1.9638
 6369SOL     OW30739   4.166   2.534   4.794  0.7240 -0.2906 -0.0364
 6369SOL    HW130740   4.152   2.457   4.739 -0.2049 -0.4149  0.3742
 6369SOL    HW230741   4.174   2.600   4.724  0.5320  0.7760  0.9546
 6370SOL     OW30742   2.908   4.547   9.602 -0.2654  0.3188  0.0001
 6370SOL    HW130743   2.947   4.539   9.689  1.4233  2.2783 -0.5971
 6370SOL    HW230744   2.845   4.617   9.616 -0.7661 -0.2336  0.5225
 6371SOL     OW30745   4.422   4.653   0.791  0.4447  0.2522  0.9810
 6371SOL    HW130746   4.336   4.689   0.814  0.6927  1.9607 -0.6822
 6371SOL    HW230747   4.468   0.002   0.785 -0.0810  0.4297 -0.4789
 6372SOL     OW30748   2.474   3.679   7.082 -0.4938 -0.0875 -0.1096
 6372SOL    HW130749   2.535   3.750   7.060 -0.5409 -0.2770 -0.8548
 6372SOL    HW230750   2.417   3.676   7.005 -0.0665 -0.7011 -0.3998
 6373SOL     OW30751   3.266   4.409   0.060 -0.1987  0.5184  0.5259
 6373SOL    HW130752   3.336   4.472   0.076  1.4539 -1.3435  0.4540
 6373SOL    HW230753   3.288   4.355   0.136  1.8946  0.7143  0.0474
 6374SOL     OW30754   2.837   1.139  13.760  0.0112  0.0646  1.0055
 6374SOL    HW130755   2.899   1.067  13.772  0.0140 -0.4864 -2.3344
 6374SOL    HW230756   2.751   1.099  13.771  0.3525 -0.6806  0.9546
 6375SOL     OW30757   3.726   3.430  12.242  0.3041  0.2283 -0.4678
 6375SOL    HW130758   3.749   3.437  12.335 -2.5058 -0.6494  0.3002
 6375SOL    HW230759   3.767   3.345  12.222 -1.1974 -0.4498 -0.6632
 6376SOL     OW30760   4.358   0.434   9.278 -0.3903  0.2999 -0.1212
 6376SOL    HW130761   4.355   0.389   9.362  2.1041 -2.0176 -1.2474
 6376SOL    HW230762   4.282   0.397   9.233 -0.6140  1.0165 -0.3375
 6377SOL     OW30763   1.937   3.333  12.121  0.4712 -0.1525 -0.5887
 6377SOL    HW130764   2.014   3.350  12.067 -1.3070  5.3723 -1.4256
 6377SOL    HW230765   1.981   3.332  12.206 -0.1762 -2.0225 -0.2738
 6378SOL     OW30766   0.768   0.511  17.689 -0.2961  1.3260  0.2759
 6378SOL    HW130767   0.835   0.524  17.622  0.1434 -0.8305  0.3076
 6378SOL    HW230768   0.771   0.418  17.709 -0.2442  1.1526 -0.5385
 6379SOL     OW30769   4.475   1.081   6.973 -0.6443  0.3441 -0.5968
 6379SOL    HW130770   4.480   1.016   7.043 -2.5687  1.0797  0.2226
 6379SOL    HW230771   4.390   1.118   6.997 -0.2429 -0.7393  2.4557
 6380SOL     OW30772   0.308   3.528   2.605  0.9365  0.0100  0.3360
 6380SOL    HW130773   0.246   3.461   2.633 -1.4451  1.8084 -0.6445
 6380SOL    HW230774   0.377   3.495   2.662 -0.1183 -2.1612  0.3268
 6381SOL     OW30775   2.574   3.066   0.022  1.1708 -0.3157  0.1742
 6381SOL    HW130776   2.623   3.090  17.685  0.2565  0.2138 -0.2392
 6381SOL    HW230777   2.480   3.081   0.012  1.4863  2.1141  0.7875
 6382SOL     OW30778   1.766   2.839   2.043 -0.7419 -0.4583 -0.4209
 6382SOL    HW130779   1.856   2.872   2.041 -1.0453  0.3477 -1.0767
 6382SOL    HW230780   1.749   2.789   1.963 -1.5322 -1.2250  0.2280
 6383SOL     OW30781   3.248   3.703   9.876 -0.1699  0.0262  0.2750
 6383SOL    HW130782   3.294   3.785   9.891 -2.6435  0.8699  3.1529
 6383SOL    HW230783   3.176   3.720   9.815  0.3792 -1.1044 -0.6877
 6384SOL     OW30784   0.045   0.006   9.870 -0.4518  0.1275 -0.1533
 6384SOL    HW130785   0.012   0.082   9.919  2.3580  1.5212 -0.4534
 6384SOL    HW230786   0.117   0.037   9.816  0.0497  0.6230  0.8002
 6385SOL     OW30787   3.101   2.455   2.551 -0.2609 -0.4932 -0.6384
 6385SOL    HW130788   3.049   2.408   2.486 -0.3124 -1.1370 -0.1305
 6385SOL    HW230789   3.128   2.378   2.600 -1.9901 -0.1180  0.9131
 6386SOL     OW30790   0.273   0.932  10.580 -0.3871  0.9370 -0.4840
 6386SOL    HW130791   0.345   0.889  10.627 -1.8070 -0.5570  0.3515
 6386SOL    HW230792   0.214   0.857  10.592  2.0729 -0.9189 -0.0745
 6387SOL     OW30793   0.823   1.065   4.663  0.6458  0.1443  0.1319
 6387SOL    HW130794   0.859   1.151   4.637  1.9494 -0.3762  0.1849
 6387SOL    HW230795   0.850   1.045   4.752 -1.1017  0.8363  0.8117
 6388SOL     OW30796   4.223   1.974  11.068 -0.2687  0.2512  0.1973
 6388SOL    HW130797   4.184   2.036  11.005 -0.9964  0.0309  0.4273
 6388SOL    HW230798   4.253   2.039  11.131  1.6691 -0.2450 -0.2113
 6389SOL     OW30799   1.397   0.490  15.027 -0.8726 -0.1996 -0.1420
 6389SOL    HW130800   1.316   0.529  15.057 -0.4873  1.7744 -1.6354
 6389SOL    HW230801   1.422   0.437  15.103 -1.3501  4.1413  2.9648
 6390SOL     OW30802   0.142   2.106  14.060 -0.2150 -0.4481  0.7070
 6390SOL    HW130803   0.116   2.014  14.061  1.7319 -1.0065 -0.1119
 6390SOL    HW230804   0.061   2.157  14.064 -0.0111  0.1543 -2.7347
 6391SOL     OW30805   1.808   3.614   2.304 -0.2803 -0.0289 -0.1132
 6391SOL    HW130806   1.738   3.676   2.280 -1.3525 -0.9208  0.7429
 6391SOL    HW230807   1.884   3.638   2.251 -1.5975 -1.7471 -2.8002
 6392SOL     OW30808   3.790   1.797   3.428 -0.9773  0.4177 -0.0567
 6392SOL    HW130809   3.728   1.725   3.421 -1.0006  0.2469  1.9549
 6392SOL    HW230810   3.865   1.750   3.466 -0.9957  0.1529 -0.3519
 6393SOL     OW30811   1.182   2.859   8.409  0.1442  0.2915 -0.0786
 6393SOL    HW130812   1.264   2.850   8.459  0.7600  4.0270 -0.4550
 6393SOL    HW230813   1.168   2.770   8.377 -0.0882  0.7214 -1.1565
 6394SOL     OW30814   1.712   1.225   8.585 -0.4672  0.3369  0.0588
 6394SOL    HW130815   1.762   1.291   8.631  0.6622 -0.6651  0.2724
 6394SOL    HW230816   1.655   1.273   8.525 -1.7899 -0.6119  0.5677
 6395SOL     OW30817   0.026   1.140   9.936 -0.0628 -0.1396 -0.3344
 6395SOL    HW130818   0.099   1.201   9.925  0.4774 -1.0360 -1.8057
 6395SOL    HW230819   0.038   1.108  10.026  1.1823  2.0335  0.2732
 6396SOL     OW30820   0.363   0.545   0.786 -0.4025 -0.2467 -0.5360
 6396SOL    HW130821   0.325   0.621   0.741  1.6206  1.0193 -0.1170
 6396SOL    HW230822   0.448   0.545   0.740 -0.1445  0.4717 -0.0511
 6397SOL     OW30823   3.774   3.361  12.502 -0.1029 -0.1650  0.1402
 6397SOL    HW130824   3.860   3.361  12.543 -0.0086 -0.3431 -0.0543
 6397SOL    HW230825   3.763   3.274  12.464 -1.4535 -0.0549  0.2764
 6398SOL     OW30826   1.103   4.314  17.376 -0.2386 -0.5259 -0.1589
 6398SOL    HW130827   1.049   4.359  17.441  1.3857  2.4018 -0.8417
 6398SOL    HW230828   1.152   4.250  17.427 -0.6002 -1.9325 -1.5823
 6399SOL     OW30829   4.219   3.522  16.745  0.2670  0.3236 -0.1123
 6399SOL    HW130830   4.273   3.597  16.766  1.5618 -0.8142  0.5787
 6399SOL    HW230831   4.145   3.535  16.805 -0.9809 -1.5477 -1.2215
 6400SOL     OW30832   3.541   1.012  15.458  0.4165 -0.6567 -0.0945
 6400SOL    HW130833   3.609   0.945  15.451 -0.3414 -1.2140 -2.1514
 6400SOL    HW230834   3.552   1.058  15.375  1.1874  0.1806  0.4708
 6401SOL     OW30835   1.444   3.966   9.809 -0.4395  0.3737 -0.4061
 6401SOL    HW130836   1.388   3.985   9.883  0.1501 -0.7608  0.3308
 6401SOL    HW230837   1.384   3.933   9.742  0.4875  1.0935 -1.5863
 6402SOL     OW30838   2.878   1.828   7.998  0.2806  0.0003  0.2993
 6402SOL    HW130839   2.947   1.772   7.963  0.0932 -0.2097  0.2675
 6402SOL    HW230840   2.839   1.862   7.917  0.8472 -0.9108 -0.3601
 6403SOL     OW30841   0.779   4.133   9.548  0.3668 -0.1880  0.6231
 6403SOL    HW130842   0.708   4.191   9.522  0.1617 -1.2480 -1.1756
 6403SOL    HW230843   0.749   4.047   9.519  1.9449  0.2944 -2.4450
 6404SOL     OW30844   2.067   1.346  12.035 -0.1505 -0.2989  0.0471
 6404SOL    HW130845   2.129   1.354  12.108 -1.9445  0.3319  1.4785
 6404SOL    HW230846   1.993   1.391  12.076 -0.8047 -0.5020 -0.9420
 6405SOL     OW30847   0.714   2.405   3.897 -0.5201  0.0052  0.6126
 6405SOL    HW130848   0.655   2.479   3.908 -1.4526 -0.5663 -0.5223
 6405SOL    HW230849   0.716   2.395   3.802  2.7086  0.3315  0.6352
 6406SOL     OW30850   1.844   1.088   9.743 -0.0412 -0.2016 -0.0008
 6406SOL    HW130851   1.754   1.072   9.716  0.0521 -0.6082 -0.0676
 6406SOL    HW230852   1.840   1.183   9.731  0.3430 -0.0929  0.7647
 6407SOL     OW30853   1.014   2.441   6.926  0.1797 -0.2443 -0.4605
 6407SOL    HW130854   1.005   2.500   7.001 -0.6183 -0.7513 -0.1540
 6407SOL    HW230855   1.060   2.501   6.868 -0.9259  0.5947 -0.4456
 6408SOL     OW30856   1.425   0.295  14.079  0.1013  0.1839 -0.3811
 6408SOL    HW130857   1.456   0.217  14.034  1.4222 -0.2000  1.2067
 6408SOL    HW230858   1.343   0.268  14.121  1.5647 -3.5170  0.0188
 6409SOL     OW30859   0.487   0.027   9.113 -0.2206 -0.3066 -0.3808
 6409SOL    HW130860   0.492   0.063   9.201  0.7970 -0.0492 -0.5459
 6409SOL    HW230861   0.436   4.683   9.129 -1.8881  0.9660  0.6647
 6410SOL     OW30862   1.743   0.499  16.025 -0.4428  0.6913  0.0678
 6410SOL    HW130863   1.796   0.435  16.073 -0.3662  0.1101 -0.8082
 6410SOL    HW230864   1.691   0.450  15.962  0.5168  0.1827 -0.3151
 6411SOL     OW30865   0.581   4.533   7.488  0.2516 -0.2114 -0.1274
 6411SOL    HW130866   0.616   4.491   7.566  1.9360 -0.7075 -1.1527
 6411SOL    HW230867   0.518   4.469   7.455  0.3013 -0.6427  0.6255
 6412SOL     OW30868   0.591   0.916   0.697  0.1911 -0.3854  0.7395
 6412SOL    HW130869   0.518   0.874   0.653  1.0099 -2.5257  1.4403
 6412SOL    HW230870   0.663   0.855   0.681 -0.1623 -0.3844 -0.8789
 6413SOL     OW30871   2.793   1.496   1.300  0.3398 -0.3716  0.3604
 6413SOL    HW130872   2.708   1.451   1.298  0.3370 -0.4245  1.9723
 6413SOL    HW230873   2.832   1.503   1.213 -3.8632 -0.7456 -1.5579
 6414SOL     OW30874   1.139   2.929   6.555 -0.1181  0.2213  0.5200
 6414SOL    HW130875   1.220   2.897   6.594 -0.8492 -1.2031  0.8726
 6414SOL    HW230876   1.073   2.906   6.621 -0.4877 -0.7607 -0.1921
 6415SOL     OW30877   2.849   3.357  11.207 -0.8851 -0.1868  0.3996
 6415SOL    HW130878   2.780   3.362  11.142 -0.0936  0.8795 -0.3509
 6415SOL    HW230879   2.854   3.435  11.263  0.4573  0.6511 -0.8824
 6416SOL     OW30880   3.377   1.611   1.966  0.6516  0.7825 -0.1912
 6416SOL    HW130881   3.406   1.689   2.013 -0.0389  2.0501 -1.8868
 6416SOL    HW230882   3.427   1.543   2.011  1.4638  1.1313 -0.5509
 6417SOL     OW30883   2.367   3.265   3.063 -0.4461  0.6701  0.1396
 6417SOL    HW130884   2.313   3.332   3.104 -0.9626  0.8328 -0.8063
 6417SOL    HW230885   2.439   3.323   3.040 -0.1441  0.7200  1.2500
 6418SOL     OW30886   3.695   1.850   8.854  0.1145 -0.6154 -0.0389
 6418SOL    HW130887   3.753   1.785   8.814  0.5516 -0.1717 -0.1252
 6418SOL    HW230888   3.679   1.911   8.782 -2.4157 -2.3129 -0.8905
 6419SOL     OW30889   2.317   4.216   7.363  0.5145 -0.0462  0.5189
 6419SOL    HW130890   2.228   4.241   7.335  0.9535  0.8388 -0.0904
 6419SOL    HW230891   2.368   4.288   7.328  2.6364 -2.4195 -1.1882
 6420SOL     OW30892   3.704   2.061   6.430 -0.7717 -0.1089 -0.0820
 6420SOL    HW130893   3.743   2.097   6.351  0.4729 -0.0686  0.5502
 6420SOL    HW230894   3.621   2.109   6.435 -0.3945  0.2244  3.0957
 6421SOL     OW30895   1.270   2.886  14.803 -0.2169  0.2067 -0.1155
 6421SOL    HW130896   1.332   2.879  14.875  1.1867  1.4221 -1.2134
 6421SOL    HW230897   1.311   2.837  14.732  0.3271 -1.9035  1.6644
 6422SOL     OW30898   2.603   0.539   8.380 -0.1513 -0.5123  0.3835
 6422SOL    HW130899   2.582   0.547   8.473  1.3476 -1.1147  0.7771
 6422SOL    HW230900   2.698   0.551   8.387 -0.5533  1.4856  2.3304
 6423SOL     OW30901   2.902   3.777   2.738 -0.0761  0.4150 -0.4016
 6423SOL    HW130902   2.994   3.789   2.713 -0.5505 -0.1656 -2.4217
 6423SOL    HW230903   2.908   3.758   2.832 -1.2754 -0.3788 -0.4801
 6424SOL     OW30904   4.343   0.587   3.541 -0.4814 -0.1093 -0.3068
 6424SOL    HW130905   4.395   0.580   3.621  0.2812  0.0676 -0.7889
 6424SOL    HW230906   4.270   0.537   3.577 -0.9301  0.1356 -0.8883
 6425SOL     OW30907   3.103   1.042   2.945  0.3312 -0.1444 -0.0449
 6425SOL    HW130908   3.150   1.056   3.028  1.5373 -0.4125 -0.6738
 6425SOL    HW230909   3.033   1.106   2.956 -0.2367 -0.3317 -2.7171
 6426SOL     OW30910   0.939   3.170   3.253  0.6334 -0.0192  0.0527
 6426SOL    HW130911   1.000   3.204   3.319  1.1222 -1.6226  0.4233
 6426SOL    HW230912   0.873   3.123   3.304  0.9087  0.0609  0.4908
 6427SOL     OW30913   1.683   0.642   1.803  0.2245 -0.0197 -0.0437
 6427SOL    HW130914   1.593   0.608   1.803 -0.1105  0.8518 -1.3986
 6427SOL    HW230915   1.703   0.608   1.717 -0.2386  0.5254 -0.3708
 6428SOL     OW30916   2.803   3.822   8.797 -0.4198 -0.3516 -0.8599
 6428SOL    HW130917   2.825   3.834   8.705 -1.4682 -2.7768 -1.4332
 6428SOL    HW230918   2.765   3.907   8.821 -0.7200 -0.7445  0.0708
 6429SOL     OW30919   2.120   1.023   8.989 -0.5741  0.5028  0.4157
 6429SOL    HW130920   2.028   1.042   8.973  0.1257  1.6284 -2.3029
 6429SOL    HW230921   2.158   1.033   8.902  0.2325 -1.3050  0.5535
 6430SOL     OW30922   1.189   2.392  17.387 -0.1518 -0.0280  0.5875
 6430SOL    HW130923   1.202   2.485  17.405 -0.4643 -0.1239  1.3068
 6430SOL    HW230924   1.279   2.366  17.368  0.2120 -0.4342  2.8550
 6431SOL     OW30925   4.620   1.144   2.671 -0.1646 -0.5115 -0.3886
 6431SOL    HW130926   4.593   1.149   2.579 -0.9423  0.6273 -0.1026
 6431SOL    HW230927   4.695   1.205   2.672  1.2914 -2.3486  1.7110
 6432SOL     OW30928   4.119   0.543  14.819  0.1624  0.3837 -0.5041
 6432SOL    HW130929   4.140   0.466  14.873  0.4270  1.6829  1.2436
 6432SOL    HW230930   4.213   0.546  14.800 -0.5097  0.6640 -3.6964
 6433SOL     OW30931   1.012   1.999   0.895 -0.0655 -0.6883  0.7055
 6433SOL    HW130932   1.017   2.094   0.889  3.0759 -0.8645  0.8574
 6433SOL    HW230933   1.105   1.985   0.878 -0.0580  1.7562 -1.2329
 6434SOL     OW30934   3.079   1.361   8.881  0.0699  0.2141  0.2364
 6434SOL    HW130935   3.118   1.284   8.921  1.0315  1.3060  1.4130
 6434SOL    HW230936   3.097   1.431   8.944  3.3349 -1.2409  0.9604
 6435SOL     OW30937   0.209   4.376   0.824  0.6280 -0.1595 -0.1771
 6435SOL    HW130938   0.131   4.404   0.777 -0.3219 -3.5479 -0.6451
 6435SOL    HW230939   0.252   4.459   0.846 -0.9051  0.2926  1.2006
 6436SOL     OW30940   0.116   2.210   8.849  0.3318 -0.5621  0.1166
 6436SOL    HW130941   0.026   2.234   8.826  0.4334  1.6010  2.0313
 6436SOL    HW230942   0.159   2.292   8.828  1.3328 -1.1268 -0.0485
 6437SOL     OW30943   0.929   3.924   4.536  0.1879 -0.4864  0.0691
 6437SOL    HW130944   0.842   3.930   4.495  0.3210  1.1623  0.0383
 6437SOL    HW230945   0.979   3.977   4.474  0.9739 -0.9992  0.2633
 6438SOL     OW30946   0.673   4.292   0.963 -0.2873  0.2068 -0.2298
 6438SOL    HW130947   0.656   4.386   0.954 -0.7554  0.0816 -0.6592
 6438SOL    HW230948   0.699   4.290   1.055  0.1088 -0.6880 -0.3652
 6439SOL     OW30949   0.379   0.494   8.374 -0.5112  0.5320 -0.0949
 6439SOL    HW130950   0.436   0.509   8.298  0.6141  1.6524  0.9596
 6439SOL    HW230951   0.289   0.496   8.343 -0.7696  1.4178  0.7317
 6440SOL     OW30952   1.398   3.365   9.946  0.0155  0.4920 -0.3560
 6440SOL    HW130953   1.394   3.304   9.872 -2.6647 -2.5382  2.2482
 6440SOL    HW230954   1.372   3.443   9.897 -2.4142  0.6597  1.2034
 6441SOL     OW30955   4.632   2.388  16.145 -0.4122  0.2271  0.4071
 6441SOL    HW130956   4.698   2.435  16.093 -0.3211 -1.2973 -0.8512
 6441SOL    HW230957   4.551   2.395  16.095  0.2394 -0.7377 -0.7996
 6442SOL     OW30958   1.619   2.554  15.888 -0.3874 -1.1702  0.0751
 6442SOL    HW130959   1.533   2.534  15.851  0.3169 -1.3176 -1.4860
 6442SOL    HW230960   1.605   2.620  15.956  1.5533  0.4435 -1.0568
 6443SOL     OW30961   1.046   2.180   6.253  0.6263 -0.3207 -0.1027
 6443SOL    HW130962   1.076   2.131   6.177 -1.1340 -0.2270 -0.8492
 6443SOL    HW230963   0.990   2.245   6.211  0.9349  1.6042  2.4178
 6444SOL     OW30964   4.452   0.702   2.283 -0.5380 -0.0567  0.3278
 6444SOL    HW130965   4.416   0.786   2.256  1.9287  0.6699 -0.7591
 6444SOL    HW230966   4.542   0.706   2.250 -0.5814  0.1611  0.2395
 6445SOL     OW30967   1.125   1.363  16.363  0.4192 -0.4028 -0.7375
 6445SOL    HW130968   1.044   1.318  16.388  0.4724 -0.1913 -0.1701
 6445SOL    HW230969   1.161   1.292  16.311  2.5846  1.4178 -1.7176
 6446SOL     OW30970   0.375   1.524  11.781  0.4317  0.1650 -0.5829
 6446SOL    HW130971   0.469   1.532  11.794  0.8906 -2.1085 -2.5174
 6446SOL    HW230972   0.336   1.604  11.817  0.4405 -0.2671  0.3872
 6447SOL     OW30973   4.138   0.783   8.996  0.4147  0.5720 -0.6313
 6447SOL    HW130974   4.156   0.733   8.916  1.4884  1.6448 -1.0647
 6447SOL    HW230975   4.209   0.754   9.053  0.2020  0.6301 -0.3377
 6448SOL     OW30976   1.865   3.752   6.747 -0.1318 -0.4672  0.5038
 6448SOL    HW130977   1.814   3.735   6.826  0.2698  1.9918  1.2796
 6448SOL    HW230978   1.794   3.780   6.690 -1.0865  0.9082  2.3612
 6449SOL     OW30979   3.552   1.883   1.218 -0.5340  0.6120 -0.6140
 6449SOL    HW130980   3.551   1.969   1.174  1.6257  0.9808  0.0761
 6449SOL    HW230981   3.491   1.822   1.177  1.3666 -1.0756 -0.9499
 6450SOL     OW30982   3.808   3.049   5.665  0.8247  0.1373  0.5932
 6450SOL    HW130983   3.852   3.076   5.584 -1.6037  0.0364 -0.7523
 6450SOL    HW230984   3.725   3.095   5.652 -0.9366 -3.1362  0.2572
 6451SOL     OW30985   3.531   4.441   5.548 -0.8314  0.0714 -0.8013
 6451SOL    HW130986   3.533   4.362   5.601 -0.3512  1.8127  1.7626
 6451SOL    HW230987   3.436   4.450   5.536 -0.8778 -0.6034 -0.9528
 6452SOL     OW30988   4.445   2.793   6.600  0.3162  0.0937  0.1385
 6452SOL    HW130989   4.358   2.811   6.564  1.1612  0.0398 -1.9213
 6452SOL    HW230990   4.454   2.860   6.668 -0.1668  1.4180 -1.1152
 6453SOL     OW30991   2.335   0.387   3.415 -0.5527 -0.1846  0.1419
 6453SOL    HW130992   2.375   0.356   3.496  1.0715 -1.0102 -0.9769
 6453SOL    HW230993   2.408   0.443   3.390 -0.1221 -0.0987  1.6000
 6454SOL     OW30994   4.296   3.145   2.759  0.4285  0.2018 -0.2930
 6454SOL    HW130995   4.238   3.142   2.684  3.0400 -0.8243 -2.2840
 6454SOL    HW230996   4.233   3.132   2.830 -0.1587  0.7092 -0.7193
 6455SOL     OW30997   1.530   1.049   7.675 -0.6220 -0.2267 -0.1957
 6455SOL    HW130998   1.530   0.984   7.745 -2.9553  0.9701  0.9296
 6455SOL    HW230999   1.548   0.988   7.603 -0.1591  0.7217 -0.8754
 6456SOL     OW31000   4.250   1.311   2.478 -0.1222 -0.1039  0.0244
 6456SOL    HW131001   4.159   1.283   2.489 -1.2412  3.7898  0.4445
 6456SOL    HW231002   4.232   1.385   2.422  2.1743  0.4800  0.0297
 6457SOL     OW31003   0.802   0.786   8.820 -0.4758 -0.3045 -0.2023
 6457SOL    HW131004   0.890   0.755   8.842 -0.3461 -0.7487 -1.3824
 6457SOL    HW231005   0.771   0.788   8.911 -1.5439 -1.5354 -0.5413
 6458SOL     OW31006   0.886   4.213   2.088 -0.0373 -0.3774  0.1494
 6458SOL    HW131007   0.836   4.146   2.042 -1.8698  1.0058  0.1125
 6458SOL    HW231008   0.817   4.255   2.139 -1.0145  0.2455 -1.6737
 6459SOL     OW31009   0.949   0.970   8.415 -0.0181 -0.2989  0.0552
 6459SOL    HW131010   0.946   1.049   8.361  1.7657 -1.0707 -1.1857
 6459SOL    HW231011   0.904   1.001   8.493  0.6299  0.4218  0.1418
 6460SOL     OW31012   1.552   1.637   8.358 -0.7291  0.2191 -0.1948
 6460SOL    HW131013   1.471   1.663   8.315 -1.4063  1.2822  1.7303
 6460SOL    HW231014   1.620   1.668   8.298  0.3743 -2.1048 -0.1638
 6461SOL     OW31015   4.674   1.378   2.269  0.3412  0.0865 -0.1185
 6461SOL    HW131016   0.032   1.397   2.271  0.1770  0.7950  1.6075
 6461SOL    HW231017   4.643   1.440   2.203  0.0670  1.3610  1.2015
 6462SOL     OW31018   3.810   4.314   1.966  0.2680 -0.2256  0.5550
 6462SOL    HW131019   3.861   4.380   1.919 -1.2181  0.4975 -0.0619
 6462SOL    HW231020   3.807   4.243   1.901 -1.3116 -2.0032  2.5745
 6463SOL     OW31021   2.909   0.208  14.739 -0.3695 -0.3450  0.6367
 6463SOL    HW131022   2.993   0.171  14.766 -0.6024 -0.8526  0.6513
 6463SOL    HW231023   2.868   0.235  14.822 -0.8516 -1.2187  0.6723
 6464SOL     OW31024   3.611   2.057   7.127 -0.1662  0.3070 -0.1429
 6464SOL    HW131025   3.574   2.106   7.200 -1.1815 -0.8207  0.1009
 6464SOL    HW231026   3.666   1.991   7.168 -0.9238 -1.4994 -2.0506
 6465SOL     OW31027   4.066   1.584   2.968  0.5733 -0.2276  0.0292
 6465SOL    HW131028   4.066   1.599   3.063 -1.0681 -0.7973  0.1192
 6465SOL    HW231029   4.155   1.557   2.948  0.6119  0.6749 -0.9962
 6466SOL     OW31030   4.560   1.526   4.392  0.1851  0.4379 -0.0137
 6466SOL    HW131031   4.584   1.517   4.484  0.2619  2.6819  0.1861
 6466SOL    HW231032   4.489   1.462   4.399 -1.5141  2.5980  2.3388
 6467SOL     OW31033   3.204   1.190   5.193  0.2494 -0.1311  0.0049
 6467SOL    HW131034   3.185   1.223   5.280  2.4484  0.0714  0.4256
 6467SOL    HW231035   3.247   1.272   5.168  1.0048 -0.6361 -0.3730
 6468SOL     OW31036   1.628   3.648   9.299 -0.4606 -0.3700 -0.1837
 6468SOL    HW131037   1.549   3.702   9.293 -2.0794 -2.6311  0.8334
 6468SOL    HW231038   1.607   3.569   9.250  2.8170 -1.5793  0.3659
 6469SOL     OW31039   3.085   0.420   9.448 -0.5081 -0.2764 -0.7458
 6469SOL    HW131040   3.062   0.327   9.448 -1.4698 -0.0503  0.2371
 6469SOL    HW231041   3.008   0.450   9.496 -0.0813  1.7297 -1.3082
 6470SOL     OW31042   2.784   3.568   1.172 -0.2040  0.0395 -0.0002
 6470SOL    HW131043   2.858   3.519   1.207  0.2514  0.8047  0.1090
 6470SOL    HW231044   2.770   3.524   1.088 -1.2311 -2.9164  1.7554
 6471SOL     OW31045   0.328   2.072   9.747  0.6775  0.3187 -0.1264
 6471SOL    HW131046   0.339   2.104   9.837 -0.1040 -3.3593  1.2906
 6471SOL    HW231047   0.280   1.990   9.757  1.3055 -0.3034 -2.3830
 6472SOL     OW31048   3.123   1.883   8.560 -0.6316 -0.2369 -0.4862
 6472SOL    HW131049   3.097   1.965   8.602 -0.8250 -1.8455  2.6022
 6472SOL    HW231050   3.053   1.873   8.496  0.0421 -2.0968 -0.9314
 6473SOL     OW31051   1.917   0.976  15.040 -0.1371  0.2051  0.4316
 6473SOL    HW131052   1.902   1.048  15.101  2.9673  0.6339  0.6711
 6473SOL    HW231053   1.942   1.021  14.960  1.6721 -0.4772  0.6041
 6474SOL     OW31054   0.836   0.847   7.839 -0.0264  0.9194  0.3473
 6474SOL    HW131055   0.911   0.790   7.824 -1.5693 -1.7225  2.5537
 6474SOL    HW231056   0.807   0.855   7.748 -1.4088 -0.2202  0.6909
 6475SOL     OW31057   0.890   3.842  14.437  0.0902 -0.0642  0.3056
 6475SOL    HW131058   0.897   3.894  14.358  1.7324 -1.1664 -0.2772
 6475SOL    HW231059   0.939   3.899  14.497  0.6135 -0.9752  0.7502
 6476SOL     OW31060   3.895   1.050  16.343 -0.1644  0.1577  0.0499
 6476SOL    HW131061   3.801   1.034  16.351 -0.1073  0.2776  1.0181
 6476SOL    HW231062   3.902   1.134  16.387 -1.0818  1.2723 -1.9488
 6477SOL     OW31063   3.769   3.738   9.062 -0.1581 -0.2736  0.2304
 6477SOL    HW131064   3.754   3.830   9.042  0.5709 -0.1519  0.2166
 6477SOL    HW231065   3.739   3.735   9.152  1.2993  0.9730  0.7615
 6478SOL     OW31066   3.797   2.695  12.782  0.5272 -0.4479 -0.0149
 6478SOL    HW131067   3.784   2.769  12.841  0.8280 -1.3157  1.1459
 6478SOL    HW231068   3.874   2.653  12.819 -0.9611 -2.4506  0.8277
 6479SOL     OW31069   1.261   3.556   3.265  0.5518  0.6104  0.0096
 6479SOL    HW131070   1.318   3.572   3.340 -0.0439 -0.4368  0.6896
 6479SOL    HW231071   1.304   3.478   3.230  1.4605  0.9803  0.2933
 6480SOL     OW31072   1.071   2.735   4.905 -0.0896  0.2809  0.0412
 6480SOL    HW131073   0.978   2.741   4.929 -0.0557  0.0115  0.2364
 6480SOL    HW231074   1.067   2.769   4.815 -0.8535  0.7881  0.2683
 6481SOL     OW31075   0.953   2.698   2.864  0.0466 -0.4938  0.5149
 6481SOL    HW131076   1.014   2.766   2.835  0.0043 -1.7173 -2.3648
 6481SOL    HW231077   0.934   2.655   2.781  0.3591 -2.2895  1.3814
 6482SOL     OW31078   3.775   0.021   6.020  0.0081  0.5224  0.3644
 6482SOL    HW131079   3.726   4.678   6.045 -2.0620  0.3127 -4.2845
 6482SOL    HW231080   3.704   0.085   6.020  2.8315  3.6549  2.7758
 6483SOL     OW31081   2.488   4.648   2.732  0.3799 -0.4873  0.0235
 6483SOL    HW131082   2.427   4.626   2.662  2.1392 -0.8444 -1.3940
 6483SOL    HW231083   2.530   4.564   2.751  0.2748 -0.5277  0.0759
 6484SOL     OW31084   4.352   2.155  10.530 -0.3468 -0.6951  0.8560
 6484SOL    HW131085   4.430   2.114  10.495 -1.1571 -0.4751 -1.1940
 6484SOL    HW231086   4.373   2.248  10.520 -0.6583 -0.3785  3.1093
 6485SOL     OW31087   4.195   4.292   3.831 -0.1221 -0.3802 -0.5068
 6485SOL    HW131088   4.186   4.300   3.736 -2.5808  1.3196 -0.1140
 6485SOL    HW231089   4.234   4.205   3.847 -0.4778 -0.2723  0.9882
 6486SOL     OW31090   0.136   4.121   8.375  0.5943  0.1047 -0.5549
 6486SOL    HW131091   0.118   4.051   8.438 -1.5090 -0.6818 -2.0201
 6486SOL    HW231092   0.207   4.070   8.335 -0.7557 -2.1054 -0.1138
 6487SOL     OW31093   1.300   1.282   8.191  0.1080 -0.7831 -0.0680
 6487SOL    HW131094   1.385   1.239   8.208  0.3295 -0.2258  0.2224
 6487SOL    HW231095   1.265   1.262   8.278  2.3881 -0.2635  0.9640
 6488SOL     OW31096   3.493   4.703  16.463 -0.2312  0.5607 -0.1140
 6488SOL    HW131097   3.588   4.702  16.451 -0.0288  0.5648  1.4210
 6488SOL    HW231098   3.483   4.654  16.545  0.0547 -0.3192 -0.6075
 6489SOL     OW31099   1.704   3.851   9.860 -0.5692 -0.8514 -0.0468
 6489SOL    HW131100   1.621   3.867   9.814  0.4572  2.5682 -0.6538
 6489SOL    HW231101   1.684   3.757   9.868 -0.6233 -0.6958  1.6238
 6490SOL     OW31102   4.450   2.557   3.339 -0.2848 -0.0254  0.3082
 6490SOL    HW131103   4.405   2.594   3.263 -1.9357  1.7668  2.1136
 6490SOL    HW231104   4.394   2.482   3.361 -0.9014  0.9889  2.2906
 6491SOL     OW31105   4.028   0.398  15.347  0.0314  0.3005  0.2621
 6491SOL    HW131106   4.035   0.303  15.353 -0.1637  0.2350 -0.5496
 6491SOL    HW231107   3.936   0.415  15.370  0.2010  0.9901  0.4288
 6492SOL     OW31108   3.817   0.005   2.912 -0.1750 -0.0874 -0.5549
 6492SOL    HW131109   3.820   4.726   3.007  0.3008 -2.2823 -0.9205
 6492SOL    HW231110   3.873   0.083   2.912  0.1673 -0.3317 -0.7584
 6493SOL     OW31111   3.705   1.879   9.434  0.1337 -0.4875 -0.2341
 6493SOL    HW131112   3.766   1.861   9.363 -0.9847  0.1637 -1.3736
 6493SOL    HW231113   3.759   1.867   9.512 -0.0764 -1.2436 -0.2056
 6494SOL     OW31114   3.923   3.696   4.111 -0.1212 -0.1509  0.1292
 6494SOL    HW131115   3.849   3.743   4.150  0.3623  2.3361 -1.8975
 6494SOL    HW231116   3.890   3.708   4.021 -1.0545 -0.0771  0.4793
 6495SOL     OW31117   3.849   2.517   6.086  0.7522 -0.1422  0.3055
 6495SOL    HW131118   3.879   2.520   6.176  1.7749 -2.1345  0.0129
 6495SOL    HW231119   3.859   2.607   6.053 -0.1627 -0.1923 -0.1214
 6496SOL     OW31120   0.100   3.482   9.052  0.6546 -0.5098  0.2079
 6496SOL    HW131121   0.177   3.430   9.028  0.6224 -0.7725  0.6921
 6496SOL    HW231122   0.072   3.431   9.127  0.6798  0.8798  1.1592
 6497SOL     OW31123   4.376   2.791  13.267 -0.6896 -0.0705 -0.2796
 6497SOL    HW131124   4.355   2.703  13.235  1.1061 -0.0384 -1.5631
 6497SOL    HW231125   4.431   2.774  13.344 -3.1881 -0.0050  1.5194
 6498SOL     OW31126   2.580   1.635   0.772 -0.1968  0.7064 -0.1344
 6498SOL    HW131127   2.615   1.685   0.846  1.7661 -1.4611  0.3756
 6498SOL    HW231128   2.651   1.574   0.754 -2.1224 -1.6729  0.3589
 6499SOL     OW31129   3.707   2.778   7.561 -0.2000  0.2093  0.7616
 6499SOL    HW131130   3.758   2.847   7.518 -1.6041  2.1178  2.1817
 6499SOL    HW231131   3.781   2.729   7.599  0.4928  1.5404  1.1445
 6500SOL     OW31132   0.509   0.854   8.720 -0.1068 -0.0918  0.2147
 6500SOL    HW131133   0.594   0.888   8.747 -0.7363  2.5444 -1.1223
 6500SOL    HW231134   0.494   0.782   8.782  0.7620 -0.1945  0.2966
 6501SOL     OW31135   0.201   2.888   2.967  0.6003 -0.1975  0.0420
 6501SOL    HW131136   0.169   2.814   3.019 -0.3508  1.1923  1.4522
 6501SOL    HW231137   0.120   2.929   2.937  0.9668  1.3341  1.1512
 6502SOL     OW31138   4.440   3.336   4.704 -0.0665  0.1787  0.5106
 6502SOL    HW131139   4.408   3.401   4.767 -0.1067  2.6716 -2.0696
 6502SOL    HW231140   4.530   3.328   4.735 -0.5201 -1.7246  1.3109
 6503SOL     OW31141   2.687   0.277  11.638  0.0159 -0.0318  0.3569
 6503SOL    HW131142   2.726   0.218  11.573  2.5833  1.8579  0.1879
 6503SOL    HW231143   2.632   0.326  11.577 -0.0125 -1.0345 -0.4242
 6504SOL     OW31144   4.101   2.341  11.201  0.1933 -0.2077 -0.3622
 6504SOL    HW131145   4.035   2.309  11.261 -1.9751  0.8451 -2.1831
 6504SOL    HW231146   4.157   2.400  11.251 -0.6887 -0.2188  0.6313
 6505SOL     OW31147   2.835   2.480  14.663  0.1499  0.5139 -0.1080
 6505SOL    HW131148   2.750   2.524  14.659  0.9794  2.0859 -0.5848
 6505SOL    HW231149   2.869   2.518  14.744 -0.2822 -0.3067  0.4595
 6506SOL     OW31150   3.200   3.386   5.869  0.1951  0.1261 -0.2715
 6506SOL    HW131151   3.247   3.329   5.809  0.4940 -0.7957  0.8270
 6506SOL    HW231152   3.115   3.388   5.826  0.9082  1.3041 -1.6072
 6507SOL     OW31153   0.575   2.729   2.844  0.1420  0.0752 -0.2430
 6507SOL    HW131154   0.635   2.697   2.776 -0.3845 -1.7313  0.1613
 6507SOL    HW231155   0.578   2.652   2.901  1.8853 -0.5545 -1.1809
 6508SOL     OW31156   1.905   2.345   8.785 -0.5259 -0.2280  0.1983
 6508SOL    HW131157   1.989   2.309   8.816  0.4157  2.2334  0.4828
 6508SOL    HW231158   1.941   2.416   8.732 -1.1004  0.4545  0.7197
 6509SOL     OW31159   4.081   2.226  10.471 -0.0046 -0.3237 -0.8733
 6509SOL    HW131160   4.174   2.224  10.451 -0.1867  0.8133 -1.7941
 6509SOL    HW231161   4.080   2.272  10.556  2.3531  0.0413 -1.0480
 6510SOL     OW31162   1.392   0.093   4.419  0.2384  0.3597  0.5149
 6510SOL    HW131163   1.318   0.127   4.469 -1.1156 -1.7582 -0.0589
 6510SOL    HW231164   1.458   0.103   4.488 -0.1715 -0.2684  0.9855
 6511SOL     OW31165   0.539   0.804   3.184  0.0107  0.6185 -0.5850
 6511SOL    HW131166   0.501   0.785   3.270 -0.1588  1.1764 -0.5310
 6511SOL    HW231167   0.501   0.892   3.177  0.5954  0.8272 -1.1714
 6512SOL     OW31168   2.315   3.291   3.363 -0.1232 -0.0053  0.6656
 6512SOL    HW131169   2.292   3.277   3.455  0.5902 -1.1040  0.6767
 6512SOL    HW231170   2.333   3.204   3.327 -2.3503 -0.4217  0.5926
 6513SOL     OW31171   4.108   2.826  16.030  0.1478 -0.1242  0.1385
 6513SOL    HW131172   4.019   2.816  15.996  0.8151 -0.4874 -1.5059
 6513SOL    HW231173   4.154   2.789  15.955  0.1655  3.1493 -1.4862
 6514SOL     OW31174   2.343   3.653   6.116  0.2733  0.4085  0.1111
 6514SOL    HW131175   2.341   3.564   6.082  0.8186 -0.0944  1.4167
 6514SOL    HW231176   2.437   3.670   6.115  0.3294  0.1357  0.7810
 6515SOL     OW31177   0.334   2.681   8.067  0.3788 -0.0968 -0.4358
 6515SOL    HW131178   0.362   2.734   8.141 -0.8281  0.1616 -0.1654
 6515SOL    HW231179   0.264   2.626   8.101  1.1904 -0.9701 -0.1694
 6516SOL     OW31180   2.283   0.026   6.477  1.0588 -0.5225 -0.1806
 6516SOL    HW131181   2.235   0.094   6.523  1.2731  0.8987 -2.0786
 6516SOL    HW231182   2.215   4.696   6.463 -0.9212  1.5887 -0.3064
 6517SOL     OW31183   0.477   4.043   0.775  0.1884 -0.2090 -0.1385
 6517SOL    HW131184   0.567   4.042   0.807 -0.6111 -3.5653  2.0130
 6517SOL    HW231185   0.453   4.134   0.793  0.7471  0.2954 -1.9154
 6518SOL     OW31186   2.529   0.029  10.206 -0.0012 -0.5826  0.1501
 6518SOL    HW131187   2.434   0.033  10.211 -0.1293 -0.5186 -2.7601
 6518SOL    HW231188   2.542   4.705  10.132 -1.5361  0.2044 -0.7377
 6519SOL     OW31189   4.431   3.801   1.437  0.1685  0.0763 -0.2665
 6519SOL    HW131190   4.515   3.821   1.397  0.4473 -2.0728 -0.7478
 6519SOL    HW231191   4.415   3.885   1.481  0.2097  0.4732 -0.9954
 6520SOL     OW31192   1.246   1.475  13.595  0.2477 -0.1731 -0.1288
 6520SOL    HW131193   1.178   1.421  13.553 -0.2518  0.4722 -0.1512
 6520SOL    HW231194   1.282   1.525  13.523  3.0530 -0.3380  1.1738
 6521SOL     OW31195   2.676   0.830  10.840 -0.1106  0.0722 -0.2851
 6521SOL    HW131196   2.652   0.830  10.747 -0.4963  0.3459 -0.1874
 6521SOL    HW231197   2.595   0.870  10.874 -0.5034 -1.4933  0.5964
 6522SOL     OW31198   3.779   0.308  16.011  0.3900 -0.4326 -0.2390
 6522SOL    HW131199   3.846   0.265  15.960  1.1988 -0.1153  0.5559
 6522SOL    HW231200   3.832   0.328  16.088  2.2283 -3.6982 -0.6653
 6523SOL     OW31201   2.820   3.783  13.559 -0.0220 -0.2309 -0.5852
 6523SOL    HW131202   2.887   3.849  13.581 -0.1844 -0.2120 -0.1475
 6523SOL    HW231203   2.870   3.717  13.511 -0.0110 -0.9589  0.4048
 6524SOL     OW31204   4.567   0.071  10.126  0.0615  0.1832 -0.6314
 6524SOL    HW131205   4.651   0.115  10.114 -0.1548  0.3903 -1.4225
 6524SOL    HW231206   4.521   0.139  10.174 -2.4568 -0.8910 -1.5112
 6525SOL     OW31207   3.232   0.002   6.952  0.2267  0.2876 -0.0174
 6525SOL    HW131208   3.220   0.010   6.858 -1.9168  0.6554  0.3009
 6525SOL    HW231209   3.312   4.684   6.952 -0.7393 -1.1465  0.5272
 6526SOL     OW31210   3.538   1.965   7.998 -0.5921  0.2330  0.6400
 6526SOL    HW131211   3.557   1.876   7.969  2.6637  1.0284  0.3245
 6526SOL    HW231212   3.552   1.946   8.090 -0.2120 -1.5112  0.2047
 6527SOL     OW31213   2.874   3.663   5.706 -0.2183 -0.2346  0.4964
 6527SOL    HW131214   2.905   3.708   5.627  1.4469  0.3019  1.4535
 6527SOL    HW231215   2.779   3.672   5.701 -0.2494 -0.4940  0.6499
 6528SOL     OW31216   3.894   1.137   7.953 -0.1383  0.5180 -0.6231
 6528SOL    HW131217   3.809   1.117   7.913 -1.4238  2.1416  1.2924
 6528SOL    HW231218   3.934   1.149   7.867 -0.6994  0.0379 -0.9546
 6529SOL     OW31219   1.275   1.046   5.928  0.2062  0.6395 -0.6369
 6529SOL    HW131220   1.256   1.030   5.836  1.9799 -2.5959 -0.4548
 6529SOL    HW231221   1.205   1.100   5.964  0.3404  0.7621 -0.5540
 6530SOL     OW31222   3.402   2.484   7.677  0.0695  0.5551  0.0184
 6530SOL    HW131223   3.471   2.485   7.744  0.5035  0.8103 -0.4316
 6530SOL    HW231224   3.349   2.416   7.718 -0.2048  0.9335  0.2920
 6531SOL     OW31225   4.027   0.717   4.057 -0.4020  0.0409 -0.3708
 6531SOL    HW131226   3.959   0.674   4.006  0.0509 -0.9351 -0.1488
 6531SOL    HW231227   3.979   0.753   4.132 -0.6229  0.0115 -0.4980
 6532SOL     OW31228   1.114   2.105   3.147 -0.3645  0.1227  0.0964
 6532SOL    HW131229   1.186   2.137   3.093 -1.2638  0.6719 -0.7606
 6532SOL    HW231230   1.054   2.068   3.083 -0.3806 -0.7561  0.6128
 6533SOL     OW31231   0.869   1.242   8.278 -0.0767  0.9548  0.3566
 6533SOL    HW131232   0.911   1.314   8.232  2.1911  0.4018  1.5469
 6533SOL    HW231233   0.777   1.269   8.274  0.2398  2.2442  1.6201
 6534SOL     OW31234   1.202   2.068  13.126 -0.1063 -0.2571  0.0174
 6534SOL    HW131235   1.115   2.104  13.143 -0.3953 -1.2219  0.5889
 6534SOL    HW231236   1.230   2.103  13.041 -0.0892  2.3660  1.1025
 6535SOL     OW31237   0.426   4.491   5.876 -0.2813  0.6946 -0.0051
 6535SOL    HW131238   0.478   4.521   5.951  2.0633 -0.9689 -0.9893
 6535SOL    HW231239   0.342   4.524   5.909 -0.0348 -0.1562  1.4789
 6536SOL     OW31240   1.881   1.923   6.174  0.5463  0.1976 -0.1095
 6536SOL    HW131241   1.974   1.936   6.188  0.8652 -0.3396 -1.7461
 6536SOL    HW231242   1.856   1.987   6.106  0.7850  0.7176  0.2983
 6537SOL     OW31243   2.816   3.167  10.262  0.5532 -0.2699 -0.3589
 6537SOL    HW131244   2.776   3.164  10.176  0.3763 -0.1621 -0.2792
 6537SOL    HW231245   2.853   3.255  10.253 -0.4318  0.1620 -0.1436
 6538SOL     OW31246   2.131   2.733  14.049  0.5309  0.2034  0.0825
 6538SOL    HW131247   2.106   2.729  13.956  1.7875 -0.1848 -0.2425
 6538SOL    HW231248   2.208   2.675  14.046  0.5403  0.2182  0.0372
 6539SOL     OW31249   1.217   0.318   8.109  0.1424 -0.0899 -0.2472
 6539SOL    HW131250   1.131   0.308   8.150  0.1257  0.6871 -0.0946
 6539SOL    HW231251   1.271   0.297   8.185 -1.4040 -0.2359  0.8127
 6540SOL     OW31252   3.056   1.193   7.236  0.4619 -0.3871  0.7175
 6540SOL    HW131253   3.052   1.101   7.211 -2.2316  0.4412 -1.9104
 6540SOL    HW231254   3.104   1.234   7.164  0.4520  0.0269  0.9445
 6541SOL     OW31255   3.445   0.851   3.337 -0.4408 -0.4288  0.2044
 6541SOL    HW131256   3.428   0.896   3.420 -1.1180 -0.1832 -0.0674
 6541SOL    HW231257   3.363   0.817   3.303 -2.2176  0.5407  3.4693
 6542SOL     OW31258   1.701   3.599   5.748 -0.4583 -0.0007  0.1595
 6542SOL    HW131259   1.721   3.512   5.712 -0.3323  0.4350 -0.8255
 6542SOL    HW231260   1.611   3.615   5.718 -0.6723 -0.6023  0.4896
 6543SOL     OW31261   4.626   4.046   6.632  0.5232  0.3124 -0.2304
 6543SOL    HW131262   4.545   4.070   6.587 -0.6413 -0.1934  1.5685
 6543SOL    HW231263   4.596   4.035   6.722  1.3409  0.3032  0.0426
 6544SOL     OW31264   1.774   0.939   0.629  0.2287  0.0888  0.3715
 6544SOL    HW131265   1.747   0.963   0.541 -2.5021  1.1714  1.5078
 6544SOL    HW231266   1.752   0.846   0.624 -1.1028  0.3575  1.1491
 6545SOL     OW31267   3.737   2.198   2.031 -0.0341  0.3180 -0.3530
 6545SOL    HW131268   3.803   2.223   2.095  0.7392 -2.3934 -0.1154
 6545SOL    HW231269   3.668   2.252   2.072  1.2082  1.9897 -0.4598
 6546SOL     OW31270   1.766   2.575   5.869 -0.1180 -0.0396  0.2876
 6546SOL    HW131271   1.719   2.644   5.823 -1.0940 -1.0423 -0.2153
 6546SOL    HW231272   1.754   2.606   5.959  0.2494 -0.9331  0.6458
 6547SOL     OW31273   2.025   1.375   9.954 -0.0323 -1.0281  0.2029
 6547SOL    HW131274   2.063   1.406  10.036  1.0108  2.1216 -1.4947
 6547SOL    HW231275   2.105   1.369   9.902  0.5163 -0.6893  1.0062
 6548SOL     OW31276   1.022   0.678   0.474 -0.7706  0.2133 -0.6122
 6548SOL    HW131277   1.006   0.659   0.382 -0.8730  0.1408 -0.5784
 6548SOL    HW231278   1.055   0.769   0.469 -0.6973  0.1694 -0.9827
 6549SOL     OW31279   4.399   0.021   8.216 -0.4153  0.5379  0.1094
 6549SOL    HW131280   4.344   0.099   8.206 -0.1779  0.7788  0.6862
 6549SOL    HW231281   4.478   0.067   8.241  0.5899 -0.2931 -1.5434
 6550SOL     OW31282   0.157   2.738  12.564  0.4785 -0.3276 -0.1227
 6550SOL    HW131283   0.084   2.683  12.538 -0.1909  0.9142 -0.8520
 6550SOL    HW231284   0.216   2.665  12.586  0.4855  0.6730  3.1841
 6551SOL     OW31285   3.067   1.623   8.589  0.4767 -0.0368  0.0708
 6551SOL    HW131286   3.093   1.715   8.599 -0.2769  0.0706  1.0279
 6551SOL    HW231287   3.053   1.602   8.681  2.6290  1.0097  0.6460
 6552SOL     OW31288   1.507   4.713   8.247  0.3298 -0.3242  0.1180
 6552SOL    HW131289   1.451   4.677   8.179  1.2036 -2.0497  0.3168
 6552SOL    HW231290   1.519   4.631   8.294 -0.8276  0.4375  1.7729
 6553SOL     OW31291   2.381   0.335  17.556 -0.1134  0.3094 -0.3463
 6553SOL    HW131292   2.386   0.426  17.527 -0.2685  0.2764 -0.4805
 6553SOL    HW231293   2.464   0.302  17.523  0.4263 -1.0370  2.3933
 6554SOL     OW31294   4.044   2.022   4.313  0.1143  0.0853  0.2740
 6554SOL    HW131295   4.047   2.039   4.219  0.6649 -2.7007 -0.2266
 6554SOL    HW231296   4.100   2.094   4.339  2.0591 -0.5144 -2.3219
 6555SOL     OW31297   1.183   2.351  15.324 -0.0190 -0.1202  0.0097
 6555SOL    HW131298   1.210   2.442  15.335  2.5423 -1.1614  2.2033
 6555SOL    HW231299   1.261   2.308  15.289 -1.7819 -1.9100 -1.7606
 6556SOL     OW31300   4.249   0.011   3.141 -0.5200 -0.0653 -0.2202
 6556SOL    HW131301   4.224   0.061   3.218  0.5621  2.0208 -1.2038
 6556SOL    HW231302   4.281   0.072   3.074 -1.5859 -0.8599 -1.4481
 6557SOL     OW31303   1.153   0.931  14.900 -0.5515 -0.1187  0.1315
 6557SOL    HW131304   1.157   0.949  14.806  0.7534 -0.8067  0.0513
 6557SOL    HW231305   1.246   0.937  14.922 -0.3134  0.2498 -1.0001
 6558SOL     OW31306   4.292   4.606   0.116  0.2193  0.5648  0.4060
 6558SOL    HW131307   4.281   4.566   0.030  1.0061 -0.1554  0.6505
 6558SOL    HW231308   4.200   4.623   0.138  0.0511 -2.0763  1.8045
 6559SOL     OW31309   1.139   3.743   0.144  0.9747  0.3017 -0.1296
 6559SOL    HW131310   1.182   3.782   0.220 -1.5726  0.6240  1.1684
 6559SOL    HW231311   1.160   3.650   0.149  0.3930  0.1313 -0.8959
 6560SOL     OW31312   2.182   4.191   9.799  0.3418  0.2959 -0.1517
 6560SOL    HW131313   2.196   4.254   9.728  0.0753  1.2633  0.6645
 6560SOL    HW231314   2.090   4.203   9.820  0.2805 -0.7012  0.1334
 6561SOL     OW31315   4.435   4.427  13.230  0.4384 -0.3956 -0.0639
 6561SOL    HW131316   4.384   4.508  13.223 -2.5090 -2.1671  0.8745
 6561SOL    HW231317   4.367   4.363  13.207  0.1097  0.5418 -1.7047
 6562SOL     OW31318   4.530   2.114  14.803  0.3880 -0.8394  0.1485
 6562SOL    HW131319   4.587   2.131  14.877  0.8404  0.5942 -0.5489
 6562SOL    HW231320   4.541   2.196  14.755 -1.8723 -1.1791 -0.9683
 6563SOL     OW31321   0.014   4.234   0.417 -0.0556 -0.1955 -0.0397
 6563SOL    HW131322   4.734   4.140   0.430 -0.8088 -0.2856 -1.6856
 6563SOL    HW231323   0.109   4.236   0.427  0.0210  0.4228 -1.0099
 6564SOL     OW31324   3.603   0.037   8.302 -0.0535  0.3969 -0.4263
 6564SOL    HW131325   3.616   0.094   8.377 -0.1798  0.9457 -0.8223
 6564SOL    HW231326   3.692   0.042   8.268 -0.0488 -0.1975 -0.5015
 6565SOL     OW31327   3.171   2.256   9.734  0.1441 -0.3798 -0.1577
 6565SOL    HW131328   3.237   2.203   9.778  0.6281 -0.4250 -0.9331
 6565SOL    HW231329   3.214   2.273   9.650 -1.4605  0.0949 -0.8674
 6566SOL     OW31330   2.523   3.241  10.691 -0.3707  0.2329 -0.4280
 6566SOL    HW131331   2.606   3.270  10.654  0.7113 -1.6977  0.4948
 6566SOL    HW231332   2.468   3.293  10.633 -1.2600  2.5635  2.5301
 6567SOL     OW31333   4.373   0.247   5.734 -0.1995  0.6212  0.0602
 6567SOL    HW131334   4.401   0.295   5.656  0.4683 -2.2015 -1.4567
 6567SOL    HW231335   4.441   0.271   5.797 -0.3247  1.2627 -0.0532
 6568SOL     OW31336   1.912   0.483   6.776 -0.1776  0.1327  0.2202
 6568SOL    HW131337   1.817   0.495   6.785 -0.3897 -1.4729  0.0092
 6568SOL    HW231338   1.949   0.555   6.724 -0.6621 -0.8994 -1.5367
 6569SOL     OW31339   2.089   3.172   4.888 -0.0416 -0.4222  0.0848
 6569SOL    HW131340   2.112   3.229   4.815 -1.4781  0.2059  0.1252
 6569SOL    HW231341   2.026   3.225   4.938 -0.2220  2.3970 -3.1305
 6570SOL     OW31342   3.857   2.104  11.130  0.1085  0.1098 -0.4798
 6570SOL    HW131343   3.802   2.164  11.180  2.2482  3.0056 -1.6326
 6570SOL    HW231344   3.907   2.074  11.206  1.0283  1.9221 -0.3829
 6571SOL     OW31345   0.705   4.581   2.369  0.2929 -0.4512  0.1927
 6571SOL    HW131346   0.690   4.623   2.454 -0.0468 -0.4795  0.1467
 6571SOL    HW231347   0.781   4.525   2.386  0.2357 -0.4195  0.5429
 6572SOL     OW31348   0.702   0.852  12.091  0.1613 -0.9593 -0.0336
 6572SOL    HW131349   0.626   0.907  12.072  0.0605 -1.1046 -0.0536
 6572SOL    HW231350   0.755   0.914  12.141  0.3338 -0.1005 -1.2629
 6573SOL     OW31351   2.469   0.029   2.977 -0.1040  0.0362  0.5879
 6573SOL    HW131352   2.473   4.684   3.029  2.5039  0.0300  0.3775
 6573SOL    HW231353   2.460   4.726   2.890 -0.2250  0.4269  0.4275
 6574SOL     OW31354   0.789   2.989   2.816 -0.1209  0.2803  0.5017
 6574SOL    HW131355   0.787   3.045   2.894  1.7134  2.3524 -0.9409
 6574SOL    HW231356   0.829   2.908   2.850 -0.3824 -0.5862 -1.2663
 6575SOL     OW31357   2.989   2.859   5.026  0.5368  0.5671 -0.0196
 6575SOL    HW131358   2.956   2.776   5.059 -0.4272  1.3916  1.1307
 6575SOL    HW231359   2.941   2.913   5.089  2.8899 -0.2121  2.4537
 6576SOL     OW31360   4.349   2.079  15.803 -0.0661  0.0471 -0.3007
 6576SOL    HW131361   4.382   2.072  15.714  1.8840 -0.8729  0.4980
 6576SOL    HW231362   4.254   2.091  15.791 -0.1883  0.1906  0.8108
 6577SOL     OW31363   4.379   4.675   6.606  0.6362 -0.3493  0.3828
 6577SOL    HW131364   4.429   4.711   6.679  0.5977 -0.3364  0.4029
 6577SOL    HW231365   4.286   4.692   6.622  0.4462 -0.2468 -0.8153
 6578SOL     OW31366   1.767   4.493   4.964 -0.3887 -0.0055  0.0387
 6578SOL    HW131367   1.756   4.514   5.057 -1.7923  1.0378 -0.3639
 6578SOL    HW231368   1.862   4.502   4.958 -0.2942  0.1884  1.7936
 6579SOL     OW31369   4.094   0.693   0.938 -0.0318  0.6590 -0.7307
 6579SOL    HW131370   4.175   0.740   0.919 -0.1574  1.1541 -0.0229
 6579SOL    HW231371   4.054   0.752   1.001  0.5393 -1.2872  1.4425
 6580SOL     OW31372   1.931   2.834   7.151  0.0094  0.2558 -0.0294
 6580SOL    HW131373   1.912   2.905   7.089  0.4678  0.1008 -0.3478
 6580SOL    HW231374   2.003   2.873   7.200  1.5610 -0.5704 -1.6768
 6581SOL     OW31375   1.645   1.073   2.328 -0.3528 -1.1365 -0.3071
 6581SOL    HW131376   1.593   1.021   2.388 -0.7199 -0.2120  0.1814
 6581SOL    HW231377   1.576   1.106   2.271  0.9337  1.5761 -0.3097
 6582SOL     OW31378   0.821   0.864  16.803 -0.1722  0.0226 -0.2423
 6582SOL    HW131379   0.804   0.939  16.861  0.8260  0.5383 -0.6151
 6582SOL    HW231380   0.905   0.887  16.764 -0.6770  4.2437  1.1330
 6583SOL     OW31381   0.438   3.229   5.111  0.2964  0.2449 -0.4918
 6583SOL    HW131382   0.390   3.300   5.154 -0.2641 -0.3968 -0.0539
 6583SOL    HW231383   0.476   3.284   5.043  0.6769 -0.6140 -0.9739
 6584SOL     OW31384   1.243   3.856   9.627 -0.0313  0.3146 -0.1438
 6584SOL    HW131385   1.180   3.905   9.574 -0.3841  0.4810  0.4196
 6584SOL    HW231386   1.291   3.800   9.567  0.8007 -0.6292  1.4087
 6585SOL     OW31387   1.109   1.271  16.905 -0.4793  0.1122  0.0820
 6585SOL    HW131388   1.188   1.262  16.851  0.2454  0.9167  1.0060
 6585SOL    HW231389   1.094   1.365  16.897  2.5236  0.6675  0.8260
 6586SOL     OW31390   0.700   2.196   7.966 -0.0616  0.7913 -0.8294
 6586SOL    HW131391   0.627   2.254   7.947 -2.3490 -2.6467 -2.6694
 6586SOL    HW231392   0.682   2.194   8.060  0.7130  1.0092 -0.6736
 6587SOL     OW31393   0.801   3.992   4.990 -0.0361 -0.2623 -0.3880
 6587SOL    HW131394   0.850   3.975   4.910 -0.8386 -1.6457 -0.5788
 6587SOL    HW231395   0.762   4.073   4.957 -0.3035 -0.4081 -0.4291
 6588SOL     OW31396   4.215   1.656   9.826 -0.0266  0.7868  0.1825
 6588SOL    HW131397   4.300   1.619   9.849  0.5928  2.5198  0.6754
 6588SOL    HW231398   4.237   1.691   9.740 -1.5334 -2.0084 -1.3502
 6589SOL     OW31399   4.604   2.656   1.896 -0.1582  0.4271  0.0769
 6589SOL    HW131400   4.605   2.736   1.949 -1.2747  1.5750 -1.6404
 6589SOL    HW231401   4.692   2.619   1.905 -0.4922 -0.2037  0.7618
 6590SOL     OW31402   0.806   3.468  12.812  0.5091  0.3862  0.2818
 6590SOL    HW131403   0.851   3.490  12.894  0.2449 -1.5195  0.9239
 6590SOL    HW231404   0.728   3.422  12.843 -1.2497  2.0600 -1.6719
 6591SOL     OW31405   1.396   2.393   3.453  0.4284 -0.5583  0.1547
 6591SOL    HW131406   1.385   2.373   3.360 -0.0090  1.6294 -0.2534
 6591SOL    HW231407   1.315   2.442   3.468 -0.8003 -2.4498 -0.3494
 6592SOL     OW31408   4.687   0.570   9.582 -0.2345  0.0805 -0.4612
 6592SOL    HW131409   4.646   0.497   9.628 -0.4793  0.4517 -0.0828
 6592SOL    HW231410   4.611   0.615   9.546  0.1619 -0.6465 -2.1654
 6593SOL     OW31411   2.513   1.536   1.295 -0.7997  0.2526  0.0205
 6593SOL    HW131412   2.421   1.561   1.300 -0.7475  0.6827 -1.1489
 6593SOL    HW231413   2.552   1.611   1.250  0.2386  0.5950  1.4751
 6594SOL     OW31414   2.918   2.810  10.829 -0.5478  0.2889 -0.1233
 6594SOL    HW131415   2.937   2.903  10.817  0.9493 -0.0320 -0.3071
 6594SOL    HW231416   2.951   2.771  10.748  1.6387 -0.6198  1.1790
 6595SOL     OW31417   1.646   0.335   4.239  0.9798  0.6316 -0.2135
 6595SOL    HW131418   1.620   0.388   4.163  0.9457 -0.4166 -0.9328
 6595SOL    HW231419   1.568   0.347   4.292  0.9204 -3.2101  0.5793
 6596SOL     OW31420   1.053   3.650   9.208 -0.0766 -0.2784 -0.0851
 6596SOL    HW131421   1.036   3.601   9.288  2.1364  1.7715  1.6358
 6596SOL    HW231422   1.072   3.733   9.251  1.2625 -0.7026  0.1356
 6597SOL     OW31423   2.041   2.029   1.187 -0.1779 -0.2200 -0.0548
 6597SOL    HW131424   1.994   1.969   1.245  1.0426 -3.0842 -2.0056
 6597SOL    HW231425   2.052   1.984   1.103  0.5690  0.6767 -0.4410
 6598SOL     OW31426   0.970   1.694  10.443  0.0198 -0.3074 -0.3222
 6598SOL    HW131427   0.887   1.700  10.492  0.5368 -2.5160  0.8551
 6598SOL    HW231428   0.929   1.664  10.362 -1.4705 -2.1195  1.0868
 6599SOL     OW31429   4.135   4.724   3.970  0.1310  0.4450 -0.3070
 6599SOL    HW131430   4.173   4.711   4.057  0.2353  1.6888 -0.1718
 6599SOL    HW231431   4.109   4.633   3.955 -2.2509  1.5563 -2.8370
 6600SOL     OW31432   0.976   0.256  16.625 -0.0013  0.0280  0.4743
 6600SOL    HW131433   0.989   0.348  16.601 -0.4368 -0.1155 -0.3016
 6600SOL    HW231434   0.895   0.264  16.675 -0.4730 -0.7281 -0.1624
 6601SOL     OW31435   0.197   0.402   8.724  0.0446 -0.5558 -0.2493
 6601SOL    HW131436   0.266   0.360   8.672 -0.7368 -0.8517 -1.0341
 6601SOL    HW231437   0.146   0.452   8.660  1.4942  0.7493 -0.4132
 6602SOL     OW31438   0.284   3.153   3.165  0.0437  0.3876  0.3127
 6602SOL    HW131439   0.198   3.116   3.145 -0.1304 -1.4407  4.4052
 6602SOL    HW231440   0.279   3.237   3.121 -1.1169 -0.7492 -1.7074
 6603SOL     OW31441   2.021   4.099   0.930  0.2537 -0.2094 -0.8395
 6603SOL    HW131442   1.983   4.012   0.927 -1.3566  0.4123  1.5906
 6603SOL    HW231443   1.950   4.162   0.916  1.3495  1.2041 -0.1165
 6604SOL     OW31444   0.201   2.092   9.293 -0.1276 -0.3720  0.1863
 6604SOL    HW131445   0.168   2.177   9.263 -1.4642 -0.4295  1.4945
 6604SOL    HW231446   0.263   2.070   9.223 -1.6066 -3.3990 -0.1786
 6605SOL     OW31447   3.972   2.629  11.419  0.4989 -0.7857 -0.7919
 6605SOL    HW131448   4.067   2.618  11.409  0.9533  0.2389  2.2820
 6605SOL    HW231449   3.947   2.539  11.440  1.6107 -0.8214  0.3917
 6606SOL     OW31450   1.153   2.568  12.046  0.7918 -0.0870  0.4322
 6606SOL    HW131451   1.243   2.578  12.013  1.4537 -1.5326  1.7865
 6606SOL    HW231452   1.101   2.522  11.980 -2.0905  0.5128  2.2989
 6607SOL     OW31453   3.833   4.294  11.352 -0.2153 -0.5945  0.1635
 6607SOL    HW131454   3.906   4.350  11.328 -0.7667  0.5656  1.2224
 6607SOL    HW231455   3.870   4.213  11.386 -1.4883 -1.6767 -0.9780
 6608SOL     OW31456   3.314   3.069   9.861 -0.1574  0.8434 -0.3458
 6608SOL    HW131457   3.328   3.121   9.781 -2.1765  2.5641  0.4221
 6608SOL    HW231458   3.257   3.120   9.918 -0.7046 -0.5419  0.3486
 6609SOL     OW31459   1.032   4.500   5.623  0.3214 -0.1462 -0.5457
 6609SOL    HW131460   0.945   4.529   5.651 -0.1589  1.1814 -3.4189
 6609SOL    HW231461   1.070   4.508   5.711 -0.8626  2.4163 -0.2695
 6610SOL     OW31462   4.208   4.531   2.685 -0.4411 -0.3378  1.1633
 6610SOL    HW131463   4.169   4.601   2.737  1.5532  0.8661  1.0590
 6610SOL    HW231464   4.136   4.469   2.681  1.2663 -2.1563 -1.7140
 6611SOL     OW31465   4.205   1.875   3.041  0.4505  0.2583  0.1331
 6611SOL    HW131466   4.181   1.806   3.103  2.6095 -0.2654  0.4099
 6611SOL    HW231467   4.284   1.832   3.008 -0.1330  0.1891 -1.1642
 6612SOL     OW31468   2.789   1.181   2.414 -0.3570 -0.4528  0.0214
 6612SOL    HW131469   2.869   1.163   2.463 -0.3510 -0.6311 -0.0554
 6612SOL    HW231470   2.835   1.197   2.331 -0.6962 -0.0302 -0.0831
 6613SOL     OW31471   0.039   2.680  12.088  0.3114  0.0866 -0.3222
 6613SOL    HW131472   0.110   2.628  12.126  1.0719  0.4818 -1.1847
 6613SOL    HW231473   0.090   2.706  12.011 -0.0506 -1.6503 -1.1528
 6614SOL     OW31474   2.580   0.650  13.466  0.3344  0.8946  0.2109
 6614SOL    HW131475   2.648   0.602  13.419 -0.3877 -0.4774  0.5807
 6614SOL    HW231476   2.606   0.738  13.441 -0.3283  1.0860  0.1932
 6615SOL     OW31477   3.955   0.670   9.178  0.0919 -0.4771 -0.0336
 6615SOL    HW131478   3.941   0.576   9.163  1.2423 -0.8822  1.5837
 6615SOL    HW231479   4.035   0.691   9.129 -1.3848  0.8886 -1.8820
 6616SOL     OW31480   1.388   3.210   6.961 -0.1709 -0.4035 -0.5349
 6616SOL    HW131481   1.437   3.280   7.006 -2.3728  1.3620 -0.8937
 6616SOL    HW231482   1.301   3.249   6.965  1.2395  2.7960 -0.7461
 6617SOL     OW31483   4.466   4.128  10.431  0.0514  0.1038 -0.2481
 6617SOL    HW131484   4.437   4.183  10.358 -1.5290  0.0810  0.3616
 6617SOL    HW231485   4.435   4.044  10.398 -4.1151  2.3022 -1.9740
 6618SOL     OW31486   3.657   0.355  14.576  0.2595 -0.3690 -0.2682
 6618SOL    HW131487   3.630   0.312  14.495 -2.4190  0.8148  0.0078
 6618SOL    HW231488   3.614   0.439  14.559  1.6619  0.6650  1.2956
 6619SOL     OW31489   0.810   3.255  13.224 -0.4482  0.1579 -0.5158
 6619SOL    HW131490   0.749   3.246  13.297  0.4894 -2.7255 -0.0786
 6619SOL    HW231491   0.888   3.285  13.270  0.0641  1.0749 -1.9950
 6620SOL     OW31492   2.610   1.009  13.775 -0.3480 -0.2913 -0.2830
 6620SOL    HW131493   2.515   1.013  13.768 -0.4487  0.0207  1.3489
 6620SOL    HW231494   2.639   0.923  13.743  0.7779 -0.0153 -0.0236
 6621SOL     OW31495   3.595   2.789   0.776  0.4804 -0.1323  0.5586
 6621SOL    HW131496   3.551   2.804   0.692 -1.0968 -1.0638  1.2326
 6621SOL    HW231497   3.626   2.878   0.793  2.9904 -1.3544  2.4430
 6622SOL     OW31498   3.497   0.982   6.195 -0.2747 -0.0831 -0.1802
 6622SOL    HW131499   3.493   0.948   6.284  0.7448  2.0360  0.6710
 6622SOL    HW231500   3.453   0.921   6.136  0.5043 -1.0397  0.2266
 6623SOL     OW31501   1.685   2.046  11.605 -0.6084 -0.3458 -0.2877
 6623SOL    HW131502   1.602   2.026  11.647 -1.3517  0.2277 -1.4857
 6623SOL    HW231503   1.722   1.959  11.619  0.1528 -0.3219 -2.0690
 6624SOL     OW31504   3.719   1.853   4.083 -0.1523 -0.3370  0.2227
 6624SOL    HW131505   3.751   1.899   4.160 -0.4853 -0.6904  0.5736
 6624SOL    HW231506   3.699   1.927   4.026 -0.2510 -1.4491 -1.1996
 6625SOL     OW31507   0.536   2.848  14.013 -0.2435 -0.3285 -0.4161
 6625SOL    HW131508   0.552   2.816  14.102  1.2043  2.2938  0.2818
 6625SOL    HW231509   0.453   2.894  14.025 -1.5174 -2.1352 -2.3996
 6626SOL     OW31510   2.127   0.550  13.517  0.3065  0.1123  0.5625
 6626SOL    HW131511   2.058   0.577  13.578  1.2029 -1.6172  2.3363
 6626SOL    HW231512   2.129   0.455  13.529 -2.0859  0.1015  0.8628
 6627SOL     OW31513   4.435   0.303   0.912  0.2977 -0.4678 -0.3199
 6627SOL    HW131514   4.418   0.268   0.824 -1.0796  0.1632 -0.3062
 6627SOL    HW231515   4.355   0.297   0.963  0.8612 -0.4708  0.5576
 6628SOL     OW31516   4.085   1.693   3.228 -0.2984  0.2988 -0.6376
 6628SOL    HW131517   4.171   1.687   3.268 -1.0400 -2.9561  0.4613
 6628SOL    HW231518   4.047   1.623   3.280 -3.0133  1.4616 -1.0197
 6629SOL     OW31519   1.997   0.643   8.841  0.1878  0.0541 -0.2531
 6629SOL    HW131520   2.023   0.562   8.796 -0.1720 -1.1995  1.7762
 6629SOL    HW231521   1.903   0.624   8.851 -0.0109  0.5388 -1.2347
 6630SOL     OW31522   0.383   0.207   2.000  0.3428  0.0468 -0.3068
 6630SOL    HW131523   0.391   0.299   2.024  0.2351 -0.7120  2.5331
 6630SOL    HW231524   0.348   0.166   2.079  1.3312 -0.0131  0.0988
 6631SOL     OW31525   1.346   3.462  12.333  0.4203 -0.2587 -0.0017
 6631SOL    HW131526   1.364   3.397  12.400 -2.7560  0.1994  1.2805
 6631SOL    HW231527   1.273   3.428  12.281 -1.3826  1.4834  1.3856
 6632SOL     OW31528   2.916   0.844   2.023  0.3548 -0.1707  0.0304
 6632SOL    HW131529   2.863   0.900   1.966 -2.1506  0.8399  3.3544
 6632SOL    HW231530   2.862   0.767   2.038 -2.1714  1.7892  0.9613
 6633SOL     OW31531   3.593   4.431   7.562 -0.7788  0.1100  0.3661
 6633SOL    HW131532   3.552   4.518   7.559 -0.2609  0.3261 -0.5490
 6633SOL    HW231533   3.575   4.415   7.655  1.1489 -0.6484  0.5909
 6634SOL     OW31534   1.671   0.296   2.964  0.6981  0.4375 -0.2645
 6634SOL    HW131535   1.691   0.241   3.040  0.6449  0.3820 -0.2916
 6634SOL    HW231536   1.579   0.270   2.960  0.9363 -0.4563  0.1353
 6635SOL     OW31537   0.403   0.190  12.429 -0.3554 -0.0587  0.4597
 6635SOL    HW131538   0.456   0.250  12.377 -0.4077  0.7261  1.3244
 6635SOL    HW231539   0.366   0.263  12.479 -0.0061 -0.6295  1.5502
 6636SOL     OW31540   0.837   4.225   2.639 -0.5457  0.1017 -0.2570
 6636SOL    HW131541   0.784   4.249   2.715  0.7714  0.0153  0.6899
 6636SOL    HW231542   0.850   4.130   2.645 -1.6176  0.1228  2.4320
 6637SOL     OW31543   0.075   0.356   6.431  0.1867 -0.0494 -0.0773
 6637SOL    HW131544   4.722   0.347   6.398 -0.0859  2.0927  0.0835
 6637SOL    HW231545   0.065   0.445   6.466 -1.2995 -0.2932  0.1091
 6638SOL     OW31546   2.001   2.267   9.248  0.1689 -0.5182 -0.0900
 6638SOL    HW131547   2.084   2.273   9.296 -0.7633  0.6366  1.3621
 6638SOL    HW231548   1.975   2.175   9.247 -1.1542 -0.1209 -2.5285
 6639SOL     OW31549   4.383   1.334   5.328  0.2802 -0.3858 -0.3728
 6639SOL    HW131550   4.348   1.245   5.317 -2.0608  0.4267  0.3834
 6639SOL    HW231551   4.468   1.312   5.366  0.0778  0.8848  0.7869
 6640SOL     OW31552   2.334   0.817   5.493  0.0486  0.9465 -0.3056
 6640SOL    HW131553   2.395   0.877   5.537  1.2487 -0.5025 -0.0036
 6640SOL    HW231554   2.312   0.764   5.569 -0.6080  0.3120 -0.9340
 6641SOL     OW31555   3.078   0.279   0.369 -0.4533 -0.3544 -0.2309
 6641SOL    HW131556   3.023   0.358   0.368 -0.4985 -0.3996 -1.1738
 6641SOL    HW231557   3.162   0.325   0.370  0.2404 -1.7062  4.1592
 6642SOL     OW31558   3.384   3.965  12.873 -0.2231 -0.0001 -0.4524
 6642SOL    HW131559   3.350   4.011  12.796 -2.2005  0.4511  0.6761
 6642SOL    HW231560   3.347   3.878  12.858 -1.3740  0.6101 -1.1384
 6643SOL     OW31561   2.659   3.755   7.625  0.2364 -0.4169 -0.3113
 6643SOL    HW131562   2.585   3.694   7.630 -0.2454  0.3003  1.1051
 6643SOL    HW231563   2.710   3.714   7.554  0.6763 -1.3755  0.5596
 6644SOL     OW31564   2.152   0.880   8.712 -0.3210 -0.1869 -0.3507
 6644SOL    HW131565   2.168   0.805   8.653  1.1216  0.9801 -1.4349
 6644SOL    HW231566   2.058   0.865   8.725 -0.0881 -1.3867 -0.0363
 6645SOL     OW31567   0.800   2.277   8.850 -0.6659  0.2570  0.5118
 6645SOL    HW131568   0.721   2.223   8.848 -0.5277 -0.0250  3.0378
 6645SOL    HW231569   0.788   2.338   8.777  0.5914  1.6196  1.4615
 6646SOL     OW31570   3.520   1.153   1.955 -0.3341 -0.4042  0.0385
 6646SOL    HW131571   3.431   1.137   1.924 -0.7236 -1.5158  1.7445
 6646SOL    HW231572   3.574   1.099   1.897 -0.2722 -1.0413  0.6902
 6647SOL     OW31573   1.592   2.920   5.557  0.3264 -0.0575  0.0753
 6647SOL    HW131574   1.576   2.830   5.529  0.1634 -0.0140  0.0295
 6647SOL    HW231575   1.504   2.958   5.563 -0.2583 -1.2569 -0.8643
 6648SOL     OW31576   3.595   4.340   2.150 -0.4493 -0.6326  0.0599
 6648SOL    HW131577   3.666   4.316   2.090  1.7634  1.8481  1.6986
 6648SOL    HW231578   3.573   4.429   2.122  1.5105  0.2361  1.3090
 6649SOL     OW31579   1.405   3.642   2.388  0.5014  0.6560  0.5752
 6649SOL    HW131580   1.338   3.688   2.337  1.3698  0.0331 -1.1399
 6649SOL    HW231581   1.473   3.708   2.381  2.4066 -1.1777  1.9524
 6650SOL     OW31582   3.228   1.052  14.069 -0.2112 -0.6315 -0.0435
 6650SOL    HW131583   3.150   1.106  14.063  0.3569  0.0218 -1.3281
 6650SOL    HW231584   3.269   1.079  13.987 -0.4180  2.7111  0.9622
 6651SOL     OW31585   4.123   0.153   3.359  0.7962  0.1016  0.1031
 6651SOL    HW131586   4.123   0.246   3.334  1.6933  0.2155  0.5398
 6651SOL    HW231587   4.142   0.160   3.452  2.6110  1.0462 -0.3282
 6652SOL     OW31588   1.081   4.128   7.027 -0.0429  0.1910 -0.1467
 6652SOL    HW131589   1.081   4.033   7.035  0.7054  0.0848 -1.3745
 6652SOL    HW231590   1.137   4.144   7.103  1.5883  0.2416 -1.3641
 6653SOL     OW31591   3.614   0.027   4.092  0.2689  0.0968 -0.0856
 6653SOL    HW131592   3.594   4.710   4.014  1.6526 -0.6295  0.0516
 6653SOL    HW231593   3.708   0.043   4.093  0.3775 -0.5123 -0.6690
 6654SOL     OW31594   0.835   4.427   9.679  0.0146 -0.1152  0.5578
 6654SOL    HW131595   0.825   4.343   9.635  0.6320  0.7582 -1.2357
 6654SOL    HW231596   0.836   4.397   9.770 -0.4406  1.7692  1.1987
 6655SOL     OW31597   1.339   1.137   1.233  0.6020 -0.5964  0.4971
 6655SOL    HW131598   1.347   1.139   1.137  2.8571 -0.2836  0.6885
 6655SOL    HW231599   1.316   1.226   1.261 -1.7090 -2.0282  3.0685
 6656SOL     OW31600   0.816   0.286   3.947 -0.0913 -0.3989  0.2440
 6656SOL    HW131601   0.838   0.332   4.028 -0.1909  0.1898 -0.0635
 6656SOL    HW231602   0.882   0.218   3.956 -1.4431 -1.6077  0.9194
 6657SOL     OW31603   2.254   2.453   0.852 -0.2140 -0.3813 -0.1907
 6657SOL    HW131604   2.272   2.461   0.945 -0.3424 -1.0523 -0.1045
 6657SOL    HW231605   2.169   2.409   0.856 -1.3839  1.7901 -1.6259
 6658SOL     OW31606   3.061   1.844   4.439 -0.0581  0.0588 -0.3448
 6658SOL    HW131607   3.151   1.853   4.410  0.3102 -1.6125  0.2582
 6658SOL    HW231608   3.017   1.840   4.354  0.9440 -2.1064 -0.7641
 6659SOL     OW31609   2.724   1.556   7.260 -0.4213  0.3631 -0.3051
 6659SOL    HW131610   2.775   1.500   7.318 -1.5844 -0.5111 -0.1335
 6659SOL    HW231611   2.684   1.494   7.199  1.3609 -1.8175  0.7524
 6660SOL     OW31612   3.392   2.347   8.909 -0.0367 -0.4149 -0.5805
 6660SOL    HW131613   3.322   2.373   8.969  3.4782  1.8720  2.4970
 6660SOL    HW231614   3.461   2.311   8.965  0.0889 -1.5946 -1.4908
 6661SOL     OW31615   4.655   4.028   9.107  0.6666  0.3679  0.0657
 6661SOL    HW131616   4.626   3.937   9.105 -0.9612  0.9167 -1.6942
 6661SOL    HW231617   4.646   4.050   9.200 -0.5047  0.7268 -0.1360
 6662SOL     OW31618   3.141   4.473   4.596 -0.1046  0.4438  0.2515
 6662SOL    HW131619   3.194   4.444   4.671 -1.7414 -2.4634  0.2682
 6662SOL    HW231620   3.111   4.557   4.630 -1.2939 -0.4371  1.3955
 6663SOL     OW31621   0.786   0.667  13.036 -0.5396  0.4577  0.1272
 6663SOL    HW131622   0.864   0.611  13.034  1.7298  3.5843  0.5584
 6663SOL    HW231623   0.709   0.615  13.013  1.5214 -2.2879 -0.5460
 6664SOL     OW31624   3.549   0.758  14.768  0.4127  0.3325  0.1439
 6664SOL    HW131625   3.611   0.810  14.717  0.6025 -0.7782 -0.7372
 6664SOL    HW231626   3.478   0.822  14.760  0.9191  0.5863 -2.3909
 6665SOL     OW31627   2.228   2.582  17.365  0.1745  0.0121  0.5733
 6665SOL    HW131628   2.141   2.604  17.401  0.0111  0.7730 -0.2862
 6665SOL    HW231629   2.212   2.594  17.272  2.9777  1.4433  0.2843
 6666SOL     OW31630   4.218   0.333   7.832  0.2579  0.0156 -0.0466
 6666SOL    HW131631   4.288   0.380   7.787  2.4082 -2.9053  0.2313
 6666SOL    HW231632   4.186   0.416   7.868 -0.2362 -0.1537 -0.0922
 6667SOL     OW31633   1.957   3.631   8.967 -0.1711  0.1694 -0.4519
 6667SOL    HW131634   1.938   3.610   9.058  1.8262 -0.8533 -0.2697
 6667SOL    HW231635   1.866   3.650   8.941 -0.7196 -1.8416 -0.0084
 6668SOL     OW31636   3.147   1.148   6.814 -0.0912 -0.3046  0.5223
 6668SOL    HW131637   3.176   1.232   6.777  0.4470 -0.3166  0.9234
 6668SOL    HW231638   3.052   1.162   6.812  0.2004  1.4507 -0.8194
 6669SOL     OW31639   1.487   1.278  17.411 -0.3408 -0.1945  0.0188
 6669SOL    HW131640   1.437   1.207  17.451 -0.7683  0.5053  0.7367
 6669SOL    HW231641   1.576   1.268  17.443 -0.0181  1.2938 -0.4123
 6670SOL     OW31642   4.278   0.604  12.260 -0.1937 -0.1711 -0.1167
 6670SOL    HW131643   4.345   0.541  12.231  0.9446  0.8141  0.3656
 6670SOL    HW231644   4.285   0.597  12.355 -1.4665  0.4660  0.0173
 6671SOL     OW31645   2.390   4.574   3.145 -0.2350  0.6532 -0.5075
 6671SOL    HW131646   2.342   4.576   3.227  1.0341  2.8034  0.1981
 6671SOL    HW231647   2.439   4.492   3.150 -1.6607 -0.0283  1.9110
 6672SOL     OW31648   2.918   2.533  12.058  0.5066 -0.7433 -0.3306
 6672SOL    HW131649   2.854   2.474  12.100 -1.4425  1.7933  0.2614
 6672SOL    HW231650   2.864   2.611  12.045 -2.8487 -2.6459  1.9924
 6673SOL     OW31651   1.608   3.739   1.351 -0.3641  0.1841  0.2658
 6673SOL    HW131652   1.648   3.799   1.414  0.3984  0.0172 -0.0521
 6673SOL    HW231653   1.670   3.666   1.358 -0.3191  0.0549 -1.4803
 6674SOL     OW31654   3.791   0.435   8.626  0.0916  0.8678  0.2454
 6674SOL    HW131655   3.859   0.397   8.682  2.7511  2.8464 -1.6577
 6674SOL    HW231656   3.800   0.529   8.640  0.5206  0.7018  1.1269
 6675SOL     OW31657   3.236   4.284   7.223 -0.0132  0.5035 -0.3521
 6675SOL    HW131658   3.212   4.195   7.200 -1.4633  0.8306 -0.1254
 6675SOL    HW231659   3.241   4.341   7.146 -2.2107  0.7898 -0.2997
 6676SOL     OW31660   2.050   1.582   4.758  0.2946 -0.0173 -0.0077
 6676SOL    HW131661   1.996   1.661   4.766  0.1406 -0.3235  1.8560
 6676SOL    HW231662   1.984   1.533   4.709  0.2589 -2.7370  2.7723
 6677SOL     OW31663   4.593   0.854   3.817  0.4364  0.1070  0.0150
 6677SOL    HW131664   4.537   0.780   3.792 -0.7292  0.7125  0.8222
 6677SOL    HW231665   4.649   0.824   3.889  2.2770  1.4393 -0.8821
 6678SOL     OW31666   1.540   2.445   8.057 -0.3321  0.2293 -0.2223
 6678SOL    HW131667   1.566   2.428   8.147 -2.2885  1.2586  0.5440
 6678SOL    HW231668   1.616   2.479   8.010  0.3068  2.3492  2.4100
 6679SOL     OW31669   4.248   0.724  16.064 -0.7245 -0.1473  0.6828
 6679SOL    HW131670   4.203   0.804  16.092 -0.9844 -0.5200  1.3259
 6679SOL    HW231671   4.337   0.731  16.098 -0.6984  0.5787  0.4704
 6680SOL     OW31672   2.272   1.464   2.784  0.3080  0.0819  0.3846
 6680SOL    HW131673   2.186   1.468   2.743  0.7163 -0.6862 -0.5523
 6680SOL    HW231674   2.244   1.465   2.875 -2.5847  0.5739 -0.4991
 6681SOL     OW31675   2.530   3.703   8.227 -1.0536  0.2972 -0.4180
 6681SOL    HW131676   2.578   3.764   8.283  1.5747  0.0418 -2.3602
 6681SOL    HW231677   2.577   3.623   8.251 -0.9855  0.4680  0.0141
 6682SOL     OW31678   4.725   2.371   3.288  0.4640 -0.3121  0.2726
 6682SOL    HW131679   4.670   2.330   3.356  0.5182  1.5730  1.4614
 6682SOL    HW231680   0.046   2.427   3.341  1.0215  0.2243 -0.9212
 6683SOL     OW31681   0.064   3.814  10.172 -0.4389 -0.7319 -0.3429
 6683SOL    HW131682   0.036   3.862  10.094 -1.5405 -0.8838 -0.0489
 6683SOL    HW231683   0.123   3.881  10.205 -0.9629 -0.3701 -0.1323
 6684SOL     OW31684   3.885   4.044   4.659  0.3801 -0.2770 -0.2388
 6684SOL    HW131685   3.814   4.108   4.655 -0.6915 -1.2767  2.6179
 6684SOL    HW231686   3.911   4.038   4.567  0.8106  1.4614 -0.2225
 6685SOL     OW31687   3.518   0.330   4.019  0.0481  0.4675 -0.1151
 6685SOL    HW131688   3.544   0.274   4.092  0.1101  0.7910  0.1110
 6685SOL    HW231689   3.495   0.262   3.956  0.6216 -0.3099  0.5201
 6686SOL     OW31690   3.041   2.611  13.990 -0.0823  0.2597  0.0570
 6686SOL    HW131691   2.968   2.568  13.944 -0.1351  0.5166 -0.0999
 6686SOL    HW231692   3.096   2.635  13.916 -1.0971 -3.1380 -1.8323
 6687SOL     OW31693   0.151   1.361   4.559 -0.2160  0.9236  0.3864
 6687SOL    HW131694   0.197   1.308   4.624  1.2424 -1.1813 -2.3713
 6687SOL    HW231695   0.068   1.312   4.556  0.7997 -0.7554 -0.2702
 6688SOL     OW31696   0.340   4.610   3.643 -0.4255 -0.0981  0.2634
 6688SOL    HW131697   0.326   4.695   3.686  0.5926  0.2214 -0.0252
 6688SOL    HW231698   0.288   4.617   3.564 -0.5906  0.2347  0.3992
 6689SOL     OW31699   0.316   0.527   3.842 -0.2517 -0.1847  0.3219
 6689SOL    HW131700   0.325   0.514   3.748 -1.9308 -0.6139  0.2191
 6689SOL    HW231701   0.374   0.601   3.864  1.2137 -1.4030  0.5624
 6690SOL     OW31702   0.672   0.398   6.568  0.1019  0.4423 -0.1693
 6690SOL    HW131703   0.747   0.346   6.598 -1.0547 -0.7586  0.6582
 6690SOL    HW231704   0.621   0.426   6.645  0.0085  0.1990 -0.1427
 6691SOL     OW31705   1.355   1.995   5.312  0.0436 -0.0708 -0.0523
 6691SOL    HW131706   1.414   1.995   5.387 -1.1826 -1.6462  0.9076
 6691SOL    HW231707   1.420   2.001   5.241  0.8429 -1.1523  0.5915
 6692SOL     OW31708   1.252   0.792   3.726 -0.0855  0.2080  0.5913
 6692SOL    HW131709   1.189   0.800   3.797 -2.7355  2.4194 -1.9611
 6692SOL    HW231710   1.203   0.749   3.656  2.9665  0.2146 -1.5769
 6693SOL     OW31711   2.128   0.073   9.805 -0.0985 -0.3687  0.7612
 6693SOL    HW131712   2.188   0.143   9.830 -1.1115  0.8686 -0.2287
 6693SOL    HW231713   2.044   0.107   9.837  0.6369  2.6474 -0.5386
 6694SOL     OW31714   3.671   4.630  16.663  0.2756 -1.1692 -0.4751
 6694SOL    HW131715   3.714   4.553  16.700 -1.3471 -1.9144 -0.1217
 6694SOL    HW231716   3.578   4.617  16.679  0.0066  1.3380 -0.0529
 6695SOL     OW31717   0.508   0.190   6.757  0.0165  0.1285  0.3267
 6695SOL    HW131718   0.424   0.212   6.718 -0.3206  0.6662  1.3617
 6695SOL    HW231719   0.537   0.278   6.779 -1.3470  0.6504  0.0109
 6696SOL     OW31720   1.761   2.161   4.067 -0.5280  0.0323 -0.4009
 6696SOL    HW131721   1.806   2.083   4.035 -0.5923  0.3673 -1.2975
 6696SOL    HW231722   1.818   2.209   4.127  2.0976  0.5001 -3.2489
 6697SOL     OW31723   4.017   1.765  10.172 -0.0727 -0.2219 -0.0415
 6697SOL    HW131724   3.993   1.730  10.258 -1.3657 -0.3662 -0.4570
 6697SOL    HW231725   4.025   1.859  10.188 -0.0858 -0.1136 -0.6698
 6698SOL     OW31726   0.098   1.210   5.319 -0.1156 -0.0156  0.8060
 6698SOL    HW131727   0.151   1.220   5.240 -0.2401 -0.6603  0.6406
 6698SOL    HW231728   0.150   1.140   5.357 -0.8450 -1.0506 -0.0751
 6699SOL     OW31729   2.546   4.622   9.285 -0.2325  0.4989  0.1478
 6699SOL    HW131730   2.594   4.679   9.345 -2.2102  1.0902  1.1710
 6699SOL    HW231731   2.604   4.546   9.278  0.1227  0.8581 -0.7584
 6700SOL     OW31732   2.182   4.342   1.997  0.1681 -0.3207 -0.2605
 6700SOL    HW131733   2.170   4.270   1.935 -1.8549 -2.1527  2.2212
 6700SOL    HW231734   2.162   4.418   1.944  2.0455 -0.9584 -1.9144
 6701SOL     OW31735   3.387   1.275   4.900  0.0881 -0.4669  0.3179
 6701SOL    HW131736   3.326   1.332   4.853  1.8352  0.7374 -0.4529
 6701SOL    HW231737   3.406   1.332   4.974 -0.6178  0.1982 -0.0132
 6702SOL     OW31738   2.310   0.174   3.143  0.1705 -0.0516  0.4356
 6702SOL    HW131739   2.373   0.168   3.215 -1.4006 -1.6568  1.6809
 6702SOL    HW231740   2.361   0.136   3.072  0.5375  1.2873 -0.0179
 6703SOL     OW31741   2.455   4.635   4.455 -0.1248  0.3876 -0.0432
 6703SOL    HW131742   2.362   4.617   4.466 -0.3730  0.6212 -1.8381
 6703SOL    HW231743   2.474   4.664   4.544  0.2231  0.0478 -0.0059
 6704SOL     OW31744   0.783   0.438   7.247  0.8886  0.3374 -0.0288
 6704SOL    HW131745   0.739   0.385   7.314 -0.0570 -0.2610 -1.1271
 6704SOL    HW231746   0.860   0.387   7.221 -0.7638 -1.0100 -2.3150
 6705SOL     OW31747   2.460   4.659   8.098  0.0454  0.2270 -0.4973
 6705SOL    HW131748   2.552   4.639   8.117  0.0963 -0.6069 -1.6586
 6705SOL    HW231749   2.468   0.007   8.052 -0.9247 -0.3332 -1.6654
 6706SOL     OW31750   1.257   4.214   7.256  0.2149 -0.0072 -0.2531
 6706SOL    HW131751   1.279   4.302   7.288 -2.4236  1.2822 -2.0285
 6706SOL    HW231752   1.273   4.167   7.338  1.4525 -0.3166 -0.6637
 6707SOL     OW31753   0.496   2.443   4.578 -0.0821  0.2510  0.1794
 6707SOL    HW131754   0.433   2.483   4.518 -0.6940  1.5043  1.6376
 6707SOL    HW231755   0.562   2.512   4.581 -3.0970  3.1567 -0.8636
 6708SOL     OW31756   2.011   3.346   5.842 -0.5820  0.2421  0.1345
 6708SOL    HW131757   2.018   3.409   5.913  1.0820  0.2197 -0.0223
 6708SOL    HW231758   2.091   3.295   5.852  0.5046  1.6446 -1.3934
 6709SOL     OW31759   3.900   4.238  12.893 -0.0073 -0.0358 -0.3318
 6709SOL    HW131760   3.910   4.266  12.802 -2.7598  0.2717 -0.5237
 6709SOL    HW231761   3.864   4.150  12.884  0.0151  0.0034 -0.7782
 6710SOL     OW31762   1.761   2.049  15.400  0.0197  0.2595 -0.1436
 6710SOL    HW131763   1.749   2.011  15.487 -2.0531  0.0773 -0.5033
 6710SOL    HW231764   1.703   2.124  15.407  0.2312  0.4945 -0.9373
 6711SOL     OW31765   4.520   2.857   5.903 -0.2295 -0.3904 -0.2517
 6711SOL    HW131766   4.497   2.766   5.919 -1.0597 -0.0862  0.2541
 6711SOL    HW231767   4.611   2.862   5.932 -0.0029 -0.0131 -1.0317
 6712SOL     OW31768   1.503   0.458   4.026 -0.3174  0.2208  0.5455
 6712SOL    HW131769   1.513   0.534   3.969  0.4465 -0.7629 -0.6217
 6712SOL    HW231770   1.460   0.499   4.101 -0.7698 -0.3212  0.5827
 6713SOL     OW31771   4.584   1.977   2.278 -0.5175  0.6183  0.1865
 6713SOL    HW131772   4.634   1.928   2.213  0.1773  0.4649  0.8403
 6713SOL    HW231773   4.651   2.009   2.338 -0.3978 -0.0713  0.4244
 6714SOL     OW31774   2.499   3.317   8.843  0.1669 -0.1108 -0.1620
 6714SOL    HW131775   2.587   3.345   8.868  0.6231 -1.9624  0.2999
 6714SOL    HW231776   2.452   3.331   8.925  0.4529 -0.1832  0.0143
 6715SOL     OW31777   1.596   3.749   9.559 -0.3630 -0.1895  0.1190
 6715SOL    HW131778   1.625   3.669   9.514  1.6487  0.0590  0.9570
 6715SOL    HW231779   1.508   3.729   9.591 -0.5803  2.0598  0.9146
 6716SOL     OW31780   4.398   0.477  15.192  0.0059  0.3610 -0.1768
 6716SOL    HW131781   4.467   0.459  15.257  0.6458  1.8316 -0.4582
 6716SOL    HW231782   4.387   0.398  15.139 -1.6830  0.5320 -0.0803
 6717SOL     OW31783   1.696   1.069   4.088 -0.5285  0.5310 -0.1862
 6717SOL    HW131784   1.771   1.013   4.110 -0.1855  1.0781  0.0273
 6717SOL    HW231785   1.647   1.005   4.036  0.4375 -0.3907  0.0293
 6718SOL     OW31786   2.339   1.794  11.790 -0.2927  0.2714  0.0044
 6718SOL    HW131787   2.366   1.704  11.805  0.0273  0.3554 -0.0727
 6718SOL    HW231788   2.411   1.830  11.738  0.1489  1.7325  1.6318
 6719SOL     OW31789   4.526   0.165  10.500 -0.2473 -0.1579 -0.0827
 6719SOL    HW131790   4.475   0.190  10.423 -1.5379 -2.0157  0.1856
 6719SOL    HW231791   4.597   0.230  10.504  0.2991 -0.8023  0.6598
 6720SOL     OW31792   0.651   0.187   2.932 -0.2804  0.1703 -0.1665
 6720SOL    HW131793   0.732   0.221   2.893  1.4614 -1.3133  2.1224
 6720SOL    HW231794   0.673   0.148   3.017 -0.3408  3.0939  1.1699
 6721SOL     OW31795   2.946   3.129  11.981 -0.6124  0.1842  0.2316
 6721SOL    HW131796   3.019   3.067  11.980  1.5152  2.6844 -0.0380
 6721SOL    HW231797   2.941   3.137  12.076 -0.1167  3.0974  0.0013
 6722SOL     OW31798   1.107   4.386  11.467  0.5839  0.5834 -0.5581
 6722SOL    HW131799   1.077   4.413  11.554 -1.5789  0.6961 -1.3250
 6722SOL    HW231800   1.032   4.405  11.411  0.1389 -2.0630 -0.8612
 6723SOL     OW31801   1.509   3.460  10.584  0.1998  0.0137  0.3375
 6723SOL    HW131802   1.564   3.537  10.601  1.4963 -0.6130 -1.0794
 6723SOL    HW231803   1.542   3.436  10.498  0.0045  0.1635  0.2207
 6724SOL     OW31804   4.693   1.216  10.654 -0.2481  0.4465  0.2850
 6724SOL    HW131805   4.606   1.223  10.694 -0.3691  0.7010 -0.0211
 6724SOL    HW231806   0.006   1.255  10.727  0.7096  1.1877 -0.7497
 6725SOL     OW31807   1.487   4.417   8.768 -0.4881  0.1171 -0.2730
 6725SOL    HW131808   1.474   4.392   8.860  1.4845  0.2137  0.0365
 6725SOL    HW231809   1.578   4.447   8.771 -0.6705  0.7215 -0.8953
 6726SOL     OW31810   2.613   3.326   5.922 -0.3624 -0.1993 -0.5492
 6726SOL    HW131811   2.635   3.330   5.829  2.7919  2.5466  0.3124
 6726SOL    HW231812   2.613   3.230   5.928 -0.1454 -0.0060  2.6558
 6727SOL     OW31813   0.774   2.269   1.691  0.9185 -0.1476 -0.1458
 6727SOL    HW131814   0.747   2.226   1.610  0.5711  0.6078 -0.4286
 6727SOL    HW231815   0.705   2.335   1.701 -0.5751 -1.8010  0.6312
 6728SOL     OW31816   4.380   2.260  17.184 -0.1201 -0.4439  0.3160
 6728SOL    HW131817   4.312   2.283  17.248  1.5461 -0.6140  2.1728
 6728SOL    HW231818   4.411   2.339  17.140  1.7836 -1.6393 -0.4883
 6729SOL     OW31819   3.033   3.328  15.284  0.0006  0.6692 -0.1389
 6729SOL    HW131820   3.009   3.238  15.307  0.8307  0.2375 -0.9499
 6729SOL    HW231821   3.041   3.372  15.368 -0.0190 -1.2097  0.8522
 6730SOL     OW31822   2.872   0.769  13.461 -0.4495  0.0142  0.6173
 6730SOL    HW131823   2.895   0.774  13.368 -2.0053  0.6362  0.2615
 6730SOL    HW231824   2.859   0.861  13.483 -1.8108 -0.5536  2.2648
 6731SOL     OW31825   3.910   3.381  14.010  0.1564 -0.1133  0.4105
 6731SOL    HW131826   3.911   3.357  13.917  0.2934  1.2470  0.0572
 6731SOL    HW231827   3.972   3.316  14.042 -0.7224 -1.9758 -1.7005
 6732SOL     OW31828   0.579   0.323   1.714 -0.1069  0.7031  0.0977
 6732SOL    HW131829   0.655   0.359   1.760  0.6241  0.7390 -1.1589
 6732SOL    HW231830   0.590   0.353   1.624  0.1549  1.2671  0.3233
 6733SOL     OW31831   0.352   0.080   7.932  0.4699 -0.1255  0.0607
 6733SOL    HW131832   0.260   0.056   7.928 -0.1765  2.3741  0.1486
 6733SOL    HW231833   0.368   0.061   8.024 -0.2508  1.6090  0.5410
 6734SOL     OW31834   0.147   3.546   7.718  0.1218  0.6466 -0.3011
 6734SOL    HW131835   0.094   3.624   7.705 -0.9591 -0.0556 -0.1377
 6734SOL    HW231836   0.190   3.567   7.801  1.5603  0.9056 -1.1132
 6735SOL     OW31837   4.542   4.471   7.679  0.0110  0.9091 -0.4227
 6735SOL    HW131838   4.506   4.559   7.685 -0.0455  0.9289 -1.0274
 6735SOL    HW231839   4.517   4.435   7.764  3.4733 -0.6223 -0.0523
 6736SOL     OW31840   3.766   4.419   5.772  0.3649  0.2965  0.1275
 6736SOL    HW131841   3.860   4.419   5.754 -0.2210 -0.4392 -2.9430
 6736SOL    HW231842   3.753   4.356   5.701 -0.9206  1.0762 -0.3315
 6737SOL     OW31843   0.213   4.136  15.437  0.1200  0.5093 -0.4470
 6737SOL    HW131844   0.165   4.177  15.509 -0.5387  1.6529 -1.5429
 6737SOL    HW231845   0.304   4.153  15.461 -0.3383 -0.8616  2.3239
 6738SOL     OW31846   0.928   2.673   7.637  0.1871 -0.5449 -0.3229
 6738SOL    HW131847   0.875   2.746   7.668  0.8080 -0.4964  0.6352
 6738SOL    HW231848   0.902   2.608   7.702 -2.7863  1.1093  0.1589
 6739SOL     OW31849   0.494   0.397   1.061 -0.4670 -0.4164 -0.2217
 6739SOL    HW131850   0.429   0.360   1.120 -1.2429  0.5550 -0.4750
 6739SOL    HW231851   0.460   0.363   0.978  1.1045 -1.0196 -0.6185
 6740SOL     OW31852   3.998   4.213   5.450  0.1842  0.3091  0.9835
 6740SOL    HW131853   4.059   4.233   5.379  1.6049 -1.0317  1.8188
 6740SOL    HW231854   4.030   4.125   5.470  1.6306  0.7492  0.5922
 6741SOL     OW31855   2.979   0.995   0.001 -0.0856 -0.5817 -0.5940
 6741SOL    HW131856   2.984   1.083   0.038  0.0262 -1.3583  1.2375
 6741SOL    HW231857   2.883   0.997  17.736 -0.1737  1.2575  1.4158
 6742SOL     OW31858   1.756   1.858   0.380  0.4284 -0.0593 -0.3170
 6742SOL    HW131859   1.800   1.933   0.419 -0.0478 -0.0611  0.2206
 6742SOL    HW231860   1.714   1.909   0.311  1.5691  1.8859  0.4244
 6743SOL     OW31861   2.328   1.178   9.492  0.0384  0.0514 -0.4642
 6743SOL    HW131862   2.233   1.165   9.492 -0.0202  0.4672  0.6766
 6743SOL    HW231863   2.343   1.211   9.404  1.3287  0.7470  0.0139
 6744SOL     OW31864   3.154   4.385   7.461 -0.1403 -0.3832 -0.4719
 6744SOL    HW131865   3.187   4.337   7.386 -0.0194 -0.7955 -0.1532
 6744SOL    HW231866   3.179   4.476   7.446 -0.8975 -0.1748 -0.4771
 6745SOL     OW31867   4.359   2.908  10.774 -0.4597 -0.7547  0.4414
 6745SOL    HW131868   4.448   2.889  10.805  0.4007 -0.2153 -1.6723
 6745SOL    HW231869   4.357   2.998  10.808 -0.9064 -1.4895  2.3610
 6746SOL     OW31870   1.811   2.224   0.256  0.5208 -0.0879  0.7621
 6746SOL    HW131871   1.810   2.169   0.177  0.7864 -0.3074  0.9117
 6746SOL    HW231872   1.856   2.172   0.322  1.5299 -2.3698 -1.6893
 6747SOL     OW31873   0.452   2.146   2.720 -0.1656 -0.0687 -0.0134
 6747SOL    HW131874   0.411   2.176   2.802 -1.1779  0.9224 -0.8725
 6747SOL    HW231875   0.429   2.216   2.659  0.9524  0.3521  0.0616
 6748SOL     OW31876   1.778   1.125   7.467  0.2496  0.1657 -0.0661
 6748SOL    HW131877   1.724   1.089   7.397  0.1623 -1.0745  0.6522
 6748SOL    HW231878   1.756   1.217   7.455 -2.1089 -0.4639 -0.4639
 6749SOL     OW31879   4.056   4.639  16.353  0.0254  0.6812  0.1740
 6749SOL    HW131880   4.111   4.694  16.410  1.7875 -1.0158  0.0997
 6749SOL    HW231881   4.096   4.665  16.270 -0.8881  0.9127 -0.1886
 6750SOL     OW31882   4.291   0.556   4.652  0.4649  0.3036  0.2531
 6750SOL    HW131883   4.282   0.604   4.569 -1.0502 -0.5175 -0.0487
 6750SOL    HW231884   4.329   0.628   4.703  1.9384 -0.8170  0.7390
 6751SOL     OW31885   0.942   4.567  10.448  0.4015 -0.0517  0.1760
 6751SOL    HW131886   0.947   4.635  10.515 -3.8078  0.7412 -0.2884
 6751SOL    HW231887   0.866   4.517  10.480  0.5523  1.1201  2.2849
 6752SOL     OW31888   0.918   2.394   4.184 -0.2987 -0.2509 -0.3176
 6752SOL    HW131889   0.864   2.323   4.148  0.3975 -1.4789  1.0541
 6752SOL    HW231890   0.870   2.476   4.172 -0.1047 -0.0749  0.1191
 6753SOL     OW31891   3.273   4.384   2.279 -0.0443  0.7225  0.3606
 6753SOL    HW131892   3.305   4.295   2.296 -1.0220  0.6089  1.6056
 6753SOL    HW231893   3.185   4.355   2.253  1.5773 -2.0629 -2.1205
 6754SOL     OW31894   1.806   1.385   5.425 -0.4974 -0.4124 -1.0009
 6754SOL    HW131895   1.875   1.347   5.479 -0.4349  1.6716  0.3889
 6754SOL    HW231896   1.746   1.412   5.495  0.2488  0.3953 -0.6773
 6755SOL     OW31897   0.473   1.456   8.695  0.6335  0.1644  0.3570
 6755SOL    HW131898   0.420   1.405   8.756 -0.0293  1.8430  1.1912
 6755SOL    HW231899   0.526   1.392   8.649 -1.9095 -0.7428 -1.2969
 6756SOL     OW31900   4.033   2.783   7.204  0.3000  0.0889 -0.1900
 6756SOL    HW131901   3.978   2.833   7.143  0.5086  0.3007 -0.2049
 6756SOL    HW231902   4.101   2.766   7.139 -1.8178 -1.2953 -2.0353
 6757SOL     OW31903   1.838   3.960   4.977  0.0068 -0.1452  0.0995
 6757SOL    HW131904   1.785   4.040   4.975 -1.4138 -1.0482  1.7275
 6757SOL    HW231905   1.893   3.965   5.055 -2.8580 -3.1950  2.3009
 6758SOL     OW31906   0.864   3.012   2.264  0.1137  0.2802 -0.0452
 6758SOL    HW131907   0.822   2.975   2.342  3.4229 -0.7632  1.2473
 6758SOL    HW231908   0.945   3.046   2.303 -0.7203  0.3431  1.6611
 6759SOL     OW31909   0.405   3.838   1.803  0.3316 -0.7109 -0.3703
 6759SOL    HW131910   0.389   3.791   1.884 -1.9122 -1.3383 -1.1803
 6759SOL    HW231911   0.315   3.861   1.781  0.6936  1.9498  0.9415
 6760SOL     OW31912   1.653   3.903   2.520  0.0272  0.0315 -0.3728
 6760SOL    HW131913   1.626   3.994   2.535  2.9137  1.4803 -4.0886
 6760SOL    HW231914   1.741   3.911   2.483 -0.3109  1.7387 -0.8141
 6761SOL     OW31915   1.253   1.558   4.717  0.0233 -0.1362 -0.0590
 6761SOL    HW131916   1.273   1.646   4.685 -0.6001 -0.1485 -0.4695
 6761SOL    HW231917   1.332   1.511   4.691  1.6353  0.4309  3.7810
 6762SOL     OW31918   3.123   1.877   9.806  0.4060 -0.1199  0.8219
 6762SOL    HW131919   3.081   1.792   9.790 -1.7516  0.7023  2.0265
 6762SOL    HW231920   3.042   1.928   9.812 -1.5887 -3.1583 -0.4167
 6763SOL     OW31921   3.901   2.869   6.613  0.9506 -0.0068  0.2535
 6763SOL    HW131922   3.852   2.816   6.549  0.9952  0.7982 -0.4438
 6763SOL    HW231923   3.888   2.954   6.572  1.7307  0.7806  1.6763
 6764SOL     OW31924   0.188   2.217   4.133  0.2912  0.0287  0.2003
 6764SOL    HW131925   0.282   2.204   4.130  0.0648 -2.2809  3.4410
 6764SOL    HW231926   0.178   2.212   4.228  0.4605 -1.3882  0.1407
 6765SOL     OW31927   0.852   3.676   1.676 -0.2289  0.2521  0.6994
 6765SOL    HW131928   0.785   3.658   1.743 -1.7964  1.1712 -0.6275
 6765SOL    HW231929   0.807   3.732   1.612  2.3302 -0.9109 -2.0651
 6766SOL     OW31930   0.240   1.435  11.575 -0.0918 -0.1805  0.0181
 6766SOL    HW131931   0.244   1.340  11.572 -0.4680 -0.1779 -0.7183
 6766SOL    HW231932   0.294   1.458  11.650 -0.0273 -1.6864  0.4229
 6767SOL     OW31933   1.327   0.499   5.112  0.6460  0.2603  0.2994
 6767SOL    HW131934   1.351   0.445   5.036 -2.1100 -2.2153  1.1773
 6767SOL    HW231935   1.406   0.544   5.142 -1.2331  1.9241  2.7178
 6768SOL     OW31936   0.389   0.793   0.008  0.5987 -0.1878 -0.0005
 6768SOL    HW131937   0.460   0.818  17.690 -1.4862 -0.2293 -2.4720
 6768SOL    HW231938   0.313   0.771  17.697  0.6345 -0.1314 -0.0757
 6769SOL     OW31939   1.387   1.582   6.884  0.4321  0.0102 -0.6488
 6769SOL    HW131940   1.430   1.667   6.894  0.7733 -0.2382 -0.0160
 6769SOL    HW231941   1.346   1.584   6.797  1.8101  1.8560 -1.2745
 6770SOL     OW31942   3.238   3.501   9.616  0.1470 -0.0461 -0.4267
 6770SOL    HW131943   3.165   3.472   9.560  0.9437 -1.0762 -0.9258
 6770SOL    HW231944   3.208   3.473   9.702  2.0361  0.9334  0.5411
 6771SOL     OW31945   1.743   2.538  14.843 -0.3774 -0.1698  0.0218
 6771SOL    HW131946   1.761   2.522  14.751  1.7881  0.6359  0.3164
 6771SOL    HW231947   1.830   2.565  14.872  0.0517  0.8998 -2.3029
 6772SOL     OW31948   4.249   2.100   8.110  0.4481  0.1348 -0.0784
 6772SOL    HW131949   4.165   2.056   8.103 -0.0707  1.0647  0.3994
 6772SOL    HW231950   4.230   2.191   8.087 -2.7789 -0.2698  1.0538
 6773SOL     OW31951   1.503   4.353   3.679  0.3673 -0.2719 -0.1919
 6773SOL    HW131952   1.508   4.444   3.708 -2.4840  0.1169 -0.9429
 6773SOL    HW231953   1.502   4.357   3.583 -0.6749  2.8730 -0.0766
 6774SOL     OW31954   1.665   0.098  10.774  0.4348 -0.0166  0.2127
 6774SOL    HW131955   1.596   0.090  10.839 -0.0925  1.1526 -0.1974
 6774SOL    HW231956   1.715   0.018  10.790  0.1628 -0.0414  0.9411
 6775SOL     OW31957   3.052   2.494   5.295  0.6376 -0.2358 -0.4486
 6775SOL    HW131958   3.065   2.548   5.374 -0.4970 -0.6371  0.0106
 6775SOL    HW231959   3.067   2.406   5.330 -1.7266 -0.5165 -0.1623
 6776SOL     OW31960   0.825   3.751   3.196 -0.4633  0.4050  0.5174
 6776SOL    HW131961   0.838   3.718   3.285 -1.5681  0.9236  0.8606
 6776SOL    HW231962   0.890   3.706   3.143 -1.7798 -0.0890 -0.6643
 6777SOL     OW31963   1.063   0.712   8.950  0.3612  0.4361 -0.4666
 6777SOL    HW131964   1.089   0.672   9.033 -0.4469  1.4897  0.2919
 6777SOL    HW231965   1.089   0.803   8.965  0.2234  0.4451 -0.2838
 6778SOL     OW31966   0.232   2.282  16.919 -0.4058 -0.2769 -0.2572
 6778SOL    HW131967   0.297   2.220  16.950 -1.1390  0.1865  2.2095
 6778SOL    HW231968   0.266   2.318  16.837 -0.4779 -1.4601 -0.8028
 6779SOL     OW31969   1.242   3.763  11.167 -0.5423  0.0042 -0.0599
 6779SOL    HW131970   1.277   3.822  11.234 -0.2065  1.3587 -1.4356
 6779SOL    HW231971   1.205   3.695  11.224  0.1625  1.6637  2.4065
 6780SOL     OW31972   1.238   0.069   1.271 -0.7708 -0.1636 -0.2896
 6780SOL    HW131973   1.247   4.729   1.213 -0.0957  1.0921 -1.8057
 6780SOL    HW231974   1.150   0.101   1.252 -0.7736  0.5131  0.8367
 6781SOL     OW31975   3.116   0.427   2.640  0.0681  0.4016 -0.2735
 6781SOL    HW131976   3.077   0.511   2.615 -0.8334 -0.4206 -1.6547
 6781SOL    HW231977   3.202   0.429   2.600 -0.5896 -1.7332 -1.7821
 6782SOL     OW31978   2.079   4.609  14.171 -0.6415  0.3634  0.5027
 6782SOL    HW131979   2.096   4.674  14.238  0.8801 -1.6414  2.0723
 6782SOL    HW231980   2.166   4.604  14.131 -1.7745  0.1529 -1.9124
 6783SOL     OW31981   2.132   0.495  12.073  0.3401 -0.0976  0.1330
 6783SOL    HW131982   2.077   0.489  12.152  0.6424  0.0362  0.3538
 6783SOL    HW231983   2.165   0.584  12.083  1.1662 -0.3589 -0.2422
 6784SOL     OW31984   3.031   2.799   3.645 -0.3481 -0.1194 -0.5244
 6784SOL    HW131985   2.999   2.872   3.698 -2.4735 -1.4488  0.0265
 6784SOL    HW231986   3.099   2.837   3.590  0.1606  1.2240  1.0272
 6785SOL     OW31987   3.590   1.694   2.825  0.2156 -0.6074  0.0476
 6785SOL    HW131988   3.672   1.723   2.865 -0.7963  0.6441  1.1986
 6785SOL    HW231989   3.599   1.732   2.737 -1.8579  0.5839  0.3512
 6786SOL     OW31990   3.605   4.215   8.489  0.1217 -0.5445 -0.0938
 6786SOL    HW131991   3.691   4.176   8.473  0.4476 -0.2430  0.9331
 6786SOL    HW231992   3.601   4.304   8.455 -3.1748 -0.7615 -0.2830
 6787SOL     OW31993   2.547   0.547   1.120 -0.1397  0.1363 -0.1464
 6787SOL    HW131994   2.642   0.543   1.113 -0.0733  0.7151  0.3688
 6787SOL    HW231995   2.550   0.626   1.174  0.3161 -0.7091  1.0791
 6788SOL     OW31996   4.520   1.211  17.055 -0.5432 -0.0614 -0.1193
 6788SOL    HW131997   4.530   1.255  16.971 -0.6232  2.5766  1.2413
 6788SOL    HW231998   4.479   1.280  17.107  1.6192  1.1205  0.0348
 6789SOL     OW31999   4.544   2.314  11.421 -0.4286  0.0104 -0.4010
 6789SOL    HW132000   4.482   2.358  11.480  1.4837 -1.1513  2.4564
 6789SOL    HW232001   4.498   2.314  11.337 -1.5056 -0.4086  0.1938
 6790SOL     OW32002   2.498   4.379  12.025  0.4925 -0.5521 -0.4223
 6790SOL    HW132003   2.467   4.436  11.955 -0.7801  1.1124  1.5085
 6790SOL    HW232004   2.416   4.383  12.074  1.0103  0.5092  0.3560
 6791SOL     OW32005   0.646   1.437   7.623 -0.3860  0.1279  0.2590
 6791SOL    HW132006   0.648   1.495   7.699  0.3977 -0.0450  0.3717
 6791SOL    HW232007   0.701   1.365   7.653  1.7440  2.7644  2.6606
 6792SOL     OW32008   2.953   2.531   8.751 -0.3936 -0.0019 -0.1857
 6792SOL    HW132009   3.023   2.584   8.788 -1.1505  0.1116  1.0958
 6792SOL    HW232010   2.916   2.485   8.827  1.3677  1.3886  1.5131
 6793SOL     OW32011   1.663   1.470   5.625 -1.0546  0.0161  0.0575
 6793SOL    HW132012   1.667   1.473   5.721  2.5462 -0.7634 -0.0643
 6793SOL    HW232013   1.624   1.383   5.619 -2.0857  0.3702  1.5069
 6794SOL     OW32014   1.268   4.167   3.616 -0.4779 -0.0079  0.3400
 6794SOL    HW132015   1.324   4.245   3.610  0.5497 -0.7415  0.4494
 6794SOL    HW232016   1.187   4.180   3.567  0.0379  1.7887 -0.0345
 6795SOL     OW32017   0.259   1.835   3.971 -0.1448 -0.4972 -0.1649
 6795SOL    HW132018   0.235   1.750   4.008  1.2917 -0.6218  0.4477
 6795SOL    HW232019   0.280   1.879   4.053  0.7579 -1.7251  0.2548
 6796SOL     OW32020   0.982   3.189   6.820  0.0957  0.0722 -0.1840
 6796SOL    HW132021   1.036   3.209   6.743  1.0317  1.6356  0.8888
 6796SOL    HW232022   1.009   3.260   6.878  0.9782  1.4020 -2.2241
 6797SOL     OW32023   0.334   1.524   2.985  0.6796  0.2266  0.0179
 6797SOL    HW132024   0.281   1.475   3.048  0.9134  2.9531  2.3261
 6797SOL    HW232025   0.406   1.570   3.028  0.5352  1.8901 -1.5057
 6798SOL     OW32026   1.477   2.624  10.914 -0.7192  0.0588  0.7681
 6798SOL    HW132027   1.392   2.582  10.927 -0.6151  0.0413  1.3924
 6798SOL    HW232028   1.461   2.691  10.849  1.5813 -0.2983 -0.1651
 6799SOL     OW32029   1.128   1.600   7.024  0.0261 -0.2032  0.3529
 6799SOL    HW132030   1.089   1.631   7.106  0.5806  1.0859  0.1362
 6799SOL    HW232031   1.205   1.555   7.060 -0.8760 -0.5472  1.8248
 6800SOL     OW32032   3.377   4.653   7.474  0.6429 -0.5664  1.0568
 6800SOL    HW132033   3.292   4.673   7.515 -0.0313  0.6950 -0.9575
 6800SOL    HW232034   3.435   4.707   7.527  1.2652 -0.7195  0.5255
 6801SOL     OW32035   0.256   0.937   5.022 -0.6252  0.4681 -0.1414
 6801SOL    HW132036   0.265   0.990   5.101 -0.9049  1.0577 -0.4974
 6801SOL    HW232037   0.243   0.851   5.062  0.1833  0.3242 -0.1976
 6802SOL     OW32038   3.985   0.333   4.299  0.2818  0.1952 -0.5611
 6802SOL    HW132039   4.034   0.343   4.218 -0.7969 -1.5628 -1.4263
 6802SOL    HW232040   3.907   0.285   4.272 -0.5623  0.7786  0.8138
 6803SOL     OW32041   0.166   3.769   6.976  0.4648  0.1375 -0.1079
 6803SOL    HW132042   0.194   3.678   6.980  0.4778  0.0989 -0.9890
 6803SOL    HW232043   0.207   3.806   7.054 -1.5251  1.3909  0.3405
 6804SOL     OW32044   2.408   3.137   5.639 -0.0360 -0.3041  0.4777
 6804SOL    HW132045   2.487   3.147   5.586 -2.7753  3.4944 -2.9022
 6804SOL    HW232046   2.393   3.043   5.628  0.0847 -0.0348 -1.8409
 6805SOL     OW32047   2.115   0.111   0.670 -0.0567 -0.3916 -0.4297
 6805SOL    HW132048   2.209   0.096   0.681 -0.3470 -1.2142  0.9560
 6805SOL    HW232049   2.067   0.074   0.743 -0.5782 -0.3559 -0.7545
 6806SOL     OW32050   4.589   3.024   7.645  0.3999 -0.1406  0.0265
 6806SOL    HW132051   4.672   3.034   7.692  0.6982  0.9842 -0.7420
 6806SOL    HW232052   4.563   3.116   7.651  1.8829  0.4706 -2.8864
 6807SOL     OW32053   4.535   3.807   9.543 -0.1262  0.1098 -0.0487
 6807SOL    HW132054   4.464   3.813   9.479 -1.6697 -0.6862  1.6067
 6807SOL    HW232055   4.562   3.716   9.533  1.9885  0.4018  2.8418
 6808SOL     OW32056   4.465   1.314   0.529 -0.1512 -0.3752 -0.3294
 6808SOL    HW132057   4.460   1.375   0.455  0.7733 -0.9287 -0.8423
 6808SOL    HW232058   4.396   1.361   0.575 -0.7993 -0.1527 -1.5155
 6809SOL     OW32059   0.577   0.681  17.596 -0.1533 -0.0888 -0.5607
 6809SOL    HW132060   0.522   0.617  17.641  0.1741 -0.1158 -0.2034
 6809SOL    HW232061   0.657   0.640  17.628 -0.7678  1.6358  3.1877
 6810SOL     OW32062   3.352   3.219   9.598  0.1169 -0.5744  0.2496
 6810SOL    HW132063   3.303   3.174   9.529 -0.5286 -1.9508  1.6231
 6810SOL    HW232064   3.282   3.283   9.612 -0.4489 -0.9375 -0.9552
 6811SOL     OW32065   3.565   0.454   5.517  0.3429  0.0165 -0.1647
 6811SOL    HW132066   3.602   0.533   5.555  3.0747 -0.0717 -2.5565
 6811SOL    HW232067   3.634   0.425   5.457  1.3463  0.6337  0.6912
 6812SOL     OW32068   4.203   4.575  13.453 -0.2786 -0.0149 -0.3216
 6812SOL    HW132069   4.269   4.608  13.393 -0.6820  0.8152 -0.2951
 6812SOL    HW232070   4.251   4.561  13.535  1.1355  0.3354 -1.1006
 6813SOL     OW32071   2.466   0.318  10.078 -0.0663  0.2853  0.8644
 6813SOL    HW132072   2.503   0.262  10.147 -0.1207 -0.0766  0.6004
 6813SOL    HW232073   2.391   0.352  10.125  0.0601 -0.4852  1.6337
 6814SOL     OW32074   2.403   0.066  11.749 -0.5514 -0.4681  0.7822
 6814SOL    HW132075   2.381   0.077  11.657 -0.8891  0.0476  0.9268
 6814SOL    HW232076   2.390   0.154  11.783 -1.9068 -0.3295 -0.1046
 6815SOL     OW32077   3.742   0.340  14.819 -0.3672 -0.1807 -0.0372
 6815SOL    HW132078   3.713   0.345  14.728  0.8150  0.8511 -0.3530
 6815SOL    HW232079   3.702   0.415  14.864 -1.1896 -1.7253  1.8205
 6816SOL     OW32080   4.254   2.911  16.799  0.1389  0.2716 -0.4035
 6816SOL    HW132081   4.202   2.921  16.879 -1.7461 -0.3127 -1.5403
 6816SOL    HW232082   4.238   2.999  16.763 -1.5126  0.9664  2.0103
 6817SOL     OW32083   0.991   1.538  16.843  0.3033  0.1078  0.0487
 6817SOL    HW132084   0.923   1.510  16.782 -1.0470 -1.6492  2.3004
 6817SOL    HW232085   1.025   1.615  16.798  3.9936 -1.1040  0.7406
 6818SOL     OW32086   1.648   2.965   5.115 -0.2997  0.3779 -0.1836
 6818SOL    HW132087   1.690   3.039   5.158 -0.5240 -1.6734  3.5522
 6818SOL    HW232088   1.641   2.911   5.193  3.5699  1.6965  1.0640
 6819SOL     OW32089   0.602   1.781   3.398 -0.2002  0.1631  0.1667
 6819SOL    HW132090   0.575   1.770   3.307 -1.2711  3.6462  0.0580
 6819SOL    HW232091   0.687   1.824   3.401  2.3068 -4.6968 -1.1653
 6820SOL     OW32092   4.479   3.038   5.113 -0.2350 -0.2525 -0.3395
 6820SOL    HW132093   4.548   2.981   5.146 -1.0644 -1.5300 -0.8206
 6820SOL    HW232094   4.430   2.981   5.053  1.7993 -1.1861 -1.0977
 6821SOL     OW32095   3.103   2.485  10.744 -0.0171  0.0920 -0.0982
 6821SOL    HW132096   3.060   2.399  10.749 -1.2729  0.7622  0.5764
 6821SOL    HW232097   3.078   2.531  10.824  2.2510  0.0867  0.6182
 6822SOL     OW32098   4.632   0.465  11.121  0.6284  0.3119  0.1849
 6822SOL    HW132099   4.574   0.436  11.051  1.9158  3.4651 -2.1390
 6822SOL    HW232100   4.560   0.503  11.172  0.5699  0.3507  0.0729
 6823SOL     OW32101   4.563   2.612  15.554 -0.5190 -0.7770 -0.3939
 6823SOL    HW132102   4.649   2.654  15.548 -0.9728  0.2090  0.1408
 6823SOL    HW232103   4.565   2.567  15.469  1.1670  2.1146 -1.8889
 6824SOL     OW32104   2.140   2.889   7.340  0.1515 -0.6029  0.1890
 6824SOL    HW132105   2.161   2.795   7.343  1.0626 -0.4175 -0.3777
 6824SOL    HW232106   2.217   2.931   7.376 -0.7627  1.0499  0.1863
 6825SOL     OW32107   0.496   4.142  15.539 -0.5059  0.2625  0.1599
 6825SOL    HW132108   0.512   4.131  15.633 -0.3502  0.3203  0.1402
 6825SOL    HW232109   0.563   4.203  15.508  0.4520 -2.1158 -2.4491
 6826SOL     OW32110   2.108   1.754   2.050 -0.9960 -0.7334 -0.0769
 6826SOL    HW132111   2.118   1.698   2.127  0.5978 -1.6883 -0.9917
 6826SOL    HW232112   2.116   1.686   1.983  1.0607 -1.7323  1.1779
 6827SOL     OW32113   2.240   2.499   4.853  0.1119 -0.5528  0.4659
 6827SOL    HW132114   2.187   2.564   4.806 -0.9381 -2.2869 -0.7517
 6827SOL    HW232115   2.231   2.534   4.941  0.2407  3.2542 -1.0383
 6828SOL     OW32116   0.229   3.117   4.907  0.1033  0.3579 -0.0195
 6828SOL    HW132117   0.323   3.096   4.910  0.2260  0.9044 -0.0087
 6828SOL    HW232118   0.208   3.135   4.999 -2.1805 -0.7484 -0.3289
 6829SOL     OW32119   1.326   0.431   6.383 -0.8028  0.8124  0.3177
 6829SOL    HW132120   1.238   0.413   6.417  1.2882 -0.4031  5.1159
 6829SOL    HW232121   1.339   0.379   6.303 -2.7125  0.3566  0.3149
 6830SOL     OW32122   3.309   4.574   3.757 -0.4805  0.0708  0.3269
 6830SOL    HW132123   3.244   4.644   3.750  0.4630  0.8606 -0.5742
 6830SOL    HW232124   3.371   4.599   3.689 -0.4107  0.0497  0.3824
 6831SOL     OW32125   1.458   1.911   6.132  0.4974  0.0024  0.2281
 6831SOL    HW132126   1.526   1.905   6.198 -0.4086 -1.6622  1.0193
 6831SOL    HW232127   1.417   1.826   6.146 -0.4792  0.6485  1.3117
 6832SOL     OW32128   3.104   3.392   2.466  0.0632  0.1791  0.0798
 6832SOL    HW132129   3.042   3.464   2.475 -0.3399 -0.1262 -0.2894
 6832SOL    HW232130   3.090   3.351   2.551  0.7239  0.3515  0.2742
 6833SOL     OW32131   3.532   3.752   5.538  0.0575 -0.0875  0.0414
 6833SOL    HW132132   3.565   3.739   5.449  1.8871 -3.0385  1.1643
 6833SOL    HW232133   3.607   3.798   5.576  0.2743 -0.0869 -0.3869
 6834SOL     OW32134   1.937   2.680  14.980  0.0479  0.4805 -0.5571
 6834SOL    HW132135   1.948   2.734  15.059 -5.1125  1.0995 -0.2611
 6834SOL    HW232136   2.011   2.619  14.988  2.1242  2.8059 -2.1462
 6835SOL     OW32137   0.553   3.941  16.221  0.1871 -0.6510  0.3023
 6835SOL    HW132138   0.643   3.910  16.236 -0.1665 -2.4578 -1.2769
 6835SOL    HW232139   0.501   3.861  16.216 -2.2207  0.8141  2.1378
 6836SOL     OW32140   2.156   1.953   8.513 -0.2764 -0.4384 -0.1574
 6836SOL    HW132141   2.074   1.919   8.550 -0.2539 -1.2648 -0.8597
 6836SOL    HW232142   2.136   2.022   8.451  0.7102  0.7813  0.8877
 6837SOL     OW32143   4.406   2.591   5.721 -0.9130  0.3088  0.2747
 6837SOL    HW132144   4.393   2.539   5.642 -1.4203 -0.3130  0.7735
 6837SOL    HW232145   4.345   2.664   5.710 -0.5575  0.5572 -0.0610
 6838SOL     OW32146   2.540   0.995   4.581 -0.1264 -0.3199  0.3742
 6838SOL    HW132147   2.444   0.990   4.581 -0.1346 -0.1647  1.2026
 6838SOL    HW232148   2.558   0.967   4.491 -2.1261  1.7994 -0.6838
 6839SOL     OW32149   0.211   2.503  12.249  0.0408  0.1116  0.6509
 6839SOL    HW132150   0.204   2.499  12.344  0.0465 -2.4642  0.5603
 6839SOL    HW232151   0.299   2.467  12.245 -0.2781 -0.1049 -5.3739
 6840SOL     OW32152   3.035   1.484  12.938 -0.4631 -0.6812 -0.0664
 6840SOL    HW132153   2.978   1.472  12.862  0.0805  1.4685 -0.8254
 6840SOL    HW232154   3.000   1.564  12.978  0.0439 -0.7512  0.5200
 6841SOL     OW32155   2.140   1.291  13.369 -0.4937  0.1972  0.3325
 6841SOL    HW132156   2.190   1.269  13.291 -1.0473  0.1270 -0.0058
 6841SOL    HW232157   2.052   1.308  13.336 -0.7411 -0.8448  0.4508
 6842SOL     OW32158   2.895   2.570   1.570  0.1410 -0.1227 -0.1401
 6842SOL    HW132159   2.971   2.628   1.577 -1.9391  2.5209  0.4782
 6842SOL    HW232160   2.900   2.530   1.483 -0.2328  1.7694 -1.0376
 6843SOL     OW32161   1.709   4.010   9.553  0.3314 -0.1809 -0.3758
 6843SOL    HW132162   1.635   4.047   9.504  0.1688 -0.3696 -0.2760
 6843SOL    HW232163   1.680   3.919   9.561  2.4910 -1.0454 -2.4487
 6844SOL     OW32164   3.240   0.915   8.358 -0.3192 -0.0415  0.3147
 6844SOL    HW132165   3.152   0.882   8.373 -0.5922 -0.1802 -1.5724
 6844SOL    HW232166   3.226   1.010   8.359 -1.1837 -0.1710  0.5430
 6845SOL     OW32167   3.462   2.651   8.237 -0.5118  0.2237 -0.3031
 6845SOL    HW132168   3.461   2.567   8.283 -2.3553  0.0068 -0.7447
 6845SOL    HW232169   3.389   2.638   8.177 -1.2031  1.5034  0.2472
 6846SOL     OW32170   1.796   4.567  10.789  0.5255 -0.9144  0.1306
 6846SOL    HW132171   1.750   4.504  10.734 -1.6102  0.9835 -0.2255
 6846SOL    HW232172   1.856   4.515  10.843 -0.6215 -1.1030  1.2013
 6847SOL     OW32173   0.859   1.405   8.804  0.3717 -1.1300 -0.0546
 6847SOL    HW132174   0.900   1.486   8.775 -2.0200  0.0079 -0.2218
 6847SOL    HW232175   0.877   1.369   8.717 -3.9286 -0.7127 -1.1030
 6848SOL     OW32176   1.285   3.320  10.839  0.2723 -0.2951  0.3581
 6848SOL    HW132177   1.366   3.339  10.791 -0.1421  0.5321 -0.0084
 6848SOL    HW232178   1.316   3.263  10.909  2.6504  2.1191  1.2773
 6849SOL     OW32179   0.706   0.985  15.890  0.7675 -0.0955 -0.2867
 6849SOL    HW132180   0.797   0.989  15.859  1.0496 -2.3200  0.2480
 6849SOL    HW232181   0.671   0.922  15.827 -1.1244  0.0556  0.6220
 6850SOL     OW32182   2.516   0.349   6.973 -0.1796  0.1119  0.2032
 6850SOL    HW132183   2.534   0.415   6.906  0.3418  0.6398  0.8614
 6850SOL    HW232184   2.589   0.289   6.960 -0.5460 -0.4010  0.5399
 6851SOL     OW32185   2.466   0.558   3.900  0.2954  0.3651  0.4241
 6851SOL    HW132186   2.561   0.550   3.893  0.4308  0.9373  1.7522
 6851SOL    HW232187   2.439   0.576   3.810  2.3928  1.7029  0.0453
 6852SOL     OW32188   0.386   1.735   7.658 -0.1237 -0.3496 -0.1607
 6852SOL    HW132189   0.337   1.791   7.718 -0.9310  0.2371 -1.3605
 6852SOL    HW232190   0.317   1.712   7.597 -1.7028  0.7350  1.2256
 6853SOL     OW32191   3.700   3.422  11.962 -0.2749  0.0318  0.1104
 6853SOL    HW132192   3.725   3.425  12.055  1.3757 -3.6913 -0.2061
 6853SOL    HW232193   3.653   3.505  11.955  0.7947  0.6680  0.4147
 6854SOL     OW32194   2.808   1.760   7.718 -0.3416  0.1211 -0.6090
 6854SOL    HW132195   2.758   1.733   7.641 -2.6578  1.2024  0.5253
 6854SOL    HW232196   2.793   1.855   7.714  0.3805  0.3115  1.1791
 6855SOL     OW32197   4.409   0.341   3.211  0.1915  0.5645  0.2588
 6855SOL    HW132198   4.396   0.422   3.260 -1.2291  0.3624  0.2042
 6855SOL    HW232199   4.436   0.379   3.128  2.9432  0.7985  1.2557
 6856SOL     OW32200   1.317   0.915  13.335 -0.1620  0.2319  0.1619
 6856SOL    HW132201   1.337   0.998  13.378 -0.4774  0.3766  0.0302
 6856SOL    HW232202   1.393   0.876  13.377  0.6281  1.3616 -0.2187
 6857SOL     OW32203   2.457   0.901  16.677 -0.4022  0.0498 -0.5386
 6857SOL    HW132204   2.378   0.911  16.730  0.2522  2.0619  0.0368
 6857SOL    HW232205   2.449   0.990  16.644  2.1420  1.0520  1.5522
 6858SOL     OW32206   3.408   3.855   9.419  0.1762 -0.0916 -0.1476
 6858SOL    HW132207   3.416   3.784   9.482 -0.6260 -0.4612 -0.4571
 6858SOL    HW232208   3.469   3.921   9.451 -1.1236  1.1372 -0.2032
 6859SOL     OW32209   1.803   2.513  14.586  0.0210  0.1713  0.5783
 6859SOL    HW132210   1.738   2.492  14.519  0.0392  1.4468  0.1744
 6859SOL    HW232211   1.882   2.524  14.533  0.0084 -1.0936  0.2960
 6860SOL     OW32212   4.344   4.225   9.523  0.0974 -0.5312 -0.0637
 6860SOL    HW132213   4.436   4.199   9.518 -0.0643 -1.6304  2.9329
 6860SOL    HW232214   4.336   4.233   9.618 -0.9739  1.3015 -0.3067
 6861SOL     OW32215   0.948   2.376   2.905  0.3437 -0.5259  0.0557
 6861SOL    HW132216   1.031   2.384   2.859 -0.7587  0.6472 -1.7312
 6861SOL    HW232217   0.897   2.442   2.857  0.3552  0.2998  1.1762
 6862SOL     OW32218   3.352   1.516  11.447 -0.0958 -0.5829  0.0584
 6862SOL    HW132219   3.261   1.545  11.446 -1.2363 -4.2382 -0.2568
 6862SOL    HW232220   3.387   1.552  11.365  2.0058  0.8079  1.5553
 6863SOL     OW32221   3.559   3.335   5.906  0.2919  0.5277  0.7128
 6863SOL    HW132222   3.650   3.319   5.881 -0.3523  0.3119 -1.5086
 6863SOL    HW232223   3.565   3.430   5.902  2.0268  0.4189  0.8443
 6864SOL     OW32224   1.855   0.250   5.520  0.0808  0.4789 -0.0429
 6864SOL    HW132225   1.849   0.307   5.443 -0.8787  2.5199  1.5540
 6864SOL    HW232226   1.930   0.285   5.567  1.2214  0.4180 -1.8057
 6865SOL     OW32227   3.953   2.908  12.364  0.0586 -0.2348  0.4560
 6865SOL    HW132228   3.928   2.823  12.402  1.1072 -1.2787 -1.1733
 6865SOL    HW232229   4.039   2.886  12.329  0.5009 -0.1917  1.5100
 6866SOL     OW32230   1.433   1.958   9.535 -0.2331 -0.8046 -0.0856
 6866SOL    HW132231   1.428   1.904   9.457 -2.0033 -1.0606  0.2105
 6866SOL    HW232232   1.348   1.941   9.576 -0.4614 -3.0024 -1.5245
 6867SOL     OW32233   0.100   3.530   4.562  0.1086 -0.4624 -0.0638
 6867SOL    HW132234   0.057   3.528   4.647  0.0793  0.6551 -0.0580
 6867SOL    HW232235   0.103   3.439   4.531 -0.2209 -0.9107  1.2260
 6868SOL     OW32236   0.348   0.276   2.453  0.1850  0.4863  0.1183
 6868SOL    HW132237   0.265   0.228   2.444  0.5641 -0.1229 -0.1203
 6868SOL    HW232238   0.345   0.335   2.378  1.1648  0.2386 -0.1175
 6869SOL     OW32239   0.848   0.575   3.387  0.0001 -0.3770 -0.3816
 6869SOL    HW132240   0.834   0.505   3.323 -1.6297 -2.0335  1.8126
 6869SOL    HW232241   0.822   0.643   3.324 -1.9811  0.1397  0.9813
 6870SOL     OW32242   0.651   3.700   2.685 -0.1353 -0.0288  0.3167
 6870SOL    HW132243   0.607   3.702   2.600  1.0176  1.1496 -0.2459
 6870SOL    HW232244   0.690   3.613   2.677  0.3881  0.1644  0.7849
 6871SOL     OW32245   4.353   2.992   9.193  0.2486  0.5740 -0.1525
 6871SOL    HW132246   4.321   3.077   9.164  1.4212  0.2174 -2.4657
 6871SOL    HW232247   4.293   2.985   9.268  2.1337  2.6377  1.5340
 6872SOL     OW32248   3.185   1.144   8.647 -0.4258  0.1755  0.2671
 6872SOL    HW132249   3.184   1.236   8.674  0.6876  0.3551 -0.3383
 6872SOL    HW232250   3.175   1.155   8.552  0.9150 -0.7790  0.0209
 6873SOL     OW32251   1.975   1.453   7.483 -0.4828  0.2464 -0.3459
 6873SOL    HW132252   1.933   1.369   7.463  0.9050 -1.1390  2.4451
 6873SOL    HW232253   1.899   1.511   7.485 -0.1804  0.6776 -1.5928
 6874SOL     OW32254   2.464   1.109   5.202  0.0005 -0.0365  0.2455
 6874SOL    HW132255   2.450   1.189   5.152  0.3592  1.1526  2.0612
 6874SOL    HW232256   2.392   1.053   5.173 -0.6637  0.8244  0.2351
 6875SOL     OW32257   1.407   2.179   3.620  0.1668 -0.1931 -0.3344
 6875SOL    HW132258   1.403   2.258   3.566  1.5927  0.1558  0.0628
 6875SOL    HW232259   1.351   2.198   3.695  0.3548 -0.5326 -0.1097
 6876SOL     OW32260   3.414   3.665   6.843 -0.2374  0.4870  0.2306
 6876SOL    HW132261   3.449   3.753   6.827 -1.9988  1.2746  0.6862
 6876SOL    HW232262   3.497   3.623   6.864 -0.8542 -1.4258 -1.1378
 6877SOL     OW32263   0.728   4.191   8.050 -0.5902 -0.4324  0.0556
 6877SOL    HW132264   0.663   4.193   7.980  0.0424 -1.0740 -0.5556
 6877SOL    HW232265   0.810   4.196   8.000 -0.9673 -1.1106 -0.6348
 6878SOL     OW32266   0.884   4.473   5.141 -0.2505  0.0473 -0.2753
 6878SOL    HW132267   0.960   4.490   5.085 -0.5850 -0.4178 -0.8730
 6878SOL    HW232268   0.913   4.472   5.232  0.1581 -0.1242 -0.4065
 6879SOL     OW32269   0.087   2.825   8.660  0.0108  0.4645  0.0162
 6879SOL    HW132270   0.039   2.887   8.714 -1.4554 -0.9784  0.3530
 6879SOL    HW232271   0.164   2.798   8.711 -1.4364 -2.4464  0.6163
 6880SOL     OW32272   2.287   4.723  15.432  0.3854 -0.0470 -0.2351
 6880SOL    HW132273   2.287   4.629  15.416 -2.7986  0.5136 -3.7705
 6880SOL    HW232274   2.262   4.719  15.524 -0.2728 -0.6401 -0.4414
 6881SOL     OW32275   3.304   4.216  12.411 -0.3161 -0.7628  0.4904
 6881SOL    HW132276   3.234   4.222  12.346  0.7567  0.8157 -0.5342
 6881SOL    HW232277   3.366   4.279  12.374 -0.6193 -0.9770 -0.3735
 6882SOL     OW32278   1.486   2.092   1.787  0.2498 -0.6426 -0.4410
 6882SOL    HW132279   1.428   2.149   1.736 -2.2779 -1.3468  1.6229
 6882SOL    HW232280   1.431   2.026   1.829 -0.7944  0.8067  0.4843
 6883SOL     OW32281   2.690   4.314  11.676  0.5232 -0.0130 -0.3544
 6883SOL    HW132282   2.734   4.388  11.632  0.7398 -0.7520 -1.3800
 6883SOL    HW232283   2.608   4.299  11.629 -1.1573 -0.6275  2.7851
 6884SOL     OW32284   1.198   4.131   5.880  0.3608  0.0361  0.0804
 6884SOL    HW132285   1.184   4.131   5.786 -0.0008  0.1618  0.1338
 6884SOL    HW232286   1.282   4.174   5.891  0.2180  0.1816  0.5901
 6885SOL     OW32287   1.974   4.285  17.254 -0.6923  0.2865 -0.1842
 6885SOL    HW132288   2.060   4.307  17.291 -0.9580  1.6105 -0.3294
 6885SOL    HW232289   1.941   4.228  17.323 -0.1241 -1.6513 -1.5290
 6886SOL     OW32290   1.051   2.134   0.024  0.0551  0.3341  0.4473
 6886SOL    HW132291   1.051   2.153  17.671  0.7718  0.0614  0.3915
 6886SOL    HW232292   0.965   2.167   0.050 -0.4335 -0.8943  0.3930
 6887SOL     OW32293   0.176   2.422   6.537 -0.4418 -0.0562 -0.1866
 6887SOL    HW132294   0.171   2.374   6.619  3.5921 -0.1947 -0.0172
 6887SOL    HW232295   0.098   2.416   6.482  1.1291 -1.9792 -2.1923
 6888SOL     OW32296   1.167   4.199   2.087  0.4698 -0.4322 -0.1063
 6888SOL    HW132297   1.073   4.212   2.090  0.7050  0.8738  1.1805
 6888SOL    HW232298   1.182   4.252   2.165 -0.4631  0.3982 -0.4923
 6889SOL     OW32299   1.273   1.523   2.439  0.8335 -0.4936  0.2920
 6889SOL    HW132300   1.178   1.525   2.453  0.6102 -0.3423 -1.2213
 6889SOL    HW232301   1.278   1.549   2.347  3.5856 -1.8590  0.0639
 6890SOL     OW32302   0.037   3.415  16.862  0.0464  0.1752  0.0535
 6890SOL    HW132303   4.714   3.486  16.836  0.2019  0.1314 -0.4174
 6890SOL    HW232304   0.041   3.408  16.957 -0.5356 -0.1693  0.0527
 6891SOL     OW32305   0.646   0.894  13.352 -0.0705  0.2721 -0.5905
 6891SOL    HW132306   0.692   0.971  13.384  2.9148 -1.6579 -0.3256
 6891SOL    HW232307   0.612   0.864  13.436  1.7231  0.8141  0.3187
 6892SOL     OW32308   4.661   2.276   9.421  0.1220 -0.6705 -0.4309
 6892SOL    HW132309   4.625   2.199   9.379  1.1342  0.0547 -2.6436
 6892SOL    HW232310   4.654   2.342   9.352  1.4414  0.4720  0.5331
 6893SOL     OW32311   4.495   1.984   5.877 -0.3251  0.1642 -0.6947
 6893SOL    HW132312   4.524   1.905   5.831  1.7990  1.3857 -1.4536
 6893SOL    HW232313   4.568   2.046   5.866 -0.2700  0.4239  1.1636
 6894SOL     OW32314   1.070   0.023   8.149 -0.4868  0.6636 -0.4138
 6894SOL    HW132315   1.031   4.715   8.225 -0.3896  0.6081 -0.3958
 6894SOL    HW232316   1.150   0.041   8.199 -0.6856 -1.5450  0.7039
 6895SOL     OW32317   3.431   3.612  11.645  0.1685 -0.5713  0.2701
 6895SOL    HW132318   3.393   3.534  11.605  0.8117 -0.4213 -0.6161
 6895SOL    HW232319   3.380   3.686  11.610  2.0762  0.0560 -1.1498
 6896SOL     OW32320   2.985   3.438   2.751  0.3719  0.2603  0.4719
 6896SOL    HW132321   2.950   3.513   2.704 -0.1455 -1.0949 -1.3031
 6896SOL    HW232322   2.951   3.463   2.837  1.4338 -1.0545  1.2935
 6897SOL     OW32323   1.243   3.666   2.925 -0.3019 -0.0601 -0.4318
 6897SOL    HW132324   1.321   3.610   2.927 -1.1400 -1.2443 -0.5029
 6897SOL    HW232325   1.285   3.723   2.860 -1.4720  1.7547  0.4142
 6898SOL     OW32326   1.342   0.306   4.850 -0.0745  0.0568 -0.0801
 6898SOL    HW132327   1.267   0.253   4.876 -0.9108  1.6435  0.7332
 6898SOL    HW232328   1.413   0.266   4.901 -0.9404 -0.2749  0.8736
 6899SOL     OW32329   3.389   4.272  10.452  0.0779  0.2876  0.2189
 6899SOL    HW132330   3.438   4.242  10.529  2.1095  1.8465 -0.4769
 6899SOL    HW232331   3.300   4.248  10.476 -0.2866  0.1444 -1.3006
 6900SOL     OW32332   1.232   1.571   6.615  0.0166  0.2107 -0.3966
 6900SOL    HW132333   1.147   1.561   6.572  0.7977  2.1232 -2.3575
 6900SOL    HW232334   1.260   1.659   6.590 -1.2821  0.6599 -0.3029
 6901SOL     OW32335   4.219   3.809  10.894 -0.7599  0.3451  0.0864
 6901SOL    HW132336   4.286   3.808  10.826 -1.3000  1.6526 -0.4648
 6901SOL    HW232337   4.271   3.794  10.974  0.2794 -0.1171 -0.6704
 6902SOL     OW32338   2.668   4.003   4.986  0.3570 -0.2567  0.5042
 6902SOL    HW132339   2.678   4.015   4.892 -0.6744  2.4075  0.7348
 6902SOL    HW232340   2.615   4.075   5.021  0.2704 -0.2038  0.2644
 6903SOL     OW32341   0.605   0.926   5.198 -0.4005 -0.3988 -0.2205
 6903SOL    HW132342   0.654   0.975   5.265 -1.3469  0.0504  0.1489
 6903SOL    HW232343   0.514   0.952   5.211 -0.1201  0.8365 -0.6336
 6904SOL     OW32344   3.487   1.228   9.320  0.0513 -0.0854  0.1313
 6904SOL    HW132345   3.431   1.300   9.292 -0.9916 -1.0537 -0.2806
 6904SOL    HW232346   3.569   1.275   9.337 -0.0633  0.2056 -0.1283
 6905SOL     OW32347   3.799   3.221  17.348 -0.0697 -0.3661  0.3342
 6905SOL    HW132348   3.744   3.190  17.276  0.7255  1.6504 -1.1121
 6905SOL    HW232349   3.744   3.232  17.426  0.1651 -1.1079  0.6080
 6906SOL     OW32350   3.830   3.496   1.345  0.1914  0.1487  0.0847
 6906SOL    HW132351   3.913   3.497   1.392  1.8267 -1.8354 -2.8041
 6906SOL    HW232352   3.861   3.444   1.271 -0.2301  1.0930 -0.7594
 6907SOL     OW32353   3.219   1.150   2.720  0.1970 -0.0277  0.2698
 6907SOL    HW132354   3.311   1.128   2.710  0.2286  0.6417 -0.9564
 6907SOL    HW232355   3.202   1.122   2.810  0.3516 -2.5533 -0.4865
 6908SOL     OW32356   2.658   2.935   5.845 -0.1443 -0.0807  0.0174
 6908SOL    HW132357   2.712   2.868   5.887 -1.1548 -0.3727  0.8580
 6908SOL    HW232358   2.584   2.928   5.905 -0.0041 -2.6489 -0.1050
 6909SOL     OW32359   0.582   2.516   2.987 -0.4779 -0.1599 -0.3787
 6909SOL    HW132360   0.655   2.460   2.959 -0.3004 -0.5038  0.7410
 6909SOL    HW232361   0.607   2.526   3.079  1.3906 -2.3249 -0.6444
 6910SOL     OW32362   4.714   1.173   7.140 -0.5961 -0.4182 -0.0976
 6910SOL    HW132363   4.707   1.148   7.232 -1.1901 -0.2893 -0.1096
 6910SOL    HW232364   4.637   1.127   7.108 -2.2615  0.6070  2.4405
 6911SOL     OW32365   3.819   1.412   2.662  0.6226  0.0795 -0.4098
 6911SOL    HW132366   3.751   1.429   2.728 -1.6185  1.9583 -3.1863
 6911SOL    HW232367   3.812   1.486   2.602  2.0045 -0.7012 -1.5328
 6912SOL     OW32368   0.969   4.209  17.181  0.8847 -0.4804  0.1875
 6912SOL    HW132369   1.008   4.270  17.119  0.9460 -1.7772 -1.0565
 6912SOL    HW232370   1.019   4.239  17.258 -0.0648  2.3705 -0.3172
 6913SOL     OW32371   1.821   4.390  15.140  0.4249 -0.1427 -0.1023
 6913SOL    HW132372   1.727   4.402  15.151  0.6861  1.6680  0.1406
 6913SOL    HW232373   1.821   4.327  15.068  1.1613  0.9997 -1.1230
 6914SOL     OW32374   0.413   1.380   4.818 -0.4884  0.3086  0.0746
 6914SOL    HW132375   0.444   1.360   4.730 -2.8384 -2.6920 -0.0319
 6914SOL    HW232376   0.426   1.300   4.869 -0.5508 -0.3806 -1.0046
 6915SOL     OW32377   1.339   2.072   7.959  0.0696  0.6246  0.0824
 6915SOL    HW132378   1.414   2.028   7.997 -0.7422 -1.1133 -0.3401
 6915SOL    HW232379   1.389   2.117   7.890 -0.7470  0.2696 -0.7403
 6916SOL     OW32380   1.153   3.211   6.585 -0.2088 -0.1218 -0.2224
 6916SOL    HW132381   1.163   3.122   6.619 -0.1611  0.1077  0.3692
 6916SOL    HW232382   1.214   3.266   6.635  0.4390 -0.5593 -0.5254
 6917SOL     OW32383   4.582   2.383   8.769  0.2421 -0.3179 -0.0739
 6917SOL    HW132384   4.550   2.425   8.849 -2.1203  0.0135 -1.1826
 6917SOL    HW232385   4.595   2.456   8.709 -0.5160 -0.3584 -0.2887
 6918SOL     OW32386   1.064   3.642   4.031  0.2580  0.6374  0.2225
 6918SOL    HW132387   1.004   3.571   4.056  0.6183  0.3206  0.1733
 6918SOL    HW232388   1.143   3.591   4.014 -0.0260  0.1922  0.2286
 6919SOL     OW32389   3.357   2.507  14.900  0.3146 -0.5828 -0.9158
 6919SOL    HW132390   3.276   2.476  14.939  0.1874 -1.4602 -1.8988
 6919SOL    HW232391   3.417   2.433  14.903 -0.4177 -1.1574 -0.5736
 6920SOL     OW32392   3.258   3.548   8.405 -0.0415  0.1312  0.6294
 6920SOL    HW132393   3.228   3.511   8.488 -1.2614  1.1236  0.6385
 6920SOL    HW232394   3.331   3.487   8.399 -0.6824 -0.3135 -2.2991
 6921SOL     OW32395   2.363   4.276   3.103 -0.1389 -0.2475  0.1351
 6921SOL    HW132396   2.268   4.265   3.106 -0.3125  1.7260  1.8355
 6921SOL    HW232397   2.383   4.224   3.181  0.1974  0.8871  0.8193
 6922SOL     OW32398   2.942   3.936  16.678 -0.1848  0.7665 -0.1419
 6922SOL    HW132399   2.890   3.875  16.730 -0.5799  2.1954  1.1287
 6922SOL    HW232400   2.927   3.907  16.588  0.1648  0.3604 -0.0689
 6923SOL     OW32401   3.215   4.078   5.878 -0.7302  0.2626  0.0279
 6923SOL    HW132402   3.180   4.166   5.889 -1.9045 -0.2327  0.2600
 6923SOL    HW232403   3.151   4.025   5.925  0.8529 -1.2485  0.4791
 6924SOL     OW32404   4.446   3.735  13.315  0.6682  0.1247 -0.0698
 6924SOL    HW132405   4.450   3.797  13.242 -1.7645  1.6510  1.1025
 6924SOL    HW232406   4.372   3.777  13.359  1.7096  1.5086  0.3439
 6925SOL     OW32407   1.257   2.929   6.952 -0.7696 -0.2249  0.2269
 6925SOL    HW132408   1.289   3.019   6.955 -2.5027  0.4764 -2.4145
 6925SOL    HW232409   1.297   2.891   6.874  0.1539  1.4266 -0.0842
 6926SOL     OW32410   1.814   0.623  15.757  0.1405  0.0308  0.3225
 6926SOL    HW132411   1.777   0.591  15.839  0.1086  0.9192  0.6606
 6926SOL    HW232412   1.881   0.688  15.779  0.5159 -0.5356  0.8348
 6927SOL     OW32413   2.131   3.458   9.667  0.3366 -0.0027  0.2090
 6927SOL    HW132414   2.065   3.461   9.737 -0.8992 -1.0568 -0.9059
 6927SOL    HW232415   2.210   3.489   9.710 -1.5705  0.9353  3.1142
 6928SOL     OW32416   0.219   3.261   7.715  0.5414  0.0161  0.0186
 6928SOL    HW132417   0.195   3.353   7.710 -1.3128 -0.4987 -0.5323
 6928SOL    HW232418   0.302   3.260   7.762 -0.7819  2.5609  2.4459
 6929SOL     OW32419   1.030   2.794  16.766  0.0718  0.0137 -0.2789
 6929SOL    HW132420   1.022   2.793  16.861 -1.9376 -0.0898 -0.4559
 6929SOL    HW232421   1.021   2.888  16.753 -0.4787  0.1477  1.1385
 6930SOL     OW32422   0.432   2.609  11.220  0.6308 -0.1066 -0.0989
 6930SOL    HW132423   0.365   2.624  11.287  0.5049 -4.3301  0.6949
 6930SOL    HW232424   0.513   2.617  11.270  1.0108 -0.9016 -0.5883
 6931SOL     OW32425   2.777   0.202   8.524  0.6499  1.1793  0.4022
 6931SOL    HW132426   2.830   0.261   8.470 -0.5323  1.4774 -0.4361
 6931SOL    HW232427   2.742   0.262   8.591 -1.6759  0.8031 -0.5184
 6932SOL     OW32428   2.942   4.488   9.064  0.0472  0.0006 -0.3710
 6932SOL    HW132429   2.912   4.579   9.055  0.3920 -0.1216 -2.7733
 6932SOL    HW232430   2.983   4.467   8.980  0.8587 -2.6847  0.7178
 6933SOL     OW32431   4.358   2.449   4.177  0.1636 -0.1285 -0.1368
 6933SOL    HW132432   4.388   2.524   4.127 -0.6734  2.1173  2.7430
 6933SOL    HW232433   4.436   2.395   4.170  1.1508  1.3383 -0.3802
 6934SOL     OW32434   0.654   1.458   1.421  0.4307  0.2411  0.9196
 6934SOL    HW132435   0.750   1.467   1.426  0.3619  1.1341  0.6728
 6934SOL    HW232436   0.638   1.488   1.332  2.0826  0.4668  0.6890
 6935SOL     OW32437   3.123   0.159   3.223 -0.5920  0.0984 -0.8528
 6935SOL    HW132438   3.088   0.152   3.134 -0.7735  0.2264 -0.7903
 6935SOL    HW232439   3.208   0.117   3.212 -1.6471 -1.6130 -2.4874
 6936SOL     OW32440   4.029   4.023   6.383  0.1003  0.1755 -0.2770
 6936SOL    HW132441   3.996   4.048   6.297  0.6051 -0.2905 -0.6094
 6936SOL    HW232442   3.955   3.995   6.438  1.2130  1.4473  1.8706
 6937SOL     OW32443   0.023   2.760   6.943 -0.2671 -0.2480 -0.9422
 6937SOL    HW132444   0.013   2.753   6.848 -2.0124 -2.6959 -0.5746
 6937SOL    HW232445   4.722   2.678   6.977 -1.8986  0.5565 -0.7736
 6938SOL     OW32446   1.120   2.993   3.128 -0.1622 -0.1392  0.4616
 6938SOL    HW132447   1.205   3.021   3.093 -0.3964 -1.4942 -1.1747
 6938SOL    HW232448   1.076   3.064   3.174 -0.0940  1.6391 -2.2642
 6939SOL     OW32449   1.013   0.072   2.890  0.1406 -0.1365 -0.0351
 6939SOL    HW132450   0.966   0.134   2.945  0.2048  1.8871 -2.2353
 6939SOL    HW232451   1.086   0.051   2.947  1.2729 -0.8509 -1.7520
 6940SOL     OW32452   4.121   0.925  14.678  0.5813 -0.0371 -0.1402
 6940SOL    HW132453   4.079   0.891  14.758 -0.9956 -2.2762 -1.9029
 6940SOL    HW232454   4.080   0.871  14.610  4.0593 -2.0293 -0.6285
 6941SOL     OW32455   4.143   3.570   5.866  0.2174 -0.1128 -0.0537
 6941SOL    HW132456   4.144   3.627   5.943 -1.9892 -0.0239 -0.0995
 6941SOL    HW232457   4.171   3.632   5.798  1.1392  0.2797  0.6769
 6942SOL     OW32458   2.930   4.238   6.437 -0.1176  0.5974 -0.1249
 6942SOL    HW132459   2.993   4.300   6.399 -0.9919  0.9983 -0.9163
 6942SOL    HW232460   2.987   4.198   6.502 -0.6405 -1.6269 -1.0431
 6943SOL     OW32461   2.752   0.740   5.135  0.0348 -0.9566 -0.2069
 6943SOL    HW132462   2.670   0.722   5.090 -0.2579 -1.2462  0.4606
 6943SOL    HW232463   2.728   0.827   5.166 -0.0098 -1.2947  0.6986
 6944SOL     OW32464   1.684   0.456   3.378  0.8686  0.1798 -0.0168
 6944SOL    HW132465   1.698   0.523   3.445  0.6231  0.8770 -0.6658
 6944SOL    HW232466   1.742   0.478   3.305  0.7944 -3.0732 -1.0230
 6945SOL     OW32467   1.531   4.019   6.563 -0.1662  0.7091 -0.2229
 6945SOL    HW132468   1.453   3.995   6.513 -0.0035  0.7156 -0.4768
 6945SOL    HW232469   1.554   4.105   6.527 -3.5403  1.2351 -1.1031
 6946SOL     OW32470   3.389   1.808   0.357 -0.4815 -0.0715 -0.0887
 6946SOL    HW132471   3.296   1.823   0.339 -0.0929  1.8619 -0.3888
 6946SOL    HW232472   3.427   1.893   0.334 -1.7579  0.3200 -0.7407
 6947SOL     OW32473   2.940   0.691   3.881  0.3497  0.1374 -0.3513
 6947SOL    HW132474   2.849   0.671   3.905  0.4000 -1.0652 -1.1313
 6947SOL    HW232475   2.922   0.658   3.793 -2.1854 -0.5556  0.3923
 6948SOL     OW32476   1.346   3.930   6.221 -0.1824  0.2313 -0.6911
 6948SOL    HW132477   1.410   4.000   6.233 -1.9612  1.8869 -0.8477
 6948SOL    HW232478   1.309   3.923   6.309  0.8621 -1.0242 -0.3487
 6949SOL     OW32479   2.249   2.901   6.204 -0.0753  0.2140  0.1524
 6949SOL    HW132480   2.184   2.969   6.218  0.1437  0.3009  0.7702
 6949SOL    HW232481   2.277   2.882   6.294 -0.9120 -0.5982  0.2442
 6950SOL     OW32482   2.349   4.638   9.739 -0.6354  0.0509  0.2523
 6950SOL    HW132483   2.269   4.690   9.730 -0.7843 -0.6418 -2.5744
 6950SOL    HW232484   2.369   4.653   9.831  2.4484 -1.6503 -0.1245
 6951SOL     OW32485   3.839   2.461   5.617 -0.0012  0.2723 -0.4918
 6951SOL    HW132486   3.813   2.551   5.601 -1.4170  0.1176  0.9840
 6951SOL    HW232487   3.934   2.463   5.626  0.1446  0.6540 -2.0630
 6952SOL     OW32488   2.560   3.273   4.553 -0.3755  0.0485 -0.2882
 6952SOL    HW132489   2.561   3.257   4.459  1.6794 -0.8513 -0.0977
 6952SOL    HW232490   2.647   3.312   4.561 -0.3844  0.0962 -0.4366
 6953SOL     OW32491   1.713   1.243   1.675  0.0899 -0.2527 -0.0473
 6953SOL    HW132492   1.688   1.178   1.609 -0.2000  0.1917 -0.3755
 6953SOL    HW232493   1.772   1.296   1.621  0.5794 -0.7985 -0.0568
 6954SOL     OW32494   1.664   1.686   6.590 -0.1960 -0.1403 -0.0480
 6954SOL    HW132495   1.632   1.769   6.556  0.3641 -0.0658 -0.3886
 6954SOL    HW232496   1.665   1.624   6.518 -0.3106  0.3047 -0.4301
 6955SOL     OW32497   4.335   1.798  10.878  0.1321 -0.4651 -0.4239
 6955SOL    HW132498   4.279   1.797  10.956 -0.3523 -2.4315 -0.8118
 6955SOL    HW232499   4.298   1.876  10.835 -0.1763 -0.5988 -0.3998
 6956SOL     OW32500   0.039   3.533  14.798  0.3255  0.0305 -0.5556
 6956SOL    HW132501   0.111   3.583  14.760  0.5222  1.2031  1.3581
 6956SOL    HW232502   4.731   3.513  14.715 -0.1527  1.0636 -0.5459
 6957SOL     OW32503   0.437   3.906   2.507 -0.4537 -0.0928  0.0901
 6957SOL    HW132504   0.365   3.878   2.562 -0.2511  1.1968  1.0269
 6957SOL    HW232505   0.399   3.871   2.427  0.0603 -3.5517  1.3824
 6958SOL     OW32506   3.166   0.026   7.595  0.1987 -0.0338 -0.3111
 6958SOL    HW132507   3.108   0.084   7.544  0.4221 -1.3863 -2.1026
 6958SOL    HW232508   3.146   0.055   7.684 -2.8639 -1.4748 -0.5045
 6959SOL     OW32509   2.084   1.602   4.001  0.1656  0.3269 -0.2221
 6959SOL    HW132510   2.083   1.615   3.907 -2.7755 -0.5864 -0.3079
 6959SOL    HW232511   2.083   1.691   4.037 -1.8889 -0.3788  1.4599
 6960SOL     OW32512   0.873   3.440   5.249  0.3118  0.0463  0.1713
 6960SOL    HW132513   0.838   3.406   5.166 -0.1659 -1.1090  0.8479
 6960SOL    HW232514   0.938   3.501   5.215  1.9579 -0.5359  2.2883
 6961SOL     OW32515   4.660   2.105  11.092  0.3742  0.4539 -0.2614
 6961SOL    HW132516   0.006   2.059  11.107 -0.2165 -0.6792 -0.4993
 6961SOL    HW232517   4.609   2.038  11.046  0.4431  0.2728 -0.0724
 6962SOL     OW32518   2.918   1.023   5.244 -0.1049 -0.3210  0.6013
 6962SOL    HW132519   2.874   0.996   5.325  0.4634 -3.0230  0.0200
 6962SOL    HW232520   2.841   1.069   5.209  0.4439 -0.5487 -0.9017
 6963SOL     OW32521   0.161   4.350  13.151 -0.3666 -0.2492 -0.8901
 6963SOL    HW132522   0.097   4.295  13.107 -2.1361  0.6202  0.5646
 6963SOL    HW232523   0.128   4.434  13.119 -1.2333 -0.1678  0.2015
 6964SOL     OW32524   1.846   2.601  10.808 -0.2361  0.4283 -0.5177
 6964SOL    HW132525   1.837   2.674  10.870 -0.8084  0.4127 -0.5803
 6964SOL    HW232526   1.770   2.543  10.816 -0.5034  0.8114 -0.3017
 6965SOL     OW32527   3.853   3.215  16.425 -0.3139  0.8561  0.7072
 6965SOL    HW132528   3.768   3.171  16.431  1.3088 -2.3131  0.0771
 6965SOL    HW232529   3.873   3.202  16.332 -0.2247  0.8854  0.7223
 6966SOL     OW32530   0.748   2.317   6.602  0.0091 -0.8451 -0.0582
 6966SOL    HW132531   0.708   2.381   6.661  2.0994  1.9726 -1.7082
 6966SOL    HW232532   0.821   2.276   6.649  0.5096  0.7696  0.5965
 6967SOL     OW32533   2.208   0.312  14.705 -0.0583  0.4267  0.4659
 6967SOL    HW132534   2.280   0.374  14.715  0.6531 -0.7251  2.6235
 6967SOL    HW232535   2.132   0.370  14.715  0.4075  1.1506 -0.1690
 6968SOL     OW32536   0.559   1.377   7.143  0.1000  0.4724  0.2020
 6968SOL    HW132537   0.581   1.458   7.097 -3.5894  0.0345 -2.3194
 6968SOL    HW232538   0.467   1.367   7.120  1.1807 -1.2328 -3.4593
 6969SOL     OW32539   1.491   3.000  17.054 -0.0768  0.1283  0.2031
 6969SOL    HW132540   1.509   3.048  16.973  3.2901  1.2421  1.6101
 6969SOL    HW232541   1.411   3.039  17.090  0.3978 -1.1989  2.6743
 6970SOL     OW32542   1.760   4.481  17.447  0.1731  0.8548 -0.1155
 6970SOL    HW132543   1.700   4.505  17.377 -2.7727  1.2637  2.5632
 6970SOL    HW232544   1.746   4.388  17.463  2.4823  0.3543 -1.0256
 6971SOL     OW32545   3.817   2.327   6.506 -0.1679 -0.0743  0.0862
 6971SOL    HW132546   3.747   2.269   6.476 -0.4779  0.2599  0.1610
 6971SOL    HW232547   3.797   2.317   6.599  0.8405 -3.7406 -0.0856
 6972SOL     OW32548   4.038   4.391   5.661  0.2813  0.2218  0.3244
 6972SOL    HW132549   4.020   4.334   5.586 -1.2574 -2.3151  2.6338
 6972SOL    HW232550   4.056   4.326   5.729 -1.0011 -1.9292 -1.3642
 6973SOL     OW32551   0.400   4.708   4.823 -0.8165  0.0923  0.0898
 6973SOL    HW132552   0.432   0.054   4.784 -0.9155  1.6809  3.2916
 6973SOL    HW232553   0.423   4.645   4.755 -1.7365  0.3189 -0.4409
 6974SOL     OW32554   2.263   1.929  15.838  0.5270 -0.1806  0.2180
 6974SOL    HW132555   2.192   1.986  15.807 -0.4009 -0.1371  2.4282
 6974SOL    HW232556   2.319   1.901  15.765  0.9897 -1.4997  1.0841
 6975SOL     OW32557   3.780   0.951   0.690  0.1171 -0.0469 -0.1277
 6975SOL    HW132558   3.700   0.996   0.719  1.4975  2.4621 -0.1775
 6975SOL    HW232559   3.827   1.028   0.656  0.7922 -0.5307 -0.2822
 6976SOL     OW32560   2.404   0.822   8.834 -0.3841  0.1603  0.0037
 6976SOL    HW132561   2.383   0.796   8.924 -0.4000 -1.8432 -0.5943
 6976SOL    HW232562   2.315   0.832   8.799 -0.3609  1.8339  0.4360
 6977SOL     OW32563   0.985   4.254   1.641 -0.5801  0.2510 -0.5338
 6977SOL    HW132564   0.988   4.323   1.707  0.8820 -1.1522  0.8585
 6977SOL    HW232565   1.045   4.193   1.684 -0.6666  0.2744 -0.3811
 6978SOL     OW32566   2.106   3.263   4.451  0.0789 -0.4718  0.3129
 6978SOL    HW132567   2.115   3.299   4.539 -1.3351  0.9759 -0.1428
 6978SOL    HW232568   2.105   3.343   4.398 -3.5396 -1.1298 -0.5959
 6979SOL     OW32569   4.726   3.512  16.459  0.2316  0.2545 -0.1745
 6979SOL    HW132570   4.657   3.563  16.416  1.4631  0.8686 -1.3974
 6979SOL    HW232571   4.678   3.429  16.456  1.9929 -0.7682 -0.4066
 6980SOL     OW32572   2.773   2.701   7.518 -0.2009  0.3505  0.5647
 6980SOL    HW132573   2.732   2.716   7.604  1.4943 -0.4869  1.5182
 6980SOL    HW232574   2.772   2.791   7.485 -2.0469  0.0223 -0.2984
 6981SOL     OW32575   1.224   1.160  15.207 -0.3633  0.1156 -0.6249
 6981SOL    HW132576   1.304   1.111  15.188 -1.1180 -1.1845 -0.4677
 6981SOL    HW232577   1.261   1.248  15.207  0.8055 -0.3790  1.0498
 6982SOL     OW32578   1.038   0.480   4.929  0.1088 -0.5381 -0.6479
 6982SOL    HW132579   1.070   0.513   4.845 -3.3052 -2.2619 -2.6402
 6982SOL    HW232580   1.121   0.469   4.975  0.5061  1.1812 -0.9360
 6983SOL     OW32581   2.872   3.575   7.875 -0.3031  0.4036 -0.1545
 6983SOL    HW132582   2.891   3.606   7.964  1.9330  0.3803 -0.6282
 6983SOL    HW232583   2.889   3.652   7.820 -1.6562 -0.8897 -2.3662
 6984SOL     OW32584   0.434   3.087   8.806  0.0310 -0.8661  0.0792
 6984SOL    HW132585   0.401   3.176   8.796 -1.4476 -1.3661  0.4838
 6984SOL    HW232586   0.444   3.048   8.719 -1.4636 -0.5061 -0.2493
 6985SOL     OW32587   3.910   3.461   5.938 -0.4309  0.4888  0.4798
 6985SOL    HW132588   3.994   3.503   5.923  0.0254 -0.6287 -0.0768
 6985SOL    HW232589   3.889   3.429   5.850 -2.0036  1.1575  0.6106
 6986SOL     OW32590   1.474   3.031   3.840  0.0020  0.2076  0.0387
 6986SOL    HW132591   1.489   3.038   3.935 -2.2484  1.4408  0.3121
 6986SOL    HW232592   1.539   2.969   3.806  1.1483  1.8259 -0.7220
 6987SOL     OW32593   3.488   0.471   8.703 -0.3182  0.2427  0.0265
 6987SOL    HW132594   3.514   0.558   8.732 -1.0029 -0.1311  1.7344
 6987SOL    HW232595   3.537   0.410   8.759  1.1118  0.4096 -1.0445
 6988SOL     OW32596   0.631   1.091   2.937  0.0402 -0.0548  0.7435
 6988SOL    HW132597   0.641   1.038   2.858  1.5084  2.1278 -0.5248
 6988SOL    HW232598   0.538   1.082   2.955  0.1505  0.1210  1.4338
 6989SOL     OW32599   0.410   4.273   6.467 -0.3105  0.2851 -0.5106
 6989SOL    HW132600   0.368   4.225   6.539 -0.5134 -0.4705 -1.1278
 6989SOL    HW232601   0.340   4.295   6.405 -1.8656  1.2206  1.5380
 6990SOL     OW32602   2.739   0.004   3.308  0.1411  0.1515 -0.0155
 6990SOL    HW132603   2.789   4.661   3.288  0.5770  0.1177  1.2403
 6990SOL    HW232604   2.768   0.060   3.236  0.5303  0.2245  0.1966
 6991SOL     OW32605   2.907   3.617   4.313  0.0064  0.4678 -0.2766
 6991SOL    HW132606   2.830   3.611   4.256 -1.4349 -4.0941  2.1881
 6991SOL    HW232607   2.921   3.712   4.304 -3.7685  0.9978 -0.5932
 6992SOL     OW32608   1.926   0.393   7.342  0.0305 -0.0997  0.1186
 6992SOL    HW132609   1.915   0.311   7.293  0.0989  0.5686 -1.0172
 6992SOL    HW232610   2.016   0.424   7.338  0.1190 -0.3862 -0.0944
 6993SOL     OW32611   0.204   2.639   7.808 -0.2342 -0.3779  0.2129
 6993SOL    HW132612   0.205   2.567   7.871 -0.8756 -0.7216 -0.1796
 6993SOL    HW232613   0.251   2.706   7.858 -0.0203  1.2254 -2.1490
 6994SOL     OW32614   0.947   3.683   1.233  0.3180  0.5286  0.3843
 6994SOL    HW132615   0.964   3.687   1.138  1.4438  0.1865  0.5727
 6994SOL    HW232616   0.915   3.772   1.247 -0.2315  0.0246  2.3544
 6995SOL     OW32617   4.466   1.984   6.537  0.3215  0.5198  0.3032
 6995SOL    HW132618   4.475   1.955   6.628  1.8923  1.9090  0.6010
 6995SOL    HW232619   4.544   1.948   6.494 -0.7933 -1.2715 -0.2081
 6996SOL     OW32620   3.558   0.364   1.141  0.7218  0.7429  0.6761
 6996SOL    HW132621   3.472   0.362   1.100  1.4028  1.4244 -0.7987
 6996SOL    HW232622   3.568   0.276   1.176  0.0784  1.0431  1.6240
 6997SOL     OW32623   3.612   2.302  16.313 -0.2000  0.1566 -0.4272
 6997SOL    HW132624   3.617   2.391  16.349  0.0104  0.5708 -1.4940
 6997SOL    HW232625   3.556   2.253  16.373 -0.1772  2.5730  1.5811
 6998SOL     OW32626   0.219   0.150   5.943 -0.8086  0.6758 -0.4960
 6998SOL    HW132627   0.150   0.085   5.925  0.2386 -0.5965  0.1166
 6998SOL    HW232628   0.200   0.176   6.032  1.7884  0.1689  0.2130
 6999SOL     OW32629   3.346   3.367   3.757 -0.0376 -0.4555 -0.3803
 6999SOL    HW132630   3.422   3.362   3.815  0.5956  3.1828 -0.8747
 6999SOL    HW232631   3.383   3.430   3.695  0.8429  0.5821  1.1927
 7000SOL     OW32632   4.324   2.258   6.845  0.1988 -0.5018 -0.1705
 7000SOL    HW132633   4.322   2.351   6.866  1.0499 -0.5696  0.2455
 7000SOL    HW232634   4.384   2.266   6.771 -1.7773 -0.2181 -1.7412
 7001SOL     OW32635   3.750   4.147   3.355 -0.6118  0.2431 -0.4288
 7001SOL    HW132636   3.705   4.207   3.414  1.2219  1.2580 -0.0637
 7001SOL    HW232637   3.784   4.075   3.408 -2.7237 -0.9972 -0.7601
 7002SOL     OW32638   3.688   3.765  11.634  0.2127 -0.2972 -0.1620
 7002SOL    HW132639   3.703   3.764  11.540 -0.1645  1.7068 -0.2402
 7002SOL    HW232640   3.619   3.699  11.636 -1.2512  1.2853  1.2621
 7003SOL     OW32641   0.240   2.445  12.783 -0.1885  0.0733 -0.0296
 7003SOL    HW132642   0.260   2.515  12.845 -0.5065  0.3624 -0.2561
 7003SOL    HW232643   0.318   2.389  12.779 -0.1003  0.2681 -1.2623
 7004SOL     OW32644   0.657   1.063   7.443 -0.1169 -0.0371  0.3695
 7004SOL    HW132645   0.564   1.085   7.439 -0.1950 -0.0872  2.0083
 7004SOL    HW232646   0.682   1.107   7.525  0.8003  0.1770 -0.0292
 7005SOL     OW32647   3.583   3.865   2.699 -0.1864  0.0764 -0.3572
 7005SOL    HW132648   3.617   3.955   2.697 -0.1659  0.0520 -1.0106
 7005SOL    HW232649   3.666   3.819   2.696 -0.7281 -0.9660  0.4950
 7006SOL     OW32650   0.839   1.043   4.296 -0.0247 -0.2617  0.2919
 7006SOL    HW132651   0.834   1.077   4.207 -2.5831 -0.2604  0.4380
 7006SOL    HW232652   0.816   1.120   4.348 -2.1159 -2.0462  2.0298
 7007SOL     OW32653   4.045   1.885  11.577 -0.1118  0.2928  0.5902
 7007SOL    HW132654   3.962   1.862  11.619 -1.5520  0.9328 -1.9078
 7007SOL    HW232655   4.106   1.822  11.615  1.4343  0.3306 -1.8163
 7008SOL     OW32656   1.319   3.883   7.201  0.2536 -0.3611  0.2189
 7008SOL    HW132657   1.299   3.928   7.283  1.0593  1.5790 -0.6520
 7008SOL    HW232658   1.233   3.872   7.162 -0.7956  0.5605  2.3115
 7009SOL     OW32659   2.090   2.401   7.328 -0.1563  0.4685  0.2143
 7009SOL    HW132660   2.011   2.347   7.332  1.4992 -1.8653  1.6136
 7009SOL    HW232661   2.087   2.430   7.420  0.5799  0.5587  0.2137
 7010SOL     OW32662   3.703   3.344   8.258 -0.0270  0.1137 -0.4169
 7010SOL    HW132663   3.784   3.393   8.241 -1.4361  2.4183 -0.4788
 7010SOL    HW232664   3.718   3.299   8.342  1.3269  1.0238 -0.1680
 7011SOL     OW32665   1.573   4.387  10.519  0.0183 -0.4774 -0.0450
 7011SOL    HW132666   1.599   4.447  10.449  2.8772  1.0742  2.3237
 7011SOL    HW232667   1.544   4.446  10.589 -0.7759 -2.2327  1.1095
 7012SOL     OW32668   3.247   4.431   5.516  0.1445 -0.4889 -0.8597
 7012SOL    HW132669   3.199   4.495   5.569 -0.6126  0.1455 -2.3000
 7012SOL    HW232670   3.183   4.360   5.514 -0.2990 -0.1156 -0.0270
 7013SOL     OW32671   0.721   2.223   6.030  0.6044  0.0365  1.0736
 7013SOL    HW132672   0.656   2.274   6.078 -1.6210 -1.5013 -0.3238
 7013SOL    HW232673   0.793   2.285   6.041  1.8003 -0.8031 -1.9114
 7014SOL     OW32674   0.829   3.400  16.170 -0.3333  0.0724  0.3056
 7014SOL    HW132675   0.846   3.365  16.083  1.5272  0.8565  0.3491
 7014SOL    HW232676   0.735   3.417  16.164 -0.6536 -1.7735  0.0426
 7015SOL     OW32677   1.631   3.805   7.500 -0.0923 -0.1085  0.5858
 7015SOL    HW132678   1.717   3.764   7.515  0.7725  2.1649  2.0242
 7015SOL    HW232679   1.629   3.842   7.589  0.9121  0.8772  0.2131
 7016SOL     OW32680   0.925   3.244   3.564  0.0329  0.5176 -0.0909
 7016SOL    HW132681   0.959   3.320   3.611  0.2635 -0.7082  1.7378
 7016SOL    HW232682   0.839   3.273   3.533  0.6564  0.8876 -1.4798
 7017SOL     OW32683   4.112   0.364   6.186 -0.1555  0.5989 -0.5831
 7017SOL    HW132684   4.129   0.343   6.278 -0.4122 -1.7455 -1.0663
 7017SOL    HW232685   4.071   0.280   6.166  1.5329 -0.4574  0.3346
 7018SOL     OW32686   2.953   2.735   9.470  0.0571 -0.2701 -0.2878
 7018SOL    HW132687   3.022   2.798   9.447 -0.9908  0.5485 -1.2188
 7018SOL    HW232688   2.997   2.715   9.552 -1.1152 -0.3151  0.3195
 7019SOL     OW32689   3.861   3.338  11.770 -0.2469  0.0575  0.4219
 7019SOL    HW132690   3.808   3.372  11.842  1.0825  1.4197  0.7606
 7019SOL    HW232691   3.855   3.244  11.787 -1.6532 -0.0379 -0.5760
 7020SOL     OW32692   2.245   1.030   9.950  0.4403 -0.1775  0.5050
 7020SOL    HW132693   2.206   1.098   9.895  0.3331 -0.9342 -0.3533
 7020SOL    HW232694   2.178   0.962   9.935 -0.3657  0.5838  0.6678
 7021SOL     OW32695   4.137   1.949   5.765  0.4531 -0.2194 -0.0055
 7021SOL    HW132696   4.134   2.002   5.685  1.2740 -0.4563 -0.1920
 7021SOL    HW232697   4.080   2.005   5.819  0.7975  0.4460 -0.3269
 7022SOL     OW32698   0.014   1.233  14.320  0.0042 -0.0805  0.3451
 7022SOL    HW132699   0.035   1.260  14.409  1.9974 -2.4242  0.5775
 7022SOL    HW232700   4.677   1.172  14.330 -0.5899  0.7145  0.8830
 7023SOL     OW32701   2.881   1.380   1.521  0.2361  0.1855  0.0504
 7023SOL    HW132702   2.788   1.384   1.542  0.1110  0.5565 -0.5705
 7023SOL    HW232703   2.870   1.382   1.426  0.2526 -0.1484  0.0391
 7024SOL     OW32704   3.293   4.386   6.004 -0.2685 -0.2570 -0.1206
 7024SOL    HW132705   3.330   4.300   6.024 -0.6030 -1.3088 -4.0675
 7024SOL    HW232706   3.357   4.438   5.954 -1.3518  0.1423 -1.0723
 7025SOL     OW32707   0.131   1.267  16.997  0.1806  0.1270  0.5122
 7025SOL    HW132708   0.112   1.358  16.975  2.2023  0.6799  1.0180
 7025SOL    HW232709   0.217   1.279  17.036  0.5205  1.5417 -0.6540
 7026SOL     OW32710   4.713   2.434   5.999 -0.1593 -0.4088 -0.2187
 7026SOL    HW132711   0.033   2.510   5.982 -1.6900  0.7969  0.1763
 7026SOL    HW232712   0.022   2.371   5.943  0.6739  0.1221 -0.1538
 7027SOL     OW32713   3.448   3.819  12.494 -0.0457  0.9091  0.3253
 7027SOL    HW132714   3.435   3.812  12.399 -0.3525  0.0457  0.4352
 7027SOL    HW232715   3.419   3.732  12.518  1.7663 -0.4209 -2.2722
 7028SOL     OW32716   1.877   4.550   5.474  0.5606 -0.4745 -0.8201
 7028SOL    HW132717   1.954   4.505   5.511  0.9031 -0.9560 -2.1107
 7028SOL    HW232718   1.919   4.629   5.441 -1.7724  1.8567  1.7508
 7029SOL     OW32719   2.109   1.325  15.050  0.5150 -0.1630 -0.8499
 7029SOL    HW132720   2.145   1.410  15.074 -1.8619 -0.2365  2.9204
 7029SOL    HW232721   2.187   1.270  15.055  0.7686  0.0553 -2.5360
 7030SOL     OW32722   4.730   3.078   2.756 -0.0694 -0.4441 -0.2025
 7030SOL    HW132723   4.671   3.116   2.691  1.2108  1.4200 -0.2987
 7030SOL    HW232724   4.700   2.989   2.773 -1.2679 -0.1645 -0.8143
 7031SOL     OW32725   1.904   1.426   6.766  0.1989 -0.5346  0.7275
 7031SOL    HW132726   1.961   1.483   6.715 -2.1641  1.9664  0.8629
 7031SOL    HW232727   1.854   1.485   6.824  0.8459  0.5668  0.1568
 7032SOL     OW32728   4.171   2.327   8.017 -0.0983 -0.2503 -0.1602
 7032SOL    HW132729   4.185   2.422   8.010 -1.9253 -0.0296 -0.8436
 7032SOL    HW232730   4.079   2.328   8.041  0.3118 -1.9890  1.4417
 7033SOL     OW32731   0.880   3.545  10.683  0.2115 -0.2580  0.0479
 7033SOL    HW132732   0.952   3.496  10.725 -0.2543 -0.6531  0.3946
 7033SOL    HW232733   0.796   3.528  10.727 -0.5156 -0.1652 -1.3258
 7034SOL     OW32734   2.267   2.434   5.187  0.1372 -0.0504  0.3248
 7034SOL    HW132735   2.336   2.488   5.149  1.2026 -1.7207 -0.1124
 7034SOL    HW232736   2.214   2.505   5.222 -0.2395 -0.0643 -0.2121
 7035SOL     OW32737   1.927   0.040   0.878 -0.0017 -0.2452 -0.0998
 7035SOL    HW132738   1.879   4.722   0.941  1.4712 -0.4858  0.8235
 7035SOL    HW232739   1.980   0.100   0.931  0.2627 -1.1270  0.6387
 7036SOL     OW32740   1.925   3.996   7.301 -0.2615 -0.0725  0.3235
 7036SOL    HW132741   2.003   3.942   7.293  0.9308  2.0303 -2.1628
 7036SOL    HW232742   1.941   4.019   7.393  0.8369 -1.8642  0.5720
 7037SOL     OW32743   4.620   3.829   5.350 -0.0844  0.3328 -0.1741
 7037SOL    HW132744   4.616   3.761   5.418  0.9858 -2.1520 -2.6251
 7037SOL    HW232745   4.710   3.824   5.320 -0.2659  1.9202 -0.9675
 7038SOL     OW32746   3.300   0.965   0.198  0.7180  0.0112  0.3705
 7038SOL    HW132747   3.367   1.029   0.223  0.4458  0.0950  0.8842
 7038SOL    HW232748   3.222   0.995   0.245  0.3056 -0.6545  0.1189
 7039SOL     OW32749   0.039   1.601   3.542  0.0444  0.2596 -0.1311
 7039SOL    HW132750   0.103   1.670   3.522 -0.2714  0.4243 -0.5853
 7039SOL    HW232751   4.709   1.647   3.594  1.8372  0.7701  1.7091
 7040SOL     OW32752   0.421   2.533   8.338 -0.3641 -0.3659 -0.2852
 7040SOL    HW132753   0.360   2.603   8.359 -1.6752 -2.2263  2.0318
 7040SOL    HW232754   0.414   2.469   8.409 -2.1653  1.7486  1.4096
 7041SOL     OW32755   0.460   1.270   5.431 -0.2084 -0.6491  0.2765
 7041SOL    HW132756   0.431   1.360   5.444 -2.6499 -1.2267 -1.2813
 7041SOL    HW232757   0.467   1.240   5.522  0.5948 -2.4129 -0.3636
 7042SOL     OW32758   2.372   2.822  16.907  0.1676 -0.1094 -0.7906
 7042SOL    HW132759   2.330   2.883  16.846 -1.4092  1.7959  2.1917
 7042SOL    HW232760   2.441   2.883  16.933  1.0121 -1.0507 -0.8634
 7043SOL     OW32761   0.829   0.313   3.680  0.0713 -0.2025  0.5680
 7043SOL    HW132762   0.845   0.405   3.657  1.8679 -1.1108 -1.7956
 7043SOL    HW232763   0.822   0.317   3.775  0.0857  1.7500  0.4933
 7044SOL     OW32764   1.669   3.774   6.269 -0.0737 -0.1729  0.5285
 7044SOL    HW132765   1.615   3.794   6.193  0.5038  1.4468  0.5465
 7044SOL    HW232766   1.726   3.708   6.228  2.2624  0.9600  1.9759
 7045SOL     OW32767   1.048   1.506  17.265 -0.1015  0.3655  0.1335
 7045SOL    HW132768   1.117   1.496  17.330  2.1016 -2.4237 -2.5898
 7045SOL    HW232769   1.095   1.568  17.208 -0.6156 -0.4879 -1.2277
 7046SOL     OW32770   4.533   3.013   4.754 -0.2596 -0.2875  0.3526
 7046SOL    HW132771   4.488   3.028   4.671  0.9872  4.5143  0.5410
 7046SOL    HW232772   4.462   3.013   4.819 -0.6129  0.1383 -0.0325
 7047SOL     OW32773   2.338   2.559  14.710  0.2884  0.8518 -0.1260
 7047SOL    HW132774   2.311   2.632  14.654  0.7618  0.3359 -1.0341
 7047SOL    HW232775   2.261   2.502  14.712 -1.3299  2.9967 -0.8385
 7048SOL     OW32776   4.620   0.949   2.304 -0.3953 -0.1072  0.0749
 7048SOL    HW132777   4.558   0.999   2.357  1.1754  0.2861  1.5258
 7048SOL    HW232778   4.662   1.021   2.257  0.3980 -1.5652 -1.4309
 7049SOL     OW32779   3.362   0.064   5.541  0.0486 -0.1320 -0.3100
 7049SOL    HW132780   3.270   0.089   5.533 -0.0385 -0.5817 -0.7330
 7049SOL    HW232781   3.393   0.056   5.451  0.4206  0.9191 -0.2719
 7050SOL     OW32782   1.738   3.956   4.542 -0.2673 -0.3999 -0.3741
 7050SOL    HW132783   1.664   3.997   4.586 -0.3450 -0.2376 -0.6548
 7050SOL    HW232784   1.813   3.998   4.585  0.6006 -1.1862 -1.1075
 7051SOL     OW32785   2.980   2.902  14.086  0.2878 -0.1182  1.0137
 7051SOL    HW132786   2.910   2.845  14.116  0.8493 -0.2564  2.0604
 7051SOL    HW232787   3.050   2.842  14.059  0.5741  0.6829 -0.0490
 7052SOL     OW32788   4.028   4.598   4.225 -0.4130  0.4146  0.0972
 7052SOL    HW132789   3.964   4.531   4.200  0.3185 -0.0351 -0.5897
 7052SOL    HW232790   4.112   4.552   4.220  0.5257  1.8769  2.5436
 7053SOL     OW32791   1.632   3.700   4.286 -0.1687  0.0301 -0.4168
 7053SOL    HW132792   1.599   3.788   4.271  0.0420  0.1494 -0.1771
 7053SOL    HW232793   1.568   3.651   4.234  0.2924  0.1624 -1.1125
 7054SOL     OW32794   0.781   1.406   3.508  0.2110 -0.4857 -0.0827
 7054SOL    HW132795   0.727   1.480   3.536 -0.0215  0.0300 -1.9353
 7054SOL    HW232796   0.744   1.345   3.572 -1.1314 -0.0522 -0.4694
 7055SOL     OW32797   0.489   3.812  13.680 -0.7501  0.2677  0.3699
 7055SOL    HW132798   0.516   3.900  13.707  0.9149 -0.2370  0.3148
 7055SOL    HW232799   0.407   3.834  13.635 -0.6252 -2.5955 -1.2218
 7056SOL     OW32800   1.816   1.459  14.965  0.0929  0.1394  0.1277
 7056SOL    HW132801   1.827   1.495  15.053 -0.0126 -0.8674  0.5567
 7056SOL    HW232802   1.745   1.512  14.929 -0.1130 -0.2807 -0.0935
 7057SOL     OW32803   3.317   1.999   9.006 -0.5618  0.0878  0.3338
 7057SOL    HW132804   3.364   1.919   9.027  1.3856  1.3455  0.7503
 7057SOL    HW232805   3.386   2.063   8.990 -1.1261  1.0279  1.6786
 7058SOL     OW32806   2.525   0.835   6.924  0.1218  0.0764  0.0603
 7058SOL    HW132807   2.596   0.771   6.933  0.1361  0.2720  1.3284
 7058SOL    HW232808   2.550   0.882   6.844  2.8631  0.7489  1.3266
 7059SOL     OW32809   2.086   3.129  10.199  0.1307  0.0588 -0.1249
 7059SOL    HW132810   2.151   3.182  10.152 -1.4340  1.1784 -1.0454
 7059SOL    HW232811   2.074   3.072  10.123  0.3930 -1.5344  1.0390
 7060SOL     OW32812   1.198   1.791   6.245 -0.3090  0.4990 -0.3615
 7060SOL    HW132813   1.276   1.740   6.271  0.0774  0.8026 -0.9109
 7060SOL    HW232814   1.140   1.718   6.225  0.7524 -0.1028 -1.3056
 7061SOL     OW32815   3.507   3.410   3.324  0.5694  0.0049 -0.0519
 7061SOL    HW132816   3.465   3.463   3.257  0.2347 -0.0251  0.1353
 7061SOL    HW232817   3.498   3.319   3.295 -0.9185  0.7573 -1.9198
 7062SOL     OW32818   3.584   0.818   8.365  0.4755  0.2536  0.2229
 7062SOL    HW132819   3.534   0.859   8.436 -1.4373  1.2762 -1.7054
 7062SOL    HW232820   3.626   0.754   8.422  0.5831 -1.3439 -1.6495
 7063SOL     OW32821   2.546   3.145   4.097  0.2573 -0.2337 -0.5416
 7063SOL    HW132822   2.488   3.071   4.112 -0.1262  0.0998 -0.3637
 7063SOL    HW232823   2.477   3.195   4.053  0.0366 -1.3929 -1.4812
 7064SOL     OW32824   2.182   3.973   8.832 -0.3065 -0.0186 -0.2686
 7064SOL    HW132825   2.185   4.009   8.744 -1.0795  0.9597  0.1109
 7064SOL    HW232826   2.222   3.891   8.804 -0.6517 -0.0109 -0.7796
 7065SOL     OW32827   2.242   0.239  12.984  0.5818  0.3601 -0.1466
 7065SOL    HW132828   2.257   0.300  13.057 -0.4946  1.2584 -0.6840
 7065SOL    HW232829   2.247   0.289  12.903 -0.1747 -1.5066 -1.3208
 7066SOL     OW32830   3.736   3.421   6.152 -0.0348  0.6181 -0.2335
 7066SOL    HW132831   3.674   3.494   6.149 -0.7990 -0.0614 -0.6443
 7066SOL    HW232832   3.806   3.452   6.094  0.6165 -0.6398 -0.1250
 7067SOL     OW32833   1.480   4.274   7.110 -0.4092 -0.1656  0.2655
 7067SOL    HW132834   1.517   4.275   7.199 -0.9299 -0.1508  0.4856
 7067SOL    HW232835   1.392   4.241   7.129 -0.6486 -0.6748 -1.7496
 7068SOL     OW32836   1.074   0.073  11.732  0.6350 -0.3662 -0.3118
 7068SOL    HW132837   1.008   0.131  11.769 -0.4299 -1.1772 -0.9539
 7068SOL    HW232838   1.151   0.084  11.788  1.2891 -0.9444 -1.0852
 7069SOL     OW32839   4.282   1.422   5.089  0.2442  0.2110 -0.5617
 7069SOL    HW132840   4.352   1.360   5.068  0.0698 -0.4899  0.9688
 7069SOL    HW232841   4.285   1.419   5.184 -0.2837  0.3600 -0.5443
 7070SOL     OW32842   1.370   1.892   1.922  0.0478  0.4088  0.5506
 7070SOL    HW132843   1.386   1.801   1.947 -0.4237  0.1475 -0.1074
 7070SOL    HW232844   1.308   1.920   1.990 -0.9599 -1.4316  0.3934
 7071SOL     OW32845   3.859   0.064   4.063  0.1729  0.2250  0.1017
 7071SOL    HW132846   3.903   0.030   4.141  0.8616  0.5294 -0.1523
 7071SOL    HW232847   3.939   0.098   4.023 -0.0347  3.6053  2.5534
 7072SOL     OW32848   0.089   1.092  10.420  0.3520  0.8515  0.3219
 7072SOL    HW132849   0.047   1.139  10.491  0.4485 -0.3006  1.1415
 7072SOL    HW232850   0.151   1.038  10.469  1.3626  1.5431 -0.1934
 7073SOL     OW32851   4.374   1.870   0.512 -0.1705  0.4990 -0.1732
 7073SOL    HW132852   4.322   1.904   0.586 -0.1276  0.0903  0.0447
 7073SOL    HW232853   4.317   1.890   0.438  2.0984  1.8658 -1.5245
 7074SOL     OW32854   2.031   3.130   9.619  0.2622  0.1122  0.1383
 7074SOL    HW132855   1.937   3.137   9.637  0.5103 -1.3354  2.0150
 7074SOL    HW232856   2.058   3.216   9.652 -0.2125  0.4330 -0.3110
 7075SOL     OW32857   1.362   2.247   6.425 -0.3783  0.4131 -0.1218
 7075SOL    HW132858   1.334   2.333   6.457  0.0535 -0.9587  3.9238
 7075SOL    HW232859   1.283   2.193   6.433  0.7036 -1.1994 -0.3384
 7076SOL     OW32860   1.791   0.538   0.885 -0.5335 -0.4613 -0.1364
 7076SOL    HW132861   1.863   0.492   0.843  0.7799  0.8467  0.6717
 7076SOL    HW232862   1.769   0.466   0.943  0.4162  2.7555  4.2645
 7077SOL     OW32863   0.680   3.431   4.588 -0.2906  0.3051  0.2371
 7077SOL    HW132864   0.734   3.391   4.656  0.5214 -1.1714 -1.2803
 7077SOL    HW232865   0.605   3.372   4.576  0.3874 -0.8475  1.6415
 7078SOL     OW32866   0.385   3.261   5.702 -0.3147  0.4067  0.0258
 7078SOL    HW132867   0.308   3.234   5.652  0.0386  0.5278 -0.5739
 7078SOL    HW232868   0.350   3.309   5.776 -0.7319  0.2449 -0.0695
 7079SOL     OW32869   1.413   2.761   2.589 -0.2423 -0.0795  0.5805
 7079SOL    HW132870   1.362   2.737   2.512  1.7999  1.3702 -1.2105
 7079SOL    HW232871   1.498   2.775   2.549 -0.6928  1.6879  0.2499
 7080SOL     OW32872   2.077   1.151   3.235  0.4561  0.3287  0.3743
 7080SOL    HW132873   2.006   1.116   3.288  0.5313 -2.0544 -1.0883
 7080SOL    HW232874   2.149   1.153   3.297 -1.2947  0.2388  2.4380
 7081SOL     OW32875   1.292   0.447   6.026  0.6987  0.3224  0.3152
 7081SOL    HW132876   1.362   0.470   6.087  0.4140  1.5966  0.1474
 7081SOL    HW232877   1.302   0.505   5.950  4.6611 -0.9715 -0.1939
 7082SOL     OW32878   4.111   3.922   1.830  1.1228 -0.2803  0.0007
 7082SOL    HW132879   4.077   4.011   1.841 -0.3955 -0.8723  0.0790
 7082SOL    HW232880   4.171   3.922   1.904  1.0970 -0.2331  0.0211
 7083SOL     OW32881   0.261   2.066   2.003 -0.4719  0.0939  0.1076
 7083SOL    HW132882   0.281   2.068   2.097  1.0531  0.4760 -0.2206
 7083SOL    HW232883   0.201   2.141   2.002  0.1698  0.6113 -0.0517
 7084SOL     OW32884   0.002   0.164  14.916  0.4167 -0.0682 -0.2597
 7084SOL    HW132885   4.679   0.146  14.990 -1.2059 -0.2673 -1.5835
 7084SOL    HW232886   0.062   0.233  14.945  2.4298 -0.6565 -3.0138
 7085SOL     OW32887   1.356   2.967   8.803  0.2451 -0.2003 -0.3027
 7085SOL    HW132888   1.293   2.896   8.804 -2.3169  2.0677 -1.0780
 7085SOL    HW232889   1.414   2.931   8.735 -1.4791  2.0502 -2.9778
 7086SOL     OW32890   0.566   3.267   7.119 -0.5445  0.0227 -0.2571
 7086SOL    HW132891   0.641   3.230   7.072 -0.0837  1.3014 -0.5230
 7086SOL    HW232892   0.505   3.219   7.063  0.4949  0.1934 -1.5529
 7087SOL     OW32893   3.952   4.057   5.107  0.2079 -0.2270  0.0174
 7087SOL    HW132894   4.030   4.109   5.128 -1.3022  3.0071 -2.3798
 7087SOL    HW232895   3.955   3.988   5.173  3.2046 -0.9497 -0.8689
 7088SOL     OW32896   1.729   4.322   2.032 -0.0028 -0.2448 -0.1192
 7088SOL    HW132897   1.712   4.391   2.096  1.5509 -1.1676  1.2588
 7088SOL    HW232898   1.777   4.362   1.960  0.9130 -0.4056  0.4116
 7089SOL     OW32899   3.085   2.852   7.038 -0.3576  0.1538  0.0744
 7089SOL    HW132900   3.089   2.910   7.114  1.0899  0.8085 -0.5002
 7089SOL    HW232901   3.033   2.778   7.070 -1.5071  0.9100 -0.0373
 7090SOL     OW32902   0.384   3.148  15.944  0.0728 -0.0470 -0.3363
 7090SOL    HW132903   0.296   3.175  15.973  1.4044  0.3637  3.2831
 7090SOL    HW232904   0.426   3.224  15.984 -1.0584  0.6962 -0.5395
 7091SOL     OW32905   0.015   2.165   9.907  0.3251 -0.3969  0.0898
 7091SOL    HW132906   0.064   2.241   9.875 -0.5720 -0.3003 -1.0387
 7091SOL    HW232907   4.685   2.164   9.838  0.4285  0.7816 -0.0243
 7092SOL     OW32908   0.496   0.713   2.576 -0.0472  0.7492  0.6703
 7092SOL    HW132909   0.440   0.743   2.506 -0.7228 -0.6329  0.6210
 7092SOL    HW232910   0.434   0.690   2.645 -0.3437  0.7816  0.4100
 7093SOL     OW32911   0.891   0.108  13.348 -0.0020  0.2877 -0.6265
 7093SOL    HW132912   0.955   0.158  13.399 -0.8705 -0.4779  1.2205
 7093SOL    HW232913   0.926   0.130  13.262  0.9763 -0.5811 -0.4458
 7094SOL     OW32914   3.727   4.658   9.958 -0.3973  0.0835 -0.0099
 7094SOL    HW132915   3.723   4.642  10.052  1.5286 -3.0574 -0.4264
 7094SOL    HW232916   3.805   4.604   9.941  1.0953  1.9674  0.8006
 7095SOL     OW32917   2.204   1.963  15.483 -0.3112 -0.0672  0.2797
 7095SOL    HW132918   2.157   2.014  15.418  1.8690  1.6060  0.0142
 7095SOL    HW232919   2.165   1.993  15.566  0.4600 -2.4787  1.5212
 7096SOL     OW32920   3.361   4.164   8.355  0.6103 -0.2395 -0.2347
 7096SOL    HW132921   3.418   4.211   8.417  0.8384 -0.7170 -0.0864
 7096SOL    HW232922   3.427   4.104   8.320  2.2198  0.2960  1.8240
 7097SOL     OW32923   3.592   2.312   8.683 -0.8241 -0.5015 -0.3599
 7097SOL    HW132924   3.520   2.360   8.644  0.2975  0.9525 -0.6423
 7097SOL    HW232925   3.545   2.283   8.762  0.3334  2.8117  1.5461
 7098SOL     OW32926   0.492   1.572   8.071  0.4570 -0.4921  0.1360
 7098SOL    HW132927   0.481   1.590   8.164  2.5889 -1.2303  0.5215
 7098SOL    HW232928   0.574   1.523   8.072  0.5907 -0.2673 -0.2296
 7099SOL     OW32929   1.943   0.993   4.486  0.0077  0.1073 -0.1496
 7099SOL    HW132930   1.935   0.919   4.426 -1.7882 -1.3687  1.9020
 7099SOL    HW232931   1.969   1.056   4.419  3.5658 -1.3204 -0.0932
 7100SOL     OW32932   0.780   3.404   1.840  0.0314 -0.0993 -0.8315
 7100SOL    HW132933   0.718   3.392   1.767 -1.4776 -0.1425  0.4612
 7100SOL    HW232934   0.723   3.406   1.916  0.9591  2.0922 -0.2086
 7101SOL     OW32935   1.051   3.571  11.996 -0.2256  0.4768 -0.6422
 7101SOL    HW132936   1.013   3.562  12.084  2.2014  1.8585  0.5638
 7101SOL    HW232937   1.108   3.648  12.005 -0.7710  0.7047  0.7735
 7102SOL     OW32938   3.844   3.424  11.521 -0.0286  0.6825  0.1005
 7102SOL    HW132939   3.752   3.414  11.498  0.2804  0.8331 -1.1961
 7102SOL    HW232940   3.842   3.385  11.609  0.1025  0.0766 -0.1670
 7103SOL     OW32941   3.327   1.243   4.443  0.2569  0.7968  0.1026
 7103SOL    HW132942   3.410   1.289   4.428  0.3944  0.2139 -0.8662
 7103SOL    HW232943   3.280   1.318   4.482 -0.8004 -0.7060  1.7264
 7104SOL     OW32944   0.329   1.631   5.790  0.4342  0.7099 -0.3800
 7104SOL    HW132945   0.241   1.636   5.827  0.8590  0.9609  0.5918
 7104SOL    HW232946   0.319   1.701   5.726 -0.1290  1.4601  0.5190
 7105SOL     OW32947   1.759   4.513   1.760  0.2879 -0.0555 -0.1744
 7105SOL    HW132948   1.726   4.437   1.712 -0.6748  0.4480 -0.2964
 7105SOL    HW232949   1.674   4.553   1.777  0.0452  0.3490 -2.4238
 7106SOL     OW32950   3.588   1.235   7.303  0.1285 -0.0244  0.0015
 7106SOL    HW132951   3.550   1.150   7.280  0.3267 -0.0247 -0.3175
 7106SOL    HW232952   3.669   1.240   7.252  0.0185  0.6109 -0.1094
 7107SOL     OW32953   3.394   4.047   8.074  0.2995  0.9448  0.0771
 7107SOL    HW132954   3.344   3.965   8.073 -0.8872  1.6282  3.7531
 7107SOL    HW232955   3.331   4.118   8.088  0.1945  0.7926  0.3830
 7108SOL     OW32956   3.597   3.583   8.060 -0.2175 -0.7164  0.2479
 7108SOL    HW132957   3.621   3.646   8.128  0.6373 -0.4760 -0.2832
 7108SOL    HW232958   3.624   3.631   7.982  0.5566  1.3841  1.8191
 7109SOL     OW32959   2.860   2.238  15.534 -0.0158  0.0721 -0.1788
 7109SOL    HW132960   2.787   2.177  15.520 -2.3411  2.5073  1.4944
 7109SOL    HW232961   2.874   2.277  15.448 -0.4486 -0.3396 -0.4378
 7110SOL     OW32962   4.165   2.346   5.393 -0.4574  0.0352 -0.0135
 7110SOL    HW132963   4.142   2.392   5.474  1.0046 -1.8603  1.4966
 7110SOL    HW232964   4.122   2.396   5.324 -1.1055  0.7518  0.9070
 7111SOL     OW32965   2.594   0.870  13.281  0.4078  0.6845 -0.3191
 7111SOL    HW132966   2.647   0.903  13.209 -0.4761  1.9367 -0.4027
 7111SOL    HW232967   2.533   0.944  13.287 -0.5316 -0.0589 -0.5833
 7112SOL     OW32968   1.151   3.517  10.342  0.0752  0.1533  0.2419
 7112SOL    HW132969   1.159   3.580  10.414 -0.2010 -0.9297  1.2047
 7112SOL    HW232970   1.188   3.441  10.385 -0.4835 -0.3297 -0.1294
 7113SOL     OW32971   1.790   1.432   4.700 -0.1284 -0.2237 -0.2841
 7113SOL    HW132972   1.807   1.430   4.606 -1.2503  0.1782 -0.4937
 7113SOL    HW232973   1.730   1.359   4.719 -0.3933 -0.2543 -1.2357
 7114SOL     OW32974   2.158   1.141   3.758  0.6267 -0.3638 -0.5463
 7114SOL    HW132975   2.117   1.228   3.750 -0.0368 -0.4116  2.0606
 7114SOL    HW232976   2.248   1.169   3.743  0.6290 -0.0524  0.0210
 7115SOL     OW32977   4.363   3.374   9.255  0.0078 -0.5692 -0.5872
 7115SOL    HW132978   4.349   3.448   9.196  0.9338  0.0574 -0.0163
 7115SOL    HW232979   4.272   3.345   9.264 -0.0373 -0.4507 -0.6564
 7116SOL     OW32980   3.368   2.025   8.708  0.2567  0.1578  0.2520
 7116SOL    HW132981   3.317   2.081   8.767  1.2010  0.1142  1.1107
 7116SOL    HW232982   3.305   1.962   8.673  1.2242 -1.3130  1.1821
 7117SOL     OW32983   3.186   2.318   4.421 -0.4396  0.7372 -0.5153
 7117SOL    HW132984   3.234   2.267   4.356  0.8639  1.5499 -0.1837
 7117SOL    HW232985   3.097   2.284   4.424 -0.9666  2.2397  0.6992
 7118SOL     OW32986   4.235   4.099   8.415 -0.6098  0.9792  0.6713
 7118SOL    HW132987   4.163   4.061   8.466 -0.1124 -0.4374  0.3328
 7118SOL    HW232988   4.190   4.173   8.375 -2.3513  0.3542  1.4895
 7119SOL     OW32989   2.723   1.721   1.644 -0.0815  0.1713 -0.2550
 7119SOL    HW132990   2.681   1.784   1.585 -1.8324  0.7597  1.6530
 7119SOL    HW232991   2.815   1.749   1.637  0.3138 -0.4442  2.4797
 7120SOL     OW32992   0.308   4.110   9.237 -0.4889 -0.1612  0.1208
 7120SOL    HW132993   0.239   4.175   9.248 -0.5815  0.0665 -1.9310
 7120SOL    HW232994   0.383   4.168   9.226 -1.0393  0.0108 -2.7236
 7121SOL     OW32995   2.674   2.585  13.656 -0.1135  0.1379 -0.5988
 7121SOL    HW132996   2.636   2.656  13.604  0.7245 -0.5059 -2.0964
 7121SOL    HW232997   2.620   2.508  13.636  0.0757 -0.2163  0.2753
 7122SOL     OW32998   2.424   2.651  10.819  0.0118 -0.1004 -1.2717
 7122SOL    HW132999   2.461   2.718  10.876 -0.0670 -2.0366  1.0536
 7122SOL    HW233000   2.438   2.704  10.741  2.4341  1.6692  0.3641
 7123SOL     OW33001   1.484   2.391   7.181  0.1022 -0.5526 -0.0805
 7123SOL    HW133002   1.533   2.472   7.190 -0.3721 -0.3597  0.7159
 7123SOL    HW233003   1.500   2.351   7.266 -2.3794  0.9746  1.1242
 7124SOL     OW33004   4.467   2.724  11.324 -0.2766 -0.5671 -0.1818
 7124SOL    HW133005   4.543   2.706  11.269 -0.2830 -1.6378  0.1506
 7124SOL    HW233006   4.438   2.809  11.290 -0.0633 -1.2724 -2.1521
 7125SOL     OW33007   2.923   3.943  16.081  0.3118  0.3106 -0.0407
 7125SOL    HW133008   3.009   3.927  16.121 -0.3484  1.6638  1.9565
 7125SOL    HW233009   2.890   3.982  16.163 -0.4625 -1.2773  0.3945
 7126SOL     OW33010   2.134   0.336   6.505  0.3176  0.0578 -0.5289
 7126SOL    HW133011   2.225   0.323   6.533  0.3518  0.6426 -0.3739
 7126SOL    HW233012   2.122   0.429   6.523 -2.3625 -0.6354  1.2331
 7127SOL     OW33013   1.746   4.008   6.831 -0.0354 -0.2755 -0.1364
 7127SOL    HW133014   1.742   3.934   6.891 -1.7078  0.7935  1.0654
 7127SOL    HW233015   1.805   4.068   6.877  1.7606 -1.7973 -0.4693
 7128SOL     OW33016   3.311   2.625   3.780 -0.1847 -0.1468 -0.1507
 7128SOL    HW133017   3.228   2.654   3.743  1.0396  1.8476 -1.3019
 7128SOL    HW233018   3.283   2.611   3.871  2.1887  1.2764  0.7871
 7129SOL     OW33019   3.130   4.374  17.569  0.7906  0.0073  0.3313
 7129SOL    HW133020   3.178   4.385  17.650 -1.0739 -0.4404  1.4980
 7129SOL    HW233021   3.116   4.467  17.550  2.1706  0.3721  1.1398
 7130SOL     OW33022   0.398   1.849   3.084 -0.0040 -0.1667  0.0834
 7130SOL    HW133023   0.353   1.925   3.048  0.7886 -0.9552 -2.5313
 7130SOL    HW233024   0.484   1.883   3.106 -1.0749  2.3832  0.4138
 7131SOL     OW33025   1.652   3.422   8.484  0.1176  0.2437 -0.3015
 7131SOL    HW133026   1.667   3.481   8.411 -0.8035  2.8401  1.5790
 7131SOL    HW233027   1.734   3.427   8.533 -0.2384 -0.5195  0.3794
 7132SOL     OW33028   2.706   1.817   6.875  1.0010  0.3793 -0.1255
 7132SOL    HW133029   2.674   1.837   6.963  2.0834 -1.3896  0.6714
 7132SOL    HW233030   2.668   1.888   6.824 -1.3457 -1.7647 -1.3983
 7133SOL     OW33031   4.356   3.243   7.509 -0.0309  0.3988  0.1600
 7133SOL    HW133032   4.294   3.306   7.547 -0.9997  0.9506 -2.3630
 7133SOL    HW233033   4.416   3.224   7.581 -1.9840 -0.5897  1.5231
 7134SOL     OW33034   4.561   4.437   0.330 -0.0875 -0.0879  0.0495
 7134SOL    HW133035   4.605   4.362   0.370 -1.0253 -0.8624 -0.3479
 7134SOL    HW233036   4.519   4.475   0.407 -1.0607  0.4459 -0.7289
 7135SOL     OW33037   1.529   1.874   3.777 -0.1174  0.2466 -0.0755
 7135SOL    HW133038   1.482   1.797   3.745  1.3885 -0.9505  0.6053
 7135SOL    HW233039   1.619   1.843   3.772 -1.6614 -4.6780  1.9775
 7136SOL     OW33040   0.573   4.213  16.265  0.6149 -0.4658 -0.1695
 7136SOL    HW133041   0.536   4.134  16.226 -0.6792 -1.0180  2.1217
 7136SOL    HW233042   0.653   4.177  16.303  0.4527  0.0471  0.6880
 7137SOL     OW33043   1.180   3.534   8.252  0.3375  0.2320  0.0390
 7137SOL    HW133044   1.158   3.599   8.320 -2.5397 -0.6739 -0.0268
 7137SOL    HW233045   1.274   3.544   8.266  0.4240 -0.6348  0.0414
 7138SOL     OW33046   2.893   1.778   7.247  0.2624  0.2607  0.8772
 7138SOL    HW133047   2.845   1.698   7.224  0.6288  0.3026 -0.0737
 7138SOL    HW233048   2.823   1.828   7.287 -1.2203 -1.4872  0.4812
 7139SOL     OW33049   3.629   3.268   5.044 -0.7806  0.4729 -0.4683
 7139SOL    HW133050   3.565   3.263   5.115 -0.6121 -0.1587 -0.3561
 7139SOL    HW233051   3.706   3.231   5.087 -1.4366 -1.4406 -0.9477
 7140SOL     OW33052   4.687   4.248   8.605 -0.0192 -0.1035 -0.4651
 7140SOL    HW133053   0.026   4.306   8.593 -1.0146  1.1107 -0.7221
 7140SOL    HW233054   4.734   4.167   8.624  1.0433  0.8444  0.9351
 7141SOL     OW33055   2.761   0.936   6.145 -0.1584  0.4806  0.3729
 7141SOL    HW133056   2.788   0.976   6.062 -0.5170  2.7817  1.3660
 7141SOL    HW233057   2.675   0.978   6.142  0.9896  2.7581 -0.6762
 7142SOL     OW33058   1.732   2.494   2.727 -0.2194  0.0314 -0.0394
 7142SOL    HW133059   1.812   2.469   2.681 -0.0744 -1.7367  1.1337
 7142SOL    HW233060   1.665   2.446   2.679 -1.3888  0.6491  0.9763
 7143SOL     OW33061   3.763   0.019   8.608  0.8251 -0.2817 -0.3029
 7143SOL    HW133062   3.837   0.002   8.665 -0.6008 -0.3135  1.5444
 7143SOL    HW233063   3.694   0.007   8.673  0.5450  0.9330 -0.3746
 7144SOL     OW33064   1.615   0.416   2.704  0.1505 -0.4960  0.3571
 7144SOL    HW133065   1.656   0.432   2.789  0.4431 -1.9967  0.5018
 7144SOL    HW233066   1.540   0.362   2.730 -0.5528  0.2435 -0.1586
 7145SOL     OW33067   1.722   1.882   2.400 -0.1906  0.4250  0.2244
 7145SOL    HW133068   1.750   1.973   2.399  0.4601  0.2572  2.3440
 7145SOL    HW233069   1.666   1.887   2.323 -0.2835  1.1879  0.3375
 7146SOL     OW33070   1.344   3.747  15.253 -0.0032 -0.1172 -0.0078
 7146SOL    HW133071   1.272   3.784  15.203  0.4806  1.1138  0.2098
 7146SOL    HW233072   1.303   3.752  15.340  2.1504  0.0951  1.0162
 7147SOL     OW33073   1.141   2.010   3.569 -0.3054 -0.5231  0.1316
 7147SOL    HW133074   1.189   2.036   3.648  0.6716 -0.8558 -0.3633
 7147SOL    HW233075   1.085   1.943   3.608 -2.1312 -0.4982 -2.4851
 7148SOL     OW33076   3.634   1.586  15.263 -0.1329 -0.0294 -0.5719
 7148SOL    HW133077   3.560   1.569  15.322  1.2478 -3.3473  0.2198
 7148SOL    HW233078   3.682   1.507  15.288  0.3017 -0.0147 -1.3604
 7149SOL     OW33079   3.729   4.031   2.492  0.1340  0.4097 -0.0803
 7149SOL    HW133080   3.728   3.949   2.444 -1.3943 -0.6541  1.7829
 7149SOL    HW233081   3.666   4.084   2.443  1.5635 -0.1429 -2.4704
 7150SOL     OW33082   0.440   3.228   9.284  0.0647  0.6596 -0.2729
 7150SOL    HW133083   0.431   3.311   9.237 -0.2814  0.0039 -1.3775
 7150SOL    HW233084   0.467   3.180   9.205  1.6023  1.3131 -0.1420
 7151SOL     OW33085   4.197   0.310   1.050 -0.1414 -0.0644 -0.0015
 7151SOL    HW133086   4.102   0.298   1.050 -0.2614  0.8776 -1.8662
 7151SOL    HW233087   4.199   0.400   1.080 -0.8917 -0.0321 -0.0401
 7152SOL     OW33088   0.747   1.541   7.967 -0.3762 -0.4309  0.2634
 7152SOL    HW133089   0.714   1.570   7.882 -2.1201 -3.6644 -0.1710
 7152SOL    HW233090   0.807   1.473   7.936  1.1544  0.9740  0.1701
 7153SOL     OW33091   3.553   4.388  10.029  0.4669  0.6095 -0.5837
 7153SOL    HW133092   3.648   4.379  10.038  0.0125 -1.5357  2.1329
 7153SOL    HW233093   3.548   4.483  10.015  0.0320  0.3891 -1.9449
 7154SOL     OW33094   0.857   0.112  11.120  0.9112 -0.2875 -0.1363
 7154SOL    HW133095   0.843   0.021  11.093  1.4414 -0.4356  0.0794
 7154SOL    HW233096   0.938   0.111  11.170  0.8093 -0.3112  0.0285
 7155SOL     OW33097   0.743   0.885  14.401 -0.0395  0.2776 -0.1400
 7155SOL    HW133098   0.702   0.812  14.447  1.3652 -0.7625 -0.5097
 7155SOL    HW233099   0.831   0.897  14.438  0.2346  0.5210 -0.8741
 7156SOL     OW33100   3.306   1.535   5.848  0.1024  0.5131 -0.0774
 7156SOL    HW133101   3.392   1.559   5.881  0.0160  1.4744 -0.5511
 7156SOL    HW233102   3.279   1.626   5.837 -0.5702  0.4302  0.8389
 7157SOL     OW33103   0.552   2.150   8.851 -0.2392 -0.4477  0.8595
 7157SOL    HW133104   0.486   2.175   8.916 -0.3080  0.0775  0.5868
 7157SOL    HW233105   0.529   2.229   8.801 -0.0854  1.2491  3.4496
 7158SOL     OW33106   2.251   1.921   6.455 -0.3247 -0.0129 -0.5109
 7158SOL    HW133107   2.326   1.921   6.514 -1.8507 -0.3187  1.4343
 7158SOL    HW233108   2.180   1.899   6.515 -0.7239  1.9368 -0.2674
 7159SOL     OW33109   1.766   1.648   7.488 -0.1324 -0.3311  0.1041
 7159SOL    HW133110   1.727   1.733   7.511  2.0095  0.8610 -0.6916
 7159SOL    HW233111   1.698   1.588   7.519 -1.3679  0.8307 -0.3608
 7160SOL     OW33112   2.875   0.115   6.540  0.1789 -0.2097 -0.1113
 7160SOL    HW133113   2.796   0.061   6.538  0.1874 -0.2379  0.2310
 7160SOL    HW233114   2.939   0.046   6.557  1.1942  0.7620  0.0023
 7161SOL     OW33115   3.062   4.355   8.851  0.4990  0.0402 -0.3403
 7161SOL    HW133116   3.011   4.390   8.777  0.9727 -0.6757 -1.0036
 7161SOL    HW233117   3.115   4.294   8.801  0.5402  0.1897 -0.4806
 7162SOL     OW33118   3.618   4.056   9.503 -0.2948 -0.9323 -0.1057
 7162SOL    HW133119   3.599   4.149   9.522 -0.3680 -0.9603 -0.0397
 7162SOL    HW233120   3.682   4.034   9.570  0.1774 -0.0976 -0.2728
 7163SOL     OW33121   4.449   3.320   0.951 -0.6677 -0.3436  0.2959
 7163SOL    HW133122   4.458   3.411   0.922  3.2594 -0.9696 -0.3923
 7163SOL    HW233123   4.473   3.271   0.873 -2.3549 -2.1791  0.9324
 7164SOL     OW33124   3.689   3.748   8.265 -0.5356  0.3515  0.2774
 7164SOL    HW133125   3.781   3.759   8.288 -0.2248 -1.6717 -0.0258
 7164SOL    HW233126   3.651   3.704   8.341 -0.3027 -0.7162 -0.2204
 7165SOL     OW33127   1.562   1.346   8.394 -0.3041 -0.1399  0.2108
 7165SOL    HW133128   1.649   1.351   8.355 -0.7878 -2.4970 -1.1061
 7165SOL    HW233129   1.529   1.435   8.378  0.5039  0.4368  1.6579
 7166SOL     OW33130   3.293   0.826   6.954 -0.5489 -0.2159  0.2032
 7166SOL    HW133131   3.348   0.902   6.967 -0.3839 -0.7537  2.6761
 7166SOL    HW233132   3.293   0.786   7.041  0.2916  0.4584  0.5058
 7167SOL     OW33133   2.913   2.755   9.131 -0.2259  0.6639  0.3227
 7167SOL    HW133134   2.840   2.698   9.107  0.5201  0.0227 -0.4414
 7167SOL    HW233135   2.982   2.693   9.155  0.8085  0.3132 -3.5704
 7168SOL     OW33136   0.199   4.629   9.022 -0.1259  0.4131  0.9644
 7168SOL    HW133137   0.115   4.623   9.067 -0.5564  1.5118  0.3172
 7168SOL    HW233138   0.195   4.696   8.953  0.7698 -0.4311  0.0903
 7169SOL     OW33139   3.666   2.419   3.439 -0.2255  0.2266 -0.6943
 7169SOL    HW133140   3.578   2.456   3.448 -0.2248 -0.6164  2.6446
 7169SOL    HW233141   3.647   2.341   3.386 -0.4163  1.2879 -2.2002
 7170SOL     OW33142   1.022   1.099   6.113  0.0440  0.0520  0.1277
 7170SOL    HW133143   1.070   1.151   6.177 -1.0400  1.3460 -0.0844
 7170SOL    HW233144   1.001   1.171   6.053  1.0715  0.4233  0.2230
 7171SOL     OW33145   3.489   0.023   8.788  0.4172 -0.0528  0.1647
 7171SOL    HW133146   3.459   0.072   8.864 -2.7226 -0.2413 -0.9469
 7171SOL    HW233147   3.408   4.708   8.787  0.1866  0.3160 -0.0255
 7172SOL     OW33148   2.100   1.990  10.580 -0.3095 -0.6071  0.5979
 7172SOL    HW133149   2.063   2.033  10.503  0.4390  0.1425  0.6611
 7172SOL    HW233150   2.025   1.946  10.619 -2.2326  0.7300 -1.5347
 7173SOL     OW33151   1.340   3.613   9.502 -0.2164  0.1428 -0.2270
 7173SOL    HW133152   1.290   3.536   9.476 -0.7948 -0.0402  1.3651
 7173SOL    HW233153   1.369   3.643   9.416  1.4491  1.3981  0.7746
 7174SOL     OW33154   3.294   2.311  16.300 -0.4599 -0.3005  0.2444
 7174SOL    HW133155   3.353   2.273  16.365 -2.0233 -1.1441  1.1611
 7174SOL    HW233156   3.226   2.349  16.356 -1.1520  0.1263 -0.8799
 7175SOL     OW33157   3.592   1.943   2.289 -0.3433 -0.0125 -0.5769
 7175SOL    HW133158   3.615   1.987   2.372 -0.1403  0.8770 -1.1092
 7175SOL    HW233159   3.676   1.937   2.243 -0.6356 -0.4313 -1.0435
 7176SOL     OW33160   4.234   1.761   5.347 -0.0878  0.3628 -0.6912
 7176SOL    HW133161   4.155   1.710   5.364  1.3360 -1.4713  0.4419
 7176SOL    HW233162   4.206   1.852   5.354  2.0406  1.1558 -2.5262
 7177SOL     OW33163   0.707   1.499   4.672  0.3020  0.2024 -0.2526
 7177SOL    HW133164   0.752   1.584   4.665  0.3548  0.2020  0.0899
 7177SOL    HW233165   0.616   1.529   4.671  0.2371  0.0111 -0.0143
 7178SOL     OW33166   2.322   2.940   2.128  0.1818 -0.3457 -0.0707
 7178SOL    HW133167   2.383   2.947   2.201  0.4109 -1.4073 -0.1601
 7178SOL    HW233168   2.256   2.879   2.161  0.0704  0.3823  1.0784
 7179SOL     OW33169   1.035   4.075  13.116 -0.1048 -0.4840  0.0668
 7179SOL    HW133170   0.964   4.102  13.058 -1.1014 -2.2232  0.5033
 7179SOL    HW233171   1.101   4.144  13.101 -0.9297  0.2444 -0.1901
 7180SOL     OW33172   1.776   0.140   8.276  0.4193 -0.0694 -0.3513
 7180SOL    HW133173   1.741   0.204   8.214  1.7249  2.4516  1.5161
 7180SOL    HW233174   1.700   0.081   8.280  0.5521  0.0145  3.3324
 7181SOL     OW33175   0.114   4.347   0.153 -0.1216  0.1283  0.2443
 7181SOL    HW133176   0.189   4.405   0.160  1.2413 -1.6431  0.4682
 7181SOL    HW233177   0.096   4.305   0.238 -0.6259  0.1922  0.1664
 7182SOL     OW33178   1.603   0.403   6.548  0.6823 -0.3753 -0.0486
 7182SOL    HW133179   1.512   0.401   6.517  1.1170  0.3686 -1.3883
 7182SOL    HW233180   1.647   0.458   6.483 -0.5418 -1.5638 -1.8918
 7183SOL     OW33181   3.502   4.132  10.645  0.2170  0.2672  0.0719
 7183SOL    HW133182   3.555   4.069  10.597  1.1507  1.4739 -0.4831
 7183SOL    HW233183   3.456   4.071  10.703 -0.2216  2.0129  1.5897
 7184SOL     OW33184   1.148   3.941   2.007 -0.4682 -0.0739  0.6100
 7184SOL    HW133185   1.080   3.904   2.062 -1.6382 -0.1718 -0.9199
 7184SOL    HW233186   1.153   4.030   2.042 -1.6153  0.4987 -0.6869
 7185SOL     OW33187   0.146   3.987   3.422  0.1895  0.2894  0.1662
 7185SOL    HW133188   0.108   3.903   3.447  2.3103 -0.6613  0.2026
 7185SOL    HW233189   0.068   4.043   3.423  0.0924  0.1826 -2.1370
 7186SOL     OW33190   3.202   0.723   3.230 -0.8037 -0.6106 -0.3912
 7186SOL    HW133191   3.118   0.717   3.276 -0.6271  2.0924  0.2361
 7186SOL    HW233192   3.212   0.630   3.209 -1.1956 -0.9714  1.0016
 7187SOL     OW33193   2.909   1.246  16.263 -0.2109  0.2561  0.1168
 7187SOL    HW133194   2.959   1.168  16.238 -1.9006 -0.8160  0.1008
 7187SOL    HW233195   2.914   1.295  16.181  2.2790  0.4951  0.4120
 7188SOL     OW33196   1.076   2.669  11.564  0.3360  0.1787  0.6863
 7188SOL    HW133197   1.094   2.759  11.535 -1.8934  1.8329  4.4079
 7188SOL    HW233198   0.988   2.680  11.601  0.3800  0.6466  0.6561
 7189SOL     OW33199   4.178   3.464  17.555  0.5332  0.3783 -0.4745
 7189SOL    HW133200   4.180   3.546  17.603 -2.8138  0.1943 -0.0210
 7189SOL    HW233201   4.123   3.410  17.612 -3.6493  0.4012 -4.4158
 7190SOL     OW33202   3.106   2.410   3.761  0.9710 -0.3628  0.3433
 7190SOL    HW133203   3.125   2.435   3.670  0.9510 -0.7055  0.2471
 7190SOL    HW233204   3.016   2.380   3.746  1.1849 -1.0568  0.4618
 7191SOL     OW33205   4.328   1.877  11.897  0.5032  0.3415 -0.6296
 7191SOL    HW133206   4.329   1.783  11.881 -0.5032  0.0266  1.2652
 7191SOL    HW233207   4.387   1.877  11.972  0.6497 -0.1761 -0.7409
 7192SOL     OW33208   4.581   4.270  13.055  0.1825 -0.4234 -0.2865
 7192SOL    HW133209   4.533   4.312  13.126  0.6811 -1.0975  0.4537
 7192SOL    HW233210   4.566   4.339  12.991  0.8043  0.5642  0.6373
 7193SOL     OW33211   2.478   2.193   6.251  0.1941 -0.2539 -0.6192
 7193SOL    HW133212   2.519   2.193   6.164 -0.1349 -0.1539 -0.7707
 7193SOL    HW233213   2.386   2.218   6.241  0.1619 -0.2599 -0.3268
 7194SOL     OW33214   3.925   1.402   6.855 -0.2523  0.5143 -0.0251
 7194SOL    HW133215   3.911   1.367   6.943 -1.2821  4.0224  1.2124
 7194SOL    HW233216   3.887   1.490   6.857  0.4869  0.8109  0.9594
 7195SOL     OW33217   0.782   0.925   5.618  1.3745 -0.2208  0.2920
 7195SOL    HW133218   0.807   0.836   5.644  2.1631 -0.3166 -0.7900
 7195SOL    HW233219   0.795   0.969   5.702  0.5443  1.5831 -0.5293
 7196SOL     OW33220   0.201   1.533   2.457  0.1741 -0.0952  0.0359
 7196SOL    HW133221   0.167   1.597   2.520  1.2451  0.4565  0.0546
 7196SOL    HW233222   0.194   1.584   2.377 -1.6796 -0.4562 -0.0307
 7197SOL     OW33223   3.244   2.001   5.223 -0.1965 -0.0426  0.4302
 7197SOL    HW133224   3.339   1.991   5.219  0.0106  1.7774  0.6392
 7197SOL    HW233225   3.212   1.964   5.141 -0.9163 -1.1360  1.2099
 7198SOL     OW33226   3.201   2.066   2.572 -0.0567 -0.5574 -0.3518
 7198SOL    HW133227   3.197   1.979   2.613 -0.4034  0.1902  1.1782
 7198SOL    HW233228   3.175   2.053   2.480 -0.6212 -2.4604  0.0773
 7199SOL     OW33229   0.394   0.553   6.396  0.2739  0.2054 -0.1259
 7199SOL    HW133230   0.333   0.605   6.448 -0.0192 -0.0636 -0.1992
 7199SOL    HW233231   0.339   0.538   6.319  0.9216  1.7991 -0.8944
 7200SOL     OW33232   3.280   3.505   6.673  0.1935  0.4030  0.2483
 7200SOL    HW133233   3.318   3.566   6.736  0.6162 -0.9095  1.2780
 7200SOL    HW233234   3.248   3.572   6.612  1.9733  2.1101  1.1991
 7201SOL     OW33235   2.747   2.240   1.901 -0.4385 -0.6196 -0.1949
 7201SOL    HW133236   2.824   2.188   1.879  1.4942  1.3658  1.8218
 7201SOL    HW233237   2.705   2.164   1.941 -0.2510 -0.0152  1.1545
 7202SOL     OW33238   1.160   3.910   9.300  0.2981  0.1230 -0.1824
 7202SOL    HW133239   1.177   4.000   9.273  4.2226 -0.7504 -0.6546
 7202SOL    HW233240   1.093   3.925   9.367  0.2624 -0.0907 -0.1690
 7203SOL     OW33241   0.075   0.321   7.189  0.5632  0.3070 -0.2779
 7203SOL    HW133242   0.073   0.236   7.145  2.4305  1.1509 -2.0096
 7203SOL    HW233243   0.006   0.317   7.255 -2.2256  0.6577 -3.1692
 7204SOL     OW33244   1.091   0.790  13.464  0.5475 -0.1014  0.2116
 7204SOL    HW133245   1.101   0.695  13.456  3.3724  0.1961  0.1198
 7204SOL    HW233246   1.145   0.827  13.393 -1.6891  0.8407 -0.9963
 7205SOL     OW33247   3.214   2.931  10.853  0.5017  0.4681 -0.0833
 7205SOL    HW133248   3.184   2.935  10.944  0.1131 -0.8331 -0.1537
 7205SOL    HW233249   3.239   2.839  10.857 -0.0885  0.2509 -1.2439
 7206SOL     OW33250   1.481   3.207   2.624 -0.3060  0.5489 -0.2707
 7206SOL    HW133251   1.484   3.301   2.606  1.1641  0.3774 -0.8972
 7206SOL    HW233252   1.424   3.211   2.702 -1.6441 -1.4683 -1.1358
 7207SOL     OW33253   0.658   2.573   0.378  0.3907 -0.0742  0.5960
 7207SOL    HW133254   0.670   2.551   0.285 -1.3337  0.2721  0.2797
 7207SOL    HW233255   0.567   2.605   0.374  0.6732  0.3991 -2.4132
 7208SOL     OW33256   1.956   0.957   3.879  0.2830 -0.0351  0.7661
 7208SOL    HW133257   1.991   1.041   3.848 -0.1373  0.9967  3.1474
 7208SOL    HW233258   2.035   0.904   3.875  1.6540  2.0741 -0.4379
 7209SOL     OW33259   2.515   4.149   6.492  0.0721  0.0566 -0.0338
 7209SOL    HW133260   2.555   4.235   6.482 -2.1080  1.0823  0.1125
 7209SOL    HW233261   2.424   4.172   6.510 -0.2849 -1.0629 -0.3961
 7210SOL     OW33262   1.574   3.013   1.472 -0.0213 -0.6115  0.2469
 7210SOL    HW133263   1.513   2.947   1.438 -0.2219 -1.6462  2.6749
 7210SOL    HW233264   1.644   2.958   1.507  1.4340  0.3449 -1.1671
 7211SOL     OW33265   1.152   1.250  17.617 -0.2144  0.0513 -0.0062
 7211SOL    HW133266   1.161   1.293  17.702 -0.7009  1.8787 -0.8814
 7211SOL    HW233267   1.115   1.162  17.633 -3.1044  1.1393 -0.6654
 7212SOL     OW33268   4.600   3.693   4.874  0.1164  0.1481  0.3798
 7212SOL    HW133269   4.568   3.721   4.788 -0.6406  1.6078  1.1464
 7212SOL    HW233270   4.680   3.645   4.853  0.5948  1.6867 -1.3123
 7213SOL     OW33271   3.530   0.604   4.053  0.2597  0.4241  0.0465
 7213SOL    HW133272   3.560   0.576   4.139 -2.4500  0.1070  0.9039
 7213SOL    HW233273   3.526   0.523   4.001  1.0215 -0.3203  1.1506
 7214SOL     OW33274   2.511   1.081   2.663  0.4092 -0.2083  0.0094
 7214SOL    HW133275   2.516   1.152   2.599 -0.9664  0.9057  1.1387
 7214SOL    HW233276   2.527   1.002   2.612  0.6081 -1.2390  1.6532
 7215SOL     OW33277   2.432   2.055  13.855  0.0575 -0.5311 -0.5828
 7215SOL    HW133278   2.378   2.047  13.934  1.4625 -0.0144  0.4173
 7215SOL    HW233279   2.519   2.039  13.889 -0.4037  0.6148  1.1069
 7216SOL     OW33280   3.772   3.806   3.470 -0.1455 -0.2114  0.2731
 7216SOL    HW133281   3.724   3.852   3.538 -1.4216 -0.3105 -0.5481
 7216SOL    HW233282   3.706   3.801   3.401  0.0899 -2.6037  0.2113
 7217SOL     OW33283   3.709   2.769   7.938 -0.0148 -0.4792 -0.2693
 7217SOL    HW133284   3.804   2.767   7.923 -0.3381 -1.5053 -2.2282
 7217SOL    HW233285   3.692   2.680   7.969 -1.0689  0.3586  1.5369
 7218SOL     OW33286   1.537   4.322   5.290  0.1293 -0.1944  0.2382
 7218SOL    HW133287   1.592   4.244   5.294  0.3349 -0.1255 -1.2286
 7218SOL    HW233288   1.605   4.388   5.272  0.5684 -0.5838  0.4619
 7219SOL     OW33289   4.066   0.869   6.749  0.1791 -0.2214  0.7480
 7219SOL    HW133290   3.989   0.812   6.748 -0.2245  0.3062  1.4122
 7219SOL    HW233291   4.068   0.881   6.655  1.0092  0.0279  0.7944
 7220SOL     OW33292   4.122   3.222   0.071 -0.7596 -0.0406  0.7654
 7220SOL    HW133293   4.055   3.290   0.070 -0.2260  0.4938  1.2244
 7220SOL    HW233294   4.123   3.192   0.162 -1.7277  0.6012  0.9763
 7221SOL     OW33295   2.266   0.403  15.899  0.1584 -0.0435  0.0225
 7221SOL    HW133296   2.195   0.423  15.837 -0.8912 -0.8515  0.9494
 7221SOL    HW233297   2.297   0.492  15.914  0.4052 -0.3791  1.4480
 7222SOL     OW33298   2.340   3.871  17.003 -0.1706  0.6557  0.3645
 7222SOL    HW133299   2.377   3.875  16.915 -3.5046 -0.1281 -1.0827
 7222SOL    HW233300   2.398   3.805  17.042 -0.8170 -0.1580 -0.0440
 7223SOL     OW33301   3.353   0.073   9.495 -0.0390  0.4108  0.2239
 7223SOL    HW133302   3.354   0.153   9.443 -0.5318  1.5841  2.0282
 7223SOL    HW233303   3.395   0.099   9.577  2.7977  0.9037 -1.4070
 7224SOL     OW33304   4.010   2.370  14.918  0.2209 -0.2222  0.1438
 7224SOL    HW133305   3.955   2.424  14.974 -0.0745  0.2160 -0.5711
 7224SOL    HW233306   3.951   2.298  14.895  0.2217 -0.3207  0.4589
 7225SOL     OW33307   1.124   2.187  10.276 -0.1949 -0.8366 -0.4115
 7225SOL    HW133308   1.156   2.261  10.327  2.7755 -1.0562 -1.9320
 7225SOL    HW233309   1.068   2.138  10.336 -3.2975  0.3437 -2.2983
 7226SOL     OW33310   4.026   2.735   8.567  0.2756 -0.2620 -0.4759
 7226SOL    HW133311   4.039   2.755   8.660 -1.8010  2.9274 -0.8991
 7226SOL    HW233312   3.977   2.652   8.570  2.4030 -1.5262 -0.7404
 7227SOL     OW33313   4.096   4.100  13.033 -0.3452 -0.4379  0.3808
 7227SOL    HW133314   4.044   4.162  12.981 -0.6435  2.6113  4.3166
 7227SOL    HW233315   4.111   4.026  12.973 -1.4633  0.5218 -1.1051
 7228SOL     OW33316   2.781   0.741   2.807 -0.1354  0.0518 -0.6711
 7228SOL    HW133317   2.739   0.688   2.739 -0.7387  0.9099 -0.9636
 7228SOL    HW233318   2.842   0.797   2.759  0.8068  0.4354  0.9504
 7229SOL     OW33319   4.166   3.416   7.261  0.0778 -0.1932 -0.1440
 7229SOL    HW133320   4.165   3.390   7.169  0.4883 -0.0986 -0.1765
 7229SOL    HW233321   4.259   3.439   7.272 -0.7084  1.9734  1.9705
 7230SOL     OW33322   1.661   3.031   5.947 -0.1602 -0.2034 -0.0296
 7230SOL    HW133323   1.588   3.010   6.006  0.5630 -1.8688  0.2584
 7230SOL    HW233324   1.706   3.106   5.986 -0.3517 -0.2601  0.3022
 7231SOL     OW33325   3.459   2.674   6.449 -0.1737  0.0946 -0.4298
 7231SOL    HW133326   3.469   2.766   6.471  1.6138 -0.1269 -0.2542
 7231SOL    HW233327   3.473   2.641   6.537 -1.0135 -2.6817 -1.3287
 7232SOL     OW33328   4.435   2.016   5.545  0.4936 -0.4275 -0.2843
 7232SOL    HW133329   4.460   2.082   5.610  1.3028 -1.3641  0.3505
 7232SOL    HW233330   4.347   2.043   5.520  0.5509  0.2905  0.2830
 7233SOL     OW33331   4.096   1.884  17.580 -0.0116  0.2958  0.1756
 7233SOL    HW133332   4.122   1.911  17.668  2.1578  0.8034 -0.6122
 7233SOL    HW233333   4.171   1.917  17.530 -0.4029  0.0848 -0.5558
 7234SOL     OW33334   4.223   2.522   5.046 -0.1316  0.3901  0.9618
 7234SOL    HW133335   4.196   2.522   4.954  0.1482  1.0156  0.8789
 7234SOL    HW233336   4.172   2.596   5.080  0.8779  1.6316 -0.2650
 7235SOL     OW33337   3.090   0.358   1.220 -0.0626 -0.4704 -0.1170
 7235SOL    HW133338   2.995   0.365   1.226 -0.3120 -2.2412 -1.9100
 7235SOL    HW233339   3.111   0.352   1.313  0.9472  0.8953 -0.2543
 7236SOL     OW33340   3.524   4.048   3.219  0.0800 -0.2380  0.2488
 7236SOL    HW133341   3.589   4.039   3.149  1.2714  3.3377  0.8825
 7236SOL    HW233342   3.573   4.103   3.280  1.1452 -1.2979  0.3518
 7237SOL     OW33343   2.144   0.958   3.538  0.5612 -0.2400  0.1576
 7237SOL    HW133344   2.196   1.019   3.485 -1.3261 -0.1757 -1.6467
 7237SOL    HW233345   2.148   0.988   3.628 -1.5279 -0.7319  0.4087
 7238SOL     OW33346   2.235   1.300   9.790 -0.1609  0.1617  0.5766
 7238SOL    HW133347   2.245   1.362   9.718  2.1148 -2.0336 -1.0087
 7238SOL    HW233348   2.206   1.221   9.743 -2.2642  2.2045 -1.5539
 7239SOL     OW33349   3.535   0.574   2.421 -0.2256 -0.1779  0.3899
 7239SOL    HW133350   3.479   0.632   2.472  1.0816  0.3175  1.2641
 7239SOL    HW233351   3.485   0.493   2.436 -4.4451  2.8116  2.4908
 7240SOL     OW33352   4.171   3.636  10.451  0.5251 -0.2382  1.0788
 7240SOL    HW133353   4.152   3.595  10.367  2.1246  2.4816 -0.5945
 7240SOL    HW233354   4.267   3.637  10.449  0.4848  0.2751 -0.4194
 7241SOL     OW33355   0.093   1.410  14.144  0.0539  0.9768 -0.0598
 7241SOL    HW133356   0.103   1.329  14.195  0.9777  1.7525  1.0038
 7241SOL    HW233357   0.122   1.481  14.202  3.9748 -1.5836  1.0695
 7242SOL     OW33358   2.646   0.821   2.393  0.4036 -0.0148  0.4791
 7242SOL    HW133359   2.710   0.892   2.394  2.7406 -2.1265  1.0844
 7242SOL    HW233360   2.584   0.845   2.324  0.2038  0.0527  0.6795
 7243SOL     OW33361   4.479   2.593   5.980 -0.0642  0.6097  0.2997
 7243SOL    HW133362   4.458   2.573   5.889  0.2422 -2.3553  0.8854
 7243SOL    HW233363   4.535   2.518   6.000 -0.8928 -0.2953 -0.7540
 7244SOL     OW33364   4.090   2.454   3.579  0.3522 -0.2690 -0.2047
 7244SOL    HW133365   4.022   2.513   3.545  0.9194 -0.7604 -2.1936
 7244SOL    HW233366   4.042   2.371   3.582  0.5586 -0.3534  0.6006
 7245SOL     OW33367   2.356   3.986   6.170  0.2598  0.3131 -0.4538
 7245SOL    HW133368   2.431   3.947   6.216 -0.8482 -0.7453  0.4540
 7245SOL    HW233369   2.286   3.925   6.193 -0.0870  0.8372 -0.1163
 7246SOL     OW33370   2.734   2.038   9.264  0.1497  0.3830 -0.2265
 7246SOL    HW133371   2.795   2.070   9.331  2.5151  1.0813 -2.7398
 7246SOL    HW233372   2.708   1.951   9.297  3.0969  0.2164  1.6627
 7247SOL     OW33373   1.318   0.922   4.827 -0.3349  0.5447 -0.2732
 7247SOL    HW133374   1.269   0.986   4.775  0.0500  1.2720  0.2432
 7247SOL    HW233375   1.405   0.921   4.786 -0.6816  2.9612 -1.0996
 7248SOL     OW33376   3.591   4.354   9.433 -0.3314 -0.5475  0.2670
 7248SOL    HW133377   3.608   4.418   9.502  0.9604 -1.5512  0.8879
 7248SOL    HW233378   3.499   4.375   9.423 -0.5902 -1.5489  0.5835
 7249SOL     OW33379   0.097   0.801   3.043 -0.1594 -0.0543  0.5014
 7249SOL    HW133380   0.065   0.872   3.099  1.4077  1.4501 -0.5558
 7249SOL    HW233381   0.031   0.736   3.069 -0.1894 -0.0724  0.3766
 7250SOL     OW33382   2.404   4.505  11.567  0.1011 -0.2710 -0.3868
 7250SOL    HW133383   2.478   4.497  11.508  1.3516  2.3754  0.8247
 7250SOL    HW233384   2.346   4.434  11.538  0.4978 -0.4250 -0.7954
 7251SOL     OW33385   1.003   2.195   6.803  0.4142 -0.3567 -0.1116
 7251SOL    HW133386   0.920   2.195   6.850  0.5866  0.6098  0.1928
 7251SOL    HW233387   1.033   2.285   6.816 -1.3056  0.4743 -1.9491
 7252SOL     OW33388   1.411   1.972  11.605 -0.2190 -0.1107  0.2549
 7252SOL    HW133389   1.361   1.898  11.639 -2.6176  1.3705 -0.0472
 7252SOL    HW233390   1.375   1.981  11.517 -0.0139  0.7802  0.2588
 7253SOL     OW33391   1.423   0.119   8.475  0.3908 -0.3578 -0.4766
 7253SOL    HW133392   1.453   0.064   8.403  0.3995 -2.8606  1.4383
 7253SOL    HW233393   1.330   0.096   8.484  0.8477 -1.4778  1.3963
 7254SOL     OW33394   2.023   0.820   7.244  0.4546  0.0825  0.2780
 7254SOL    HW133395   2.059   0.856   7.163  0.7648  0.7211  0.6942
 7254SOL    HW233396   2.095   0.829   7.307 -0.0212 -2.7304  1.2202
 7255SOL     OW33397   0.888   1.480   6.967  0.1051  0.0331 -0.5548
 7255SOL    HW133398   0.974   1.520   6.982 -0.2696  0.7735 -0.4149
 7255SOL    HW233399   0.838   1.534   7.027  1.0356 -0.5246  0.7380
 7256SOL     OW33400   3.028   2.448   4.224  0.0069  0.4195 -0.0379
 7256SOL    HW133401   3.124   2.445   4.226 -0.1555 -4.3346  0.5069
 7256SOL    HW233402   3.014   2.522   4.283 -0.3117  0.2563  0.0913
 7257SOL     OW33403   2.669   4.071   2.389  0.0158 -0.0846  0.2105
 7257SOL    HW133404   2.709   4.152   2.421 -0.9334  0.1635  0.7799
 7257SOL    HW233405   2.687   4.026   2.471  2.1855 -2.2264 -1.4270
 7258SOL     OW33406   2.713   3.117  13.130  0.6635  0.8742 -0.0177
 7258SOL    HW133407   2.673   3.156  13.052  0.6042  0.5945 -0.1263
 7258SOL    HW233408   2.780   3.183  13.152  2.1073 -0.0136 -1.7315
 7259SOL     OW33409   1.880   1.661   0.656  0.4096 -0.2038 -0.0188
 7259SOL    HW133410   1.953   1.701   0.703 -0.0303  0.4330  0.1217
 7259SOL    HW233411   1.856   1.589   0.715  1.4449 -2.0874 -1.8807
 7260SOL     OW33412   2.772   0.285   5.503 -0.3146  0.2030 -0.0326
 7260SOL    HW133413   2.837   0.333   5.554 -0.5378  0.4980 -0.0261
 7260SOL    HW233414   2.836   0.232   5.456 -1.4704  0.2787 -1.7174
 7261SOL     OW33415   3.725   1.041   6.010  0.4520 -0.3864 -0.8823
 7261SOL    HW133416   3.789   0.971   6.014 -0.1493 -0.7521  2.2015
 7261SOL    HW233417   3.660   1.003   6.069 -0.7685  2.7061 -0.2549
 7262SOL     OW33418   0.928   2.533   5.682  0.2029  0.3691 -0.2509
 7262SOL    HW133419   0.912   2.608   5.624  1.5083 -1.2245 -2.6822
 7262SOL    HW233420   1.001   2.556   5.739  0.3398 -0.0923 -0.2419
 7263SOL     OW33421   4.681   0.151   0.598 -0.5473  0.0365 -0.0753
 7263SOL    HW133422   0.020   0.101   0.631 -1.4555 -0.2078  1.6284
 7263SOL    HW233423   4.701   0.237   0.635  1.3311 -0.6031  0.3515
 7264SOL     OW33424   3.831   1.993   8.354 -0.3519  0.1209  0.4465
 7264SOL    HW133425   3.903   1.964   8.298 -0.9982  0.7873 -0.7404
 7264SOL    HW233426   3.881   2.032   8.425  0.1985 -1.6623  1.0343
 7265SOL     OW33427   1.480   3.139   6.180 -0.1746  0.2894  0.3011
 7265SOL    HW133428   1.535   3.105   6.250  1.7740  1.0187 -0.8728
 7265SOL    HW233429   1.412   3.184   6.230  0.8826  2.9912 -0.6853
 7266SOL     OW33430   0.422   4.212   5.888  0.1684  0.8420 -0.2498
 7266SOL    HW133431   0.417   4.307   5.877  2.1767  0.9080 -0.4715
 7266SOL    HW233432   0.496   4.191   5.832 -0.5647  3.1290 -2.0540
 7267SOL     OW33433   1.513   1.665   4.773  0.4705  0.1457  0.1009
 7267SOL    HW133434   1.603   1.686   4.798  0.0440  0.8550  1.0203
 7267SOL    HW233435   1.485   1.739   4.719  0.7376  1.3829  1.6536
 7268SOL     OW33436   4.573   0.711   7.717 -0.2427 -0.0566  0.0078
 7268SOL    HW133437   4.579   0.732   7.624 -2.9300  0.9402  0.0734
 7268SOL    HW233438   4.663   0.696   7.746 -0.4174 -0.9900  0.0701
 7269SOL     OW33439   3.768   0.339   3.695 -0.2027  0.2149 -0.0737
 7269SOL    HW133440   3.676   0.358   3.714 -0.6085  1.5441 -3.3352
 7269SOL    HW233441   3.766   0.267   3.632 -0.1231  0.7811 -0.7277
 7270SOL     OW33442   0.285   0.130  12.838  0.6698 -0.0680 -0.0504
 7270SOL    HW133443   0.304   0.100  12.927 -2.1988 -0.2396  0.5078
 7270SOL    HW233444   0.268   0.223  12.847 -2.5467 -0.4289 -2.3808
 7271SOL     OW33445   2.753   0.086   7.593  0.3675 -0.2081 -0.0167
 7271SOL    HW133446   2.721   0.062   7.680 -0.5835 -0.1285 -0.3545
 7271SOL    HW233447   2.807   0.008   7.581  0.4760  0.2651 -2.5226
 7272SOL     OW33448   4.173   3.931   7.029  0.3046  0.3293 -0.6193
 7272SOL    HW133449   4.138   3.932   6.940  2.1932  1.7445 -1.3329
 7272SOL    HW233450   4.125   4.006   7.064  2.1119  1.3473 -0.3602
 7273SOL     OW33451   4.367   1.252   8.291  0.1851 -0.7662 -0.5693
 7273SOL    HW133452   4.425   1.191   8.338  0.2333 -0.8170 -0.6929
 7273SOL    HW233453   4.386   1.217   8.203 -0.5805 -0.0130 -1.0248
 7274SOL     OW33454   2.294   1.907  10.732 -0.0276  0.3233  0.0148
 7274SOL    HW133455   2.258   1.928  10.819  1.0909  0.4902  0.4311
 7274SOL    HW233456   2.226   1.949  10.679 -0.1171  1.2710  0.8772
 7275SOL     OW33457   2.364   4.424   1.069 -0.0068  0.0477  0.0564
 7275SOL    HW133458   2.440   4.395   1.118 -0.5685  0.1920  1.0152
 7275SOL    HW233459   2.322   4.474   1.140  1.2247  1.7420 -0.4195
 7276SOL     OW33460   2.921   2.886   9.891  0.1485  0.4040  0.7101
 7276SOL    HW133461   2.852   2.854   9.949 -1.5029 -1.1569 -2.1050
 7276SOL    HW233462   2.880   2.944   9.826 -0.3343 -2.1230 -1.2626
 7277SOL     OW33463   4.431   0.403  10.957  0.1966 -0.0682 -0.3848
 7277SOL    HW133464   4.438   0.315  10.919  0.1988 -0.3668  0.3125
 7277SOL    HW233465   4.414   0.451  10.875  1.6350  0.1411 -0.5782
 7278SOL     OW33466   2.983   2.102   2.137 -0.0980 -0.2425 -0.1019
 7278SOL    HW133467   2.899   2.055   2.139  0.4394 -1.2474 -1.0591
 7278SOL    HW233468   2.994   2.111   2.042 -1.2377 -2.4866 -0.4389
 7279SOL     OW33469   4.269   2.916  10.282 -0.4640 -0.4613  0.2553
 7279SOL    HW133470   4.196   2.857  10.265 -1.6571  1.1366 -0.1109
 7279SOL    HW233471   4.230   2.991  10.238  2.1005 -0.5182 -2.1106
 7280SOL     OW33472   1.463   3.497   2.928 -0.2246 -0.2156  0.2043
 7280SOL    HW133473   1.457   3.441   3.005  1.4162 -1.5910 -0.6744
 7280SOL    HW233474   1.434   3.437   2.860 -0.1462 -0.2467  0.1977
 7281SOL     OW33475   1.410   3.068   3.085 -0.7111 -0.1063  0.2791
 7281SOL    HW133476   1.408   2.983   3.041  2.2363  1.3889 -2.6805
 7281SOL    HW233477   1.490   3.101   3.045 -1.8786  2.8626  0.4084
 7282SOL     OW33478   1.718   1.685   9.765  0.3086 -0.2934  0.2833
 7282SOL    HW133479   1.809   1.696   9.793  0.0940 -1.0233  1.2596
 7282SOL    HW233480   1.733   1.698   9.671  0.6400  1.3553  0.5576
 7283SOL     OW33481   3.767   1.931   4.932 -0.1980 -0.6169  0.3870
 7283SOL    HW133482   3.705   1.923   5.005  0.8499  0.2388  1.3589
 7283SOL    HW233483   3.853   1.917   4.970 -0.5694  0.4195  1.6391
 7284SOL     OW33484   1.414   2.055  12.156  0.4216 -0.2857 -0.5436
 7284SOL    HW133485   1.343   2.118  12.146  0.8461  0.1897 -0.5464
 7284SOL    HW233486   1.471   2.111  12.208 -0.2908  0.0778 -0.1505
 7285SOL     OW33487   1.437   1.833  14.306 -0.1321  0.3577  0.1355
 7285SOL    HW133488   1.479   1.777  14.240 -1.6576 -0.6179 -0.0151
 7285SOL    HW233489   1.414   1.765  14.369  1.0582  0.2253  0.4309
 7286SOL     OW33490   4.416   3.840  13.078  0.6468  0.1502 -0.1089
 7286SOL    HW133491   4.343   3.779  13.065  0.2254  0.8111 -0.8436
 7286SOL    HW233492   4.394   3.920  13.029  1.3101  0.3328 -0.0998
 7287SOL     OW33493   3.733   1.210   9.944  0.3262  0.6772 -0.0147
 7287SOL    HW133494   3.770   1.298   9.938 -1.0492  1.1171 -2.0122
 7287SOL    HW233495   3.640   1.228   9.930  0.0325 -0.4759  0.4348
 7288SOL     OW33496   1.753   3.762  10.282 -0.1905  0.2681  0.3707
 7288SOL    HW133497   1.720   3.821  10.215 -0.3370 -0.1213  0.1002
 7288SOL    HW233498   1.694   3.687  10.289 -1.2899  1.1169  0.2625
 7289SOL     OW33499   3.559   4.571  13.178  0.5667  0.0471  0.2608
 7289SOL    HW133500   3.482   4.539  13.225  0.0978 -0.4135 -0.8207
 7289SOL    HW233501   3.549   4.666  13.174  1.2450  0.1619  1.2263
 7290SOL     OW33502   2.319   3.752  15.841  0.5743 -0.2940 -0.5246
 7290SOL    HW133503   2.241   3.806  15.827  0.5707 -0.4680 -1.1708
 7290SOL    HW233504   2.360   3.758  15.754 -1.0032  0.1220 -1.2384
 7291SOL     OW33505   1.272   1.710   7.434 -0.2975 -0.4080 -0.0915
 7291SOL    HW133506   1.179   1.723   7.420  0.0159 -1.3649 -2.9132
 7291SOL    HW233507   1.267   1.614   7.440 -0.4549 -0.2969  1.6272
 7292SOL     OW33508   1.476   0.045  13.984 -0.2654  0.1766 -0.4165
 7292SOL    HW133509   1.452   4.721  13.912  1.9790 -1.0362 -0.1598
 7292SOL    HW233510   1.568   0.021  13.985  0.0764  1.4850 -0.9624
 7293SOL     OW33511   1.165   0.892   7.936 -0.0868 -0.7709 -1.1687
 7293SOL    HW133512   1.209   0.808   7.948  0.9795  0.3379  2.5503
 7293SOL    HW233513   1.156   0.924   8.026 -1.0851 -3.8750 -0.1628
 7294SOL     OW33514   4.018   0.431   2.353  0.2685  0.0887  0.1406
 7294SOL    HW133515   4.019   0.526   2.341  0.7304  0.2984  1.8264
 7294SOL    HW233516   4.012   0.398   2.263 -3.4143 -1.5833  0.9545
 7295SOL     OW33517   3.872   1.901   9.695  0.0770  0.1911  0.5805
 7295SOL    HW133518   3.831   1.967   9.750  1.0885 -0.8128  2.5268
 7295SOL    HW233519   3.865   1.820   9.745  1.9291  0.0481  0.6240
 7296SOL     OW33520   1.223   1.630   3.205  0.5824 -0.0878 -0.4565
 7296SOL    HW133521   1.228   1.711   3.256 -1.3442  0.2498 -0.7830
 7296SOL    HW233522   1.227   1.570   3.279  0.7995 -0.1901 -0.5520
 7297SOL     OW33523   0.905   2.166   7.805  0.5016  0.0301  0.6282
 7297SOL    HW133524   0.829   2.176   7.862 -0.0709 -0.5905 -0.0368
 7297SOL    HW233525   0.971   2.221   7.849  0.4302  0.2950  0.4043
 7298SOL     OW33526   3.693   0.941   4.510 -0.1854  0.3897  0.0149
 7298SOL    HW133527   3.603   0.965   4.531  0.1896  3.0713 -1.4062
 7298SOL    HW233528   3.736   1.024   4.535 -0.4612  1.1889 -2.1107
 7299SOL     OW33529   0.746   0.659   8.570  0.2561 -0.0520  0.6982
 7299SOL    HW133530   0.722   0.688   8.658  0.9540 -1.0982  1.2367
 7299SOL    HW233531   0.788   0.579   8.603  0.4544  0.1157  0.8600
 7300SOL     OW33532   1.452   3.580   5.273  0.5966 -0.2200  0.0759
 7300SOL    HW133533   1.440   3.631   5.353 -0.8706  0.5289 -0.6285
 7300SOL    HW233534   1.546   3.566   5.285  0.8024  1.2620  0.0946
 7301SOL     OW33535   3.403   1.856   2.105 -0.1999  0.3464  0.3735
 7301SOL    HW133536   3.477   1.878   2.162 -0.2468  0.8625  0.2338
 7301SOL    HW233537   3.373   1.947   2.096 -2.7431 -0.5773 -0.4018
 7302SOL     OW33538   1.933   4.575   3.376  0.5496 -0.1348  0.1153
 7302SOL    HW133539   1.968   4.505   3.432  0.8927  1.1260  1.4671
 7302SOL    HW233540   1.917   4.639   3.444  1.8332 -0.3886  0.6635
 7303SOL     OW33541   1.049   1.327   7.616 -0.0062  0.0430 -0.4431
 7303SOL    HW133542   1.108   1.262   7.580 -1.3616 -1.1643 -0.5015
 7303SOL    HW233543   1.097   1.403   7.582 -0.7107 -0.2843 -2.1668
 7304SOL     OW33544   2.172   2.264   2.182  0.1384  0.0502 -0.0620
 7304SOL    HW133545   2.172   2.203   2.108 -0.5647  1.1810 -1.0039
 7304SOL    HW233546   2.158   2.208   2.258  1.4183 -0.0940  0.0549
 7305SOL     OW33547   0.070   1.127   8.170 -0.2828  0.0366  0.0623
 7305SOL    HW133548   0.047   1.203   8.116 -2.3772  1.3821  2.8942
 7305SOL    HW233549   0.051   1.060   8.104  0.1801  1.5039 -1.5506
 7306SOL     OW33550   3.243   0.375   5.715  0.2388 -0.3125 -0.2647
 7306SOL    HW133551   3.303   0.412   5.651 -0.9734 -0.5219 -1.5019
 7306SOL    HW233552   3.295   0.386   5.795  0.8603 -2.1827 -0.4134
 7307SOL     OW33553   1.341   2.589   7.920 -0.0893 -0.1066  0.4382
 7307SOL    HW133554   1.327   2.541   7.838  0.2774 -1.0190  0.9099
 7307SOL    HW233555   1.404   2.535   7.969 -1.0503 -0.1367  1.6545
 7308SOL     OW33556   3.333   0.593   7.800  0.0740 -0.0741 -0.9026
 7308SOL    HW133557   3.324   0.549   7.716 -0.2754  1.1022 -1.4732
 7308SOL    HW233558   3.343   0.510   7.848  2.0047 -0.1336 -1.4069
 7309SOL     OW33559   2.591   2.157   9.599 -1.0284  0.2370 -0.1618
 7309SOL    HW133560   2.576   2.068   9.632  1.7006 -0.0800  0.2170
 7309SOL    HW233561   2.685   2.166   9.613 -1.4284  1.2665  1.9352
 7310SOL     OW33562   1.756   2.556  13.100  0.0205  0.1178  0.0714
 7310SOL    HW133563   1.770   2.487  13.164  1.4263  1.3711  1.1036
 7310SOL    HW233564   1.674   2.596  13.128 -0.2468 -0.7276  0.5075
 7311SOL     OW33565   4.557   4.181   6.065  0.1616 -0.1018 -0.2454
 7311SOL    HW133566   4.614   4.145   6.132  0.0205  0.8861  0.3983
 7311SOL    HW233567   4.615   4.234   6.011  0.9155 -0.8065 -0.1174
 7312SOL     OW33568   1.656   4.605  10.295 -0.2709 -0.4245 -0.1741
 7312SOL    HW133569   1.564   4.614  10.268  0.5704  0.1274 -2.8692
 7312SOL    HW233570   1.687   4.601  10.204 -0.0404 -1.1701 -0.0616
 7313SOL     OW33571   2.404   4.065   6.974  0.4546 -0.0397 -0.0937
 7313SOL    HW133572   2.411   4.157   6.951  2.0699  0.0348  0.7116
 7313SOL    HW233573   2.319   4.055   7.017  1.9519 -1.0435  2.6121
 7314SOL     OW33574   1.742   0.362   8.999 -0.0785  0.1035 -0.3115
 7314SOL    HW133575   1.760   0.430   8.934 -3.2971  0.4917 -0.7770
 7314SOL    HW233576   1.817   0.304   8.981  0.1432  0.1596  0.4505
 7315SOL     OW33577   0.845   3.791   8.848 -0.0275  0.2463  0.7314
 7315SOL    HW133578   0.882   3.812   8.763 -0.9391 -0.7321  0.0965
 7315SOL    HW233579   0.932   3.769   8.881  0.7636 -0.4147 -1.7840
 7316SOL     OW33580   3.399   3.484  12.431  0.9758 -0.2130  0.3284
 7316SOL    HW133581   3.411   3.496  12.337 -0.1510  3.5737  0.6509
 7316SOL    HW233582   3.414   3.391  12.443  2.3672 -0.0341 -0.0573
 7317SOL     OW33583   2.344   3.598   9.804  0.0433  0.5360  0.0106
 7317SOL    HW133584   2.319   3.683   9.839  2.2969  0.9934  0.5637
 7317SOL    HW233585   2.416   3.622   9.746 -0.2352  0.5763 -0.3167
 7318SOL     OW33586   4.274   2.538  15.980  0.1405 -0.6031 -0.2407
 7318SOL    HW133587   4.257   2.591  15.902 -2.1922  0.1661  0.7975
 7318SOL    HW233588   4.368   2.522  15.971  0.3973 -0.1345  1.5763
 7319SOL     OW33589   2.323   2.983   4.096  0.3676  0.8940  0.0357
 7319SOL    HW133590   2.265   3.037   4.042 -1.8670 -1.4412  0.1441
 7319SOL    HW233591   2.345   2.910   4.039 -0.3328  0.2927  0.5325
 7320SOL     OW33592   1.469   3.276   9.226  0.0062  0.3666  0.1322
 7320SOL    HW133593   1.466   3.213   9.154 -3.4025  0.4920  0.1307
 7320SOL    HW233594   1.490   3.358   9.182  0.5269  0.0835 -0.1407
 7321SOL     OW33595   3.469   1.909   3.016  0.4356  0.1153 -0.5382
 7321SOL    HW133596   3.413   1.847   2.968  1.0543 -2.3603  1.9828
 7321SOL    HW233597   3.512   1.845   3.072  1.0170  1.3543  0.4278
 7322SOL     OW33598   1.109   3.979   6.101  0.0144  0.1017 -0.2659
 7322SOL    HW133599   1.191   3.956   6.146  0.6915  1.8703 -0.5908
 7322SOL    HW233600   1.134   4.008   6.014 -0.7981  1.5558 -0.0086
 7323SOL     OW33601   3.845   4.620   2.685  0.7203 -0.2156  0.0302
 7323SOL    HW133602   3.892   4.687   2.634 -1.6765  0.5366 -1.1805
 7323SOL    HW233603   3.824   4.669   2.764  0.9902  0.0360 -0.0554
 7324SOL     OW33604   2.624   1.536   4.006  0.2779 -0.0216 -0.6426
 7324SOL    HW133605   2.663   1.453   3.978  0.2463 -1.0993  2.5639
 7324SOL    HW233606   2.700   1.591   3.985 -0.3333  1.0380 -0.0746
 7325SOL     OW33607   4.394   1.119  12.570 -0.3005  0.2896  0.1563
 7325SOL    HW133608   4.325   1.052  12.575  0.7155 -0.8713 -1.1311
 7325SOL    HW233609   4.430   1.139  12.483 -1.9535 -1.0513 -0.8326
 7326SOL     OW33610   4.577   3.785   3.581  0.7791 -0.2357 -0.1307
 7326SOL    HW133611   4.542   3.815   3.497  1.2593 -0.8277 -0.5360
 7326SOL    HW233612   4.528   3.832   3.648 -0.8760  0.8747 -2.1194
 7327SOL     OW33613   0.557   0.921   8.046 -0.7992 -0.4116  0.7596
 7327SOL    HW133614   0.639   0.970   8.035 -1.4324  0.9010  1.8882
 7327SOL    HW233615   0.504   0.998   8.066 -0.4871 -0.1847  0.7236
 7328SOL     OW33616   1.100   4.404   5.880 -0.3057 -0.0363  0.6017
 7328SOL    HW133617   1.118   4.313   5.858 -1.9907 -0.2778  0.2174
 7328SOL    HW233618   1.015   4.398   5.925 -0.1430  0.3753  0.9681
 7329SOL     OW33619   3.077   0.327   1.976  0.0522  0.2760  0.3505
 7329SOL    HW133620   2.992   0.330   1.932  1.1099  0.4545 -1.6621
 7329SOL    HW233621   3.135   0.301   1.905 -0.5572 -0.7978  0.2461
 7330SOL     OW33622   4.647   0.061   2.762 -0.1156 -0.0220 -0.4689
 7330SOL    HW133623   0.004   0.069   2.784 -0.9138  2.4059  2.0677
 7330SOL    HW233624   4.645   0.024   2.674 -0.7272  0.3998 -0.6351
 7331SOL     OW33625   1.179   4.282  12.091 -0.1197  0.0756  0.0794
 7331SOL    HW133626   1.123   4.345  12.046  0.0228  1.0310  1.2195
 7331SOL    HW233627   1.221   4.329  12.163  1.3490 -0.7181 -0.2586
 7332SOL     OW33628   4.636   1.909   5.204 -0.0638 -0.2482 -0.3198
 7332SOL    HW133629   4.604   1.822   5.182 -0.1281  0.6062 -3.7157
 7332SOL    HW233630   4.650   1.955   5.121 -2.8456 -0.7499 -1.0754
 7333SOL     OW33631   1.529   3.040  12.975 -0.5237  0.0323 -0.2801
 7333SOL    HW133632   1.448   3.046  13.026  1.0283 -0.5725  2.1971
 7333SOL    HW233633   1.585   3.047  13.051  0.8535 -1.8988 -1.1257
 7334SOL     OW33634   3.278   3.698   4.193  0.7485 -0.6935 -0.3683
 7334SOL    HW133635   3.291   3.791   4.170  1.4615 -0.9142 -0.8572
 7334SOL    HW233636   3.200   3.685   4.140  0.3596 -1.7662  0.4950
 7335SOL     OW33637   0.827   0.439   1.901 -0.8614 -0.1949  0.4811
 7335SOL    HW133638   0.907   0.455   1.951 -1.7147  0.0816  1.7542
 7335SOL    HW233639   0.856   0.370   1.841  0.0610  1.6395 -1.1718
 7336SOL     OW33640   2.464   2.000   8.175 -0.1705  0.0728 -0.1087
 7336SOL    HW133641   2.550   2.042   8.183  0.2101 -0.6794 -0.2685
 7336SOL    HW233642   2.473   1.938   8.103  2.1963 -1.6658  1.7186
 7337SOL     OW33643   2.691   2.235   4.527  0.1358 -0.1341  0.0721
 7337SOL    HW133644   2.612   2.285   4.507  0.4169 -0.7933 -2.6233
 7337SOL    HW233645   2.700   2.254   4.621 -0.6071 -1.5332  0.4241
 7338SOL     OW33646   3.189   4.241   9.205  0.1994  0.3874 -0.1428
 7338SOL    HW133647   3.244   4.216   9.132 -0.8521  3.1365 -1.8479
 7338SOL    HW233648   3.192   4.336   9.203  2.6824  0.2661 -0.9525
 7339SOL     OW33649   0.101   1.364   6.791 -0.3313  0.5628  0.5095
 7339SOL    HW133650   0.015   1.336   6.760 -0.3380  1.3918 -0.2006
 7339SOL    HW233651   0.141   1.413   6.719 -1.5419 -0.6962 -1.0133
 7340SOL     OW33652   2.899   3.491   3.397  0.1782 -0.3072 -0.1786
 7340SOL    HW133653   2.872   3.401   3.413  1.9723 -0.4597  2.0779
 7340SOL    HW233654   2.994   3.493   3.413  0.1201  0.9049  0.0341
 7341SOL     OW33655   2.073   3.730  16.195  0.0367 -0.0290 -0.1145
 7341SOL    HW133656   1.991   3.763  16.158 -0.7277 -2.6535 -0.7723
 7341SOL    HW233657   2.083   3.810  16.248 -0.6288  0.5194 -0.8201
 7342SOL     OW33658   3.300   1.055   0.629 -0.4095 -0.4034  0.1230
 7342SOL    HW133659   3.218   1.090   0.664 -0.2717  0.9210 -0.8559
 7342SOL    HW233660   3.324   1.128   0.572 -0.9782  1.5791  2.4684
 7343SOL     OW33661   3.116   0.038   3.709  0.3283  0.0472 -0.3571
 7343SOL    HW133662   3.041   0.025   3.767  0.6662 -0.7567 -0.1030
 7343SOL    HW233663   3.143   0.124   3.742  0.4758  0.2548 -1.0325
 7344SOL     OW33664   2.112   3.070   9.358  0.3636  0.2101  0.0452
 7344SOL    HW133665   2.092   3.076   9.451 -1.7729 -3.7536 -0.1566
 7344SOL    HW233666   2.100   2.976   9.350  1.4731  0.1709 -1.1480
 7345SOL     OW33667   2.580   2.695   6.780  0.0890 -0.0620  0.4329
 7345SOL    HW133668   2.594   2.614   6.730  0.0629  0.2985 -0.1500
 7345SOL    HW233669   2.668   2.712   6.813  0.2560  2.0541 -1.1230
 7346SOL     OW33670   1.500   3.762  16.735 -0.6035  0.3860  0.7045
 7346SOL    HW133671   1.476   3.706  16.809  0.7117  1.0935  1.6605
 7346SOL    HW233672   1.594   3.769  16.751 -0.7276  1.7266  0.8245
 7347SOL     OW33673   1.631   2.555   4.804  0.6775  0.0732  0.2552
 7347SOL    HW133674   1.587   2.507   4.875  1.5521 -1.3251 -0.1480
 7347SOL    HW233675   1.576   2.630   4.785 -0.8584 -1.6400 -1.9088
 7348SOL     OW33676   1.688   0.074   4.816 -0.0122  0.1031  0.0600
 7348SOL    HW133677   1.666   0.008   4.882 -0.3005  0.7334  0.5975
 7348SOL    HW233678   1.782   0.067   4.797 -0.7748  0.6464 -3.8095
 7349SOL     OW33679   0.093   2.283   9.647  0.1896 -0.2640  0.2588
 7349SOL    HW133680   0.016   2.299   9.592 -0.1986 -0.6098  0.7008
 7349SOL    HW233681   0.118   2.192   9.633  1.5640  0.4367 -1.7173
 7350SOL     OW33682   0.362   0.319  12.094 -0.0426 -0.0802  0.1859
 7350SOL    HW133683   0.449   0.358  12.093 -0.6987  1.3494 -2.0162
 7350SOL    HW233684   0.335   0.346  12.006  1.6325 -2.6206 -1.1183
 7351SOL     OW33685   2.280   1.635   1.399 -0.0075 -0.0940 -0.1855
 7351SOL    HW133686   2.221   1.710   1.411  0.3473  0.3619 -1.3750
 7351SOL    HW233687   2.338   1.636   1.475  0.7573 -2.0348 -0.7485
 7352SOL     OW33688   4.159   3.208   5.239  0.2375  0.7329  0.5429
 7352SOL    HW133689   4.210   3.270   5.187 -1.5973  1.4689 -0.3771
 7352SOL    HW233690   4.224   3.137   5.239  0.6896  1.1526 -0.4136
 7353SOL     OW33691   3.977   1.932   3.849 -0.4486  0.4750  0.0698
 7353SOL    HW133692   3.914   1.904   3.782 -1.0100 -1.9021  1.5809
 7353SOL    HW233693   4.047   1.867   3.840  0.4142  1.2251  1.4055
 7354SOL     OW33694   2.350   2.249   7.845  0.0379  0.2143 -0.0530
 7354SOL    HW133695   2.327   2.250   7.752  1.4961  0.1972 -0.4191
 7354SOL    HW233696   2.443   2.229   7.834 -0.7127 -1.9545 -2.4100
 7355SOL     OW33697   1.518   3.554   6.082  0.2241 -0.1730  0.1839
 7355SOL    HW133698   1.573   3.611   6.029 -1.0002  0.9415  0.1202
 7355SOL    HW233699   1.571   3.534   6.158 -1.4486 -3.6418  0.4721
 7356SOL     OW33700   1.191   3.723   8.454  0.2157  0.1163 -0.1258
 7356SOL    HW133701   1.236   3.795   8.498 -1.0892 -0.4259  2.1040
 7356SOL    HW233702   1.100   3.753   8.449 -0.3527 -1.3448  1.3895
 7357SOL     OW33703   0.681   3.582   0.216 -0.8283 -0.6009  0.6260
 7357SOL    HW133704   0.753   3.560   0.276 -1.4083 -0.9385  1.2027
 7357SOL    HW233705   0.732   3.612   0.141 -0.0008 -1.7250  0.7319
 7358SOL     OW33706   4.327   1.587   2.672 -0.6152 -0.1761 -0.2740
 7358SOL    HW133707   4.339   1.574   2.578 -1.9300 -0.5963 -0.3855
 7358SOL    HW233708   4.322   1.503   2.717 -0.6609 -1.0465 -1.9222
 7359SOL     OW33709   2.847   1.658  13.078 -0.3083 -0.4824  0.0210
 7359SOL    HW133710   2.879   1.745  13.101  0.0085 -1.5511  3.5706
 7359SOL    HW233711   2.771   1.682  13.026 -2.1507 -0.0703  2.9112
 7360SOL     OW33712   2.172   1.359   3.059 -0.1662 -0.1440  0.3335
 7360SOL    HW133713   2.141   1.299   3.126 -1.1902 -0.4740 -0.4439
 7360SOL    HW233714   2.156   1.313   2.976 -0.3880  0.0193  0.2839
 7361SOL     OW33715   1.913   0.849   2.146  0.2723 -0.2581  0.7429
 7361SOL    HW133716   1.968   0.828   2.070 -0.1012 -3.0395  1.2453
 7361SOL    HW233717   1.862   0.769   2.132  1.5928 -0.6899 -1.8158
 7362SOL     OW33718   4.531   3.385   8.162 -0.5970 -0.0024  0.4338
 7362SOL    HW133719   4.525   3.481   8.160 -1.0091 -0.0588 -0.8603
 7362SOL    HW233720   4.459   3.359   8.105 -0.6040  0.2306  0.3332
 7363SOL     OW33721   1.042   3.609   5.096  0.0890 -0.1799 -0.2102
 7363SOL    HW133722   1.137   3.606   5.100 -0.0016 -0.5717  1.8819
 7363SOL    HW233723   1.043   3.624   5.002  2.0163 -0.5033 -0.2464
 7364SOL     OW33724   2.886   1.924  13.213  0.4001 -0.1737 -0.9621
 7364SOL    HW133725   2.852   2.012  13.201  0.6159  0.2085  1.2962
 7364SOL    HW233726   2.979   1.943  13.202  0.2555  0.6726 -0.6977
 7365SOL     OW33727   2.922   2.403   9.502 -0.5459 -0.2275 -0.3859
 7365SOL    HW133728   2.924   2.497   9.489  2.4847 -0.0692  1.2999
 7365SOL    HW233729   2.971   2.395   9.583 -0.8149  2.0982  0.0026
 7366SOL     OW33730   0.400   2.989  10.309 -0.0466  0.2073 -0.1437
 7366SOL    HW133731   0.451   3.045  10.369 -2.6580 -0.5796  2.7976
 7366SOL    HW233732   0.351   2.932  10.369 -2.3104  0.9199 -1.3251
 7367SOL     OW33733   3.403   2.204   6.142  0.3038 -0.3617 -0.0823
 7367SOL    HW133734   3.443   2.158   6.068  0.1823  1.5267 -1.3147
 7367SOL    HW233735   3.368   2.126   6.185 -0.0926  1.1434  2.3308
 7368SOL     OW33736   2.685   1.732   2.417 -0.1904  0.7614 -0.0910
 7368SOL    HW133737   2.724   1.696   2.497 -1.5324 -0.6108 -0.0631
 7368SOL    HW233738   2.763   1.774   2.382  1.2539 -1.0903  0.8910
 7369SOL     OW33739   1.018   2.441  11.821 -0.3513  0.2638 -0.2051
 7369SOL    HW133740   1.018   2.347  11.800 -1.3275  0.0831  0.5662
 7369SOL    HW233741   1.074   2.477  11.752  3.0965 -1.9724  1.4358
 7370SOL     OW33742   0.021   2.544   8.515  0.4176 -0.0532 -0.6521
 7370SOL    HW133743   0.091   2.604   8.488 -0.0358  0.5623 -0.4436
 7370SOL    HW233744   4.681   2.600   8.504  0.0038 -0.8334 -1.7270
 7371SOL     OW33745   1.719   2.148  17.097 -0.5122  0.2822  0.0570
 7371SOL    HW133746   1.634   2.185  17.119  0.9578  3.4600  0.2964
 7371SOL    HW233747   1.686   2.061  17.072  0.0816 -0.3811  1.5325
 7372SOL     OW33748   3.207   1.974   6.869 -0.3251  0.4309  0.9989
 7372SOL    HW133749   3.263   1.913   6.917  0.1409  0.2629  0.2352
 7372SOL    HW233750   3.122   1.964   6.912 -0.0361  1.9944  1.9419
 7373SOL     OW33751   1.134   4.027  10.462 -0.3124 -0.2153  0.2637
 7373SOL    HW133752   1.068   4.055  10.525 -1.7745  0.4797 -1.5815
 7373SOL    HW233753   1.205   4.090  10.468 -0.5364  0.2209 -1.7501
 7374SOL     OW33754   1.402   2.059   7.599 -0.4454  0.8874  0.0786
 7374SOL    HW133755   1.375   2.028   7.513 -1.8705 -0.1273  0.8965
 7374SOL    HW233756   1.316   2.060   7.641 -0.2483  0.8724  0.4795
 7375SOL     OW33757   0.614   2.016   7.495  0.1367 -0.1910  0.4436
 7375SOL    HW133758   0.572   2.099   7.471  0.8981 -0.0927 -0.5332
 7375SOL    HW233759   0.565   2.007   7.577 -0.0173 -0.3989  0.3279
 7376SOL     OW33760   0.010   0.979   5.866  0.0351  0.0301 -0.7440
 7376SOL    HW133761   4.691   0.950   5.939 -0.4851 -0.3272 -1.2878
 7376SOL    HW233762   0.078   1.026   5.916  0.0918 -0.2956 -0.5110
 7377SOL     OW33763   1.617   4.706   9.106  0.1162  0.0132  0.0724
 7377SOL    HW133764   1.673   4.629   9.117  1.7702  1.0790 -1.0625
 7377SOL    HW233765   1.644   0.002   9.020 -0.8296  0.8593  0.0831
 7378SOL     OW33766   2.815   1.079   0.406  0.2329  0.3698 -1.1878
 7378SOL    HW133767   2.767   0.998   0.388 -0.6292  0.0495  2.5202
 7378SOL    HW233768   2.764   1.138   0.350  0.5157  0.0164 -1.8143
 7379SOL     OW33769   1.427   2.313  15.204  0.4816 -0.0140  0.3343
 7379SOL    HW133770   1.439   2.271  15.119 -0.1373  0.9655 -0.2387
 7379SOL    HW233771   1.442   2.404  15.177  0.7627 -1.0072 -2.8879
 7380SOL     OW33772   1.879   0.788  17.298  0.2657  0.6075 -0.1822
 7380SOL    HW133773   1.868   0.882  17.285 -0.1344  0.4291 -1.1186
 7380SOL    HW233774   1.974   0.776  17.301  0.3212  1.7135  2.3000
 7381SOL     OW33775   3.315   3.151   6.312 -0.0209  0.3912 -0.1425
 7381SOL    HW133776   3.271   3.075   6.349 -1.8258  0.2412 -2.6399
 7381SOL    HW233777   3.349   3.194   6.390  0.8360  0.4872 -0.5665
 7382SOL     OW33778   2.482   0.315   6.597  0.4986 -0.8903  0.3426
 7382SOL    HW133779   2.563   0.363   6.614  0.4870 -0.2758 -1.2533
 7382SOL    HW233780   2.483   0.301   6.502 -2.5861  0.7579  0.0438
 7383SOL     OW33781   4.082   2.983   6.848  0.0300 -0.1365 -0.0955
 7383SOL    HW133782   4.000   3.031   6.852  0.4114  0.6144 -1.3975
 7383SOL    HW233783   4.142   3.057   6.841  0.0810 -0.1237  0.4510
 7384SOL     OW33784   1.692   2.936   9.577 -0.0071 -0.2012  0.1717
 7384SOL    HW133785   1.640   3.005   9.536  1.6211 -0.8213 -2.9849
 7384SOL    HW233786   1.729   2.892   9.501  0.0140  1.2116 -0.6388
 7385SOL     OW33787   4.695   4.619   2.424 -0.3698 -0.2915 -0.2570
 7385SOL    HW133788   4.710   4.613   2.330 -1.1966  1.8616 -0.5329
 7385SOL    HW233789   4.600   4.607   2.430 -0.6638  3.0061  1.9009
 7386SOL     OW33790   4.045   3.509   1.498 -0.8518  0.0685 -0.3215
 7386SOL    HW133791   4.122   3.556   1.529 -0.9986  1.1726 -1.6679
 7386SOL    HW233792   3.982   3.501   1.570 -0.8561  3.1803  0.0299
 7387SOL     OW33793   1.700   1.379   1.916  0.1966  0.0369 -0.3449
 7387SOL    HW133794   1.624   1.331   1.949  0.7003  0.0797  0.8653
 7387SOL    HW233795   1.698   1.343   1.827  0.2871 -1.0478  0.0897
 7388SOL     OW33796   1.707   3.055   2.653  0.1926  0.2071 -0.0203
 7388SOL    HW133797   1.627   3.106   2.642  1.2678  1.8550 -0.0807
 7388SOL    HW233798   1.692   2.982   2.593  0.5119  0.2002 -0.0912
 7389SOL     OW33799   2.408   0.739   7.859 -0.2718  0.1896  0.5140
 7389SOL    HW133800   2.408   0.786   7.942  0.9540 -1.5621  1.5207
 7389SOL    HW233801   2.503   0.732   7.851 -0.4417  1.1668 -2.3427
 7390SOL     OW33802   1.940   4.606   8.087  0.4046 -0.0890 -0.0364
 7390SOL    HW133803   1.893   4.665   8.146  0.8623 -0.5507  0.8079
 7390SOL    HW233804   1.961   4.532   8.145  1.7493  1.6454  1.6703
 7391SOL     OW33805   0.506   1.696  10.262 -0.1747 -0.3142  0.7062
 7391SOL    HW133806   0.508   1.743  10.178 -0.3580  1.0229  1.4557
 7391SOL    HW233807   0.473   1.763  10.321 -2.3101 -0.1704 -0.6643
 7392SOL     OW33808   0.107   4.135   2.590  0.5702  0.1604  0.0611
 7392SOL    HW133809   0.115   4.053   2.542 -1.3988  0.3579 -0.6132
 7392SOL    HW233810   0.080   4.194   2.519 -0.3696  0.8356  0.9736
 7393SOL     OW33811   2.045   0.062  17.507  0.5297  0.1551 -0.4518
 7393SOL    HW133812   1.956   0.076  17.539  1.3494  0.7173  1.6392
 7393SOL    HW233813   2.060   4.704  17.520  1.3883  0.3531  0.0455
 7394SOL     OW33814   0.714   1.212   7.963 -0.6209  0.2291 -0.2156
 7394SOL    HW133815   0.715   1.280   8.030 -0.4365 -0.5541  0.5737
 7394SOL    HW233816   0.803   1.175   7.966  0.0216  1.5875 -2.0098
 7395SOL     OW33817   0.099   2.027   9.538 -0.3752  0.0161 -0.1265
 7395SOL    HW133818   0.135   2.043   9.451  3.6523  2.7526  2.0269
 7395SOL    HW233819   0.014   1.988   9.519 -1.6975  2.7604  0.1200
 7396SOL     OW33820   0.362   0.877   7.103  0.6874  0.3895  0.1238
 7396SOL    HW133821   0.372   0.968   7.132 -0.1829  0.8224 -0.9059
 7396SOL    HW233822   0.452   0.846   7.112  0.8212  0.7784  0.1159
 7397SOL     OW33823   1.622   1.220  15.107 -0.0720 -0.3760 -0.4598
 7397SOL    HW133824   1.671   1.274  15.044  0.3633  0.2546  0.4209
 7397SOL    HW233825   1.696   1.197  15.162  0.6002  0.9200 -0.8142
 7398SOL     OW33826   1.540   0.964   6.869 -0.2401 -0.4852  0.0889
 7398SOL    HW133827   1.483   0.945   6.944 -1.0257  0.0715 -0.3677
 7398SOL    HW233828   1.617   0.923   6.907  0.3709  1.0502  0.4956
 7399SOL     OW33829   0.504   2.030  16.200 -0.0941  0.2562  0.0535
 7399SOL    HW133830   0.505   1.935  16.199 -3.6730  0.2221 -1.6550
 7399SOL    HW233831   0.549   2.050  16.282 -1.6382 -0.6410  1.1242
 7400SOL     OW33832   3.230   1.525  12.779  0.5937 -0.4537  0.3182
 7400SOL    HW133833   3.146   1.522  12.826  1.3544 -2.8025  1.5315
 7400SOL    HW233834   3.282   1.475  12.842  0.7169 -0.4934  0.1820
 7401SOL     OW33835   0.484   0.855   6.248 -0.0587 -0.5435  0.0559
 7401SOL    HW133836   0.541   0.812   6.312  1.9734  1.0552 -0.6882
 7401SOL    HW233837   0.509   0.947   6.241  0.8750 -0.8062  0.0465
 7402SOL     OW33838   0.079   0.006   7.978 -0.2349  0.7650 -0.1438
 7402SOL    HW133839   0.006   0.066   7.994  0.3437  1.1085  1.1719
 7402SOL    HW233840   0.098   4.726   8.071  0.0998  1.0846 -0.1599
 7403SOL     OW33841   4.350   2.623   7.241 -0.2458 -0.3097  0.1765
 7403SOL    HW133842   4.303   2.594   7.320 -0.8963 -0.2897 -0.2018
 7403SOL    HW233843   4.378   2.710   7.271  1.6303 -0.8427 -0.0688
 7404SOL     OW33844   1.651   4.483   9.693 -0.7604  0.3531 -0.2744
 7404SOL    HW133845   1.566   4.472   9.650 -0.1833  0.9365 -1.5640
 7404SOL    HW233846   1.638   4.414   9.758 -0.8881  0.1578 -0.5064
 7405SOL     OW33847   3.300   1.693   8.200 -0.4958 -0.7302  0.4677
 7405SOL    HW133848   3.218   1.644   8.196 -1.2344  0.5645 -0.2373
 7405SOL    HW233849   3.369   1.630   8.178 -0.5472 -1.0058  1.0809
 7406SOL     OW33850   3.156   3.392   9.243  0.9718  0.4348  0.0447
 7406SOL    HW133851   3.145   3.311   9.291  3.3057  0.0402 -0.0780
 7406SOL    HW233852   3.250   3.408   9.242  0.8547  1.2295  1.9740
 7407SOL     OW33853   2.963   2.593  10.219 -0.7252  0.3169 -0.0939
 7407SOL    HW133854   2.982   2.686  10.202  0.3904 -0.2954 -2.2069
 7407SOL    HW233855   2.882   2.577  10.170  1.1502 -0.5980 -2.8764
 7408SOL     OW33856   2.014   0.842   4.820 -0.1169 -0.0869  0.3627
 7408SOL    HW133857   1.991   0.839   4.913 -2.2242  3.7155 -0.0289
 7408SOL    HW233858   1.975   0.926   4.795  0.8187  0.6462  1.3948
 7409SOL     OW33859   4.344   4.435   5.835 -0.2096 -0.3101 -0.5788
 7409SOL    HW133860   4.274   4.489   5.872 -1.1015 -1.6633 -0.2703
 7409SOL    HW233861   4.339   4.444   5.740  1.1974  0.2045 -0.6026
 7410SOL     OW33862   2.223   0.422   9.226  0.2353 -0.5298  0.4381
 7410SOL    HW133863   2.219   0.327   9.215  0.5811 -0.3877 -0.9990
 7410SOL    HW233864   2.130   0.438   9.240  0.3607  0.9877 -0.4628
 7411SOL     OW33865   3.997   4.419   8.718  0.3016 -0.0990 -0.1699
 7411SOL    HW133866   4.081   4.465   8.717 -0.2628  0.9437  0.7170
 7411SOL    HW233867   4.023   4.337   8.760 -3.1566 -1.1608 -0.0739
 7412SOL     OW33868   2.460   1.619   1.602 -0.0175  0.1346  0.1901
 7412SOL    HW133869   2.549   1.636   1.570  0.1923 -2.9290 -0.8668
 7412SOL    HW233870   2.461   1.526   1.626  1.4599  0.3095  0.8499
 7413SOL     OW33871   1.461   4.338   5.589 -0.2184  0.6368 -0.3434
 7413SOL    HW133872   1.488   4.430   5.595  1.1814  0.0562  1.8502
 7413SOL    HW233873   1.537   4.285   5.614 -1.4193 -0.5170  0.8372
 7414SOL     OW33874   0.456   0.460   5.046  0.8052  0.3579  0.2942
 7414SOL    HW133875   0.507   0.526   4.998 -1.0411  0.4132 -1.6007
 7414SOL    HW233876   0.404   0.435   4.970  1.7775  2.0264 -0.9347
 7415SOL     OW33877   0.642   3.045   6.158  0.2316  0.1528 -0.4343
 7415SOL    HW133878   0.689   2.993   6.223 -0.7266  1.6318  1.4474
 7415SOL    HW233879   0.569   2.985   6.143 -0.7291  0.8375  1.5150
 7416SOL     OW33880   2.241   3.030   8.876 -0.1767 -0.0653  0.5352
 7416SOL    HW133881   2.216   3.120   8.856 -1.1773 -0.9687 -2.1877
 7416SOL    HW233882   2.319   3.036   8.932 -0.2059 -1.0729  0.6873
 7417SOL     OW33883   0.899   3.396   6.131  0.2064  0.3508  0.1282
 7417SOL    HW133884   0.883   3.385   6.224  0.2305 -0.6310  0.0159
 7417SOL    HW233885   0.886   3.309   6.093  2.2559 -0.3312  1.0207
 7418SOL     OW33886   2.324   0.668  15.920  0.3076 -0.6739 -0.3344
 7418SOL    HW133887   2.372   0.700  15.997 -1.0107  0.0600  0.1799
 7418SOL    HW233888   2.372   0.720  15.855  0.3683 -0.9753 -0.5279
 7419SOL     OW33889   3.012   4.329   8.440  0.2542  0.1544  0.2302
 7419SOL    HW133890   3.058   4.398   8.393  1.3066 -0.7232 -0.0086
 7419SOL    HW233891   3.075   4.257   8.437  1.1609  0.9693 -0.2958
 7420SOL     OW33892   0.491   0.396   1.451  0.1013 -0.6706  1.2428
 7420SOL    HW133893   0.437   0.343   1.393  1.3505 -2.1901  1.4961
 7420SOL    HW233894   0.579   0.394   1.413  0.3006 -0.2560  1.6751
 7421SOL     OW33895   0.903   1.964   4.829 -0.5532  0.1229 -0.3689
 7421SOL    HW133896   0.979   1.956   4.886 -0.6132 -3.8497 -0.8722
 7421SOL    HW233897   0.869   2.034   4.885 -0.8921  0.2271 -0.7053
 7422SOL     OW33898   0.744   1.681   7.116 -0.3518  0.3343 -0.2001
 7422SOL    HW133899   0.651   1.671   7.138 -0.2077 -2.6911 -1.0338
 7422SOL    HW233900   0.778   1.697   7.205 -1.5408 -0.8038  0.4572
 7423SOL     OW33901   1.997   0.164   1.116  0.4192  0.2162  0.1801
 7423SOL    HW133902   1.989   0.097   1.184  1.5053 -1.3473 -1.2088
 7423SOL    HW233903   2.063   0.218   1.159 -2.1856  2.9505  0.7190
 7424SOL     OW33904   0.543   2.642   0.754 -0.0191  0.3504  0.6366
 7424SOL    HW133905   0.464   2.599   0.721 -0.0431  0.9639 -0.1196
 7424SOL    HW233906   0.506   2.722   0.790 -0.0653  0.8320 -0.4776
 7425SOL     OW33907   1.770   1.397   8.218 -0.0237 -0.2341  1.0072
 7425SOL    HW133908   1.830   1.344   8.165  2.6846  0.4965  3.3861
 7425SOL    HW233909   1.827   1.455   8.268  1.7619 -1.5154  0.4502
 7426SOL     OW33910   4.211   0.930   4.130 -0.1062 -0.1703 -0.5631
 7426SOL    HW133911   4.204   0.837   4.107  1.4322 -1.1355  2.8074
 7426SOL    HW233912   4.122   0.959   4.107 -1.0850 -3.4567 -0.9485
 7427SOL     OW33913   2.645   3.200   7.597  0.0322  0.1265 -0.0724
 7427SOL    HW133914   2.552   3.217   7.582  0.2813  2.2387  0.7369
 7427SOL    HW233915   2.653   3.232   7.687 -0.7107  0.2168 -0.0349
 7428SOL     OW33916   1.283   4.650   9.047 -0.5891 -0.2604  0.4715
 7428SOL    HW133917   1.325   4.735   9.031 -2.3518  0.9004  2.0098
 7428SOL    HW233918   1.200   4.684   9.081 -0.2747 -0.6941  1.6346
 7429SOL     OW33919   0.912   0.192   4.812 -0.2315 -0.1658 -0.3828
 7429SOL    HW133920   0.895   0.160   4.723  0.1824 -0.0441 -0.5028
 7429SOL    HW233921   0.824   0.226   4.829  0.5932  1.8676 -0.2114
 7430SOL     OW33922   4.234   2.872  12.276 -0.5418 -0.5181 -0.3842
 7430SOL    HW133923   4.319   2.882  12.233  0.3021  1.3581  1.7045
 7430SOL    HW233924   4.186   2.841  12.199 -1.0338 -1.2497  0.2108
 7431SOL     OW33925   3.356   3.239  15.108 -0.0822  0.0506  0.0575
 7431SOL    HW133926   3.288   3.214  15.045 -0.0691  0.3835 -0.0868
 7431SOL    HW233927   3.346   3.170  15.173 -0.5305 -0.2187 -0.2994
 7432SOL     OW33928   2.984   2.969   8.982  0.2733  0.3725  0.1106
 7432SOL    HW133929   2.979   2.879   9.015 -0.8890  0.8108  1.1373
 7432SOL    HW233930   3.076   2.994   8.988 -0.1778  2.1574 -0.3472
 7433SOL     OW33931   2.628   4.734   7.805 -0.5726  0.0410  0.4506
 7433SOL    HW133932   2.594   4.647   7.781 -2.9069  1.1913 -0.4236
 7433SOL    HW233933   2.667   4.720   7.892  2.2021  3.2013 -0.2907
 7434SOL     OW33934   4.173   2.645   7.635  0.1563  0.1771 -0.2241
 7434SOL    HW133935   4.189   2.723   7.582  0.9939  0.6575  0.7377
 7434SOL    HW233936   4.079   2.652   7.653  0.8095  1.1522  2.8597
 7435SOL     OW33937   0.521   1.228  15.897 -0.2513 -0.1403  0.0811
 7435SOL    HW133938   0.457   1.191  15.837  0.7984  1.8003 -2.2309
 7435SOL    HW233939   0.590   1.161  15.894  1.0707  1.2543 -0.9189
 7436SOL     OW33940   3.522   2.931   6.561  0.5315  0.0481 -0.7250
 7436SOL    HW133941   3.527   2.898   6.650  1.2222  2.4236  0.1376
 7436SOL    HW233942   3.479   3.015   6.576  0.0806 -0.2637 -0.2891
 7437SOL     OW33943   2.238   4.723   9.338  0.1535 -0.6366  0.0555
 7437SOL    HW133944   2.264   0.071   9.300 -2.3923  0.7279  1.2758
 7437SOL    HW233945   2.312   4.663   9.333  0.4843 -0.3149  1.1174
 7438SOL     OW33946   2.544   0.064   2.294  0.3511  0.0909 -0.1181
 7438SOL    HW133947   2.627   0.104   2.268  0.2323  1.1055  1.0635
 7438SOL    HW233948   2.576   4.722   2.340  0.9203  1.3529  1.6205
 7439SOL     OW33949   1.447   2.126   0.992  0.6540 -0.1509 -0.1065
 7439SOL    HW133950   1.380   2.185   0.957 -2.3189 -2.5473  1.5261
 7439SOL    HW233951   1.397   2.045   0.997  0.9622 -0.1820  2.7716
 7440SOL     OW33952   3.272   4.161   2.830  0.2080 -0.4487 -0.0863
 7440SOL    HW133953   3.229   4.150   2.746  0.1677 -0.4874 -0.0607
 7440SOL    HW233954   3.336   4.089   2.835 -0.6308 -1.3117 -1.9573
 7441SOL     OW33955   2.493   2.011   8.780 -0.0043  0.6036 -0.2709
 7441SOL    HW133956   2.475   2.053   8.864 -1.1005 -0.1439 -0.1339
 7441SOL    HW233957   2.447   2.079   8.731 -0.9737  0.2681  0.1696
 7442SOL     OW33958   0.829   1.705   5.454 -0.8331  0.1468 -0.1400
 7442SOL    HW133959   0.769   1.727   5.525 -1.8532 -1.8086 -0.3929
 7442SOL    HW233960   0.884   1.639   5.495 -1.4619  0.1592  0.7165
 7443SOL     OW33961   4.045   2.025  10.253 -0.0804  0.0878  0.4860
 7443SOL    HW133962   4.058   2.080  10.330  3.6971 -0.0979 -0.0166
 7443SOL    HW233963   4.094   2.077  10.190 -1.0582  0.8463  0.3479
 7444SOL     OW33964   4.484   0.085   4.003  0.1559  0.3914  0.1294
 7444SOL    HW133965   4.483   0.048   4.091  2.2545  1.8346  0.7591
 7444SOL    HW233966   4.526   0.170   4.015  1.8295 -0.4115 -0.0437
 7445SOL     OW33967   2.379   4.014   5.551  0.1240  0.1175 -0.0983
 7445SOL    HW133968   2.319   3.970   5.611 -1.2688 -0.5527 -1.9686
 7445SOL    HW233969   2.426   3.935   5.524  0.1009 -0.8081  2.6395
 7446SOL     OW33970   2.042   0.598   1.186 -0.4656 -0.1553 -0.1128
 7446SOL    HW133971   2.027   0.629   1.096 -2.5455  1.3397  0.7710
 7446SOL    HW233972   2.090   0.672   1.222 -0.4389 -0.0506 -0.3595
 7447SOL     OW33973   0.077   4.328   7.231  0.6851 -0.3144  0.0132
 7447SOL    HW133974   0.080   4.232   7.223  0.0986 -0.2939 -0.4060
 7447SOL    HW233975   0.066   4.320   7.326 -0.5110 -3.2619 -0.3756
 7448SOL     OW33976   4.584   2.932   4.021 -0.1149 -0.1723  0.9123
 7448SOL    HW133977   4.489   2.938   4.028 -0.2299 -0.4642 -0.5119
 7448SOL    HW233978   4.596   2.855   3.965 -0.5554 -0.9580  1.8841
 7449SOL     OW33979   2.765   0.255   6.966  0.4703  0.5691  0.3253
 7449SOL    HW133980   2.785   0.276   6.875  0.2883  1.5759  0.5115
 7449SOL    HW233981   2.853   0.233   6.994  0.5698  0.1783 -0.2873
 7450SOL     OW33982   2.303   0.143   1.678 -0.0782 -0.4258  0.4293
 7450SOL    HW133983   2.245   0.218   1.663  0.3319 -0.1768  0.0586
 7450SOL    HW233984   2.263   0.095   1.750 -0.1064  1.7372  1.8625
 7451SOL     OW33985   4.202   2.968   5.895 -0.8682  0.1010  0.1907
 7451SOL    HW133986   4.203   2.962   5.990 -0.8771 -2.4316  0.0480
 7451SOL    HW233987   4.285   3.013   5.877 -0.0357 -0.3095  2.9927
 7452SOL     OW33988   4.209   1.967  16.040 -0.4688 -0.5669  0.2224
 7452SOL    HW133989   4.115   1.983  16.042 -0.0367  2.0406  0.1272
 7452SOL    HW233990   4.237   2.029  15.972 -1.2610  1.5328  1.8264
 7453SOL     OW33991   1.542   4.051   7.401  0.3626  0.0458 -0.2943
 7453SOL    HW133992   1.555   3.959   7.425  1.2209  0.5402  1.1088
 7453SOL    HW233993   1.606   4.065   7.331 -0.9864  2.2635 -1.0834
 7454SOL     OW33994   1.987   3.778   5.189 -0.5024 -0.4099  0.0729
 7454SOL    HW133995   2.008   3.745   5.101 -0.8633 -2.4822  0.7633
 7454SOL    HW233996   1.924   3.712   5.219  1.4209 -0.8407  3.1885
 7455SOL     OW33997   0.637   4.243   6.905  0.6087 -0.2093 -0.0253
 7455SOL    HW133998   0.652   4.216   6.995  0.7953 -1.7604 -0.5218
 7455SOL    HW233999   0.667   4.333   6.914  2.0110 -0.7436  0.5730
 7456SOL     OW34000   3.858   1.163   4.050 -0.6033 -0.3617 -0.1775
 7456SOL    HW134001   3.898   1.109   4.118 -0.5122  0.9308  0.7700
 7456SOL    HW234002   3.811   1.236   4.089  0.0265  1.1830 -2.3127
 7457SOL     OW34003   2.142   0.293   6.826 -0.3146 -0.0918  0.2777
 7457SOL    HW134004   2.093   0.375   6.820  0.1291  0.0503 -1.3220
 7457SOL    HW234005   2.106   0.235   6.759  1.5333  0.0656 -0.8584
 7458SOL     OW34006   0.895   4.089   8.406 -0.1426 -0.0884  0.1813
 7458SOL    HW134007   0.814   4.107   8.454  0.2162  1.3503  0.2695
 7458SOL    HW234008   0.909   3.996   8.420 -0.7662  0.1679  2.5602
 7459SOL     OW34009   3.719   0.957   5.636 -0.5713 -0.0828  0.3756
 7459SOL    HW134010   3.792   0.986   5.690 -0.5791  1.5194 -0.4887
 7459SOL    HW234011   3.694   1.038   5.592  2.2629  0.1654 -0.7172
 7460SOL     OW34012   2.504   0.288  14.411  0.1202 -0.0994  0.5500
 7460SOL    HW134013   2.545   0.206  14.383  2.4160  0.9727  0.8468
 7460SOL    HW234014   2.543   0.292  14.498  1.6164 -0.3444 -0.1212
 7461SOL     OW34015   1.521   1.616   9.945 -0.3130  0.3168 -0.0212
 7461SOL    HW134016   1.497   1.693   9.997 -2.2163 -1.4232  1.6750
 7461SOL    HW234017   1.609   1.640   9.914  0.0850  1.3219  1.8988
 7462SOL     OW34018   0.444   0.002  14.269  0.6959 -0.5562 -0.4080
 7462SOL    HW134019   0.425   0.007  14.363  0.6082 -0.3784 -0.4345
 7462SOL    HW234020   0.377   4.679  14.234  0.7320 -0.8357 -0.0137
 7463SOL     OW34021   1.636   0.760   0.301 -0.3050  0.5134 -0.2589
 7463SOL    HW134022   1.580   0.713   0.238 -0.4853 -0.8093  0.8692
 7463SOL    HW234023   1.710   0.778   0.244  0.2378 -0.8871 -0.0016
 7464SOL     OW34024   0.132   1.737   3.190  0.1329 -0.2028  0.2650
 7464SOL    HW134025   0.226   1.757   3.184  0.3754 -1.7429 -1.0754
 7464SOL    HW234026   0.136   1.662   3.249  2.0943 -0.0547  0.3387
 7465SOL     OW34027   2.858   2.806  11.199 -0.5002 -0.7591  0.1377
 7465SOL    HW134028   2.783   2.863  11.217  0.5967  0.0697  2.1193
 7465SOL    HW234029   2.879   2.755  11.278  0.1407 -2.4678 -1.1387
 7466SOL     OW34030   2.202   2.633   6.532  0.0994  0.0481  0.1135
 7466SOL    HW134031   2.144   2.695   6.487  1.3766  0.9741 -0.2559
 7466SOL    HW234032   2.168   2.547   6.506 -0.1263  0.8382 -2.2063
 7467SOL     OW34033   1.621   4.585   5.535  0.1043  0.5640  0.5676
 7467SOL    HW134034   1.644   4.677   5.522 -2.4700  1.7431  4.5409
 7467SOL    HW234035   1.707   4.544   5.527  1.4235  3.1408  1.5882
 7468SOL     OW34036   2.087   3.653   7.080  0.2518 -0.1051 -0.1650
 7468SOL    HW134037   2.113   3.719   7.145 -0.3013 -0.5279  0.4961
 7468SOL    HW234038   1.995   3.656   7.107  0.4382 -2.3840  0.6803
 7469SOL     OW34039   4.204   0.634   3.177  0.1497  0.4377  0.3908
 7469SOL    HW134040   4.288   0.647   3.133  0.5206 -2.1671  0.3023
 7469SOL    HW234041   4.164   0.718   3.157 -1.0545 -0.8100 -2.3205
 7470SOL     OW34042   0.693   1.956   8.209 -0.4917 -0.1883 -0.1452
 7470SOL    HW134043   0.607   1.944   8.169 -1.1751  0.3895  1.1824
 7470SOL    HW234044   0.711   1.866   8.238  0.0938  0.2374  0.8224
 7471SOL     OW34045   3.298   0.429   0.328 -0.6688 -0.0172 -0.4861
 7471SOL    HW134046   3.351   0.397   0.255  1.7960  0.3350  1.1412
 7471SOL    HW234047   3.291   0.521   0.302 -1.1663  0.5067  1.4460
 7472SOL     OW34048   3.583   3.092  17.186  0.4706 -0.0091  0.1673
 7472SOL    HW134049   3.522   3.164  17.203 -0.0763 -0.8299  1.6617
 7472SOL    HW234050   3.544   3.045  17.112 -0.0599  0.5522  0.0896
 7473SOL     OW34051   3.210   0.782   2.073 -0.1826 -0.1035 -0.1079
 7473SOL    HW134052   3.123   0.822   2.075 -0.5965 -1.0544  0.9758
 7473SOL    HW234053   3.197   0.692   2.104  0.0776  0.0072  0.3275
 7474SOL     OW34054   2.895   3.514   9.233 -0.4014 -0.4738 -0.3926
 7474SOL    HW134055   2.988   3.523   9.251 -0.4755 -2.3983  0.9882
 7474SOL    HW234056   2.881   3.595   9.184  3.1003 -0.2239 -0.9828
 7475SOL     OW34057   3.698   2.818  10.488 -0.0899  0.1864  0.5366
 7475SOL    HW134058   3.761   2.800  10.418 -0.6986  0.3743 -0.0612
 7475SOL    HW234059   3.758   2.837  10.560  0.5770 -1.0518  0.3036
 7476SOL     OW34060   4.404   1.049   6.227 -0.0172  0.5810 -0.4303
 7476SOL    HW134061   4.318   1.049   6.269  0.8624 -2.6026  1.4439
 7476SOL    HW234062   4.451   1.103   6.290 -0.2892 -1.3682  1.4678
 7477SOL     OW34063   0.360   4.290   7.489 -0.4720  0.0608 -0.3429
 7477SOL    HW134064   0.286   4.231   7.503 -0.6875  0.2287 -0.7822
 7477SOL    HW234065   0.343   4.345   7.565  0.8854 -0.6782  0.4920
 7478SOL     OW34066   0.295   2.276   2.924  0.0756 -0.1208  0.1738
 7478SOL    HW134067   0.286   2.363   2.963 -0.8753  0.3466 -1.0487
 7478SOL    HW234068   0.227   2.226   2.970 -0.1402  0.2863  0.3011
 7479SOL     OW34069   0.925   3.188   9.229  0.1594  0.2487  0.2318
 7479SOL    HW134070   0.921   3.119   9.163 -1.0352  0.5676 -0.0226
 7479SOL    HW234071   0.919   3.272   9.183 -1.9854  0.0948  0.2415
 7480SOL     OW34072   2.476   0.561  10.627 -0.2675  0.0544  0.1330
 7480SOL    HW134073   2.483   0.639  10.573  2.0418 -0.8297 -0.8131
 7480SOL    HW234074   2.564   0.525  10.620 -0.3262  0.2975 -1.8196
 7481SOL     OW34075   1.639   0.117   5.566 -0.0571  0.2164  0.2978
 7481SOL    HW134076   1.593   0.143   5.487  0.0563  0.3490  0.2749
 7481SOL    HW234077   1.728   0.151   5.555 -0.9010  2.2736 -0.0453
 7482SOL     OW34078   0.791   4.127  16.378  0.1435  0.8378  0.0541
 7482SOL    HW134079   0.877   4.165  16.400  1.2961 -1.5979 -0.2633
 7482SOL    HW234080   0.804   4.037  16.348 -0.9532  1.4047 -2.1177
 7483SOL     OW34081   2.904   0.071   4.955 -0.1690 -0.5492 -0.0892
 7483SOL    HW134082   2.838   0.131   4.921  0.2137 -0.5413 -0.8166
 7483SOL    HW234083   2.962   0.131   5.002 -0.8115  0.0544 -0.0658
 7484SOL     OW34084   1.636   0.282  16.925 -0.0201  0.7208 -0.0110
 7484SOL    HW134085   1.729   0.265  16.909  0.2432  1.3471  0.9013
 7484SOL    HW234086   1.614   0.328  16.844  0.3769 -0.5148 -0.8264
 7485SOL     OW34087   4.341   2.677   1.328  0.3024  0.1807  0.0092
 7485SOL    HW134088   4.433   2.702   1.320  0.5739 -0.7575  0.1940
 7485SOL    HW234089   4.315   2.667   1.237 -0.0420  0.8683  0.0357
 7486SOL     OW34090   4.392   0.696   7.294 -0.0293 -0.1573 -0.7482
 7486SOL    HW134091   4.313   0.705   7.347 -0.4982 -1.5926 -1.2301
 7486SOL    HW234092   4.413   0.606   7.317 -0.0201  0.6473  2.4525
 7487SOL     OW34093   2.606   1.916  11.674  0.0165  0.0734  0.5582
 7487SOL    HW134094   2.667   1.901  11.601 -0.3404 -1.0912  0.5003
 7487SOL    HW234095   2.671   1.951  11.734  0.7645 -2.0419  0.9900
 7488SOL     OW34096   1.999   1.764   6.892 -0.1894  0.8467  0.0978
 7488SOL    HW134097   2.007   1.816   6.971  1.2013 -1.9038  1.7626
 7488SOL    HW234098   2.019   1.680   6.933 -1.1099  1.5629  2.0185
 7489SOL     OW34099   3.842   1.173   4.563 -0.1999  0.6917 -0.3600
 7489SOL    HW134100   3.786   1.214   4.629 -0.8686 -0.3655 -0.2738
 7489SOL    HW234101   3.926   1.205   4.595 -1.0132  0.3473  2.1588
 7490SOL     OW34102   4.217   3.236   4.660  0.3835 -0.0312 -0.2616
 7490SOL    HW134103   4.302   3.256   4.697 -0.3706  2.4220  0.1480
 7490SOL    HW234104   4.152   3.275   4.719  1.9112  0.0909  1.3403
 7491SOL     OW34105   0.515   4.536   4.646  0.0146  0.2471  0.1753
 7491SOL    HW134106   0.599   4.533   4.691  1.1116  1.1200 -1.8183
 7491SOL    HW234107   0.526   4.487   4.564  0.6236  0.9525 -0.1594
 7492SOL     OW34108   2.796   1.668   3.578  0.0553 -0.1077  0.9057
 7492SOL    HW134109   2.705   1.638   3.587  0.6501 -2.2841 -0.2055
 7492SOL    HW234110   2.794   1.736   3.511 -2.1409 -0.7885  0.2543
 7493SOL     OW34111   0.234   2.023   3.338  0.1062  0.6549 -0.5516
 7493SOL    HW134112   0.286   1.943   3.347 -0.2666  0.3742 -0.8968
 7493SOL    HW234113   0.232   2.058   3.427  0.9174 -0.2956 -0.1581
 7494SOL     OW34114   3.746   2.586   0.917  0.0826 -0.3091 -0.4648
 7494SOL    HW134115   3.692   2.634   0.854 -1.2262 -1.8461 -0.5174
 7494SOL    HW234116   3.781   2.656   0.971  2.8890 -1.7525 -0.4187
 7495SOL     OW34117   4.223   3.787  13.454 -0.1058  0.0758  0.0140
 7495SOL    HW134118   4.182   3.873  13.463 -1.0890 -0.3324 -0.5935
 7495SOL    HW234119   4.245   3.771  13.546  0.8665 -2.1077 -0.6050
 7496SOL     OW34120   4.064   2.420   9.688  0.4747  0.4949  0.7673
 7496SOL    HW134121   4.073   2.452   9.778  0.0799 -1.1471  1.3975
 7496SOL    HW234122   3.987   2.470   9.663 -0.9414 -1.2917  1.5693
 7497SOL     OW34123   2.256   2.845  17.595 -0.6271 -0.3130  0.3987
 7497SOL    HW134124   2.288   2.771  17.647 -0.8652 -1.6039 -1.2900
 7497SOL    HW234125   2.172   2.805  17.571 -1.1094  1.4201 -0.7696
 7498SOL     OW34126   2.280   0.114  17.636 -0.0433  0.1089 -0.6697
 7498SOL    HW134127   2.307   0.200  17.604 -2.9688  1.1687 -0.3194
 7498SOL    HW234128   2.195   0.120  17.592  0.0828  2.8664 -0.5056
 7499SOL     OW34129   0.260   2.779   7.101  0.2987 -0.7132  0.0972
 7499SOL    HW134130   0.233   2.838   7.171  0.3856  1.5091 -1.7426
 7499SOL    HW234131   0.183   2.779   7.043 -0.6209 -2.4256  1.3258
 7500SOL     OW34132   3.452   2.398   5.802 -0.3158  0.6349  0.0455
 7500SOL    HW134133   3.387   2.377   5.869  0.5053  0.2938  0.7323
 7500SOL    HW234134   3.525   2.429   5.854  2.0132 -2.1552 -1.5763
 7501SOL     OW34135   4.308   0.454   8.707  0.3805  0.1795 -0.2496
 7501SOL    HW134136   4.283   0.409   8.788 -0.1309 -0.8049 -0.9447
 7501SOL    HW234137   4.397   0.421   8.693  0.0554 -0.7245 -0.2098
 7502SOL     OW34138   4.587   3.136   2.359 -0.2931  0.2413  0.9235
 7502SOL    HW134139   4.632   3.220   2.365 -0.7138  0.3550  2.5514
 7502SOL    HW234140   4.562   3.129   2.451  0.8515  0.6171  1.2617
 7503SOL     OW34141   3.407   0.115   3.810 -0.4544  0.3768  0.1324
 7503SOL    HW134142   3.429   0.060   3.735  0.2422  0.9614 -0.0902
 7503SOL    HW234143   3.341   0.169   3.769  0.5820  0.6559 -1.1684
 7504SOL     OW34144   1.918   1.853   7.725  0.1224 -0.1608  0.4441
 7504SOL    HW134145   1.916   1.822   7.634 -0.2014  2.6409 -0.5159
 7504SOL    HW234146   1.827   1.880   7.732  0.4094  1.0907 -0.5896
 7505SOL     OW34147   1.830   0.820  16.077  0.8827  0.6201  0.3239
 7505SOL    HW134148   1.807   0.727  16.070  1.3111  0.7054 -2.1132
 7505SOL    HW234149   1.922   0.822  16.052  1.6339  0.8843  3.0626
 7506SOL     OW34150   0.087   0.952   8.767 -0.0255 -0.5991 -0.6758
 7506SOL    HW134151   0.080   0.950   8.672 -1.1855  0.5343 -0.6182
 7506SOL    HW234152   0.019   1.017   8.786  1.6333  0.8110  0.3526
 7507SOL     OW34153   3.125   3.069  16.387  0.1341 -0.2789 -0.3574
 7507SOL    HW134154   3.097   3.146  16.436  1.7913  0.2550 -0.2445
 7507SOL    HW234155   3.181   3.104  16.318  0.7873 -0.4299  0.1041
 7508SOL     OW34156   0.110   0.782   9.622  1.1141  0.1971  0.2277
 7508SOL    HW134157   0.057   0.854   9.657 -0.7227 -1.8789  1.8170
 7508SOL    HW234158   0.044   0.715   9.603  1.1399 -0.1128  1.2206
 7509SOL     OW34159   4.653   2.386  13.446  0.6087 -0.0724 -0.1550
 7509SOL    HW134160   4.690   2.326  13.382  1.1826  0.1372 -0.0150
 7509SOL    HW234161   4.641   2.470  13.402 -1.6910 -0.3477 -0.0708
 7510SOL     OW34162   3.695   3.724   4.754  0.1167  0.2677  0.4143
 7510SOL    HW134163   3.676   3.794   4.816 -0.2867 -2.4105  3.2986
 7510SOL    HW234164   3.655   3.655   4.807  1.8555  1.1021  2.8245
 7511SOL     OW34165   3.466   4.601   8.149 -0.0267 -0.0469  0.3704
 7511SOL    HW134166   3.512   4.668   8.199 -1.1437  0.1754  1.0927
 7511SOL    HW234167   3.441   4.544   8.221 -0.7497 -0.5545 -0.2800
 7512SOL     OW34168   3.275   0.274   6.724 -0.3533 -0.2075 -0.0301
 7512SOL    HW134169   3.257   0.336   6.654 -2.2340  1.6395  2.0933
 7512SOL    HW234170   3.264   0.333   6.799 -0.3474  0.4501 -0.5412
 7513SOL     OW34171   3.707   3.870   5.702  0.4820  0.2625 -0.4731
 7513SOL    HW134172   3.746   3.852   5.788  2.5728 -1.0316 -1.6750
 7513SOL    HW234173   3.718   3.965   5.708 -1.4750  0.5003 -0.9227
 7514SOL     OW34174   0.557   1.719  16.796  0.5054 -0.0109  1.0947
 7514SOL    HW134175   0.579   1.659  16.724 -0.7185  0.1264  0.6166
 7514SOL    HW234176   0.514   1.788  16.747 -1.3874 -1.1911  1.0776
 7515SOL     OW34177   4.364   4.259   4.187  0.1827  0.0130 -0.2745
 7515SOL    HW134178   4.415   4.223   4.260  0.6467  1.0522 -0.0810
 7515SOL    HW234179   4.414   4.340   4.173 -2.4337  1.4163 -1.4587
 7516SOL     OW34180   3.190   4.701  12.546 -0.2520 -0.0163  0.3986
 7516SOL    HW134181   3.148   4.634  12.491 -2.5054 -0.8992  3.2323
 7516SOL    HW234182   3.159   0.045  12.503 -1.1932 -1.1953 -1.1317
 7517SOL     OW34183   2.541   2.891   8.267 -0.2852 -0.2266  0.1965
 7517SOL    HW134184   2.499   2.816   8.309 -1.1242 -0.1257 -0.4625
 7517SOL    HW234185   2.567   2.940   8.344 -2.0024 -1.6072  1.6573
 7518SOL     OW34186   0.800   0.733   0.649  0.0469  0.1244  0.2614
 7518SOL    HW134187   0.871   0.716   0.588 -1.2337  0.5076 -1.3113
 7518SOL    HW234188   0.724   0.688   0.611 -0.2871  1.2436 -0.3986
 7519SOL     OW34189   4.283   3.423   9.656  0.2947  0.5669 -0.0778
 7519SOL    HW134190   4.227   3.384   9.589  1.0991  1.3827 -1.2352
 7519SOL    HW234191   4.238   3.506   9.671  1.5495  1.2596 -0.0848
 7520SOL     OW34192   1.836   3.005   7.468 -0.1780  0.4953 -0.5518
 7520SOL    HW134193   1.903   2.937   7.461 -1.7373 -1.2829  1.6005
 7520SOL    HW234194   1.808   2.991   7.559 -0.4327 -2.4080 -1.0676
 7521SOL     OW34195   2.301   0.341  15.631 -0.0467  0.2190  0.3495
 7521SOL    HW134196   2.310   0.332  15.726  1.8153  0.4548  0.1895
 7521SOL    HW234197   2.217   0.298  15.611 -0.2770  0.3204  1.0987
 7522SOL     OW34198   1.791   3.422   0.894 -0.1101  0.2709  0.5130
 7522SOL    HW134199   1.755   3.504   0.927 -0.7265  0.6076 -0.9977
 7522SOL    HW234200   1.784   3.361   0.968 -0.0880  1.3254  1.3789
 7523SOL     OW34201   3.267   0.509   6.233  0.0208 -0.2138  0.0160
 7523SOL    HW134202   3.348   0.557   6.217 -0.7989  1.0264 -0.4626
 7523SOL    HW234203   3.304   0.436   6.282  1.3705  0.7814  0.4821
 7524SOL     OW34204   2.932   1.107   9.133  0.2855 -0.5000 -0.6556
 7524SOL    HW134205   2.997   1.065   9.189 -0.5434 -0.0226  0.6715
 7524SOL    HW234206   2.987   1.154   9.070 -1.0004  1.2181 -0.5138
 7525SOL     OW34207   4.331   0.369   2.673  0.6399 -0.0202  0.3823
 7525SOL    HW134208   4.422   0.386   2.648  0.9742 -0.6354  1.1751
 7525SOL    HW234209   4.284   0.418   2.606 -0.8280 -0.5566  1.0094
 7526SOL     OW34210   2.580   1.272   4.613 -0.3287 -0.2141  0.5893
 7526SOL    HW134211   2.499   1.310   4.579  0.4085  0.6928 -0.1650
 7526SOL    HW234212   2.565   1.178   4.611 -3.9467  0.4337 -2.4879
 7527SOL     OW34213   1.676   2.382  14.363 -0.3155  0.0781 -0.3698
 7527SOL    HW134214   1.740   2.313  14.376 -1.3293 -1.0175 -1.2205
 7527SOL    HW234215   1.673   2.385  14.267 -2.5555  0.9655 -0.2744
 7528SOL     OW34216   1.406   0.540   7.238  0.1629  0.0965 -0.3817
 7528SOL    HW134217   1.411   0.598   7.314  2.6781  1.9368 -1.9247
 7528SOL    HW234218   1.497   0.524   7.213  0.5023  1.5559 -0.0797
 7529SOL     OW34219   0.920   2.120  12.882  0.3594  0.0451  0.4027
 7529SOL    HW134220   0.886   2.032  12.895 -2.2401  1.2513  1.7763
 7529SOL    HW234221   1.001   2.087  12.842 -0.0717  0.6102 -0.9710
 7530SOL     OW34222   0.840   0.766   8.146  0.0579 -0.8198  0.8656
 7530SOL    HW134223   0.749   0.781   8.171  0.0762  1.1876 -0.3103
 7530SOL    HW234224   0.834   0.782   8.052  0.0721 -0.4556  0.9269
 7531SOL     OW34225   2.286   0.996   1.815 -0.3044 -0.0123 -0.2242
 7531SOL    HW134226   2.222   0.925   1.804 -1.3629  0.9502 -0.2537
 7531SOL    HW234227   2.313   0.975   1.904 -0.2186 -0.1073 -0.2721
 7532SOL     OW34228   1.137   0.152   4.952 -0.2456 -0.0278  0.1105
 7532SOL    HW134229   1.137   0.064   4.988  0.1970 -0.0079  0.1643
 7532SOL    HW234230   1.057   0.156   4.899 -0.8372 -1.2185  0.9380
 7533SOL     OW34231   0.426   1.401  16.082  0.4573  0.0388  0.4147
 7533SOL    HW134232   0.465   1.350  16.012  2.1489  1.7971  0.0749
 7533SOL    HW234233   0.475   1.482  16.093  1.6963 -0.8813  1.6828
 7534SOL     OW34234   4.159   0.008   5.112 -0.6691 -0.0409 -1.1880
 7534SOL    HW134235   4.178   4.665   5.162 -1.2299  0.3441 -0.3662
 7534SOL    HW234236   4.244   0.026   5.072  0.8650 -2.1374  1.0962
 7535SOL     OW34237   4.194   4.292  13.183  0.0523 -0.3030  0.6383
 7535SOL    HW134238   4.191   4.222  13.118  0.5994  0.4622 -0.2059
 7535SOL    HW234239   4.111   4.336  13.162  1.3378  0.8377 -2.0541
 7536SOL     OW34240   1.862   1.156   6.533  0.2460 -0.6169  0.4832
 7536SOL    HW134241   1.950   1.128   6.512 -0.0543  0.7798 -2.5377
 7536SOL    HW234242   1.815   1.159   6.450  1.4243  0.9212 -0.1299
 7537SOL     OW34243   0.174   2.335  10.636 -0.2287  0.1800  0.2681
 7537SOL    HW134244   0.267   2.353  10.650 -0.4812  0.2373  1.9059
 7537SOL    HW234245   0.153   2.412  10.582  3.8457  1.7918  0.9670
 7538SOL     OW34246   1.426   4.576   5.346 -0.1979 -0.4406 -0.6828
 7538SOL    HW134247   1.407   4.483   5.329 -1.3021  0.1881 -2.7882
 7538SOL    HW234248   1.505   4.566   5.400 -1.9684  2.0208  2.3420
 7539SOL     OW34249   4.135   1.461   3.818  0.7068  0.1060 -0.1223
 7539SOL    HW134250   4.044   1.492   3.811  0.8378  0.6272  0.5396
 7539SOL    HW234251   4.132   1.405   3.740 -0.2375  0.1565 -0.1225
 7540SOL     OW34252   0.405   0.681  12.924  0.1520 -0.3961  0.9003
 7540SOL    HW134253   0.493   0.643  12.932  0.7386  1.0069  0.9822
 7540SOL    HW234254   0.404   0.735  13.003  0.8786 -0.0807  0.6926
 7541SOL     OW34255   1.992   3.787   8.337  0.1560  0.5100 -0.5577
 7541SOL    HW134256   1.915   3.794   8.393 -0.9150 -0.5624 -1.8899
 7541SOL    HW234257   2.016   3.695   8.346 -0.0678  0.5705  0.6036
 7542SOL     OW34258   0.158   0.842   6.887 -0.2174 -0.2798 -0.5175
 7542SOL    HW134259   0.223   0.888   6.941 -2.1387  1.0263  0.6766
 7542SOL    HW234260   0.134   0.912   6.826  0.2605 -0.2757 -0.7040
 7543SOL     OW34261   3.059   0.782   6.271 -0.0627  0.2846 -0.3825
 7543SOL    HW134262   3.077   0.816   6.358 -0.0122  0.7295 -0.5660
 7543SOL    HW234263   2.980   0.832   6.247 -2.5128 -1.9241  3.0763
 7544SOL     OW34264   1.786   1.533   6.985 -0.1257 -0.1813  0.5265
 7544SOL    HW134265   1.877   1.527   7.016 -0.2523  1.2443  1.1746
 7544SOL    HW234266   1.768   1.439   6.991 -1.1545  0.0101  0.4138
 7545SOL     OW34267   1.897   2.451   9.519  0.5875 -0.0122 -0.5102
 7545SOL    HW134268   1.932   2.524   9.569  0.6807  0.0406 -0.6537
 7545SOL    HW234269   1.967   2.409   9.469  1.6967  0.9211  0.2624
 7546SOL     OW34270   1.917   1.754   5.455  0.5414 -0.0211 -0.1493
 7546SOL    HW134271   1.975   1.714   5.520  1.9388  0.0972 -1.3221
 7546SOL    HW234272   1.934   1.701   5.377 -3.8699 -0.2563 -0.9719
 7547SOL     OW34273   3.143   2.958   3.388 -0.2305  0.1538  0.0650
 7547SOL    HW134274   3.165   3.045   3.354  2.0644 -0.8677 -1.0695
 7547SOL    HW234275   3.227   2.913   3.399 -0.5455  0.0501  2.0964
 7548SOL     OW34276   3.150   1.359  15.529  0.3922 -0.0592  0.1072
 7548SOL    HW134277   3.216   1.343  15.462 -0.2298  0.4968 -0.6305
 7548SOL    HW234278   3.142   1.452  15.508 -0.1938 -0.1303  0.0209
 7549SOL     OW34279   3.006   1.157   1.707  0.6378  0.0498 -0.0778
 7549SOL    HW134280   3.046   1.170   1.621  0.7193  0.5928  0.0391
 7549SOL    HW234281   2.916   1.142   1.678  0.2710  1.8111  0.1451
 7550SOL     OW34282   1.484   3.302   0.243 -0.0459 -0.0939 -0.1384
 7550SOL    HW134283   1.500   3.386   0.201 -1.1768  1.4429  2.5456
 7550SOL    HW234284   1.477   3.334   0.332 -0.1023  1.2462 -0.6260
 7551SOL     OW34285   3.521   2.680   2.566  0.2117  0.4361 -0.1762
 7551SOL    HW134286   3.549   2.770   2.554 -1.9853  0.6485 -3.7034
 7551SOL    HW234287   3.510   2.684   2.661 -0.4195  0.7383 -0.2642
 7552SOL     OW34288   4.663   2.951  10.801  0.1473  0.4057  0.5972
 7552SOL    HW134289   4.689   2.975  10.890  1.1920  0.4403  0.2716
 7552SOL    HW234290   0.013   2.955  10.760 -1.0496  3.4245 -1.5619
 7553SOL     OW34291   1.628   1.080   3.489 -0.0617 -0.0935  0.4542
 7553SOL    HW134292   1.568   1.010   3.515 -0.4812  0.7036  1.5820
 7553SOL    HW234293   1.672   1.102   3.571  2.1225  2.9037 -1.5106
 7554SOL     OW34294   3.744   1.582   1.111 -0.1630  0.5427 -0.1087
 7554SOL    HW134295   3.808   1.625   1.054 -0.0668 -0.6251 -0.8726
 7554SOL    HW234296   3.789   1.497   1.104  1.0851  1.3382 -1.8446
 7555SOL     OW34297   0.933   0.847   9.678  0.8975  0.0384  0.1290
 7555SOL    HW134298   0.975   0.790   9.613  0.6675 -0.2994  0.2755
 7555SOL    HW234299   0.894   0.778   9.733 -1.5394  1.6247  0.3655
 7556SOL     OW34300   1.719   2.287   3.008  0.3621  0.6838  0.6285
 7556SOL    HW134301   1.794   2.285   3.067  0.1475  0.5920  0.9029
 7556SOL    HW234302   1.647   2.277   3.071 -0.7921 -0.7492 -0.9168
 7557SOL     OW34303   4.026   3.644   3.538  0.2046 -0.4183 -0.1727
 7557SOL    HW134304   4.070   3.628   3.455 -1.2957 -0.4520 -0.9606
 7557SOL    HW234305   3.951   3.695   3.509  0.8958  1.0738  0.6413
 7558SOL     OW34306   4.699   0.959   7.976  0.2027  0.5562 -0.0107
 7558SOL    HW134307   4.721   0.900   7.903 -0.7337 -1.6378  1.4968
 7558SOL    HW234308   4.679   0.902   8.050 -0.1856 -0.9697 -1.3056
 7559SOL     OW34309   4.241   0.564   6.939 -0.4442  0.2255  0.2051
 7559SOL    HW134310   4.300   0.493   6.912  0.2304  0.4485  1.1123
 7559SOL    HW234311   4.239   0.546   7.033 -1.5770 -1.1871 -0.0773
 7560SOL     OW34312   4.495   2.110   7.479  0.3803  0.3388  0.1012
 7560SOL    HW134313   4.482   2.204   7.465  1.0190  0.6657  1.7045
 7560SOL    HW234314   4.580   2.104   7.522  0.3985 -0.3604 -0.0269
 7561SOL     OW34315   4.174   0.322   8.886  0.3031  0.4338  0.0969
 7561SOL    HW134316   4.114   0.392   8.858  1.1423  1.6477  1.2957
 7561SOL    HW234317   4.155   0.298   8.977  1.2876 -0.7792 -0.0203
 7562SOL     OW34318   0.821   2.692   3.634  0.2071 -0.0991 -0.4202
 7562SOL    HW134319   0.849   2.617   3.581 -0.0087  0.0666 -0.7700
 7562SOL    HW234320   0.865   2.770   3.600  1.7990 -1.0845 -0.6319
 7563SOL     OW34321   1.686   3.440   9.797 -0.0123  0.1321 -0.5133
 7563SOL    HW134322   1.715   3.437   9.706 -2.2824  1.2489 -1.2680
 7563SOL    HW234323   1.601   3.400   9.777 -0.7420  2.4662 -2.0264
 7564SOL     OW34324   0.645   1.029   3.359 -0.1817 -0.1323  0.6080
 7564SOL    HW134325   0.701   1.106   3.346  1.6519 -1.5614  0.0772
 7564SOL    HW234326   0.579   1.057   3.296 -0.7101 -0.2979  1.0898
 7565SOL     OW34327   1.271   0.901   1.638 -0.2215  0.2293  0.3238
 7565SOL    HW134328   1.239   0.940   1.557  0.2237  2.7191  1.3428
 7565SOL    HW234329   1.199   0.928   1.696  0.2163  1.8353  0.1210
 7566SOL     OW34330   2.237   4.607   2.598 -0.0462 -0.0710  0.4352
 7566SOL    HW134331   2.144   4.597   2.577 -0.0050 -0.2636  0.3495
 7566SOL    HW234332   2.255   4.698   2.572  1.0939 -1.2435 -2.7310
 7567SOL     OW34333   2.807   3.942   3.330  0.2173  0.1348  0.4534
 7567SOL    HW134334   2.753   3.941   3.252 -1.5012 -0.1812  1.6408
 7567SOL    HW234335   2.748   3.976   3.397  0.2472 -0.2885  0.6963
 7568SOL     OW34336   4.432   3.863  13.940  1.0975 -0.7040  0.7864
 7568SOL    HW134337   4.357   3.806  13.960 -0.6294  1.3416  0.1599
 7568SOL    HW234338   4.427   3.909  14.024  2.1077 -1.6531  1.3574
 7569SOL     OW34339   1.262   2.540  16.363  0.0657  0.7843  0.0885
 7569SOL    HW134340   1.204   2.599  16.410 -1.2137 -0.1351 -0.3278
 7569SOL    HW234341   1.276   2.593  16.285 -0.0740  0.4353 -0.1782
 7570SOL     OW34342   2.198   2.214   1.307 -0.0806 -0.7214 -0.2215
 7570SOL    HW134343   2.166   2.139   1.257 -1.8159 -0.0188 -0.1796
 7570SOL    HW234344   2.164   2.287   1.255  0.3030 -0.7271 -0.4804
 7571SOL     OW34345   1.348   1.237  10.457  0.1290 -0.1474  0.7121
 7571SOL    HW134346   1.278   1.272  10.402  0.1312 -0.7539  0.3180
 7571SOL    HW234347   1.320   1.268  10.543 -0.2609  2.4525 -0.3736
 7572SOL     OW34348   2.935   2.990  16.238  0.0376  0.0824 -0.5194
 7572SOL    HW134349   2.865   3.045  16.274 -0.1183 -1.5034  1.5695
 7572SOL    HW234350   3.008   3.002  16.299  0.2593 -2.4637 -0.2921
 7573SOL     OW34351   0.233   2.713   8.432  0.2308 -0.5327  0.1314
 7573SOL    HW134352   0.264   2.781   8.373  0.8279 -1.1449 -0.2640
 7573SOL    HW234353   0.199   2.756   8.511  0.0325  1.4575 -1.0618
 7574SOL     OW34354   1.821   1.178  10.331  0.5215  0.1671 -0.2764
 7574SOL    HW134355   1.753   1.237  10.298  0.0965  0.9741  1.9982
 7574SOL    HW234356   1.863   1.138  10.256  1.9519  1.2890 -0.0601
 7575SOL     OW34357   3.459   3.476  12.163 -0.1214  0.0493 -0.8232
 7575SOL    HW134358   3.541   3.428  12.154 -0.0998  0.1583 -1.1785
 7575SOL    HW234359   3.478   3.539  12.094 -1.1849 -0.7074 -1.7993
 7576SOL     OW34360   3.401   4.435   4.126 -0.0136 -0.4684  0.5488
 7576SOL    HW134361   3.430   4.507   4.069  1.0594 -1.4652 -0.1682
 7576SOL    HW234362   3.428   4.361   4.072 -0.5656 -0.1140 -0.2069
 7577SOL     OW34363   1.713   4.460   9.174  0.5957  0.0957  0.1223
 7577SOL    HW134364   1.713   4.482   9.267 -1.3197 -0.0701  0.1551
 7577SOL    HW234365   1.803   4.426   9.168  0.5646 -0.1540  1.1088
 7578SOL     OW34366   3.192   0.412   6.947  0.1852  0.4046 -0.1260
 7578SOL    HW134367   3.278   0.448   6.926  1.1001 -1.0126  1.1940
 7578SOL    HW234368   3.141   0.494   6.950 -1.1266 -0.3581 -1.4629
 7579SOL     OW34369   4.539   4.638   4.545 -0.1728  0.0474  0.0972
 7579SOL    HW134370   4.449   4.659   4.522  0.2037  2.6043  0.9064
 7579SOL    HW234371   4.525   4.574   4.614  2.3578 -0.2230  0.3738
 7580SOL     OW34372   3.253   1.203   3.106  0.5780 -0.5239  0.5581
 7580SOL    HW134373   3.238   1.148   3.183 -0.1564 -1.0060  0.0682
 7580SOL    HW234374   3.348   1.213   3.116  0.2984  3.2504 -0.8058
 7581SOL     OW34375   2.462   4.614  17.648 -0.0845 -0.3898 -0.4052
 7581SOL    HW134376   2.426   4.701  17.664  3.2872  0.6659  1.3002
 7581SOL    HW234377   2.532   4.619  17.712  0.4178 -1.6229 -0.8561
 7582SOL     OW34378   0.431   0.121   3.791 -0.3824  0.3986 -0.3470
 7582SOL    HW134379   0.520   0.089   3.777 -0.2777  1.0214 -1.0767
 7582SOL    HW234380   0.442   0.215   3.779  0.3036  0.4296  0.5519
 7583SOL     OW34381   4.355   0.566   4.365 -0.1615  0.0260 -0.0845
 7583SOL    HW134382   4.365   0.564   4.269 -0.8062  0.3907 -0.1546
 7583SOL    HW234383   4.426   0.504   4.383 -0.1502 -0.1087 -0.5794
 7584SOL     OW34384   1.029   4.261  16.423  0.2396  0.5521  0.0976
 7584SOL    HW134385   1.104   4.228  16.373  0.4336  0.4367  0.4639
 7584SOL    HW234386   1.063   4.349  16.440 -1.5979  1.0324  1.2157
 7585SOL     OW34387   2.876   0.644  15.377 -0.6403 -0.3765  0.6995
 7585SOL    HW134388   2.910   0.607  15.458 -1.6289  0.0889  1.3319
 7585SOL    HW234389   2.912   0.733  15.385 -0.5794 -0.2165 -1.2761
 7586SOL     OW34390   3.457   0.393  10.980  0.6843  0.1695  0.1309
 7586SOL    HW134391   3.522   0.461  10.997 -0.2756  1.0154  0.3753
 7586SOL    HW234392   3.400   0.423  10.910  0.9857 -1.2174 -0.7102
 7587SOL     OW34393   0.739   3.817   6.466  0.3073  0.1485 -0.2100
 7587SOL    HW134394   0.716   3.744   6.408  0.7516  0.6261 -0.9943
 7587SOL    HW234395   0.806   3.867   6.420  1.6934 -1.0458  0.4858
 7588SOL     OW34396   1.459   1.446   2.763  0.5140  0.0751  0.4097
 7588SOL    HW134397   1.467   1.488   2.848 -2.6186 -1.1025  1.2812
 7588SOL    HW234398   1.551   1.454   2.739  0.3841  0.6238  0.1065
 7589SOL     OW34399   4.241   1.130   4.853 -0.3476 -0.4888 -0.1421
 7589SOL    HW134400   4.197   1.068   4.794  0.5526 -1.1702 -0.0884
 7589SOL    HW234401   4.192   1.113   4.934 -0.6265 -0.3882 -0.2880
 7590SOL     OW34402   4.549   2.211   4.297  0.4011 -0.2369  0.2722
 7590SOL    HW134403   4.614   2.141   4.283  1.8737  0.8336  1.7541
 7590SOL    HW234404   4.582   2.269   4.229  0.9008 -0.3689  0.3983
 7591SOL     OW34405   3.904   0.829   6.053 -0.3056 -0.5348 -0.1853
 7591SOL    HW134406   3.863   0.750   6.017 -0.0643 -0.6011 -0.3185
 7591SOL    HW234407   3.983   0.791   6.091 -0.0008 -2.2887 -2.5428
 7592SOL     OW34408   2.054   2.657   3.998 -0.5666  0.6704 -0.1586
 7592SOL    HW134409   2.106   2.642   4.077  0.6885 -0.0066 -1.1150
 7592SOL    HW234410   2.047   2.752   3.990 -0.3199  0.7455  0.5414
 7593SOL     OW34411   2.017   2.937   4.058  0.8721  0.7944  0.0491
 7593SOL    HW134412   2.033   2.984   4.140  1.8772 -0.2291  0.4428
 7593SOL    HW234413   2.058   2.991   3.991  0.4287 -2.2944 -2.7344
 7594SOL     OW34414   3.263   3.602   9.039  0.2777  0.5626  0.2139
 7594SOL    HW134415   3.267   3.559   9.124  0.8382  0.1999  0.0008
 7594SOL    HW234416   3.170   3.626   9.038 -0.3818 -1.9968  1.1549
 7595SOL     OW34417   1.034   4.056  12.082  0.0687  0.0238 -0.1898
 7595SOL    HW134418   1.103   4.118  12.107 -0.5605  0.9413 -0.7047
 7595SOL    HW234419   1.086   3.998  12.027 -1.5983 -1.6650  0.0242
 7596SOL     OW34420   2.167   0.499   7.318  0.3168 -0.1138 -0.3527
 7596SOL    HW134421   2.124   0.545   7.246  0.0429 -0.6608 -0.5352
 7596SOL    HW234422   2.259   0.492   7.293 -0.0792  1.0034 -2.1891
 7597SOL     OW34423   0.088   2.495   2.746  0.1963 -0.9555  0.1297
 7597SOL    HW134424   0.162   2.504   2.807  0.6627  1.8885 -0.8647
 7597SOL    HW234425   0.037   2.427   2.789 -0.9802 -0.8366 -1.0823
 7598SOL     OW34426   1.017   4.692   7.330 -0.6524  0.2274  0.4149
 7598SOL    HW134427   0.922   4.690   7.337 -0.8336  4.0754 -0.6186
 7598SOL    HW234428   1.028   4.638   7.251  0.5954  2.3299 -0.8781
 7599SOL     OW34429   1.654   1.677  15.361  0.3832 -0.6864  0.2844
 7599SOL    HW134430   1.673   1.584  15.375 -1.6584 -1.2126 -0.5006
 7599SOL    HW234431   1.727   1.696  15.302  1.4520 -2.5066  1.0191
 7600SOL     OW34432   0.708   3.364   8.914  0.7169  0.5418 -0.5104
 7600SOL    HW134433   0.789   3.385   8.961  1.2610 -0.4305 -1.0142
 7600SOL    HW234434   0.665   3.289   8.955 -1.1784  3.2139  2.3932
 7601SOL     OW34435   0.838   4.059   4.078  0.4075 -0.1282  0.5470
 7601SOL    HW134436   0.774   4.038   4.146 -0.0922  0.7252  0.3476
 7601SOL    HW234437   0.848   3.976   4.031 -2.6430  0.4355 -1.1530
 7602SOL     OW34438   3.949   2.446   6.846 -0.4852  0.2793 -0.2523
 7602SOL    HW134439   3.958   2.464   6.939 -0.5183 -1.5822  0.1118
 7602SOL    HW234440   3.927   2.534   6.816  0.0479  0.5497  0.1678
 7603SOL     OW34441   1.376   2.840   6.677  0.1365  0.2268  0.4746
 7603SOL    HW134442   1.413   2.754   6.659  0.0341  0.5181 -1.1016
 7603SOL    HW234443   1.430   2.892   6.618  1.1698 -1.0242  0.3282
 7604SOL     OW34444   2.463   3.497  10.304  0.0725 -0.2288 -0.7083
 7604SOL    HW134445   2.368   3.501  10.311  0.2437  0.7635  0.8368
 7604SOL    HW234446   2.498   3.547  10.378 -0.9291  0.2074 -0.5392
 7605SOL     OW34447   4.583   3.628  10.247  0.2915  0.4724  0.2290
 7605SOL    HW134448   4.536   3.648  10.166  0.6402  1.8444  0.3700
 7605SOL    HW234449   4.673   3.659  10.233 -0.1886  2.8860  2.5067
 7606SOL     OW34450   0.665   0.442   5.823 -0.3597 -0.2206  0.0023
 7606SOL    HW134451   0.612   0.410   5.896  0.6817  1.5275  1.5433
 7606SOL    HW234452   0.689   0.353   5.797 -2.2542 -0.6112 -0.3558
 7607SOL     OW34453   2.839   1.646   2.651 -0.3872 -0.4121 -0.3266
 7607SOL    HW134454   2.815   1.577   2.713 -2.5273 -0.2281 -0.9578
 7607SOL    HW234455   2.879   1.597   2.580  2.3590 -1.3359  1.8364
 7608SOL     OW34456   2.926   4.391   2.662 -0.5282 -0.1114 -0.5309
 7608SOL    HW134457   2.966   4.477   2.669  0.2841 -0.5896  0.7191
 7608SOL    HW234458   2.994   4.351   2.608  0.9810  2.6249 -0.6271
 7609SOL     OW34459   4.034   1.521   6.441 -0.3151 -0.2237  0.3069
 7609SOL    HW134460   3.972   1.468   6.492  0.0391 -1.4311 -0.5114
 7609SOL    HW234461   4.004   1.504   6.352 -1.7639 -4.4645  1.5746
 7610SOL     OW34462   2.931   4.518   2.280 -0.4233 -0.0369  0.6547
 7610SOL    HW134463   2.932   4.614   2.281 -1.2640  0.0063 -2.7559
 7610SOL    HW234464   2.884   4.492   2.201  1.9903 -0.0524 -0.7493
 7611SOL     OW34465   2.075   3.895  15.609  0.0838  0.2708  0.4487
 7611SOL    HW134466   1.997   3.839  15.606  1.2461 -1.2568 -0.9780
 7611SOL    HW234467   2.064   3.923  15.518  0.0199  3.1187  1.3220
 7612SOL     OW34468   3.031   0.213   7.014  0.3799 -0.1284  0.0177
 7612SOL    HW134469   3.085   0.285   6.980  0.0569  0.0034 -0.2115
 7612SOL    HW234470   3.094   0.145   6.991  1.1827  1.5823 -2.8349
 7613SOL     OW34471   3.508   2.331  15.593 -0.0283  0.1867  0.0680
 7613SOL    HW134472   3.544   2.378  15.668 -1.3764 -0.7351  1.3061
 7613SOL    HW234473   3.417   2.339  15.621 -1.1206  0.1717 -3.4860
 7614SOL     OW34474   1.346   1.413   0.745 -0.7042 -0.0155  0.4686
 7614SOL    HW134475   1.387   1.430   0.830  1.3649 -3.2860  0.1202
 7614SOL    HW234476   1.260   1.453   0.760  0.6782  3.4295 -0.8554
 7615SOL     OW34477   2.111   4.221   6.743  0.1571 -0.8463 -0.3717
 7615SOL    HW134478   2.120   4.286   6.813  1.2361 -0.3646 -0.9538
 7615SOL    HW234479   2.087   4.135   6.778  2.1816 -1.3113 -0.1413
 7616SOL     OW34480   3.398   1.530   5.323 -0.4886 -0.0682 -0.2952
 7616SOL    HW134481   3.443   1.477   5.257  0.1003  0.4498 -0.3079
 7616SOL    HW234482   3.447   1.506   5.402  1.1537  2.2672 -0.6337
 7617SOL     OW34483   3.319   1.443   4.100 -0.4469  0.4840  1.2303
 7617SOL    HW134484   3.271   1.501   4.041  0.3960  1.6277  1.6769
 7617SOL    HW234485   3.356   1.508   4.160 -1.6526  1.5646  0.7901
 7618SOL     OW34486   1.827   2.391   6.803  0.3007  0.6284 -0.8742
 7618SOL    HW134487   1.892   2.340   6.851 -1.5622 -0.1694  0.8488
 7618SOL    HW234488   1.799   2.460   6.863  0.9207 -0.2171  0.3726
 7619SOL     OW34489   0.186   3.022   2.572  0.6302  0.7212 -0.1986
 7619SOL    HW134490   0.227   2.941   2.603 -2.6019 -0.9376 -0.3343
 7619SOL    HW234491   0.121   3.048   2.637 -0.1881 -1.1199 -0.2850
 7620SOL     OW34492   4.352   0.346   5.029 -0.7914 -0.5407 -0.4210
 7620SOL    HW134493   4.284   0.330   4.964 -0.1642  2.2438 -1.7880
 7620SOL    HW234494   4.317   0.309   5.110 -0.8751 -1.9609 -1.1152
 7621SOL     OW34495   3.469   2.838   6.825 -0.0417  0.5998  0.3559
 7621SOL    HW134496   3.491   2.831   6.918 -0.7963 -1.0205  0.4213
 7621SOL    HW234497   3.393   2.895   6.832 -1.0647 -0.8738  1.3737
 7622SOL     OW34498   2.340   3.952   3.302 -0.1366  0.2202  0.6026
 7622SOL    HW134499   2.433   3.964   3.286 -0.4647  1.0234 -0.6952
 7622SOL    HW234500   2.333   4.004   3.383 -0.3030 -0.6560  1.1517
 7623SOL     OW34501   4.116   4.247   4.453 -0.2090 -0.8185 -0.4831
 7623SOL    HW134502   4.173   4.274   4.525  0.2469 -0.0962 -1.1190
 7623SOL    HW234503   4.094   4.159   4.483  1.5782 -1.6711 -1.6318
 7624SOL     OW34504   4.722   2.741  10.568  0.8915  0.0086 -0.0409
 7624SOL    HW134505   4.677   2.746  10.652  0.5587 -1.5527 -0.1328
 7624SOL    HW234506   4.669   2.796  10.510 -2.0288 -2.0387  0.6945
 7625SOL     OW34507   0.324   4.204   1.983  0.0766 -0.1548 -0.0292
 7625SOL    HW134508   0.243   4.184   1.937 -0.3404  0.2800  0.5231
 7625SOL    HW234509   0.302   4.288   2.025 -0.6272 -0.8613  1.0126
 7626SOL     OW34510   2.255   0.603   2.971  0.5092 -0.8777  0.2183
 7626SOL    HW134511   2.332   0.564   2.928  1.3669  0.2917  0.7081
 7626SOL    HW234512   2.215   0.645   2.895  2.7919 -1.9083 -1.5712
 7627SOL     OW34513   1.155   3.753   1.590 -0.3854  0.1788  0.2051
 7627SOL    HW134514   1.061   3.736   1.595 -0.3508 -0.3343 -0.6771
 7627SOL    HW234515   1.188   3.689   1.653 -0.6862 -0.6337 -0.4580
 7628SOL     OW34516   1.110   0.463   1.402 -0.3508 -0.1517  0.3632
 7628SOL    HW134517   1.153   0.515   1.335 -0.7073  1.2583  1.2209
 7628SOL    HW234518   1.075   0.532   1.459 -2.4973 -0.5256 -0.5054
 7629SOL     OW34519   2.728   0.229   4.637  0.1303 -0.1075 -0.2303
 7629SOL    HW134520   2.671   0.306   4.629  0.6931  0.4147  0.7318
 7629SOL    HW234521   2.793   0.270   4.694  0.1568 -0.4846  0.0084
 7630SOL     OW34522   2.985   2.077  10.017 -0.1435 -0.3139 -0.6045
 7630SOL    HW134523   2.940   2.054  10.098 -0.9117 -0.5224 -1.0925
 7630SOL    HW234524   3.072   2.111  10.037  0.6820 -2.2326 -0.9386
 7631SOL     OW34525   3.607   3.223   4.760  0.3525  0.5399  0.6810
 7631SOL    HW134526   3.607   3.262   4.847  1.2704 -0.6200  1.2063
 7631SOL    HW234527   3.551   3.288   4.718 -3.6921 -2.2839  1.7241
 7632SOL     OW34528   1.359   0.040  17.181  1.0475 -0.4040  0.5253
 7632SOL    HW134529   1.333   4.732  17.262  2.1403 -2.0601 -0.0083
 7632SOL    HW234530   1.335   0.128  17.211  1.0707 -0.1203 -0.2895
 7633SOL     OW34531   3.231   2.198   7.377  0.1100 -0.7601 -0.0639
 7633SOL    HW134532   3.207   2.133   7.444  2.5597 -1.3973  0.1720
 7633SOL    HW234533   3.207   2.155   7.295 -0.2564 -2.9029  1.1567
 7634SOL     OW34534   3.883   0.484   7.933  0.4958  0.6276  0.1511
 7634SOL    HW134535   3.977   0.505   7.930  0.9452 -1.2211  1.3412
 7634SOL    HW234536   3.883   0.429   8.011 -2.7989  2.1960  1.2474
 7635SOL     OW34537   4.727   1.413   9.056  0.5210 -0.5430 -0.7122
 7635SOL    HW134538   0.013   1.381   8.969  2.1564 -0.9748 -0.1475
 7635SOL    HW234539   0.070   1.455   9.091 -1.4727  0.2708  2.7434
 7636SOL     OW34540   2.244   3.876   5.272  0.6158 -0.0993 -0.0604
 7636SOL    HW134541   2.238   3.851   5.365 -1.9083  0.0322 -0.1920
 7636SOL    HW234542   2.167   3.834   5.234  0.2891  0.7340 -0.3087
 7637SOL     OW34543   2.060   0.020   0.064  0.1443 -0.4183  0.8163
 7637SOL    HW134544   2.040   0.003  17.714 -1.4030  2.4254  0.6298
 7637SOL    HW234545   2.015   4.682   0.106 -1.0933 -1.5018 -2.3916
 7638SOL     OW34546   4.162   2.517  14.733  0.1424 -0.2865  0.5413
 7638SOL    HW134547   4.113   2.454  14.786 -3.1048  2.8947  1.3590
 7638SOL    HW234548   4.224   2.453  14.701  0.8443 -0.0588  1.4261
 7639SOL     OW34549   3.145   2.641   2.911  0.2774 -0.4106 -0.3828
 7639SOL    HW134550   3.155   2.588   2.990 -1.4523  0.1976  0.2394
 7639SOL    HW234551   3.229   2.627   2.868  0.8170 -2.6388  1.3896
 7640SOL     OW34552   3.915   3.004   5.887 -0.0489 -0.1627 -0.3218
 7640SOL    HW134553   3.884   3.011   5.797 -1.2012  1.4678  0.2137
 7640SOL    HW234554   4.007   3.028   5.877 -0.1245  0.1348 -0.2944
 7641SOL     OW34555   1.255   1.729   8.845  0.8188  0.4766 -0.7975
 7641SOL    HW134556   1.247   1.773   8.930  1.5862  1.9551 -1.4872
 7641SOL    HW234557   1.291   1.653   8.889 -2.4646 -1.3436 -1.2318
 7642SOL     OW34558   0.621   0.241   7.485  0.5560 -0.0323  0.5122
 7642SOL    HW134559   0.647   0.321   7.531  0.0420  0.7108 -0.4898
 7642SOL    HW234560   0.556   0.189   7.533 -1.8954  0.7441 -1.9938
 7643SOL     OW34561   2.553   0.143   8.805  0.3829 -0.4316 -0.0446
 7643SOL    HW134562   2.611   0.219   8.793  1.9470 -1.5756  0.3636
 7643SOL    HW234563   2.522   0.150   8.895  0.3528 -2.7333  0.1006
 7644SOL     OW34564   1.794   3.050   9.799 -0.6483  0.8195  0.1921
 7644SOL    HW134565   1.721   3.029   9.858 -1.7779 -0.9321 -1.8294
 7644SOL    HW234566   1.763   3.009   9.719  1.7617 -2.5265  0.9928
 7645SOL     OW34567   4.476   4.494   0.582  0.2805 -0.0757 -0.4584
 7645SOL    HW134568   4.404   4.529   0.530 -0.9941  1.3202  2.2334
 7645SOL    HW234569   4.481   4.554   0.656 -1.6301  0.3290 -0.6575
 7646SOL     OW34570   4.636   2.387   5.378 -0.2090  0.0518  0.7507
 7646SOL    HW134571   4.686   2.409   5.299 -0.5795 -2.7805 -0.2724
 7646SOL    HW234572   4.660   2.295   5.392  1.2251  0.1240 -1.2430
 7647SOL     OW34573   1.309   1.083   0.093 -0.0752  0.1659 -0.7308
 7647SOL    HW134574   1.260   1.163   0.111  0.7471  0.4604  0.2083
 7647SOL    HW234575   1.269   1.013   0.144 -0.5815  0.7047 -0.3949
 7648SOL     OW34576   0.415   3.100   1.727  0.2512 -0.1056  0.3740
 7648SOL    HW134577   0.487   3.041   1.750  0.2949 -1.3151 -2.8357
 7648SOL    HW234578   0.461   3.177   1.692  0.4939 -1.6440 -2.7298
 7649SOL     OW34579   3.761   2.695   8.333 -0.1691  0.3316  0.0449
 7649SOL    HW134580   3.686   2.686   8.274  0.0816  5.1117 -0.9893
 7649SOL    HW234581   3.833   2.685   8.271 -0.3075  0.9149 -0.2013
 7650SOL     OW34582   2.443   3.862   7.430 -0.5124 -0.0700 -0.3006
 7650SOL    HW134583   2.491   3.780   7.412 -0.0947  0.0438  0.3080
 7650SOL    HW234584   2.384   3.833   7.499 -0.1560 -1.5353 -0.5984
 7651SOL     OW34585   2.049   0.028   5.430  0.2189  0.9381 -0.1078
 7651SOL    HW134586   2.130   0.077   5.446  0.3350  0.9567 -0.7510
 7651SOL    HW234587   1.998   0.087   5.485 -0.3764 -0.2140  0.5722
 7652SOL     OW34588   2.750   3.715  14.816 -0.2142  0.0545  0.0665
 7652SOL    HW134589   2.701   3.787  14.776  0.5735  0.2345 -0.5962
 7652SOL    HW234590   2.767   3.653  14.745 -0.3903 -0.0790  0.1408
 7653SOL     OW34591   1.149   0.204   1.552  0.7687  0.3475  0.0542
 7653SOL    HW134592   1.167   0.159   1.470  2.1659 -1.8196  1.5565
 7653SOL    HW234593   1.152   0.297   1.529  0.3676 -0.0682 -1.6686
 7654SOL     OW34594   3.350   1.645   4.404 -0.5057  0.3080 -0.1603
 7654SOL    HW134595   3.417   1.584   4.375 -0.9474  0.3825 -1.3509
 7654SOL    HW234596   3.363   1.656   4.498 -0.7526  1.1769 -0.2239
 7655SOL     OW34597   0.338   0.058  12.145 -0.3143 -0.1772  0.3672
 7655SOL    HW134598   0.271   0.069  12.212 -0.9724  3.6270 -0.9661
 7655SOL    HW234599   0.345   0.149  12.119  0.3974  0.0613  1.4021
 7656SOL     OW34600   1.167   0.820   1.918  0.5618 -0.0837  0.4122
 7656SOL    HW134601   1.229   0.877   1.873  0.8439  0.5573  1.5890
 7656SOL    HW234602   1.151   0.751   1.854 -1.1670  0.4316  0.2992
 7657SOL     OW34603   1.859   0.547  16.338  0.4177  0.0734 -0.7243
 7657SOL    HW134604   1.847   0.526  16.245  0.1769 -0.0897 -0.6547
 7657SOL    HW234605   1.947   0.584  16.335  0.8354 -0.9761 -1.5397
 7658SOL     OW34606   0.334   0.282  10.230  0.0439 -0.1595  0.0621
 7658SOL    HW134607   0.336   0.218  10.159 -1.3286  0.6956 -0.7480
 7658SOL    HW234608   0.364   0.226  10.302  0.3197 -0.5435 -0.3525
 7659SOL     OW34609   2.500   1.305   9.844  0.0584 -0.0078  0.1976
 7659SOL    HW134610   2.405   1.309   9.833  0.3820  0.5755 -2.5330
 7659SOL    HW234611   2.506   1.249   9.921 -0.0595 -0.0137  0.2031
 7660SOL     OW34612   0.682   3.020   1.684 -0.0321 -0.0144  0.0639
 7660SOL    HW134613   0.642   2.983   1.606 -2.7491  2.1126  0.4835
 7660SOL    HW234614   0.764   3.050   1.643 -0.3329  1.3978  0.4947
 7661SOL     OW34615   1.887   1.123   2.129  0.0748  0.3013 -0.5975
 7661SOL    HW134616   1.827   1.121   2.054 -3.3675 -1.1991  2.2445
 7661SOL    HW234617   1.893   1.030   2.151  0.3747  0.4216 -0.1806
 7662SOL     OW34618   3.684   1.540   3.583 -0.6434 -0.6578 -0.2224
 7662SOL    HW134619   3.646   1.546   3.495 -0.4155 -1.4430 -0.3764
 7662SOL    HW234620   3.684   1.444   3.585  1.0882 -0.6558  0.6408
 7663SOL     OW34621   3.505   1.760   0.581 -0.3305 -0.1231 -0.2417
 7663SOL    HW134622   3.581   1.724   0.535 -2.8449 -1.7472 -3.0473
 7663SOL    HW234623   3.453   1.771   0.502 -0.7825  2.2625  0.3875
 7664SOL     OW34624   4.179   0.599   2.551  0.1478 -0.1461 -0.9040
 7664SOL    HW134625   4.107   0.602   2.614 -0.9922 -6.1162 -1.9608
 7664SOL    HW234626   4.151   0.661   2.483 -1.8353  2.8882  2.6908
 7665SOL     OW34627   0.299   3.388   5.277 -0.5360  0.2692  0.1407
 7665SOL    HW134628   0.341   3.472   5.296 -0.4889  0.0859  0.8594
 7665SOL    HW234629   0.214   3.415   5.310  0.1515  0.4648  1.7701
 7666SOL     OW34630   1.746   3.303   9.035  0.1791 -0.0295  0.6138
 7666SOL    HW134631   1.685   3.375   9.053 -1.9059 -2.0871  1.6743
 7666SOL    HW234632   1.691   3.250   8.977  1.7476 -1.1009  0.1082
 7667SOL     OW34633   0.602   3.059   8.261  0.1827  0.2642  0.1218
 7667SOL    HW134634   0.661   3.108   8.204 -0.2977  0.3576 -0.2987
 7667SOL    HW234635   0.631   3.100   8.343 -0.7617  0.9413  0.1221
 7668SOL     OW34636   2.021   0.100   6.648 -0.0512 -0.3681 -0.3811
 7668SOL    HW134637   2.010   0.142   6.563  0.9131  2.6403  1.0040
 7668SOL    HW234638   1.934   0.063   6.663 -0.2480  0.1714 -0.2263
 7669SOL     OW34639   1.000   3.806   6.677  0.6837 -0.1849  0.4687
 7669SOL    HW134640   0.998   3.900   6.658 -3.9019 -1.1372 -3.7812
 7669SOL    HW234641   0.906   3.787   6.679  0.9047 -1.4086 -0.9049
 7670SOL     OW34642   4.044   1.092  12.348  0.0128  1.0949 -0.2650
 7670SOL    HW134643   4.088   1.165  12.393 -1.1979  1.8094 -0.2482
 7670SOL    HW234644   4.120   1.048  12.309 -0.0363  0.1989  0.6624
 7671SOL     OW34645   2.621   3.104  10.906  0.6503 -0.3673  0.6387
 7671SOL    HW134646   2.607   3.159  10.828  3.1195 -3.3137 -1.9163
 7671SOL    HW234647   2.544   3.116  10.960 -0.0163 -1.7422 -0.0251
 7672SOL     OW34648   4.193   4.413   2.174  0.5300  0.0280  0.2922
 7672SOL    HW134649   4.274   4.464   2.172  0.9135 -0.6027 -0.1526
 7672SOL    HW234650   4.204   4.356   2.098  0.4401  0.1227  0.2084
 7673SOL     OW34651   2.981   2.236   5.892  0.0840 -0.4295 -0.0074
 7673SOL    HW134652   2.941   2.149   5.895 -0.8772  0.0184 -0.1452
 7673SOL    HW234653   3.007   2.236   5.800 -0.9613  0.5580 -0.2900
 7674SOL     OW34654   1.253   3.008   5.302  0.2807 -0.1282  0.0355
 7674SOL    HW134655   1.215   2.969   5.381  0.0615 -1.8111 -0.8944
 7674SOL    HW234656   1.263   3.100   5.324  1.2472 -0.3824  0.6207
 7675SOL     OW34657   1.566   1.352   8.004 -0.3256 -0.2434  0.3719
 7675SOL    HW134658   1.541   1.280   8.062  0.8933  0.0897  1.2782
 7675SOL    HW234659   1.618   1.403   8.065 -2.5767  0.8297  1.3976
 7676SOL     OW34660   3.060   2.697   4.325  0.2240  0.6555 -0.6932
 7676SOL    HW134661   3.124   2.740   4.382  0.6803  0.0578 -0.7517
 7676SOL    HW234662   2.980   2.725   4.369  0.4845  0.4507 -0.1031
 7677SOL     OW34663   3.708   0.842   7.962  0.3496  0.3651 -0.1624
 7677SOL    HW134664   3.662   0.778   7.907  1.4446 -1.2474  0.8193
 7677SOL    HW234665   3.772   0.788   8.007  0.3958 -0.2458 -0.9751
 7678SOL     OW34666   1.479   1.230   8.863  0.0636  0.2842  0.5731
 7678SOL    HW134667   1.550   1.295   8.855  1.2490 -1.1898 -0.8458
 7678SOL    HW234668   1.480   1.217   8.958  1.7965  1.0797  0.6740
 7679SOL     OW34669   3.771   0.183   3.472  0.1351  0.1015 -0.1480
 7679SOL    HW134670   3.813   0.241   3.408  0.5770  0.9718  0.9340
 7679SOL    HW234671   3.694   0.152   3.425 -0.8867  2.0277  0.2477
 7680SOL     OW34672   4.160   2.481   9.078  0.4926 -0.1589 -0.0382
 7680SOL    HW134673   4.081   2.469   9.025 -0.4784 -1.6294  1.7297
 7680SOL    HW234674   4.131   2.560   9.125 -1.1438 -1.1995  0.6863
 7681SOL     OW34675   2.482   1.188   6.629 -0.2851 -0.2613  0.2851
 7681SOL    HW134676   2.496   1.279   6.600  0.0402  0.1469  1.7046
 7681SOL    HW234677   2.399   1.193   6.676 -0.1049 -0.6431  0.6336
 7682SOL     OW34678   2.278   0.279   5.423 -0.3365 -0.0524  0.2704
 7682SOL    HW134679   2.363   0.246   5.453 -0.5294  0.6548  1.5754
 7682SOL    HW234680   2.250   0.330   5.499  3.2765  0.9559  0.9523
 7683SOL     OW34681   2.246   1.301   6.713  0.5643 -0.3981 -0.4654
 7683SOL    HW134682   2.231   1.294   6.807  1.6740  1.9764 -0.1210
 7683SOL    HW234683   2.181   1.240   6.678  1.7396 -2.5448  1.1042
 7684SOL     OW34684   2.659   0.136   1.469 -0.2840 -0.3066 -0.2506
 7684SOL    HW134685   2.704   0.056   1.442  0.4736 -0.3335  1.0979
 7684SOL    HW234686   2.725   0.185   1.519 -0.7233  0.7663 -0.7212
 7685SOL     OW34687   2.052   4.459  15.271  0.5813  0.2791  0.1387
 7685SOL    HW134688   2.082   4.535  15.221  1.9431 -0.7781 -0.6696
 7685SOL    HW234689   1.964   4.450  15.236  1.3894 -1.4501 -1.4371
 7686SOL     OW34690   2.101   0.791   1.867  0.4022 -0.2141  0.4749
 7686SOL    HW134691   2.027   0.827   1.818  1.9599 -1.3572 -2.7074
 7686SOL    HW234692   2.070   0.700   1.868 -0.5998  0.1578  2.8823
 7687SOL     OW34693   2.683   1.571  17.365 -0.2643 -0.1348 -0.1969
 7687SOL    HW134694   2.715   1.486  17.395  0.7632  0.6805  1.0176
 7687SOL    HW234695   2.655   1.555  17.275 -2.1560 -0.4600  0.4555
 7688SOL     OW34696   4.253   4.530  12.883  0.0622  0.3503 -0.2320
 7688SOL    HW134697   4.192   4.475  12.934 -1.7909  1.5196 -1.1934
 7688SOL    HW234698   4.219   4.616  12.908  0.8712 -0.1444  2.6263
 7689SOL     OW34699   0.258   3.009   0.320 -0.2746 -0.0357  0.4769
 7689SOL    HW134700   0.257   2.944   0.391 -0.9413 -1.6267 -0.9707
 7689SOL    HW234701   0.185   2.970   0.272 -2.5191  2.8461  1.5574
 7690SOL     OW34702   2.419   3.457   4.719  0.0894  0.1559  0.8875
 7690SOL    HW134703   2.450   3.531   4.666  0.7944 -1.3121 -0.7557
 7690SOL    HW234704   2.464   3.384   4.676  0.9030  1.6542 -0.8162
 7691SOL     OW34705   2.010   3.011   9.962 -0.3656 -0.6568 -0.0082
 7691SOL    HW134706   1.950   3.003   9.888 -0.3536 -0.7540 -0.0085
 7691SOL    HW234707   2.091   3.006   9.911 -0.2015 -0.2044  0.2108
 7692SOL     OW34708   4.119   1.591   4.959  0.1636  0.0261  0.4278
 7692SOL    HW134709   4.193   1.612   4.902  0.2097 -1.2755 -0.0025
 7692SOL    HW234710   4.158   1.522   5.014 -0.8743 -1.1107 -0.2766
 7693SOL     OW34711   0.933   3.069   7.200  0.0453  0.1557 -0.6850
 7693SOL    HW134712   0.847   3.103   7.177 -0.2959 -0.2565 -0.0338
 7693SOL    HW234713   0.944   3.001   7.134  0.2750 -1.6532  1.2026
 7694SOL     OW34714   0.555   0.516   7.085 -0.1819  0.3056  0.3819
 7694SOL    HW134715   0.625   0.484   7.141 -1.7111 -1.6154  1.2216
 7694SOL    HW234716   0.477   0.494   7.136  0.5039 -1.0254  0.8580
 7695SOL     OW34717   3.814   2.286   7.060 -0.2705  0.0839  0.2708
 7695SOL    HW134718   3.803   2.336   6.979  2.2742  0.8568  0.3933
 7695SOL    HW234719   3.729   2.299   7.101 -1.0332  1.5301 -1.7367
 7696SOL     OW34720   2.997   4.571   6.446  0.4773 -0.4458 -0.1415
 7696SOL    HW134721   3.056   4.505   6.412  0.6029 -0.7979  0.7541
 7696SOL    HW234722   2.968   4.536   6.530 -2.5625  0.3330 -0.8378
 7697SOL     OW34723   0.234   3.946   1.522  0.5345  0.4505  0.1972
 7697SOL    HW134724   0.187   3.946   1.604  3.0481 -1.2698  1.6488
 7697SOL    HW234725   0.220   3.855   1.497  0.2150  0.1379  1.5331
 7698SOL     OW34726   2.473   2.716   6.380 -0.0596  0.0566 -0.5724
 7698SOL    HW134727   2.522   2.639   6.408  0.2976  0.4983  0.0091
 7698SOL    HW234728   2.389   2.685   6.413  0.1204 -0.0178 -0.1828
 7699SOL     OW34729   4.416   4.502   8.125  0.4095 -0.4436 -0.1764
 7699SOL    HW134730   4.508   4.479   8.136  0.2307 -0.3390  1.5564
 7699SOL    HW234731   4.414   4.596   8.143  0.2481 -1.1194  3.4038
 7700SOL     OW34732   4.303   0.426   2.289 -0.8688  0.5004  0.4584
 7700SOL    HW134733   4.229   0.446   2.345 -1.1034  0.0791  0.2978
 7700SOL    HW234734   4.355   0.506   2.278 -1.2105  0.6472 -0.0669
 7701SOL     OW34735   2.327   2.324   2.949  0.1721 -0.4456 -0.3241
 7701SOL    HW134736   2.273   2.320   2.870  0.1928  1.6900 -0.4640
 7701SOL    HW234737   2.297   2.410   2.979 -2.1508 -1.4319  0.1936
 7702SOL     OW34738   3.613   1.578   0.172  0.5418  0.6622 -0.1191
 7702SOL    HW134739   3.637   1.661   0.131  1.5176  0.8188  0.7619
 7702SOL    HW234740   3.698   1.542   0.144 -0.6280 -1.7366 -0.5636
 7703SOL     OW34741   1.916   4.683  16.088 -0.1355  0.0269 -0.3612
 7703SOL    HW134742   1.976   0.013  16.124  0.0754 -0.7007  0.6454
 7703SOL    HW234743   1.957   4.604  16.124  2.0345  0.7475 -1.2803
 7704SOL     OW34744   0.960   0.456   4.157  0.0489 -0.1210  0.0403
 7704SOL    HW134745   1.040   0.504   4.180  0.3306 -0.9023  0.6640
 7704SOL    HW234746   0.899   0.529   4.146 -0.9432 -1.1296 -1.1585
 7705SOL     OW34747   0.922   0.272  11.867 -0.1341  0.4497  0.0447
 7705SOL    HW134748   0.835   0.230  11.866  0.1895 -0.1952 -1.0319
 7705SOL    HW234749   0.896   0.359  11.837 -1.1658  0.9582  2.4111
 7706SOL     OW34750   1.859   0.115  17.292  0.2546 -0.3511  0.3385
 7706SOL    HW134751   1.897   0.092  17.207  0.9795 -0.2193  0.6308
 7706SOL    HW234752   1.806   0.038  17.312  0.4279 -0.1816  1.4675
 7707SOL     OW34753   0.320   2.019   5.964  0.2257 -0.4527  0.2713
 7707SOL    HW134754   0.234   2.020   6.006 -0.0304  0.9260 -0.2634
 7707SOL    HW234755   0.374   1.963   6.019 -0.3822  1.7916  3.1534
 7708SOL     OW34756   0.862   3.209  10.576  0.1763  0.0471 -0.2011
 7708SOL    HW134757   0.856   3.215  10.671  1.9420  0.6733 -0.1374
 7708SOL    HW234758   0.854   3.114  10.568 -0.2998  0.0815 -0.1905
 7709SOL     OW34759   1.468   3.667   3.748 -0.0865 -0.0247  0.3649
 7709SOL    HW134760   1.407   3.738   3.770  0.5187  0.7288 -0.3750
 7709SOL    HW234761   1.458   3.609   3.823 -1.8070  1.4107  1.2584
 7710SOL     OW34762   3.427   0.079  15.309 -0.5475  0.2553  0.5586
 7710SOL    HW134763   3.382   0.142  15.365 -0.4242  0.2015  0.7180
 7710SOL    HW234764   3.401   4.735  15.356 -1.3104 -0.0082 -0.3087
 7711SOL     OW34765   3.696   0.746   2.589 -0.0916  0.3530 -0.1066
 7711SOL    HW134766   3.635   0.716   2.656  0.3887  0.4468  0.3824
 7711SOL    HW234767   3.669   0.702   2.509 -2.4089 -0.2752  1.0249
 7712SOL     OW34768   1.421   1.492  14.246  0.0248  0.1749 -0.7443
 7712SOL    HW134769   1.340   1.457  14.209  1.4174 -2.3749 -1.4438
 7712SOL    HW234770   1.401   1.471  14.337  0.5245 -0.0687 -0.6917
 7713SOL     OW34771   0.180   1.694   5.117 -0.8527  0.4110  0.6776
 7713SOL    HW134772   0.105   1.638   5.098  0.0283 -1.9265  4.0541
 7713SOL    HW234773   0.187   1.668   5.209  0.2497 -0.9690  0.2168
 7714SOL     OW34774   1.912   2.435   4.114 -0.1640 -0.1131  0.4741
 7714SOL    HW134775   1.949   2.514   4.075  0.0896 -0.0109  0.9199
 7714SOL    HW234776   1.833   2.471   4.153 -1.4437 -0.4077 -1.8764
 7715SOL     OW34777   3.046   3.275   4.955  0.4167 -0.3883 -0.1105
 7715SOL    HW134778   3.020   3.256   4.865  0.9426  0.7466 -0.4972
 7715SOL    HW234779   3.015   3.189   4.984 -0.6477 -0.9034 -2.7727
 7716SOL     OW34780   4.058   1.730   0.180 -0.0977  0.0306 -0.2878
 7716SOL    HW134781   4.114   1.804   0.202  0.1833 -1.5590  4.3458
 7716SOL    HW234782   4.018   1.708   0.264 -3.2871 -1.1570 -2.0702
 7717SOL     OW34783   1.294   1.718  11.509  0.0862  0.4122 -0.6205
 7717SOL    HW134784   1.285   1.663  11.431  1.8436  3.2390 -2.8347
 7717SOL    HW234785   1.374   1.687  11.551 -0.2205  0.8544  0.3071
 7718SOL     OW34786   1.687   4.106  15.435  0.3859  0.1268  0.1180
 7718SOL    HW134787   1.651   4.053  15.506  0.8783 -0.1932  0.1301
 7718SOL    HW234788   1.616   4.162  15.403  2.1000  2.5762  0.6018
 7719SOL     OW34789   0.619   0.091   1.867  0.0221  0.7065  0.1118
 7719SOL    HW134790   0.608   0.144   1.788  0.0472  0.8893  0.2311
 7719SOL    HW234791   0.558   0.140   1.923 -0.0218 -0.4631  1.1086
 7720SOL     OW34792   2.722   2.670   8.883 -0.1463  0.0919 -0.7230
 7720SOL    HW134793   2.659   2.704   8.947 -2.3680  0.2718 -2.9813
 7720SOL    HW234794   2.742   2.587   8.926 -1.0053  0.1485 -0.2176
 7721SOL     OW34795   2.752   3.722   6.782  0.3146 -0.0680  0.9306
 7721SOL    HW134796   2.680   3.687   6.730  1.6158 -0.8972 -0.2900
 7721SOL    HW234797   2.708   3.807   6.787 -0.9069 -0.4598 -3.7890
 7722SOL     OW34798   0.518   2.299   0.662 -0.1729 -0.2598 -0.4321
 7722SOL    HW134799   0.545   2.283   0.571  0.8214  0.0639 -0.1923
 7722SOL    HW234800   0.448   2.361   0.642  1.3298  2.1473  1.7599
 7723SOL     OW34801   3.856   2.574   5.297 -0.4690  0.5088  0.1295
 7723SOL    HW134802   3.799   2.596   5.371  0.9495  0.8039  1.1353
 7723SOL    HW234803   3.920   2.645   5.307 -0.0623  0.0082  1.0482
 7724SOL     OW34804   1.993   4.062   2.808  0.1190  0.0489  0.0624
 7724SOL    HW134805   2.003   4.105   2.723 -1.2551  0.3174  0.0343
 7724SOL    HW234806   2.055   3.991   2.796  0.1184 -0.1185  1.0156
 7725SOL     OW34807   0.707   2.781   3.851  0.5645 -0.2576 -0.2933
 7725SOL    HW134808   0.707   2.762   3.757  2.3747  0.9158 -0.5232
 7725SOL    HW234809   0.792   2.821   3.869  1.4881 -1.6637 -1.5143
 7726SOL     OW34810   4.458   2.041   1.071 -1.0185  0.0184 -0.9453
 7726SOL    HW134811   4.479   2.118   1.122 -3.3226 -2.0266  3.1369
 7726SOL    HW234812   4.522   1.972   1.092 -0.1752  1.0528 -0.1429
 7727SOL     OW34813   1.012   3.694   2.791 -0.4904 -0.0310  0.2415
 7727SOL    HW134814   1.068   3.671   2.865  1.0335 -0.5010 -1.0606
 7727SOL    HW234815   0.947   3.624   2.798  0.4465 -1.1085 -1.9376
 7728SOL     OW34816   1.813   1.876   2.842  0.6121  0.2764  0.0180
 7728SOL    HW134817   1.753   1.912   2.777 -0.5627 -0.3555  0.7539
 7728SOL    HW234818   1.823   1.954   2.897  3.1830 -0.6204  0.8275
 7729SOL     OW34819   3.320   2.728  11.110 -0.5190  0.3427 -0.8070
 7729SOL    HW134820   3.285   2.708  11.024 -0.7745 -3.3836  0.1564
 7729SOL    HW234821   3.272   2.806  11.136 -0.7266 -0.1862  0.4215
 7730SOL     OW34822   1.693   1.073   1.932 -0.6152  0.1723  0.2930
 7730SOL    HW134823   1.701   1.129   1.855  1.2416 -0.0821  0.2948
 7730SOL    HW234824   1.598   1.063   1.940 -0.5596 -0.7294 -0.1622
 7731SOL     OW34825   3.322   1.055   7.745  0.4105  0.9182  0.7427
 7731SOL    HW134826   3.340   1.021   7.833  0.3287 -1.3121 -0.0911
 7731SOL    HW234827   3.365   0.988   7.692 -1.0496 -0.1340  0.8929
 7732SOL     OW34828   1.198   2.431   2.799 -0.5055 -0.8657  0.0868
 7732SOL    HW134829   1.269   2.476   2.846  0.2504  2.3006 -4.0485
 7732SOL    HW234830   1.163   2.493   2.734  0.6366 -0.9029 -0.5680
 7733SOL     OW34831   2.951   3.878  17.628  0.3945 -0.0101  0.2543
 7733SOL    HW134832   3.008   3.812  17.587  1.9662  0.5609  1.5188
 7733SOL    HW234833   2.987   3.958  17.590 -1.7693  0.9555  0.2807
 7734SOL     OW34834   0.135   2.543  14.793 -0.0669 -0.1803  0.0273
 7734SOL    HW134835   0.061   2.602  14.783 -1.0737 -1.7270 -1.6345
 7734SOL    HW234836   0.118   2.512  14.882 -0.0003  1.4077  0.6028
 7735SOL     OW34837   3.200   1.827   0.121 -0.0645 -0.0943 -0.5532
 7735SOL    HW134838   3.147   1.839   0.042  1.4386  1.0534 -1.4075
 7735SOL    HW234839   3.277   1.789   0.078  0.5798  1.4795 -0.7952
 7736SOL     OW34840   1.514   4.574   2.999 -0.0891  0.9041  0.1058
 7736SOL    HW134841   1.492   4.667   3.006 -2.4239  0.3088  0.9171
 7736SOL    HW234842   1.580   4.571   3.068 -0.7778 -1.9714  0.6109
 7737SOL     OW34843   3.537   2.985   4.650 -0.1931  0.2290 -0.4397
 7737SOL    HW134844   3.445   3.011   4.643 -0.4580 -0.2258  1.5802
 7737SOL    HW234845   3.569   3.065   4.690 -0.8496  0.2654  0.0017
 7738SOL     OW34846   3.839   3.011   3.601 -0.1414 -0.4776  0.7040
 7738SOL    HW134847   3.867   3.011   3.509  0.2421 -1.0662  0.8238
 7738SOL    HW234848   3.795   3.096   3.604  0.7310 -0.0126  0.6375
 7739SOL     OW34849   4.105   1.627   1.642 -0.0127  0.1162  0.0008
 7739SOL    HW134850   4.174   1.621   1.708 -0.3475 -1.9240  0.1488
 7739SOL    HW234851   4.156   1.625   1.560  0.7304  0.5633  0.4449
 7740SOL     OW34852   4.635   0.755   4.621  0.3582  0.2761 -0.0708
 7740SOL    HW134853   4.598   0.827   4.570 -0.2175 -0.8705 -1.2699
 7740SOL    HW234854   4.633   0.677   4.566  0.1459 -0.0592  0.4043
 7741SOL     OW34855   3.877   3.657   6.756 -0.1232  0.1543  0.1730
 7741SOL    HW134856   3.956   3.606   6.741  0.1289 -0.2557  2.8603
 7741SOL    HW234857   3.891   3.683   6.847  0.7180  3.0450 -0.8024
 7742SOL     OW34858   2.870   1.547  11.266 -0.4698  0.3300  0.4305
 7742SOL    HW134859   2.796   1.567  11.323 -0.0706 -1.9539  1.7275
 7742SOL    HW234860   2.815   1.549  11.188 -1.7713  1.9061  1.3748
 7743SOL     OW34861   0.026   2.030   6.032 -0.0010  0.4803 -0.7371
 7743SOL    HW134862   4.719   2.106   6.071  2.2275  1.7338 -0.7238
 7743SOL    HW234863   4.718   1.958   6.078  0.3270  0.9669  0.3293
 7744SOL     OW34864   1.091   2.012   3.973  0.2677  0.4660  0.2190
 7744SOL    HW134865   1.185   2.021   3.957  0.3005  0.6602  0.5136
 7744SOL    HW234866   1.057   2.089   3.927 -0.1903 -0.6222 -1.2610
 7745SOL     OW34867   4.719   4.386  11.386 -0.0499  0.4177  0.2034
 7745SOL    HW134868   4.712   4.340  11.302  0.7938  0.1860  0.2610
 7745SOL    HW234869   0.034   4.324  11.438  1.4560  2.8545  1.6108
 7746SOL     OW34870   0.722   1.452  16.062 -0.1420 -0.4382  0.3160
 7746SOL    HW134871   0.742   1.438  15.969  0.6290  2.3750  0.0385
 7746SOL    HW234872   0.762   1.369  16.087 -3.0834 -1.5329  1.3137
 7747SOL     OW34873   1.819   2.753   2.313 -0.5356 -0.0676  0.1775
 7747SOL    HW134874   1.816   2.813   2.238 -1.9253  1.0353  1.0891
 7747SOL    HW234875   1.783   2.675   2.271  0.0280 -0.0845 -0.2727
 7748SOL     OW34876   2.999   1.768   3.293  0.4145  0.5257 -0.0467
 7748SOL    HW134877   3.076   1.735   3.340 -0.0449  1.1892  1.1717
 7748SOL    HW234878   2.956   1.814   3.366  1.4173 -1.8767  2.0754
 7749SOL     OW34879   2.448   0.464  14.768 -0.4652 -0.2925 -0.7246
 7749SOL    HW134880   2.480   0.485  14.856 -0.8341 -1.2190 -0.3666
 7749SOL    HW234881   2.504   0.397  14.729  0.4768 -0.2671  0.5770
 7750SOL     OW34882   0.258   0.783   9.373 -0.3406 -0.1190 -0.0041
 7750SOL    HW134883   0.211   0.700   9.370  2.0636 -1.5462  2.3127
 7750SOL    HW234884   0.266   0.794   9.467  2.2673 -0.0983 -0.2370
 7751SOL     OW34885   2.530   4.316   6.911  0.9123  0.3449  0.3598
 7751SOL    HW134886   2.571   4.362   6.838 -0.8427 -0.4634 -1.1401
 7751SOL    HW234887   2.590   4.333   6.984  0.1858  0.6717  0.8797
 7752SOL     OW34888   4.173   3.479   8.657  0.1876  0.3685  0.2526
 7752SOL    HW134889   4.254   3.441   8.625  1.2067  2.7732 -0.0635
 7752SOL    HW234890   4.129   3.508   8.577 -1.1510 -2.1103  0.1085
 7753SOL     OW34891   3.516   2.702   5.682 -0.4149 -0.3097 -0.0251
 7753SOL    HW134892   3.422   2.681   5.683 -0.6328  0.5534 -1.6959
 7753SOL    HW234893   3.552   2.685   5.768 -2.9660  0.5239  1.2264
 7754SOL     OW34894   3.877   3.334   5.681 -0.0208  0.7152  0.1330
 7754SOL    HW134895   3.919   3.417   5.659 -0.6274  0.4895 -1.8772
 7754SOL    HW234896   3.894   3.288   5.598  0.1031  0.3521  0.3594
 7755SOL     OW34897   1.061   3.709   3.614 -0.1539 -0.2139 -0.2052
 7755SOL    HW134898   1.144   3.736   3.654  0.9689 -0.5339 -2.2809
 7755SOL    HW234899   1.039   3.795   3.580 -0.2867 -0.5860 -1.0744
 7756SOL     OW34900   3.901   2.582   7.665 -0.2133 -0.4206  0.9689
 7756SOL    HW134901   3.863   2.546   7.745 -1.2742 -1.4051  0.0278
 7756SOL    HW234902   3.857   2.534   7.595 -1.4349 -1.5378  2.5173
 7757SOL     OW34903   1.730   1.924  16.638  0.1169 -1.1292 -0.1006
 7757SOL    HW134904   1.656   1.933  16.579 -1.1126  0.2398  1.6310
 7757SOL    HW234905   1.796   1.982  16.601 -1.1861  0.7702  0.5223
 7758SOL     OW34906   0.556   0.634   9.461  0.0269 -0.2849  0.5137
 7758SOL    HW134907   0.566   0.545   9.496 -1.5912  0.0203  1.7649
 7758SOL    HW234908   0.510   0.665   9.539 -0.8311  2.5592 -1.1218
 7759SOL     OW34909   3.858   0.470   3.413 -0.3115 -0.5848  0.2064
 7759SOL    HW134910   3.854   0.426   3.498  0.6618 -0.1095  0.5023
 7759SOL    HW234911   3.813   0.552   3.431  0.0106 -0.7190  1.5850
 7760SOL     OW34912   2.308   2.619  17.103 -0.3737 -0.1252 -0.4059
 7760SOL    HW134913   2.266   2.550  17.052 -0.9623  1.4912 -2.1121
 7760SOL    HW234914   2.323   2.682  17.032 -0.7540  0.7153  0.2628
 7761SOL     OW34915   0.648   1.187   0.657 -0.4487  0.3756 -0.0757
 7761SOL    HW134916   0.663   1.186   0.562  2.9111 -0.9381  0.4708
 7761SOL    HW234917   0.621   1.098   0.679  0.5388  0.1543  0.2098
 7762SOL     OW34918   3.138   3.853   6.916  0.0589  0.0403  0.1388
 7762SOL    HW134919   3.214   3.803   6.887  0.5851  1.6798 -1.3334
 7762SOL    HW234920   3.128   3.901   6.833 -0.4326 -1.1844 -0.5060
 7763SOL     OW34921   0.212   0.432   4.573  0.5519 -0.5362 -0.1772
 7763SOL    HW134922   0.120   0.453   4.559  0.5159 -0.2863  0.4655
 7763SOL    HW234923   0.188   0.343   4.598 -0.4931  0.0848  0.9997
 7764SOL     OW34924   4.148   0.843  15.126 -0.4779 -1.0020  0.0575
 7764SOL    HW134925   4.092   0.893  15.185 -0.6791 -0.1678 -0.8450
 7764SOL    HW234926   4.134   0.756  15.163  1.5331 -1.2602  0.1861
 7765SOL     OW34927   2.502   2.406   2.609 -0.1462  0.3080 -0.2828
 7765SOL    HW134928   2.569   2.363   2.662 -0.5578  1.3050  1.0478
 7765SOL    HW234929   2.546   2.406   2.524  0.9465  1.0359  0.2806
 7766SOL     OW34930   2.082   3.200   8.688  0.3324 -0.0306  0.1796
 7766SOL    HW134931   2.020   3.128   8.698  0.2713 -0.1738 -1.2316
 7766SOL    HW234932   2.034   3.254   8.751 -1.2761 -1.4241  0.1390
 7767SOL     OW34933   1.290   4.023  10.737  0.3298 -0.4262  0.6474
 7767SOL    HW134934   1.295   3.934  10.703 -0.6051 -0.0739 -0.4336
 7767SOL    HW234935   1.352   4.068  10.679 -0.7069 -0.3763 -0.4430
 7768SOL     OW34936   2.152   2.816   3.342  0.5753 -0.0799 -0.2963
 7768SOL    HW134937   2.201   2.898   3.345 -0.8264  0.6818  1.5343
 7768SOL    HW234938   2.088   2.842   3.408 -1.4259 -1.2819 -1.7506
 7769SOL     OW34939   0.363   4.453   7.269  0.2224  0.2500  0.2130
 7769SOL    HW134940   0.274   4.422   7.285 -0.1866  1.1897 -0.2562
 7769SOL    HW234941   0.363   4.531   7.325  0.7929  0.5272 -0.1740
 7770SOL     OW34942   4.266   1.057   8.613  0.5143 -0.2736  0.3103
 7770SOL    HW134943   4.220   1.028   8.534 -0.8656  0.7632  0.7480
 7770SOL    HW234944   4.255   1.152   8.612  2.3023 -0.0782 -0.5316
 7771SOL     OW34945   1.452   0.783   8.440  0.0161  0.5554  0.6442
 7771SOL    HW134946   1.433   0.872   8.411  1.7886  0.8739  0.4680
 7771SOL    HW234947   1.535   0.790   8.487 -1.5076  0.8258  3.2683
 7772SOL     OW34948   0.739   1.925  10.515  0.0159  0.5125  0.0961
 7772SOL    HW134949   0.690   1.901  10.594  0.6942 -0.2295  0.2918
 7772SOL    HW234950   0.709   1.861  10.450  1.9436  0.2057 -0.4801
 7773SOL     OW34951   0.901   1.543  16.561 -0.2618 -0.3597  0.7481
 7773SOL    HW134952   0.896   1.616  16.499  1.1318 -0.4918  0.4900
 7773SOL    HW234953   0.996   1.547  16.570 -0.2092  0.2564 -0.1447
 7774SOL     OW34954   2.655   3.932   7.112  0.3350 -0.2208 -0.0247
 7774SOL    HW134955   2.583   3.971   7.161  1.1074 -0.1195  1.0158
 7774SOL    HW234956   2.677   4.002   7.051  0.4487  0.7464  1.1420
 7775SOL     OW34957   3.168   2.106   1.611 -0.4233  0.1691 -0.0002
 7775SOL    HW134958   3.208   2.023   1.584  1.4150  1.4404 -1.2251
 7775SOL    HW234959   3.193   2.151   1.531  0.0327 -1.0616 -0.5528
 7776SOL     OW34960   0.027   2.837  15.468 -0.1493 -0.7751 -0.8191
 7776SOL    HW134961   0.060   2.891  15.540  0.1462 -0.7048 -1.0083
 7776SOL    HW234962   0.081   2.759  15.472  2.1442  0.8389 -0.4974
 7777SOL     OW34963   1.154   0.738   9.229  0.6407 -0.5768  0.3925
 7777SOL    HW134964   1.087   0.805   9.214  1.8677  0.1088 -2.0809
 7777SOL    HW234965   1.160   0.752   9.323 -0.4289  2.6978 -0.0265
 7778SOL     OW34966   1.759   2.572  11.247 -0.4541 -0.0461 -0.8032
 7778SOL    HW134967   1.716   2.489  11.226  2.2146 -1.8428  0.8065
 7778SOL    HW234968   1.843   2.560  11.200  0.5252 -1.5432  1.3171
 7779SOL     OW34969   4.583   2.354  17.383 -0.2661 -0.4716 -0.1040
 7779SOL    HW134970   4.677   2.363  17.370  0.1953 -1.9081  2.0932
 7779SOL    HW234971   4.551   2.424  17.327 -0.3823 -0.9541 -0.6456
 7780SOL     OW34972   0.712   2.491   5.858  0.5440 -0.7883  0.0087
 7780SOL    HW134973   0.789   2.466   5.808 -0.2051  0.2331 -1.6679
 7780SOL    HW234974   0.769   2.530   5.925 -1.3535  0.4720  0.9129
 7781SOL     OW34975   2.862   4.028   3.051  0.1074  0.2356 -0.0745
 7781SOL    HW134976   2.854   4.075   2.968  0.2454 -0.0429 -0.2467
 7781SOL    HW234977   2.927   3.958   3.043 -3.2388 -2.5610 -2.9324
 7782SOL     OW34978   0.100   1.569   6.189 -0.7188  0.1317  0.4926
 7782SOL    HW134979   0.181   1.610   6.219 -0.9280 -0.2064  1.5396
 7782SOL    HW234980   0.127   1.487   6.147 -2.3644  0.9555 -2.1744
 7783SOL     OW34981   4.524   0.563   3.746 -0.0483  0.6147 -0.2606
 7783SOL    HW134982   4.618   0.583   3.743  0.3062 -0.8626  0.9667
 7783SOL    HW234983   4.538   0.469   3.734 -2.1474  0.2702  0.1461
 7784SOL     OW34984   4.631   2.357  14.722  0.0796 -0.4482 -0.0561
 7784SOL    HW134985   4.645   2.442  14.764  1.9408 -0.8536  0.1365
 7784SOL    HW234986   4.584   2.387  14.643 -2.6680  0.5338  1.9437
 7785SOL     OW34987   3.292   3.597   5.545  0.0804  0.1650  0.1686
 7785SOL    HW134988   3.298   3.501   5.538  1.3488 -0.0168  4.1382
 7785SOL    HW234989   3.381   3.629   5.533  0.2782 -0.2934  0.4304
 7786SOL     OW34990   3.858   2.372  12.571  0.3344  0.1584  0.0320
 7786SOL    HW134991   3.863   2.408  12.660  0.8349 -0.8309  0.4046
 7786SOL    HW234992   3.796   2.299  12.578  1.0855 -0.7409 -2.6376
 7787SOL     OW34993   0.734   0.821   7.594  0.4484  0.5913  0.5758
 7787SOL    HW134994   0.733   0.748   7.532  0.3098  1.6685 -0.6918
 7787SOL    HW234995   0.731   0.892   7.530  2.7323 -0.6053 -0.8767
 7788SOL     OW34996   3.203   4.558   2.502  0.0930  0.7941  0.1973
 7788SOL    HW134997   3.126   4.582   2.450  1.0519  0.3299 -1.4402
 7788SOL    HW234998   3.276   4.568   2.441 -0.6365  0.2171 -0.7813
 7789SOL     OW34999   2.133   2.776   4.403  0.3512 -0.5054  0.1466
 7789SOL    HW135000   2.142   2.735   4.489  2.0309  0.6209  0.5106
 7789SOL    HW235001   2.070   2.844   4.425  0.3951 -0.3222 -0.2963
 7790SOL     OW35002   1.801   1.550  12.387  0.6080 -0.3586 -0.8804
 7790SOL    HW135003   1.834   1.497  12.458 -2.1225 -1.0405 -0.1359
 7790SOL    HW235004   1.712   1.556  12.422 -0.3843  1.2367 -3.6317
 7791SOL     OW35005   2.865   4.294   9.489  0.6624 -0.2694  0.0953
 7791SOL    HW135006   2.886   4.370   9.543 -0.5671  1.8245 -2.3739
 7791SOL    HW235007   2.788   4.251   9.525  0.8848 -1.2832 -0.6495
 7792SOL     OW35008   2.674   2.177   8.239  0.1994 -0.0535  0.6204
 7792SOL    HW135009   2.713   2.258   8.205 -0.0910 -0.4530 -0.6894
 7792SOL    HW235010   2.618   2.213   8.307 -2.0559 -2.2781 -0.0839
 7793SOL     OW35011   2.172   4.450  11.394 -0.1161  0.1234  0.6272
 7793SOL    HW135012   2.122   4.529  11.412  1.4014  1.3935 -0.6405
 7793SOL    HW235013   2.114   4.405  11.332  1.1931 -0.8619  0.0975
 7794SOL     OW35014   2.832   1.736  11.811 -0.2152  0.3597 -0.3145
 7794SOL    HW135015   2.911   1.789  11.817 -0.5414  0.9316 -1.1050
 7794SOL    HW235016   2.763   1.780  11.861  1.0643 -0.1884  1.9221
 7795SOL     OW35017   0.229   3.015   8.500  0.1674  0.0900 -0.2414
 7795SOL    HW135018   0.163   2.969   8.552  0.8681 -0.4397  0.1858
 7795SOL    HW235019   0.206   3.104   8.525 -1.0612 -0.8969  2.0880
 7796SOL     OW35020   1.683   1.949  15.155 -0.3380  0.5917 -0.4535
 7796SOL    HW135021   1.714   1.990  15.235  1.8896 -2.3135  0.1505
 7796SOL    HW235022   1.613   1.902  15.200 -0.5274 -0.3479 -1.7417
 7797SOL     OW35023   2.787   3.246   2.716  0.5139 -0.5003  0.1857
 7797SOL    HW135024   2.769   3.220   2.807 -0.0183  1.9022  0.7618
 7797SOL    HW235025   2.864   3.302   2.725  0.2357  0.0725 -1.0482
 7798SOL     OW35026   1.077   4.583  17.575 -0.0597  0.0235 -0.0762
 7798SOL    HW135027   1.062   4.562  17.483 -0.2463 -1.5552  0.3161
 7798SOL    HW235028   0.997   4.548  17.613  0.5473 -1.9385 -0.5943
 7799SOL     OW35029   1.602   1.747   3.376  0.2687 -0.5499 -0.0384
 7799SOL    HW135030   1.533   1.795   3.422  0.5193 -0.5973  0.3887
 7799SOL    HW235031   1.626   1.809   3.307  0.9309 -2.0107 -1.1007
 7800SOL     OW35032   1.300   1.630  10.247  0.2384  0.1473 -0.5811
 7800SOL    HW135033   1.386   1.661  10.220 -0.2175  1.1092 -0.9315
 7800SOL    HW235034   1.261   1.708  10.286  0.9276  1.1776 -1.9901
 7801SOL     OW35035   0.788   1.341   2.354 -0.0233  0.1662  0.6647
 7801SOL    HW135036   0.798   1.435   2.340  0.5001 -0.0734 -0.6405
 7801SOL    HW235037   0.872   1.313   2.392  0.5021  0.4686 -0.2714
 7802SOL     OW35038   0.384   1.017  14.538  0.2048  0.8194 -0.0762
 7802SOL    HW135039   0.336   0.938  14.510  1.1087 -0.5068  2.0953
 7802SOL    HW235040   0.393   1.063  14.455 -0.6901  1.1318 -0.0032
 7803SOL     OW35041   1.530   0.085  10.063 -0.2903 -0.3496 -0.1358
 7803SOL    HW135042   1.623   0.104  10.050 -0.1739 -1.6401 -1.1320
 7803SOL    HW235043   1.522   4.726  10.064  1.9785 -0.5333 -0.7555
 7804SOL     OW35044   1.338   0.055   2.676 -0.3314  0.9966  0.2893
 7804SOL    HW135045   1.434   0.050   2.681 -0.2304  0.5668 -2.1201
 7804SOL    HW235046   1.326   0.058   2.581  1.0547  1.9890  0.1444
 7805SOL     OW35047   2.197   3.159   7.124  0.2538  0.1051 -0.6853
 7805SOL    HW135048   2.141   3.109   7.184  1.2426 -0.4667 -0.2448
 7805SOL    HW235049   2.157   3.246   7.122 -0.3595 -0.1498  0.9007
 7806SOL     OW35050   1.712   3.594   1.093  0.1654  0.1828  0.2867
 7806SOL    HW135051   1.756   3.543   1.160  0.5553  1.6505  1.1404
 7806SOL    HW235052   1.657   3.652   1.145 -0.8589  0.3595 -0.9833
 7807SOL     OW35053   2.380   1.764   6.225 -0.4311 -0.2454  0.4868
 7807SOL    HW135054   2.465   1.806   6.230  0.4122 -2.0340  1.2348
 7807SOL    HW235055   2.349   1.800   6.308  0.4747 -1.4533  1.3510
 7808SOL     OW35056   3.478   0.542   6.566  0.9166  0.0625  0.7819
 7808SOL    HW135057   3.431   0.463   6.540  1.6321  0.2709 -1.2116
 7808SOL    HW235058   3.490   0.583   6.480 -2.4916 -1.4499 -0.4002
 7809SOL     OW35059   4.423   3.538   5.351 -1.0784  0.0601  0.1888
 7809SOL    HW135060   4.480   3.577   5.417  2.2674 -1.3659 -1.8260
 7809SOL    HW235061   4.479   3.463   5.331 -0.1745  0.8471 -0.2040
 7810SOL     OW35062   1.964   0.259   8.905  0.1847 -0.3684 -0.1171
 7810SOL    HW135063   2.041   0.316   8.908  1.8077 -2.6142  0.9326
 7810SOL    HW235064   1.977   0.214   8.822 -1.0206  0.2215 -0.6277
 7811SOL     OW35065   4.430   2.360   0.661  0.2810  0.4701 -0.0668
 7811SOL    HW135066   4.341   2.339   0.691  1.1615 -1.6626  1.0555
 7811SOL    HW235067   4.475   2.276   0.653 -0.3835  0.0326  0.7737
 7812SOL     OW35068   0.135   1.103   3.847 -0.0073 -0.2599  0.1238
 7812SOL    HW135069   0.114   1.064   3.932  0.3281  1.2811  0.9107
 7812SOL    HW235070   0.210   1.048   3.825 -0.1588 -0.0473 -0.9298
 7813SOL     OW35071   1.542   4.370   3.403 -0.0943 -0.3289  0.6664
 7813SOL    HW135072   1.530   4.445   3.345  2.4710 -0.8084 -0.4805
 7813SOL    HW235073   1.603   4.317   3.352 -0.5688 -0.4484  0.2325
 7814SOL     OW35074   1.158   3.083   3.475 -0.0508 -0.1280 -0.7780
 7814SOL    HW135075   1.243   3.060   3.514 -1.5516  0.7230  2.9265
 7814SOL    HW235076   1.129   3.146   3.541  0.6569 -0.6532  0.0338
 7815SOL     OW35077   0.615   4.727   2.586 -0.6317 -0.3412 -0.1141
 7815SOL    HW135078   0.567   4.734   2.668  0.8405 -1.1557  0.8143
 7815SOL    HW235079   0.641   0.083   2.582 -0.9995 -0.3315 -2.2962
 7816SOL     OW35080   4.155   0.285   9.176 -0.3845  0.0011  0.1898
 7816SOL    HW135081   4.137   0.201   9.135  1.0716  0.3689 -1.2175
 7816SOL    HW235082   4.066   0.320   9.166 -0.7356 -1.2784 -1.1771
 7817SOL     OW35083   1.499   2.494  17.376  0.1957 -0.2766 -0.1337
 7817SOL    HW135084   1.493   2.554  17.451  1.3396  1.6683 -1.5822
 7817SOL    HW235085   1.497   2.555  17.303 -0.6434 -0.0751  0.0607
 7818SOL     OW35086   3.430   0.641  17.551 -0.0495  0.1590 -0.4276
 7818SOL    HW135087   3.419   0.733  17.578  1.9681  0.1260  0.5717
 7818SOL    HW235088   3.480   0.604  17.624  0.1953  0.2889 -0.5275
 7819SOL     OW35089   2.889   4.723   3.854  0.6521  0.4337 -0.1121
 7819SOL    HW135090   2.895   4.701   3.947  3.7462  0.0891 -0.4052
 7819SOL    HW235091   2.816   4.665   3.833 -0.0272  2.0667 -2.2717
 7820SOL     OW35092   3.362   3.970  10.831 -0.3672 -0.6137 -0.0299
 7820SOL    HW135093   3.406   3.972  10.916 -1.1235 -0.0602  0.3527
 7820SOL    HW235094   3.339   3.879  10.812 -1.6443 -0.0635 -1.1797
 7821SOL     OW35095   1.870   4.052   3.034  0.0437  0.2325 -0.0974
 7821SOL    HW135096   1.805   3.987   3.007  1.7246 -1.3594 -0.3323
 7821SOL    HW235097   1.919   4.048   2.952  0.0885 -1.4143  0.0229
 7822SOL     OW35098   3.349   3.382  10.027 -0.0767  0.1096 -0.5831
 7822SOL    HW135099   3.358   3.301  10.077  1.1308  1.0479  0.7303
 7822SOL    HW235100   3.274   3.376   9.968 -0.9782 -0.6583  0.6566
 7823SOL     OW35101   1.071   0.849   7.235  0.1587 -0.9081 -0.3095
 7823SOL    HW135102   1.022   0.926   7.261 -0.1759 -0.6115 -1.8177
 7823SOL    HW235103   1.072   0.787   7.308  2.3097  0.8329  1.1690
 7824SOL     OW35104   4.180   1.374   6.743 -0.2556  0.0563  0.1668
 7824SOL    HW135105   4.202   1.342   6.831 -3.0792  2.6953  1.8630
 7824SOL    HW235106   4.096   1.419   6.759 -1.7094 -1.9859 -1.7549
 7825SOL     OW35107   2.588   2.363   3.024 -0.3379 -0.1033  0.7563
 7825SOL    HW135108   2.495   2.353   3.002 -0.3202  1.8130 -0.2516
 7825SOL    HW235109   2.634   2.334   2.945 -1.6744 -0.4932  0.1048
 7826SOL     OW35110   2.125   1.103   0.516  0.7236 -0.3203 -0.4426
 7826SOL    HW135111   2.107   1.034   0.452 -0.5041 -0.6220  0.2211
 7826SOL    HW235112   2.221   1.104   0.518  0.6790  2.6997 -0.6153
 7827SOL     OW35113   3.655   1.398   5.242 -0.4376 -0.2778  0.1732
 7827SOL    HW135114   3.728   1.439   5.288 -0.2275  2.0426 -2.2402
 7827SOL    HW235115   3.674   1.445   5.161 -0.7011 -1.5965 -0.6532
 7828SOL     OW35116   4.590   3.975  14.452  0.5776 -0.7238  0.0634
 7828SOL    HW135117   4.551   4.054  14.490 -0.6461 -1.0874 -0.4186
 7828SOL    HW235118   4.683   3.994  14.447  0.6509 -1.0628  0.1830
 7829SOL     OW35119   1.208   3.620  12.501 -0.2579 -0.1092 -0.4767
 7829SOL    HW135120   1.284   3.605  12.558 -1.8370  0.1723  1.7059
 7829SOL    HW235121   1.246   3.569  12.429  0.3085 -0.2709 -0.0684
 7830SOL     OW35122   4.648   4.646  10.370 -0.3145  0.4395  0.0821
 7830SOL    HW135123   4.632   4.734  10.338 -0.7388  0.3107 -0.0620
 7830SOL    HW235124   4.592   4.638  10.447 -0.1067 -0.2266  0.1687
 7831SOL     OW35125   3.910   2.943   8.408  0.0447 -0.4533 -0.0131
 7831SOL    HW135126   3.916   2.873   8.474 -0.1114 -0.8801 -0.4509
 7831SOL    HW235127   3.972   3.010   8.436 -1.6833  0.8110  0.7853
 7832SOL     OW35128   3.317   3.059   7.793  0.3186 -0.0087  0.0878
 7832SOL    HW135129   3.359   3.040   7.709  3.6734  0.3279  1.7053
 7832SOL    HW235130   3.375   3.000   7.842  1.7062  0.9794 -0.3957
 7833SOL     OW35131   3.571   1.815   6.219 -0.0144  0.5644  0.0166
 7833SOL    HW135132   3.556   1.726   6.189 -3.2462  0.6683  1.2961
 7833SOL    HW235133   3.641   1.801   6.282 -0.0861 -0.9731 -0.2480
 7834SOL     OW35134   4.144   1.524   3.484  0.2792  0.1494 -0.0745
 7834SOL    HW135135   4.211   1.457   3.470  1.8310  1.6893  0.0896
 7834SOL    HW235136   4.069   1.464   3.490  1.0243 -0.6592  1.3484
 7835SOL     OW35137   0.523   4.170   8.870  0.4281 -0.4853 -0.0752
 7835SOL    HW135138   0.446   4.117   8.888  0.4012 -1.4599 -3.1012
 7835SOL    HW235139   0.600   4.117   8.892  0.3355 -0.2629  0.7790
 7836SOL     OW35140   0.001   4.711  16.242  1.0605 -0.2187 -0.0824
 7836SOL    HW135141   0.089   4.676  16.226  0.4878 -2.4238  1.5312
 7836SOL    HW235142   4.700   4.715  16.154  1.1343  2.3450  0.0022
 7837SOL     OW35143   0.342   2.601   6.723 -0.2605 -0.1439  0.2622
 7837SOL    HW135144   0.285   2.564   6.791 -0.4177 -0.7281 -0.1894
 7837SOL    HW235145   0.312   2.565   6.639  2.6097 -0.4408 -0.6134
 7838SOL     OW35146   4.128   3.348   6.995 -0.1116  0.1657  0.1697
 7838SOL    HW135147   4.173   3.426   6.964 -0.1827 -0.3351 -1.1873
 7838SOL    HW235148   4.055   3.346   6.932 -1.0978  2.9685  1.2218
 7839SOL     OW35149   2.408   3.203  10.328  0.8975 -0.2019 -0.2647
 7839SOL    HW135150   2.392   3.290  10.364 -0.5427  0.3540 -2.2405
 7839SOL    HW235151   2.371   3.212  10.240  0.7193  1.2518 -0.0506
 7840SOL     OW35152   1.142   2.007   6.055  0.0075 -0.5326  0.3740
 7840SOL    HW135153   1.181   1.951   6.122  1.1516 -1.1393 -0.7796
 7840SOL    HW235154   1.077   1.949   6.015  0.7054 -0.9638 -0.1303
 7841SOL     OW35155   3.001   3.687  14.224  0.2622  0.2400 -0.0959
 7841SOL    HW135156   3.015   3.649  14.311 -1.9150 -0.7793 -0.1877
 7841SOL    HW235157   2.996   3.778  14.255 -1.7923  0.1729 -0.2200
 7842SOL     OW35158   2.964   1.866   2.417 -0.4012 -0.4906  0.3135
 7842SOL    HW135159   3.009   1.854   2.500 -0.3230  0.3568  0.3912
 7842SOL    HW235160   3.040   1.892   2.365 -0.6202  3.0670  1.7810
 7843SOL     OW35161   3.322   0.300   4.226 -0.1853 -0.6116 -0.2655
 7843SOL    HW135162   3.342   0.349   4.146 -1.6655  1.6568  0.7437
 7843SOL    HW235163   3.304   0.216   4.184 -0.2055  0.2521 -2.0042
 7844SOL     OW35164   3.631   2.211  12.173  0.1471 -0.2669  0.0070
 7844SOL    HW135165   3.569   2.176  12.109 -0.6742 -0.5224  0.9502
 7844SOL    HW235166   3.602   2.299  12.197 -1.8609 -1.0792  0.4713
 7845SOL     OW35167   0.273   0.241   6.623  0.1160 -0.4190  0.0358
 7845SOL    HW135168   0.219   0.290   6.560  1.2041  0.0172 -0.5580
 7845SOL    HW235169   0.236   0.154   6.611 -0.6389 -0.1148  0.0874
 7846SOL     OW35170   0.225   1.347   3.766 -0.3372  0.4466 -0.5068
 7846SOL    HW135171   0.154   1.402   3.801  2.2432  2.8674  0.8622
 7846SOL    HW235172   0.194   1.260   3.789 -0.1149  0.1747 -1.2271
 7847SOL     OW35173   0.290   0.730   2.187  0.1807  0.2264  0.0154
 7847SOL    HW135174   0.308   0.788   2.261 -0.5775 -1.4505  1.5124
 7847SOL    HW235175   0.352   0.774   2.129 -0.9002  3.3941  1.2457
 7848SOL     OW35176   2.982   0.572   6.668 -0.7674  0.4735 -0.4332
 7848SOL    HW135177   3.027   0.605   6.746 -0.1950 -0.3484 -0.4169
 7848SOL    HW235178   2.942   0.650   6.630 -1.4796  0.5416  0.4704
 7849SOL     OW35179   0.231   1.981   1.196  0.2966  0.1541  0.4341
 7849SOL    HW135180   0.236   2.044   1.269 -0.6429 -0.4770  1.0311
 7849SOL    HW235181   0.257   2.030   1.118 -0.1788 -1.3274 -0.6356
 7850SOL     OW35182   4.530   3.218   8.866 -0.1239 -0.0454  0.4046
 7850SOL    HW135183   4.545   3.311   8.886 -1.3637  0.0805  0.7519
 7850SOL    HW235184   4.440   3.204   8.896 -0.5136  0.1656 -0.6495
 7851SOL     OW35185   2.184   3.499   2.676 -0.1339 -0.3996 -0.0385
 7851SOL    HW135186   2.179   3.528   2.767 -0.5726 -1.4987  0.2844
 7851SOL    HW235187   2.184   3.405   2.693  1.2371 -0.1697  1.2386
 7852SOL     OW35188   2.103   2.265   5.871  0.3333  0.0036 -0.2232
 7852SOL    HW135189   2.132   2.345   5.827 -0.5601 -0.7841 -2.2306
 7852SOL    HW235190   2.048   2.224   5.803  0.2660  1.8758 -1.2990
 7853SOL     OW35191   2.356   1.889  14.712  0.0393 -0.3606 -0.3829
 7853SOL    HW135192   2.317   1.820  14.660 -3.4056 -0.2542  2.0078
 7853SOL    HW235193   2.428   1.920  14.658 -0.2785 -0.1343 -0.6747
 7854SOL     OW35194   4.569   3.817   7.165  0.1574  0.0371 -0.1442
 7854SOL    HW135195   4.476   3.794   7.168  0.3193 -0.9603 -3.2468
 7854SOL    HW235196   4.599   3.744   7.110  1.0347 -0.0351  0.4222
 7855SOL     OW35197   2.271   3.671   3.569  0.2220 -0.2992 -0.5795
 7855SOL    HW135198   2.249   3.657   3.476  0.5104 -0.3088 -0.6455
 7855SOL    HW235199   2.278   3.766   3.572 -0.5811 -0.2546  0.0595
 7856SOL     OW35200   1.772   2.609   6.944 -0.3550 -0.0304 -0.7788
 7856SOL    HW135201   1.849   2.662   6.921 -0.7316  1.6166  1.7334
 7856SOL    HW235202   1.786   2.603   7.038  1.2821  0.4756 -0.9928
 7857SOL     OW35203   2.931   1.915   5.232  0.2561 -0.2909 -0.6723
 7857SOL    HW135204   2.996   1.847   5.218  0.2905 -0.7952  1.9311
 7857SOL    HW235205   2.960   1.968   5.158 -0.2668 -1.3983 -1.6522
 7858SOL     OW35206   1.857   0.135   9.890 -0.2688  0.1372 -0.2481
 7858SOL    HW135207   1.832   0.171   9.805 -2.6296  1.5596  1.0614
 7858SOL    HW235208   1.809   0.052   9.885  1.0270 -0.7158  1.5715
 7859SOL     OW35209   2.789   0.157   2.775 -0.8045  0.8394 -0.4383
 7859SOL    HW135210   2.881   0.177   2.788 -0.7510  1.0142 -1.0807
 7859SOL    HW235211   2.789   0.139   2.681 -2.3952 -1.3398 -0.0270
 7860SOL     OW35212   4.460   1.236   4.996  0.0290  0.0267  0.3752
 7860SOL    HW135213   4.468   1.162   5.055  1.3724  0.1257  0.3120
 7860SOL    HW235214   4.396   1.202   4.933 -1.7189 -2.1147  3.2888
 7861SOL     OW35215   0.941   3.426   9.061 -0.2759  0.0831 -0.7834
 7861SOL    HW135216   1.019   3.396   9.014 -0.3142 -0.6792 -0.3552
 7861SOL    HW235217   0.980   3.501   9.107  3.0257  0.0030 -3.4410
 7862SOL     OW35218   3.882   0.482  11.727 -0.4714  0.3526  0.0600
 7862SOL    HW135219   3.797   0.439  11.742  0.4739 -1.3748  0.4716
 7862SOL    HW235220   3.917   0.422  11.661 -0.4946  1.3136 -0.8091
 7863SOL     OW35221   4.482   2.975   6.792 -0.1263  0.1829 -0.3702
 7863SOL    HW135222   4.426   3.049   6.816  1.9417  1.8988 -0.8082
 7863SOL    HW235223   4.531   2.963   6.873 -0.1750  0.2972 -0.3243
 7864SOL     OW35224   1.001   4.513   1.955  0.0112  0.0131 -0.1165
 7864SOL    HW135225   1.016   4.477   2.043 -2.7517 -0.3350  0.1963
 7864SOL    HW235226   0.922   4.563   1.978 -1.3722 -2.3359  0.1678
 7865SOL     OW35227   2.827   0.616   8.550 -0.6469 -0.0277 -0.6993
 7865SOL    HW135228   2.741   0.630   8.590  0.9020  2.0079  1.9417
 7865SOL    HW235229   2.872   0.680   8.605 -0.8425  0.2642 -0.8848
 7866SOL     OW35230   3.680   0.254   9.236  0.0560  0.0078 -0.2840
 7866SOL    HW135231   3.599   0.214   9.204  0.8448  0.8021 -3.3219
 7866SOL    HW235232   3.650   0.336   9.274 -0.8069 -0.8558  0.9189
 7867SOL     OW35233   4.155   1.045   6.301  0.0978  0.1103 -0.5433
 7867SOL    HW135234   4.156   1.082   6.389  0.3236  3.0155 -1.7698
 7867SOL    HW235235   4.103   1.115   6.262 -0.8981 -0.5133 -0.3341
 7868SOL     OW35236   2.640   4.416   2.680 -0.0466  0.0622 -0.4765
 7868SOL    HW135237   2.639   4.395   2.774 -0.8339 -1.3103 -0.7940
 7868SOL    HW235238   2.735   4.412   2.665  0.2558  0.3161  1.2975
 7869SOL     OW35239   3.252   0.534   3.707  0.7583  0.5864  0.0230
 7869SOL    HW135240   3.213   0.611   3.748  3.7295  2.7283 -1.1313
 7869SOL    HW235241   3.254   0.550   3.612 -0.3290  1.3987  0.1450
 7870SOL     OW35242   3.252   1.153   1.823  1.0032 -0.3888 -0.5184
 7870SOL    HW135243   3.294   1.238   1.813  2.0776 -0.8718 -0.0581
 7870SOL    HW235244   3.182   1.160   1.758  2.5604  0.2001 -2.1202
 7871SOL     OW35245   2.451   3.562   3.007  0.6068 -0.5308  0.0997
 7871SOL    HW135246   2.496   3.646   3.000  0.5387 -0.5219 -0.2524
 7871SOL    HW235247   2.374   3.584   3.059 -1.8066 -2.7724 -2.5240
 7872SOL     OW35248   4.281   0.198  15.496 -0.4978 -0.2213 -0.3317
 7872SOL    HW135249   4.269   0.125  15.557 -0.7590  0.5116  0.5069
 7872SOL    HW235250   4.205   0.249  15.525  2.1720  2.0909  2.5660
 7873SOL     OW35251   2.010   0.560  17.513 -0.4747 -0.2619  0.1084
 7873SOL    HW135252   2.071   0.588  17.446 -1.2228 -4.1873 -2.2131
 7873SOL    HW235253   2.001   0.469  17.486 -1.4900 -0.1208 -0.0575
 7874SOL     OW35254   4.519   1.809   7.125 -0.1420  0.2181  0.3524
 7874SOL    HW135255   4.449   1.775   7.068  0.2175 -0.7089  0.4657
 7874SOL    HW235256   4.471   1.877   7.173  0.1602  0.5226  0.2201
 7875SOL     OW35257   4.122   2.219  10.074 -0.5201  0.0936 -0.4874
 7875SOL    HW135258   4.029   2.238  10.064 -1.2589 -1.7380  2.7650
 7875SOL    HW235259   4.142   2.308  10.047  0.9202  0.0682  0.4498
 7876SOL     OW35260   0.747   3.721   5.056 -0.5437 -0.3506  0.4702
 7876SOL    HW135261   0.827   3.683   5.019 -1.7260 -0.2583 -2.1219
 7876SOL    HW235262   0.749   3.806   5.012  0.0377 -2.4243 -3.5489
 7877SOL     OW35263   0.416   4.316  10.888  0.4916  0.4084  0.1427
 7877SOL    HW135264   0.326   4.285  10.897  0.6779 -0.4136 -0.9377
 7877SOL    HW235265   0.431   4.356  10.974 -0.5615 -1.4187  1.1900
 7878SOL     OW35266   0.461   1.900   2.129  0.2370  0.1474  0.5213
 7878SOL    HW135267   0.393   1.948   2.175  0.8950  1.5743  0.0019
 7878SOL    HW235268   0.538   1.917   2.183  0.2765  1.0448  0.1784
 7879SOL     OW35269   4.041   4.643   8.003 -0.2366  0.3780 -0.3719
 7879SOL    HW135270   4.032   4.585   7.927 -1.8732 -1.0392  0.8951
 7879SOL    HW235271   4.133   4.668   8.012  0.1681 -1.1269 -0.3067
 7880SOL     OW35272   4.613   0.307   3.702 -0.6967  0.0066  0.6257
 7880SOL    HW135273   4.588   0.225   3.659 -1.5031 -1.2761  3.5184
 7880SOL    HW235274   4.704   0.313   3.672 -0.3928 -1.3262  1.2712
 7881SOL     OW35275   1.902   3.186   6.740 -0.4557  0.1887 -0.6044
 7881SOL    HW135276   1.991   3.174   6.706  0.0943 -0.6232  1.0839
 7881SOL    HW235277   1.928   3.266   6.785 -0.9499  0.3522 -0.6166
 7882SOL     OW35278   1.911   2.070   5.595 -0.0293  0.1491 -0.2319
 7882SOL    HW135279   1.873   2.028   5.518  0.6833 -0.9460  0.0118
 7882SOL    HW235280   1.884   2.162   5.595 -2.6359 -0.6081  1.1042
 7883SOL     OW35281   2.000   0.477   3.472  0.0057  0.1552 -0.2601
 7883SOL    HW135282   1.939   0.546   3.497  2.7194  2.5256 -0.1586
 7883SOL    HW235283   2.049   0.518   3.400  1.3755 -0.6535  0.2109
 7884SOL     OW35284   2.847   3.417   3.709  0.2270  0.2750 -0.1871
 7884SOL    HW135285   2.906   3.363   3.762 -2.3862  0.6901  3.0961
 7884SOL    HW235286   2.813   3.346   3.654  0.9578  0.0794 -0.3915
 7885SOL     OW35287   1.559   2.104   2.875  0.2855 -0.3977 -0.0554
 7885SOL    HW135288   1.618   2.176   2.897 -1.3896  0.1271  2.7694
 7885SOL    HW235289   1.582   2.093   2.783 -1.5619  0.5620 -0.6399
 7886SOL     OW35290   1.563   3.223  12.770 -0.2955 -0.3999  0.4359
 7886SOL    HW135291   1.554   3.149  12.831 -0.5204 -0.9364 -0.2436
 7886SOL    HW235292   1.557   3.293  12.834 -2.0752  0.1082 -0.2651
 7887SOL     OW35293   3.036   3.754   2.306 -0.1361 -0.0717 -0.3694
 7887SOL    HW135294   2.962   3.720   2.256  2.1559 -1.8940 -2.5186
 7887SOL    HW235295   3.102   3.728   2.242 -0.5196 -3.1123  0.4782
 7888SOL     OW35296   1.599   2.990   6.972 -0.4766 -0.2353  0.1416
 7888SOL    HW135297   1.534   3.056   6.996  0.3796  0.4735  0.4864
 7888SOL    HW235298   1.646   2.975   7.053 -0.3312 -1.1695 -0.1165
 7889SOL     OW35299   1.939   0.891   1.302  0.1436 -0.5422  0.7943
 7889SOL    HW135300   1.909   0.868   1.214 -0.3717  0.6325  0.6680
 7889SOL    HW235301   2.033   0.881   1.290  0.5880  2.1270  2.2078
 7890SOL     OW35302   1.280   2.620   5.055  0.4018 -0.0538 -0.0824
 7890SOL    HW135303   1.204   2.637   5.000  1.5600 -0.8458 -1.9359
 7890SOL    HW235304   1.309   2.710   5.070 -0.1494  0.5763 -2.8005
 7891SOL     OW35305   0.031   1.334   5.830 -0.5235 -0.2974 -0.1640
 7891SOL    HW135306   0.088   1.333   5.754 -0.2276 -0.7385  0.0665
 7891SOL    HW235307   0.008   1.424   5.854 -2.0017  0.0722 -2.9985
 7892SOL     OW35308   1.040   0.540   5.612  0.1211 -0.3875  0.6140
 7892SOL    HW135309   0.971   0.587   5.566 -0.7766 -0.1638  2.2192
 7892SOL    HW235310   1.044   0.465   5.552  0.9780 -0.9682  1.3876
 7893SOL     OW35311   4.016   3.710   3.237 -0.3011  0.5691 -0.1951
 7893SOL    HW135312   4.024   3.615   3.244  0.6279  0.6039 -0.7133
 7893SOL    HW235313   3.950   3.717   3.168  0.6543 -0.5625 -1.2216
 7894SOL     OW35314   4.421   3.041   5.700 -0.2566  0.3351 -0.5864
 7894SOL    HW135315   4.473   2.980   5.753 -1.0954 -2.3126 -2.7994
 7894SOL    HW235316   4.482   3.111   5.676  1.0188  0.0084  1.7170
 7895SOL     OW35317   0.085   1.607   1.067 -0.4699 -0.6636  0.2536
 7895SOL    HW135318   0.172   1.646   1.058 -1.0701  0.1823 -1.9444
 7895SOL    HW235319   0.116   1.523   1.099 -0.4913  0.0243  2.0931
 7896SOL     OW35320   4.204   2.335   9.485  0.3046 -0.1876  0.2785
 7896SOL    HW135321   4.229   2.415   9.438 -0.1176  0.0194  0.4014
 7896SOL    HW235322   4.163   2.369   9.564  1.5949 -2.9901  2.1295
 7897SOL     OW35323   4.311   0.698   0.403 -0.3802  0.2887  0.2150
 7897SOL    HW135324   4.294   0.689   0.309  0.5771 -2.2500  0.2755
 7897SOL    HW235325   4.382   0.634   0.403 -0.9513 -0.3500 -3.0193
 7898SOL     OW35326   2.941   4.619   5.495  0.0502  0.4614 -0.1071
 7898SOL    HW135327   2.937   4.562   5.419 -0.5961 -0.1121  0.3582
 7898SOL    HW235328   3.015   4.583   5.545  0.6935  3.4607  1.1323
 7899SOL     OW35329   0.276   0.460  15.659  0.4828 -0.7004 -0.2213
 7899SOL    HW135330   0.210   0.393  15.639 -1.6006  0.7170  1.8238
 7899SOL    HW235331   0.339   0.401  15.699 -0.2541 -0.7284  0.8939
 7900SOL     OW35332   2.746   1.080   7.065  0.1891  0.5836 -0.0487
 7900SOL    HW135333   2.709   1.105   7.150 -1.4662  0.9199 -0.8914
 7900SOL    HW235334   2.730   1.159   7.014  0.7469  0.6825 -0.0700
 7901SOL     OW35335   3.050   4.113  17.524 -0.0289  0.3206  0.4985
 7901SOL    HW135336   3.093   4.198  17.517 -0.0657  0.0487 -3.0790
 7901SOL    HW235337   2.979   4.115  17.459 -1.0945 -0.2035  1.6432
 7902SOL     OW35338   0.545   0.402   9.583  0.9485 -0.2337  0.0986
 7902SOL    HW135339   0.575   0.316   9.612  1.4442  0.0123  0.3241
 7902SOL    HW235340   0.530   0.451   9.664 -0.2766 -3.7150  1.9718
 7903SOL     OW35341   0.964   4.419   3.623  0.6736 -0.1103  0.1659
 7903SOL    HW135342   0.926   4.399   3.708 -2.1815  0.5274 -0.9626
 7903SOL    HW235343   1.048   4.454   3.652  1.3513 -1.1720 -0.4977
 7904SOL     OW35344   2.704   2.458   8.327  0.3032 -0.4480 -0.4783
 7904SOL    HW135345   2.771   2.513   8.285 -1.1430  1.5718 -0.1489
 7904SOL    HW235346   2.679   2.516   8.399 -1.4622 -2.5462  0.5997
 7905SOL     OW35347   3.676   2.849  16.717 -0.1337 -0.3531  0.2959
 7905SOL    HW135348   3.685   2.935  16.678  1.8205 -1.5848 -1.9798
 7905SOL    HW235349   3.581   2.850  16.726 -0.3674  0.4681 -2.3888
 7906SOL     OW35350   2.311   0.819   7.320  0.2218  0.0316 -0.5328
 7906SOL    HW135351   2.368   0.748   7.290 -0.7575  0.0053 -2.3094
 7906SOL    HW235352   2.340   0.845   7.408  0.5851 -0.7828 -0.4067
 7907SOL     OW35353   0.684   4.091   6.650 -0.2050 -0.3940  0.4774
 7907SOL    HW135354   0.641   4.138   6.578  2.7530 -0.3181 -1.2023
 7907SOL    HW235355   0.652   4.135   6.729  0.4054 -0.1530  0.5844
 7908SOL     OW35356   3.370   0.370   1.410 -0.1059  0.5214 -0.2032
 7908SOL    HW135357   3.416   0.434   1.465  1.8485 -1.9349  1.0400
 7908SOL    HW235358   3.406   0.395   1.325 -0.7519  0.4585 -0.4975
 7909SOL     OW35359   1.996   3.450   7.697  0.0789 -0.7101  0.1572
 7909SOL    HW135360   1.975   3.385   7.629  1.1728 -0.5522 -0.3311
 7909SOL    HW235361   2.062   3.399   7.744  2.4129  1.4734 -0.7843
 7910SOL     OW35362   4.011   3.923   6.816 -1.3104 -0.1415 -0.6247
 7910SOL    HW135363   3.968   3.869   6.882  0.6678  0.1110  0.8745
 7910SOL    HW235364   3.939   3.980   6.790 -1.5483  0.3156  1.0163
 7911SOL     OW35365   4.700   0.302   5.360 -0.5958 -0.4461  0.2468
 7911SOL    HW135366   0.023   0.227   5.347  1.0079  0.7696  0.5697
 7911SOL    HW235367   4.661   0.300   5.272  0.8478  0.1689 -0.4119
 7912SOL     OW35368   4.159   0.808   6.171 -0.3150  0.0573 -0.0719
 7912SOL    HW135369   4.150   0.892   6.216  0.1052  0.5593 -0.9253
 7912SOL    HW235370   4.255   0.800   6.177 -0.5295 -1.5666  1.1597
 7913SOL     OW35371   1.256   3.323  10.524  0.2335 -0.6222 -0.5351
 7913SOL    HW135372   1.340   3.367  10.516 -0.4836  1.6483  4.8942
 7913SOL    HW235373   1.240   3.331  10.618 -1.8288  0.9203 -1.0098
 7914SOL     OW35374   0.207   3.962  13.182  0.3414  0.0970 -0.7092
 7914SOL    HW135375   0.111   3.956  13.177  0.3168  0.4263 -0.6573
 7914SOL    HW235376   0.237   3.933  13.096  2.2061 -1.0307  0.3173
 7915SOL     OW35377   4.325   1.354   2.842 -0.2858 -0.2195  0.2158
 7915SOL    HW135378   4.232   1.361   2.862 -0.2628 -0.7426  0.5148
 7915SOL    HW235379   4.330   1.263   2.811 -0.0211  0.7128 -2.4673
 7916SOL     OW35380   4.141   2.415   0.172  0.5877  0.0037  0.7272
 7916SOL    HW135381   4.118   2.493   0.122 -0.4055 -0.6863  0.1071
 7916SOL    HW235382   4.151   2.442   0.264  2.6436 -1.3008  0.8808
 7917SOL     OW35383   0.699   1.786  13.476 -0.2362 -0.0579 -0.0705
 7917SOL    HW135384   0.626   1.801  13.415 -0.9217 -0.0817  0.7282
 7917SOL    HW235385   0.640   1.781  13.552 -0.0424 -3.7831 -0.1883
 7918SOL     OW35386   1.261   3.830   3.814  0.5381 -0.6240  0.3228
 7918SOL    HW135387   1.187   3.826   3.874 -0.4471  2.2296 -0.7287
 7918SOL    HW235388   1.301   3.914   3.835  2.0163 -1.0559 -0.7418
 7919SOL     OW35389   4.582   4.659   2.991 -0.1785  0.1353 -0.2100
 7919SOL    HW135390   4.614   4.718   2.922  0.3487 -0.1266 -0.1892
 7919SOL    HW235391   4.591   4.577   2.943  1.6264  0.9750 -1.3200
 7920SOL     OW35392   4.284   3.220  13.938 -0.3506  0.0979 -0.1902
 7920SOL    HW135393   4.249   3.223  14.027 -0.7645  0.9785 -0.3812
 7920SOL    HW235394   4.198   3.216  13.896 -1.0255 -1.1879  1.2998
 7921SOL     OW35395   0.189   3.678   5.523 -0.3853  0.5905 -0.2423
 7921SOL    HW135396   0.219   3.733   5.451 -0.5724  2.0909  0.8329
 7921SOL    HW235397   0.278   3.660   5.553 -0.4815 -1.1645 -0.9997
 7922SOL     OW35398   0.317   2.737   8.806 -0.1160 -0.4239 -0.4933
 7922SOL    HW135399   0.336   2.737   8.899  0.7899  1.2946 -0.6688
 7922SOL    HW235400   0.399   2.707   8.766 -0.0077  0.7915 -1.2021
 7923SOL     OW35401   1.619   1.629  14.902 -0.4181  0.7162  0.2025
 7923SOL    HW135402   1.558   1.658  14.835  1.2097  0.9173 -1.2086
 7923SOL    HW235403   1.555   1.639  14.972 -2.6839  2.1490 -2.0677
 7924SOL     OW35404   4.439   4.013   1.626 -0.3279 -0.0150 -0.2891
 7924SOL    HW135405   4.370   4.045   1.685 -0.1200 -0.0055 -0.0475
 7924SOL    HW235406   4.494   4.090   1.615  0.0299 -0.1603  0.4554
 7925SOL     OW35407   3.367   0.573  12.791 -0.1182 -0.0270 -0.5338
 7925SOL    HW135408   3.447   0.564  12.740  0.8647  3.7024  0.3802
 7925SOL    HW235409   3.371   0.669  12.792 -2.6563  0.0467  1.5238
 7926SOL     OW35410   1.340   1.002   8.322  0.2207  0.1215  0.5950
 7926SOL    HW135411   1.296   1.072   8.370  2.3011  1.4543  0.5636
 7926SOL    HW235412   1.274   0.934   8.310 -0.6499  1.3104 -1.3249
 7927SOL     OW35413   2.909   0.689   0.199  0.3869 -0.5876 -0.0572
 7927SOL    HW135414   2.955   0.694   0.283  2.3902  0.2709 -1.2247
 7927SOL    HW235415   2.895   0.595   0.187  0.6853 -0.7073  0.5303
 7928SOL     OW35416   0.458   3.506   7.027 -0.3726 -0.2960  0.1048
 7928SOL    HW135417   0.488   3.420   7.056 -0.2772 -0.3518 -0.1600
 7928SOL    HW235418   0.363   3.494   7.019 -0.4349  0.0474  0.3349
 7929SOL     OW35419   1.921   4.242   5.819 -0.5509 -0.7365 -0.4345
 7929SOL    HW135420   1.950   4.266   5.907 -0.6032 -0.6978 -0.4283
 7929SOL    HW235421   1.967   4.158   5.820  2.9683  1.1770  0.9923
 7930SOL     OW35422   1.162   4.225   4.731  0.3666  0.0301 -0.0328
 7930SOL    HW135423   1.121   4.288   4.790 -0.1220  0.1645 -0.5169
 7930SOL    HW235424   1.083   4.200   4.684  0.6701 -0.9078 -0.0489
 7931SOL     OW35425   0.924   2.027   7.420  0.3101 -0.2253  0.7881
 7931SOL    HW135426   0.835   1.992   7.417  0.8510 -1.5708  0.3587
 7931SOL    HW235427   0.966   1.993   7.341  0.0836  0.6259  0.2977
 7932SOL     OW35428   3.452   1.178   9.035  0.3150 -0.4093 -0.8013
 7932SOL    HW135429   3.488   1.146   9.118  0.6644  2.1370  0.0050
 7932SOL    HW235430   3.506   1.127   8.974  0.6208  0.3273 -1.1434
 7933SOL     OW35431   3.117   0.227  12.702  0.3571 -0.4175 -0.2172
 7933SOL    HW135432   3.155   0.163  12.762  3.3777  0.3514 -1.2930
 7933SOL    HW235433   3.031   0.190  12.682 -0.1959  1.1775 -0.8074
 7934SOL     OW35434   0.381   0.240  15.256  0.2160  0.2406 -0.1269
 7934SOL    HW135435   0.337   0.165  15.215 -0.9810  0.9864 -0.1759
 7934SOL    HW235436   0.409   0.283  15.175  0.4180  0.3719  0.0134
 7935SOL     OW35437   4.616   3.476   8.876  0.1296 -0.2242 -0.1970
 7935SOL    HW135438   4.687   3.478   8.941 -0.1653  0.8765  0.0852
 7935SOL    HW235439   4.577   3.563   8.880 -1.1530 -0.8792  1.6747
 7936SOL     OW35440   0.659   4.477  10.525  0.4952 -0.1870  0.3639
 7936SOL    HW135441   0.641   4.495  10.617  2.0326 -0.3311  0.7008
 7936SOL    HW235442   0.646   4.383  10.532  0.5971 -0.2653 -0.5407
 7937SOL     OW35443   1.470   2.168   5.732  0.6848 -0.2354 -0.2270
 7937SOL    HW135444   1.443   2.149   5.821  1.3309 -1.2250 -0.2502
 7937SOL    HW235445   1.504   2.257   5.743 -1.5670  0.7539 -1.1787
 7938SOL     OW35446   1.803   3.943  16.998 -0.1452  0.0601 -0.1750
 7938SOL    HW135447   1.859   4.020  17.010  0.4018  0.1798 -3.5235
 7938SOL    HW235448   1.728   3.970  17.051 -0.1516 -0.0608 -0.1236
 7939SOL     OW35449   1.144   0.256   6.697 -0.5933 -0.2896  0.2703
 7939SOL    HW135450   1.107   0.168   6.697 -0.5573 -0.3051  0.5764
 7939SOL    HW235451   1.143   0.274   6.603  0.7635 -0.3341  0.2434
 7940SOL     OW35452   3.404   0.175   9.837 -0.0028 -0.0854 -0.7558
 7940SOL    HW135453   3.332   0.119   9.808  0.5482 -1.2147  0.0866
 7940SOL    HW235454   3.397   0.250   9.777 -3.0128  0.8267  0.7380
 7941SOL     OW35455   3.761   1.536   5.465 -0.0322 -0.5537 -0.4096
 7941SOL    HW135456   3.717   1.613   5.501  0.5885 -0.9267  1.1235
 7941SOL    HW235457   3.793   1.501   5.548 -0.6468  1.0538  0.5021
 7942SOL     OW35458   3.847   3.111   6.830  0.2360  0.2754  0.0558
 7942SOL    HW135459   3.783   3.181   6.817 -0.1436 -0.0110  0.3688
 7942SOL    HW235460   3.869   3.106   6.737  1.8647  3.9699  0.2549
 7943SOL     OW35461   1.137   1.188   1.986  0.3674 -0.2900 -0.4222
 7943SOL    HW135462   1.155   1.269   2.035 -1.6077  0.0713 -0.2849
 7943SOL    HW235463   1.099   1.143   2.062  2.4857  0.1722  0.9378
 7944SOL     OW35464   0.552   2.632   8.750  0.2017  0.0051 -0.2950
 7944SOL    HW135465   0.548   2.541   8.722  0.9988  0.8462 -3.1747
 7944SOL    HW235466   0.571   2.624   8.844  0.1459 -1.7360 -0.4373
 7945SOL     OW35467   0.505   1.449   3.198 -0.1555  0.0329 -0.9454
 7945SOL    HW135468   0.547   1.395   3.132 -2.3214 -1.9718 -0.6810
 7945SOL    HW235469   0.569   1.519   3.208 -0.1932  0.0234 -0.6206
 7946SOL     OW35470   2.922   2.569   2.710 -0.0358 -0.5024 -0.0963
 7946SOL    HW135471   2.970   2.563   2.793  1.9545  2.2734 -1.0408
 7946SOL    HW235472   2.979   2.529   2.645 -2.6877 -0.6840 -2.2942
 7947SOL     OW35473   1.887   1.934  17.567 -0.5132 -0.3945 -0.4536
 7947SOL    HW135474   1.961   1.888  17.527 -0.2260 -1.0417  0.8024
 7947SOL    HW235475   1.846   1.980  17.494 -1.0287  0.8265  0.6000
 7948SOL     OW35476   0.308   0.218   1.740  0.2076  0.3140  0.3938
 7948SOL    HW135477   0.375   0.277   1.706  0.0004  0.1437 -0.3137
 7948SOL    HW235478   0.346   0.213   1.827 -1.9234 -1.6763  1.1922
 7949SOL     OW35479   2.068   1.670   3.735  0.3674  0.1558 -0.6541
 7949SOL    HW135480   2.056   1.587   3.689 -0.1226 -0.6333  0.9055
 7949SOL    HW235481   2.128   1.706   3.670  1.5271  0.0031  0.3336
 7950SOL     OW35482   4.503   4.398   3.214 -0.4223 -0.0041 -0.7415
 7950SOL    HW135483   4.479   4.464   3.279  1.1368  0.4126 -0.5889
 7950SOL    HW235484   4.429   4.415   3.155  0.9219  2.0770 -1.8301
 7951SOL     OW35485   2.510   1.027   3.199  0.9047 -0.2499 -0.3419
 7951SOL    HW135486   2.606   1.024   3.208  0.8577  1.0439  0.5265
 7951SOL    HW235487   2.501   1.028   3.103 -0.9564 -1.4834 -0.1838
 7952SOL     OW35488   3.857   0.099   0.736 -0.1319  0.3105  0.5790
 7952SOL    HW135489   3.915   0.175   0.743  0.0150  0.0651  2.0092
 7952SOL    HW235490   3.796   0.117   0.808 -0.4756  1.4225  0.0133
 7953SOL     OW35491   0.677   3.426   6.562 -0.1083  0.2741  0.5637
 7953SOL    HW135492   0.647   3.463   6.645  3.0612  0.4239  1.6580
 7953SOL    HW235493   0.770   3.422   6.583 -0.2557  1.1877  1.3913
 7954SOL     OW35494   4.241   3.320   8.266 -0.2259  0.2295 -0.7451
 7954SOL    HW135495   4.263   3.234   8.302 -0.0423  1.5293  2.2139
 7954SOL    HW235496   4.331   3.351   8.258 -0.8153  2.0258 -0.2082
 7955SOL     OW35497   0.089   0.211   4.618 -0.2059  0.1071  0.1042
 7955SOL    HW135498   0.131   0.132   4.651  1.3568  0.7492 -0.3229
 7955SOL    HW235499   0.056   0.177   4.535  1.0565  0.7236 -0.6441
 7956SOL     OW35500   3.376   3.311   9.012 -0.6219 -0.5012  0.2299
 7956SOL    HW135501   3.299   3.285   8.963 -0.7159  1.2555 -0.5857
 7956SOL    HW235502   3.389   3.394   8.966 -1.2206 -1.7045 -2.0861
 7957SOL     OW35503   1.109   3.737   6.386 -0.4740 -0.0946  0.3077
 7957SOL    HW135504   1.058   3.771   6.460 -1.2948  0.2307 -0.3973
 7957SOL    HW235505   1.178   3.690   6.432 -0.4529 -1.0698 -0.7217
 7958SOL     OW35506   0.090   0.186  12.549 -0.2133 -0.0792  0.1249
 7958SOL    HW135507   0.074   0.153  12.461  1.3774 -0.5569  0.0081
 7958SOL    HW235508   0.133   0.122  12.605 -1.2389 -0.7595  0.1233
 7959SOL     OW35509   0.583   0.477  12.978 -0.3234 -0.0404 -0.4183
 7959SOL    HW135510   0.557   0.460  12.888 -0.6769 -0.3691 -0.2564
 7959SOL    HW235511   0.510   0.424  13.011  1.4430 -2.7521 -0.8504
 7960SOL     OW35512   1.982   1.693   0.403  0.7386  0.2249 -0.1533
 7960SOL    HW135513   1.965   1.647   0.485  2.7394 -0.0129  0.1077
 7960SOL    HW235514   1.901   1.745   0.404 -0.9364 -2.3834  1.1165
 7961SOL     OW35515   3.603   1.221  13.534 -0.3717  0.0864  0.2925
 7961SOL    HW135516   3.528   1.233  13.475 -0.0305 -0.1359 -0.1863
 7961SOL    HW235517   3.641   1.308  13.527 -0.5885  0.1201 -0.5610
 7962SOL     OW35518   0.794   4.675  15.858  0.1666 -0.2042 -0.2447
 7962SOL    HW135519   0.870   4.691  15.803  3.1504 -2.8359  3.1036
 7962SOL    HW235520   0.798   4.580  15.868  0.9745 -0.2535 -1.1165
 7963SOL     OW35521   0.179   1.276  16.091 -0.5917 -0.1340  0.1288
 7963SOL    HW135522   0.254   1.336  16.085  0.1842 -1.0396  0.8195
 7963SOL    HW235523   0.176   1.257  16.185  2.2255  2.0326  0.6790
 7964SOL     OW35524   2.319   1.170   8.824  0.1086  0.2062  0.0673
 7964SOL    HW135525   2.403   1.129   8.840  0.3888 -0.1509 -2.3076
 7964SOL    HW235526   2.301   1.140   8.735 -1.9635  0.1377  0.5037
 7965SOL     OW35527   2.209   4.657   6.809  0.0319  0.3085 -0.3582
 7965SOL    HW135528   2.206   4.666   6.904  0.7424 -2.6702 -0.0518
 7965SOL    HW235529   2.144   4.716   6.771 -0.1557  0.4385  0.1630
 7966SOL     OW35530   0.540   3.872  14.665  0.1539  0.3952 -0.0499
 7966SOL    HW135531   0.595   3.799  14.636 -0.9733 -0.4388 -0.0932
 7966SOL    HW235532   0.590   3.954  14.659  0.3144  0.2543 -0.6683
 7967SOL     OW35533   4.617   4.497   4.787 -0.0757 -0.0895  0.4561
 7967SOL    HW135534   4.540   4.444   4.804  1.0093 -1.5564  0.7435
 7967SOL    HW235535   4.673   4.437   4.739 -4.8244 -2.3398 -2.1412
 7968SOL     OW35536   1.460   3.511  12.031  0.2497 -0.0100 -0.4925
 7968SOL    HW135537   1.402   3.543  12.100  0.7012  0.5693 -0.3807
 7968SOL    HW235538   1.520   3.448  12.070  2.9421  0.6558 -3.6206
 7969SOL     OW35539   4.481   0.029   7.714 -0.2684 -0.1611  0.0216
 7969SOL    HW135540   4.389   0.018   7.738 -0.3815  2.2846  0.6978
 7969SOL    HW235541   4.520   0.091   7.776  0.6714 -1.7814  1.0363
 7970SOL     OW35542   2.386   0.576   8.197  0.0320  0.3205 -0.0326
 7970SOL    HW135543   2.350   0.654   8.238  0.3549  0.9360 -0.9124
 7970SOL    HW235544   2.472   0.572   8.239  0.0771  2.5299  0.0879
 7971SOL     OW35545   3.893   3.712   9.699 -0.0889 -0.0156 -0.5503
 7971SOL    HW135546   3.984   3.712   9.670  0.9147 -0.1450  2.6108
 7971SOL    HW235547   3.891   3.694   9.792  1.5151 -1.7153 -0.8558
 7972SOL     OW35548   0.691   0.192  10.662  0.2654  0.3503 -0.2237
 7972SOL    HW135549   0.721   0.280  10.636  2.0809 -0.6860 -1.6269
 7972SOL    HW235550   0.727   0.177  10.749  0.6506 -2.3637 -0.8772
 7973SOL     OW35551   3.825   0.113  16.662  0.0023  0.0164 -0.2142
 7973SOL    HW135552   3.773   0.032  16.667 -1.3986  0.8602 -1.3126
 7973SOL    HW235553   3.798   0.152  16.579  2.3823 -0.8609 -1.3853
 7974SOL     OW35554   0.363   2.305   2.190  0.0203 -0.3489 -0.3512
 7974SOL    HW135555   0.409   2.323   2.272 -0.6699 -1.7462  0.3572
 7974SOL    HW235556   0.427   2.326   2.122 -0.0881 -0.0562 -0.3625
 7975SOL     OW35557   4.343   4.198   8.965  0.5844 -0.1392 -0.0575
 7975SOL    HW135558   4.352   4.169   8.874  1.0131  0.6185 -0.2514
 7975SOL    HW235559   4.411   4.144   9.005 -1.1353 -1.5084  1.0510
 7976SOL     OW35560   0.613   1.562   9.780  0.1984  0.0926  0.4161
 7976SOL    HW135561   0.526   1.588   9.751  1.6640  2.6295 -1.6592
 7976SOL    HW235562   0.647   1.515   9.703 -2.2036 -0.5590 -0.2583
 7977SOL     OW35563   1.784   3.146   3.633 -0.0409 -0.1921 -0.2994
 7977SOL    HW135564   1.813   3.168   3.545 -0.2736 -1.7142 -0.7505
 7977SOL    HW235565   1.823   3.061   3.651  0.6886  0.6494  2.1342
 7978SOL     OW35566   2.799   2.846  17.108  0.0259  0.4073 -0.2993
 7978SOL    HW135567   2.860   2.776  17.087 -1.1927 -1.0630  1.0379
 7978SOL    HW235568   2.731   2.795  17.152 -0.6817 -0.2271 -2.1285
 7979SOL     OW35569   2.525   2.664   2.375 -0.5736 -0.0603  0.1084
 7979SOL    HW135570   2.595   2.638   2.434  0.0054 -0.9510 -0.9581
 7979SOL    HW235571   2.574   2.722   2.318 -1.3442  0.0676 -0.4298
 7980SOL     OW35572   4.033   1.112   3.333  0.2352 -0.3771  0.2297
 7980SOL    HW135573   4.119   1.101   3.374 -0.9196 -2.4742  2.1247
 7980SOL    HW235574   4.058   1.114   3.240  0.1202 -1.0825  0.1809
 7981SOL     OW35575   3.530   3.330  11.757 -0.0933  0.6370  0.1230
 7981SOL    HW135576   3.523   3.413  11.710  1.2038  0.6969  0.0434
 7981SOL    HW235577   3.590   3.350  11.828  1.0466 -0.6884 -0.4590
 7982SOL     OW35578   1.920   3.205   3.346 -0.1389  0.7327  0.0948
 7982SOL    HW135579   1.916   3.285   3.294  0.7253  1.3016  0.9140
 7982SOL    HW235580   1.963   3.159   3.274 -0.0848  2.6922 -1.1330
 7983SOL     OW35581   4.709   3.818   1.970 -0.4728  0.2730  0.0308
 7983SOL    HW135582   4.703   3.900   2.019  1.7786  0.5249 -0.1223
 7983SOL    HW235583   4.621   3.787   1.950 -1.3763  2.0513  1.2422
 7984SOL     OW35584   4.320   0.643   8.168  0.4570 -0.2587  0.1740
 7984SOL    HW135585   4.405   0.665   8.129  0.6333 -1.9790 -0.4286
 7984SOL    HW235586   4.342   0.559   8.209 -0.3114 -1.0040 -0.9539
 7985SOL     OW35587   1.245   0.949   4.408  0.2051 -0.1961  0.1335
 7985SOL    HW135588   1.225   0.944   4.315 -1.3146 -0.1088  0.4588
 7985SOL    HW235589   1.328   0.998   4.405  0.3506 -0.3100  2.1707
 7986SOL     OW35590   2.941   3.687   5.972  0.3968 -0.4287  0.0629
 7986SOL    HW135591   2.850   3.709   5.992  0.0856  0.1282 -1.9976
 7986SOL    HW235592   2.925   3.685   5.878  2.1990  0.5736 -0.2606
 7987SOL     OW35593   1.823   4.035   3.765  0.0065 -0.6529 -0.1034
 7987SOL    HW135594   1.739   4.063   3.728 -0.5422 -0.4727  1.2741
 7987SOL    HW235595   1.789   3.981   3.837  0.1317  1.1023  1.2698
 7988SOL     OW35596   1.178   4.622   3.479 -0.8523  0.1667  0.1335
 7988SOL    HW135597   1.245   4.597   3.415 -0.3200  0.9623  0.3827
 7988SOL    HW235598   1.202   4.591   3.566 -2.3788 -0.7458  0.2412
 7989SOL     OW35599   2.323   1.744   5.233  0.0441  0.0096  0.0688
 7989SOL    HW135600   2.266   1.719   5.160 -0.3752  0.3855  0.2704
 7989SOL    HW235601   2.402   1.694   5.211  0.5773  1.4078 -1.1930
 7990SOL     OW35602   1.191   0.982   6.457 -0.2561  0.2672 -0.0755
 7990SOL    HW135603   1.246   0.904   6.447  0.2308  0.5755  0.1438
 7990SOL    HW235604   1.254   1.051   6.478  1.2056 -0.8881 -0.6147
 7991SOL     OW35605   4.043   0.638  17.534 -0.5270  0.4848  0.2815
 7991SOL    HW135606   4.121   0.601  17.492 -0.4441  0.9236  0.0469
 7991SOL    HW235607   3.976   0.571  17.520 -0.4364  0.5813 -0.6213
 7992SOL     OW35608   3.617   2.099  11.369  0.1626 -0.4477 -0.0338
 7992SOL    HW135609   3.644   2.177  11.321 -2.2462  0.2819 -0.2120
 7992SOL    HW235610   3.677   2.120  11.441 -0.2248 -1.5560  0.6142
 7993SOL     OW35611   3.302   2.471   8.698  0.0014 -0.8326 -0.3922
 7993SOL    HW135612   3.262   2.409   8.637 -2.7116  0.5144  0.0130
 7993SOL    HW235613   3.301   2.429   8.784  0.8600  1.4034  0.7173
 7994SOL     OW35614   1.268   4.499   8.148 -0.1589 -0.1405 -0.3173
 7994SOL    HW135615   1.281   4.416   8.195 -0.9614 -0.6491 -1.0051
 7994SOL    HW235616   1.279   4.468   8.058 -1.5543  0.8924 -0.8457
 7995SOL     OW35617   4.276   3.189   6.810 -0.1243 -0.1654  0.0117
 7995SOL    HW135618   4.239   3.224   6.890  0.5193 -1.6716  0.9622
 7995SOL    HW235619   4.249   3.255   6.746 -0.5685 -0.0453  0.3295
 7996SOL     OW35620   3.356   3.615   3.186  0.4394 -0.6852 -0.5970
 7996SOL    HW135621   3.342   3.625   3.091  2.2115  4.2577 -0.3255
 7996SOL    HW235622   3.304   3.690   3.216  0.2415 -2.1273  2.6507
 7997SOL     OW35623   2.027   1.282   5.557 -0.2488 -0.4720 -0.0831
 7997SOL    HW135624   2.055   1.194   5.532 -0.0422 -0.3683 -0.2151
 7997SOL    HW235625   2.104   1.338   5.546 -1.2202  0.7430 -0.6274
 7998SOL     OW35626   3.910   0.783   7.744  0.2353 -0.1107 -0.5336
 7998SOL    HW135627   3.858   0.832   7.680 -0.5969  0.0706  0.2793
 7998SOL    HW235628   3.848   0.719   7.779  0.7244 -2.2467 -3.5854
 7999SOL     OW35629   4.707   0.770   5.195  0.2638 -0.4550  0.0571
 7999SOL    HW135630   4.645   0.710   5.153  0.6484 -0.1766 -0.9124
 7999SOL    HW235631   0.054   0.754   5.149  0.0275  4.0731 -1.9324
 8000SOL     OW35632   4.396   1.785   2.446 -1.0824 -0.3277 -0.6007
 8000SOL    HW135633   4.434   1.778   2.358 -1.1168  1.2071 -0.7378
 8000SOL    HW235634   4.317   1.835   2.425 -0.8131  0.1299 -0.5021
 8001SOL     OW35635   1.044   2.254  16.323 -0.5969  0.1665  0.0875
 8001SOL    HW135636   1.061   2.342  16.289  1.7382 -0.0956  0.6054
 8001SOL    HW235637   1.125   2.204  16.313  0.0900  1.0752  1.0621
 8002SOL     OW35638   1.737   3.118   5.702  0.1924 -0.0601 -0.0813
 8002SOL    HW135639   1.713   3.072   5.782  0.2050  0.3294  0.1488
 8002SOL    HW235640   1.666   3.099   5.640  0.2814  2.9876 -1.1065
 8003SOL     OW35641   3.172   3.731   3.709  0.2152 -0.2224 -0.1893
 8003SOL    HW135642   3.115   3.794   3.666 -1.3645  0.5719  3.0447
 8003SOL    HW235643   3.250   3.739   3.655  0.7226 -1.4451  0.3559
 8004SOL     OW35644   3.360   3.906   4.659 -0.7526  0.3335  0.5091
 8004SOL    HW135645   3.367   3.952   4.743  0.8572  1.1522 -0.1001
 8004SOL    HW235646   3.325   3.823   4.692 -0.9118 -0.0315 -0.5751
 8005SOL     OW35647   0.480   0.192   3.500  0.4110  0.0890  0.3662
 8005SOL    HW135648   0.436   0.117   3.458 -0.6250 -0.0814  1.7583
 8005SOL    HW235649   0.556   0.149   3.538 -0.1451 -0.9583  0.2985
 8006SOL     OW35650   2.459   1.308  12.532 -0.2685  0.0418  0.0192
 8006SOL    HW135651   2.506   1.229  12.559 -1.6747  0.0121  2.3479
 8006SOL    HW235652   2.522   1.350  12.473  0.4286  1.2096  1.6081
 8007SOL     OW35653   1.140   4.211   5.093 -0.2004 -0.3334  0.0445
 8007SOL    HW135654   1.077   4.157   5.141  2.0559 -2.3897  0.6613
 8007SOL    HW235655   1.210   4.147   5.080  0.1181 -0.1800  0.9999
 8008SOL     OW35656   3.064   4.496   9.330 -0.1156  0.5639  0.1155
 8008SOL    HW135657   3.002   4.474   9.261 -2.6128  0.1651  2.4629
 8008SOL    HW235658   3.009   4.529   9.401 -1.6991 -1.1666 -0.3130
 8009SOL     OW35659   0.660   0.174   6.090  0.3923  0.2678 -0.3813
 8009SOL    HW135660   0.669   0.222   6.172  0.2474  1.3289 -0.9964
 8009SOL    HW235661   0.745   0.129   6.087  0.1219 -0.2757  0.0272
 8010SOL     OW35662   1.760   2.907   9.051  0.0114  0.2340  0.1978
 8010SOL    HW135663   1.761   2.862   8.967 -2.0127 -0.7957  0.7027
 8010SOL    HW235664   1.841   2.958   9.049 -0.1175  0.3105 -3.1861
 8011SOL     OW35665   0.832   2.305   4.532  0.2315  0.3007  0.2152
 8011SOL    HW135666   0.771   2.283   4.602 -0.6857 -1.5894 -1.1825
 8011SOL    HW235667   0.914   2.283   4.575 -0.0572 -0.9588  0.1270
 8012SOL     OW35668   2.155   3.805   5.516  0.1267 -1.0347  0.2693
 8012SOL    HW135669   2.079   3.747   5.522 -0.9409  0.3674  0.2167
 8012SOL    HW235670   2.153   3.853   5.599 -1.8923 -1.3458  0.3982
 8013SOL     OW35671   0.246   4.569  17.428 -0.0445  0.1017 -0.1989
 8013SOL    HW135672   0.152   4.570  17.408  0.0544 -0.9075 -0.7442
 8013SOL    HW235673   0.244   4.500  17.494 -1.5912 -0.2067 -0.5599
 8014SOL     OW35674   2.315   0.139   6.982  0.9490 -0.2044  0.2069
 8014SOL    HW135675   2.362   0.217   7.011  0.6705  1.3606 -3.6180
 8014SOL    HW235676   2.283   0.175   6.900  0.0034 -2.0764 -0.2345
 8015SOL     OW35677   3.549   4.702  16.173  0.2503  0.3765  0.2439
 8015SOL    HW135678   3.642   4.716  16.194 -0.0937 -0.8804  2.6844
 8015SOL    HW235679   3.507   4.685  16.257 -1.8045 -0.7833 -1.0176
 8016SOL     OW35680   4.731   4.207  10.361  0.1360  0.3273 -0.4920
 8016SOL    HW135681   4.734   4.224  10.267 -0.2792  2.8143 -0.0457
 8016SOL    HW235682   4.639   4.191  10.384  0.5999  0.2518  1.3774
 8017SOL     OW35683   0.331   4.230   9.666 -1.0387 -0.0726  0.3877
 8017SOL    HW135684   0.347   4.151   9.716 -1.6679  0.4321  1.3826
 8017SOL    HW235685   0.259   4.194   9.614 -1.5488  1.4427  0.0334
 8018SOL     OW35686   2.071   0.416   8.674  1.2275  0.5582 -0.5319
 8018SOL    HW135687   2.163   0.407   8.648  0.7887 -0.1059 -1.8661
 8018SOL    HW235688   2.030   0.348   8.620  0.9036 -0.5318  1.0856
 8019SOL     OW35689   2.231   3.385   5.485 -0.7718  0.2816  0.7336
 8019SOL    HW135690   2.294   3.312   5.485 -0.5177  0.5027  0.7115
 8019SOL    HW235691   2.161   3.336   5.529  0.0825 -0.6574  1.0451
 8020SOL     OW35692   3.397   1.336   7.451 -0.0887  0.2178  0.4225
 8020SOL    HW135693   3.459   1.293   7.392  0.9628  0.2589  1.5072
 8020SOL    HW235694   3.326   1.271   7.454  0.2780 -0.1870  0.2649
 8021SOL     OW35695   2.141   1.669   5.044  0.2895 -0.1795  0.0004
 8021SOL    HW135696   2.079   1.614   5.093  0.2351  0.9022  1.1419
 8021SOL    HW235697   2.093   1.691   4.965  1.5426  0.5048 -0.5625
 8022SOL     OW35698   1.977   0.887  10.281 -0.8134  0.5857 -0.2371
 8022SOL    HW135699   1.967   0.914  10.373 -0.9825  1.3403 -0.4760
 8022SOL    HW235700   2.016   0.801  10.291  0.2551  1.1345  0.3197
 8023SOL     OW35701   2.629   2.602  10.512  0.8926  0.3567 -0.0807
 8023SOL    HW135702   2.594   2.517  10.540  0.9132 -0.0113 -1.2078
 8023SOL    HW235703   2.569   2.668  10.546  1.2073  0.3661  0.4599
 8024SOL     OW35704   2.718   0.399   7.227  0.0891 -0.0947  0.1046
 8024SOL    HW135705   2.797   0.363   7.268  0.5179  0.0923 -0.5664
 8024SOL    HW235706   2.693   0.337   7.159 -0.6966  0.6180 -0.2433
 8025SOL     OW35707   2.889   2.160   1.512  0.2687  0.9178  1.0523
 8025SOL    HW135708   2.864   2.240   1.466 -3.2264 -1.1652 -0.6741
 8025SOL    HW235709   2.804   2.140   1.550 -0.4513 -2.3915 -2.2893
 8026SOL     OW35710   1.916   3.525   5.239 -0.1751 -0.3651 -0.0515
 8026SOL    HW135711   1.897   3.470   5.315  1.5103 -1.4012 -0.3799
 8026SOL    HW235712   2.006   3.496   5.221 -0.0065  1.4089 -2.0678
 8027SOL     OW35713   2.620   1.867  13.128  0.1051 -0.1405 -0.2461
 8027SOL    HW135714   2.672   1.855  13.048  0.8745  2.5460 -0.1672
 8027SOL    HW235715   2.688   1.893  13.190 -0.4657  1.4341 -0.2873
 8028SOL     OW35716   1.302   1.192   3.783 -0.3787 -0.0247  0.1795
 8028SOL    HW135717   1.301   1.275   3.831 -0.7764 -0.7831  1.4749
 8028SOL    HW235718   1.394   1.168   3.792 -1.1172 -2.8155  0.3935
 8029SOL     OW35719   0.363   0.169   8.701 -0.0532 -0.3251  0.1409
 8029SOL    HW135720   0.375   0.193   8.793 -0.1150  1.8941 -0.4342
 8029SOL    HW235721   0.382   0.076   8.713 -1.0208 -1.1276 -4.7544
 8030SOL     OW35722   1.499   4.608   1.779 -0.1263  0.0665 -0.0471
 8030SOL    HW135723   1.479   4.564   1.696 -0.7703  0.2325  0.0207
 8030SOL    HW235724   1.411   4.637   1.805 -0.1647  0.8370 -1.0276
 8031SOL     OW35725   2.192   3.526  10.200  0.6259  0.0671  0.1548
 8031SOL    HW135726   2.228   3.602  10.153  0.4681 -0.6537 -1.1191
 8031SOL    HW235727   2.114   3.568  10.237  0.4788 -0.1438  0.0791
 8032SOL     OW35728   3.046   4.562   8.044 -0.1140 -0.2367  0.0970
 8032SOL    HW135729   3.117   4.611   8.003  0.0481 -1.3319 -0.9302
 8032SOL    HW235730   3.002   4.518   7.971  0.5058  1.0256 -1.0334
 8033SOL     OW35731   0.076   0.330   6.120  0.4385  0.3099 -0.4228
 8033SOL    HW135732   0.150   0.390   6.133 -0.0215  0.6566  0.5525
 8033SOL    HW235733   0.010   0.388   6.082  1.8858  1.0812 -1.7777
 8034SOL     OW35734   3.787   1.491   9.983 -0.0132  0.0510 -1.3281
 8034SOL    HW135735   3.707   1.541   9.995 -0.0856 -1.2799  3.4832
 8034SOL    HW235736   3.850   1.551   9.944 -0.7313  2.5483  1.3956
 8035SOL     OW35737   3.162   0.535   8.630 -0.0104 -0.3149  0.6395
 8035SOL    HW135738   3.174   0.519   8.537  2.6316  1.0003  0.7600
 8035SOL    HW235739   3.155   0.443   8.655  0.3751 -0.8431 -1.2229
 8036SOL     OW35740   2.287   0.705   6.380 -1.0533  0.4456  0.3590
 8036SOL    HW135741   2.281   0.634   6.445 -1.1233 -2.2288 -2.5524
 8036SOL    HW235742   2.372   0.746   6.397  0.0101  0.0721 -4.0743
 8037SOL     OW35743   3.200   3.331   4.536 -0.4565  0.1871 -0.1668
 8037SOL    HW135744   3.239   3.322   4.449 -1.0824 -0.0633 -0.4240
 8037SOL    HW235745   3.153   3.414   4.532 -0.5657  0.1632  0.5754
 8038SOL     OW35746   1.174   2.041   8.179  0.1418  0.2096 -0.1456
 8038SOL    HW135747   1.249   2.067   8.126 -0.6884  0.5729 -1.1596
 8038SOL    HW235748   1.116   2.023   8.105  0.3488 -3.0005  0.4798
 8039SOL     OW35749   2.654   1.839  12.398 -0.0132  0.0016  0.3425
 8039SOL    HW135750   2.573   1.889  12.406  0.8034  1.6388 -1.9051
 8039SOL    HW235751   2.705   1.883  12.330  0.9104 -1.6782 -0.0737
 8040SOL     OW35752   1.771   0.643   2.073 -0.4011 -0.0456 -0.5002
 8040SOL    HW135753   1.778   0.644   1.977  0.2685  1.6673 -0.4361
 8040SOL    HW235754   1.685   0.604   2.087 -1.6397  2.1680 -1.8194
 8041SOL     OW35755   0.942   0.681  12.332  0.0921  0.1266  0.1093
 8041SOL    HW135756   0.984   0.765  12.350  0.5282  0.1077 -0.8652
 8041SOL    HW235757   1.019   0.625  12.328  1.6111  2.0622  2.0230
 8042SOL     OW35758   3.933   2.391   8.940 -0.3399 -0.0761 -0.1334
 8042SOL    HW135759   3.973   2.305   8.930  1.9313  1.2905 -3.0221
 8042SOL    HW235760   3.918   2.423   8.850  0.7522 -1.0137 -0.6440
 8043SOL     OW35761   2.091   0.784   5.335 -0.0709 -0.4854 -0.1552
 8043SOL    HW135762   2.178   0.810   5.367 -0.2507 -0.4583  0.3020
 8043SOL    HW235763   2.056   0.744   5.414  0.0077  0.2528  0.2583
 8044SOL     OW35764   2.900   2.281   8.076  0.3481  0.0380 -0.3469
 8044SOL    HW135765   2.944   2.202   8.109 -1.5612 -1.7609 -2.0778
 8044SOL    HW235766   2.977   2.337   8.065  0.2535  0.4328  0.9581
 8045SOL     OW35767   2.706   1.333   9.556 -0.1284 -0.6816 -0.0221
 8045SOL    HW135768   2.669   1.384   9.483  0.8685 -0.3666 -0.3071
 8045SOL    HW235769   2.699   1.244   9.522 -2.8489 -0.0743 -1.0790
 8046SOL     OW35770   2.136   2.219   3.909  0.1603  0.5396 -0.7978
 8046SOL    HW135771   2.095   2.201   3.994 -0.0897 -0.7688 -1.2014
 8046SOL    HW235772   2.065   2.215   3.845 -0.5514  0.3523  0.0101
 8047SOL     OW35773   0.739   2.706   4.959 -0.2730 -0.3357  0.0315
 8047SOL    HW135774   0.767   2.703   5.051 -0.4083 -0.6898  0.0619
 8047SOL    HW235775   0.681   2.781   4.976 -0.3595 -0.5499  0.6961
 8048SOL     OW35776   2.736   2.976   6.954 -0.0130 -0.1930  0.1394
 8048SOL    HW135777   2.802   2.909   6.971  0.0292 -0.3911 -0.7934
 8048SOL    HW235778   2.776   3.025   6.882 -0.7699 -0.8759 -0.7547
 8049SOL     OW35779   3.054   3.254   6.271 -0.2820 -0.2396  0.5098
 8049SOL    HW135780   3.041   3.295   6.186 -0.4524 -0.0387  0.6325
 8049SOL    HW235781   3.146   3.266   6.294  0.0346  0.5346 -1.1699
 8050SOL     OW35782   1.841   3.658  12.933 -0.0669  0.6245 -0.5654
 8050SOL    HW135783   1.876   3.570  12.919  1.2971  1.1403 -0.4014
 8050SOL    HW235784   1.807   3.675  12.845 -1.4165 -0.0846 -0.1663
 8051SOL     OW35785   0.744   0.324  16.740  0.4572  0.2736  0.1888
 8051SOL    HW135786   0.737   0.419  16.751 -2.8020  0.0858 -0.2545
 8051SOL    HW235787   0.658   0.313  16.700  1.1371 -3.3283 -0.3434
 8052SOL     OW35788   2.976   0.687  17.390  0.2698 -0.2380  0.2068
 8052SOL    HW135789   2.923   0.726  17.320  1.6142 -1.2721 -1.3809
 8052SOL    HW235790   2.918   0.615  17.414  0.2567  0.5818  2.6708
 8053SOL     OW35791   1.633   3.015   7.241 -0.0288  0.0637  0.0093
 8053SOL    HW135792   1.680   3.015   7.325 -2.1122 -1.2297  1.1750
 8053SOL    HW235793   1.552   3.061   7.260  1.1286  1.9821  0.3495
 8054SOL     OW35794   0.163   1.344   0.289 -0.0452  0.0096 -0.1725
 8054SOL    HW135795   0.107   1.416   0.317 -1.2253 -0.6533 -0.8038
 8054SOL    HW235796   0.154   1.355   0.194 -0.5087  3.0570  0.2504
 8055SOL     OW35797   3.872   0.916  14.198 -0.1421  0.4977 -0.0987
 8055SOL    HW135798   3.875   0.871  14.114 -0.2282 -0.4277  0.3808
 8055SOL    HW235799   3.795   0.972  14.194 -0.7025 -0.3168 -0.6022
 8056SOL     OW35800   3.318   1.266  10.996 -0.0997  0.3021  0.2318
 8056SOL    HW135801   3.379   1.230  10.932 -1.0165  0.0969 -0.5245
 8056SOL    HW235802   3.291   1.182  11.033 -1.5974  1.3013  1.4429
 8057SOL     OW35803   4.546   2.638   4.493 -0.3149 -0.0451  0.3410
 8057SOL    HW135804   4.535   2.706   4.560 -2.8883 -1.2668  1.1298
 8057SOL    HW235805   4.483   2.571   4.518 -0.1295 -0.7554 -1.1004
 8058SOL     OW35806   0.456   2.208  11.201 -0.3760 -0.3654 -0.4767
 8058SOL    HW135807   0.406   2.213  11.283 -0.7800 -0.1472 -0.7362
 8058SOL    HW235808   0.542   2.242  11.226 -0.7665 -1.4269  2.3486
 8059SOL     OW35809   4.240   0.266   8.138  0.4875 -0.0354  0.1083
 8059SOL    HW135810   4.199   0.261   8.052  0.7062  0.9640 -0.0469
 8059SOL    HW235811   4.166   0.254   8.197  0.4422  4.0413  0.8659
 8060SOL     OW35812   4.066   1.669   2.398 -0.2682 -0.3315  0.2614
 8060SOL    HW135813   4.094   1.755   2.365 -2.6187  0.8031  1.2709
 8060SOL    HW235814   4.124   1.605   2.355  0.3740  0.7367 -0.4764
 8061SOL     OW35815   1.477   1.887   5.826  0.4162  0.1593  0.1666
 8061SOL    HW135816   1.570   1.868   5.819  0.3705  0.1667 -0.4362
 8061SOL    HW235817   1.483   1.961   5.887  0.7719  0.9296 -0.8112
 8062SOL     OW35818   1.019   3.369  13.356 -0.1364 -0.2555  0.2930
 8062SOL    HW135819   1.081   3.440  13.339 -1.5161  1.1572  1.1652
 8062SOL    HW235820   0.967   3.400  13.430 -1.5445 -0.8799 -0.4314
 8063SOL     OW35821   4.685   4.030  14.807 -0.0107 -0.0727  0.0256
 8063SOL    HW135822   0.006   3.987  14.871  1.0517  0.1214 -0.7855
 8063SOL    HW235823   4.623   3.957  14.801  0.5054 -0.6655  2.1140
 8064SOL     OW35824   3.113   1.638  11.379  0.2384 -0.0211  0.0343
 8064SOL    HW135825   3.024   1.605  11.368 -0.1133  0.5859  0.9881
 8064SOL    HW235826   3.102   1.732  11.392 -0.1426 -0.2207  1.1393
 8065SOL     OW35827   2.497   1.338   2.883  0.6743  0.4657  0.1089
 8065SOL    HW135828   2.431   1.383   2.831  0.6837  0.0637 -0.2499
 8065SOL    HW235829   2.443   1.263   2.908  0.0421  1.1157  0.7202
 8066SOL     OW35830   0.777   0.703   7.341  0.1283  0.2340 -0.2306
 8066SOL    HW135831   0.756   0.611   7.325  1.3124  0.0070 -0.4508
 8066SOL    HW235832   0.871   0.701   7.356  0.2049  1.0633 -0.6222
 8067SOL     OW35833   4.274   3.643   9.445  0.8404 -0.1536  0.8321
 8067SOL    HW135834   4.203   3.582   9.464  0.7030 -0.0690  0.5910
 8067SOL    HW235835   4.224   3.704   9.391  0.8400 -0.9845 -0.1116
 8068SOL     OW35836   2.777   0.259   6.121 -0.9502 -0.3981  0.3181
 8068SOL    HW135837   2.784   0.237   6.028  3.6460 -0.3055  0.6145
 8068SOL    HW235838   2.764   0.353   6.114 -1.4338 -0.5600 -0.9296
 8069SOL     OW35839   0.353   3.951   8.996  0.1727 -0.1965  0.3296
 8069SOL    HW135840   0.266   3.986   8.979 -0.0449 -0.2552  1.3635
 8069SOL    HW235841   0.367   3.958   9.090 -1.6867  2.8388  0.3666
 8070SOL     OW35842   4.630   1.782   9.715  0.0035 -0.3606 -0.3216
 8070SOL    HW135843   4.612   1.851   9.651 -0.1455  0.4617  0.6012
 8070SOL    HW235844   4.542   1.759   9.744 -0.6797  2.7155  0.0274
 8071SOL     OW35845   4.295   0.185  14.320  0.4024  0.6042  0.0397
 8071SOL    HW135846   4.354   0.259  14.336  2.2194 -1.3459  2.4585
 8071SOL    HW235847   4.243   0.194  14.400 -1.2994  1.8910 -1.2082
 8072SOL     OW35848   2.265   4.330  12.147  0.7660 -0.2834  0.1187
 8072SOL    HW135849   2.189   4.278  12.170  0.9456 -0.7396 -0.3289
 8072SOL    HW235850   2.252   4.407  12.203  0.5485  0.9027 -1.5406
 8073SOL     OW35851   1.769   2.545   7.888  0.1639 -0.3380 -0.1349
 8073SOL    HW135852   1.770   2.572   7.797 -0.6317  1.7625  0.4742
 8073SOL    HW235853   1.833   2.474   7.887  1.9994  1.3276  1.2524
 8074SOL     OW35854   3.973   3.410   8.185  0.0165 -0.1892  0.2346
 8074SOL    HW135855   3.942   3.351   8.117 -2.1415 -0.8175  1.7537
 8074SOL    HW235856   4.058   3.378   8.216  0.1001 -1.7305 -1.6092
 8075SOL     OW35857   3.066   0.148  12.365  0.4144 -0.1992 -0.0089
 8075SOL    HW135858   3.014   0.116  12.291 -1.6725 -0.0258  1.3646
 8075SOL    HW235859   3.005   0.152  12.439 -1.3253  0.2907 -1.4534
 8076SOL     OW35860   3.225   2.997  15.201  0.0392  0.1897 -0.3240
 8076SOL    HW135861   3.136   3.026  15.221  0.8635  1.5823  1.2933
 8076SOL    HW235862   3.235   2.906  15.228 -0.3587  0.5703  1.1067
 8077SOL     OW35863   2.143   1.884   2.615 -0.0566 -0.4491  0.0007
 8077SOL    HW135864   2.217   1.834   2.580 -1.6272 -1.4809 -1.8006
 8077SOL    HW235865   2.071   1.875   2.553  0.7604 -1.7436 -0.7526
 8078SOL     OW35866   2.510   2.431   9.079  0.0987  0.0474  0.6644
 8078SOL    HW135867   2.509   2.426   8.983  0.9200 -0.8603  0.6942
 8078SOL    HW235868   2.510   2.339   9.107 -0.3185 -0.4754 -1.0467
 8079SOL     OW35869   2.404   3.543  14.919  1.1766  0.3809 -0.5200
 8079SOL    HW135870   2.453   3.545  14.837 -0.4325  1.4363 -1.4363
 8079SOL    HW235871   2.319   3.579  14.896 -0.0701 -1.9128  0.4657
 8080SOL     OW35872   1.594   2.919   6.526 -0.6252  0.6432 -0.4883
 8080SOL    HW135873   1.599   2.954   6.615 -0.5288  0.9102 -0.5975
 8080SOL    HW235874   1.607   3.000   6.475  0.1007  1.6657  1.3222
 8081SOL     OW35875   4.396   0.238  17.421 -0.0895 -0.6571 -0.5947
 8081SOL    HW135876   4.404   0.208  17.512  0.4388  1.9778  0.2083
 8081SOL    HW235877   4.388   0.158  17.369 -1.3391 -0.8317 -0.1399
 8082SOL     OW35878   1.382   0.585   3.131 -0.4854 -0.3377  0.5669
 8082SOL    HW135879   1.428   0.641   3.194 -1.8819  1.7040 -0.2446
 8082SOL    HW235880   1.291   0.612   3.144 -0.8774 -0.8548 -1.0885
 8083SOL     OW35881   0.859   0.012   8.719 -0.1754  0.1145  0.1310
 8083SOL    HW135882   0.868   0.065   8.640  1.2021 -1.1953 -0.5883
 8083SOL    HW235883   0.932   4.686   8.714  1.6058  2.2508 -0.2991
 8084SOL     OW35884   2.488   0.722   5.042  0.3276 -0.3886 -0.9398
 8084SOL    HW135885   2.483   0.697   4.950 -2.1351 -0.4256 -0.7992
 8084SOL    HW235886   2.443   0.806   5.048  1.0540 -0.1784  1.8520
 8085SOL     OW35887   4.353   0.683   5.268 -0.5956  0.1104  0.3559
 8085SOL    HW135888   4.383   0.654   5.182 -1.3408  0.4339 -0.0091
 8085SOL    HW235889   4.269   0.637   5.270  0.3531 -1.5826  1.3850
 8086SOL     OW35890   1.201   2.433  13.533  0.3561  0.5142  0.0169
 8086SOL    HW135891   1.171   2.351  13.573 -0.2555  0.4433 -0.5707
 8086SOL    HW235892   1.221   2.408  13.442  2.6253 -0.3648  0.7607
 8087SOL     OW35893   1.341   3.595   7.067 -0.6461 -0.4221 -0.0780
 8087SOL    HW135894   1.332   3.664   7.001  0.7337 -1.6652 -1.5544
 8087SOL    HW235895   1.314   3.636   7.149  1.7957  0.3213  0.3603
 8088SOL     OW35896   4.675   0.610  16.853 -0.2528 -0.4044  0.2565
 8088SOL    HW135897   0.014   0.607  16.794 -2.2149  0.0906 -2.2303
 8088SOL    HW235898   4.708   0.672  16.918  0.6091 -1.3143  0.6948
 8089SOL     OW35899   2.067   3.949   6.854  0.8214  0.5253  0.1098
 8089SOL    HW135900   2.071   3.967   6.949  2.0203 -0.4578  0.2420
 8089SOL    HW235901   1.990   3.893   6.848  0.5425  0.9342 -0.1346
 8090SOL     OW35902   4.294   2.272   3.622  0.1535 -0.0303  0.1520
 8090SOL    HW135903   4.228   2.330   3.585  0.2682  0.1088  0.1686
 8090SOL    HW235904   4.376   2.298   3.580  0.1741  1.1775  0.9415
 8091SOL     OW35905   0.890   2.651   8.841 -0.5078  0.2866 -0.3943
 8091SOL    HW135906   0.816   2.626   8.896 -0.0891 -1.0483 -0.4434
 8091SOL    HW235907   0.892   2.588   8.769  1.1213 -0.4780  0.3387
 8092SOL     OW35908   4.118   0.264   5.268  0.3060 -0.5417  0.5240
 8092SOL    HW135909   4.083   0.275   5.357 -0.2486 -0.6039  0.3129
 8092SOL    HW235910   4.043   0.229   5.220  0.3325  1.0186 -0.6251
 8093SOL     OW35911   3.705   1.353   6.036  0.2003 -0.2155 -0.1865
 8093SOL    HW135912   3.701   1.294   6.111 -4.2214  0.6929  0.2465
 8093SOL    HW235913   3.671   1.297   5.966 -0.8402 -0.6391  0.6648
 8094SOL     OW35914   0.609   3.748   5.555  0.0412  0.5753 -0.1605
 8094SOL    HW135915   0.534   3.805   5.570 -1.1188 -0.5557 -1.7620
 8094SOL    HW235916   0.574   3.669   5.516 -0.5655  0.6382  0.2684
 8095SOL     OW35917   0.744   2.018   6.174 -0.5188  0.2879  0.3678
 8095SOL    HW135918   0.718   2.062   6.255  3.3119  0.7047  1.3690
 8095SOL    HW235919   0.722   2.085   6.109 -1.1424 -0.5737 -0.3000
 8096SOL     OW35920   2.447   0.229   9.603  0.1496  0.3504 -0.5337
 8096SOL    HW135921   2.441   0.323   9.618  1.7823  0.3031  0.4781
 8096SOL    HW235922   2.397   0.206   9.681 -1.4059 -1.3602 -2.0435
 8097SOL     OW35923   0.282   4.612   9.512 -0.1478  0.0523 -0.1618
 8097SOL    HW135924   0.316   4.650   9.431 -0.1534 -0.8565 -0.5856
 8097SOL    HW235925   0.195   4.582   9.484 -0.3716 -2.2614  3.0002
 8098SOL     OW35926   2.945   2.389   3.013  0.5079  0.6732 -0.3228
 8098SOL    HW135927   3.008   2.420   3.077 -0.2543  1.5888 -0.0096
 8098SOL    HW235928   2.898   2.469   2.989 -1.0746  0.2673  1.4267
 8099SOL     OW35929   3.614   2.051   4.742  0.5307 -0.0671  0.1001
 8099SOL    HW135930   3.657   2.017   4.820  2.6682  3.6189  0.5317
 8099SOL    HW235931   3.527   2.039   4.779  0.2455  1.3250 -0.1116
 8100SOL     OW35932   1.361   4.033   5.112 -0.3635  0.3479  0.6499
 8100SOL    HW135933   1.455   4.020   5.103 -0.4196  0.0539  0.5147
 8100SOL    HW235934   1.350   3.968   5.182  1.9655 -1.0602 -0.3147
 8101SOL     OW35935   0.815   1.142   5.449  0.0090 -0.1063 -0.2529
 8101SOL    HW135936   0.795   1.069   5.508 -0.6276  1.2048  1.1467
 8101SOL    HW235937   0.793   1.218   5.503  1.0485 -0.8851  1.2825
 8102SOL     OW35938   4.095   3.804   2.858  0.0286  0.3364 -0.0615
 8102SOL    HW135939   4.146   3.867   2.807  0.8087 -0.3000 -0.0807
 8102SOL    HW235940   4.131   3.814   2.947  1.0028 -2.5850 -0.1189
 8103SOL     OW35941   0.866   0.261   1.686  0.2194 -0.2095  0.2516
 8103SOL    HW135942   0.814   0.242   1.608 -0.1173  2.3542 -0.1611
 8103SOL    HW235943   0.952   0.229   1.659 -0.0534  1.4429 -2.5281
 8104SOL     OW35944   3.520   2.260   6.453  0.4068 -0.0559  0.7340
 8104SOL    HW135945   3.490   2.291   6.539  1.7438 -0.0226  1.1915
 8104SOL    HW235946   3.442   2.277   6.400  1.5848 -1.7327 -1.5350
 8105SOL     OW35947   0.553   2.303   2.402  0.0407 -0.1402  0.1329
 8105SOL    HW135948   0.635   2.308   2.451  0.9743 -2.8375 -1.1653
 8105SOL    HW235949   0.570   2.378   2.345  0.4407  0.2014  0.7022
 8106SOL     OW35950   4.222   3.031  13.378  0.2314 -0.0411 -0.1370
 8106SOL    HW135951   4.297   3.001  13.327  0.4430 -0.2312  0.2854
 8106SOL    HW235952   4.250   3.014  13.468  1.9325  0.0448 -0.6490
 8107SOL     OW35953   0.537   4.485  16.273  0.5845  0.3229  0.3024
 8107SOL    HW135954   0.627   4.508  16.253 -0.4808  3.1251 -1.3320
 8107SOL    HW235955   0.546   4.390  16.284  0.0102  0.4052  1.4465
 8108SOL     OW35956   1.751   4.402   6.723 -0.4345  0.1766  0.2126
 8108SOL    HW135957   1.733   4.386   6.816 -2.5696 -0.0020 -0.2342
 8108SOL    HW235958   1.681   4.355   6.678  0.3927  0.8372 -1.7717
 8109SOL     OW35959   0.485   1.135   6.824 -0.2302 -0.2105  0.0151
 8109SOL    HW135960   0.495   1.123   6.918 -3.4225 -1.7565  0.1731
 8109SOL    HW235961   0.498   1.045   6.796  2.8419  0.9270 -2.1901
 8110SOL     OW35962   0.000   1.627   4.688 -0.1993 -0.2393  0.3329
 8110SOL    HW135963   4.720   1.533   4.691 -2.7235  0.1832  0.6787
 8110SOL    HW235964   0.078   1.644   4.741  0.7397 -0.9358 -0.8189
 8111SOL     OW35965   0.863   3.539   8.138  0.2185 -0.2755 -0.0030
 8111SOL    HW135966   0.946   3.529   8.184  0.2037  0.5223  0.1987
 8111SOL    HW235967   0.805   3.466   8.161  0.5414 -1.0848 -1.7153
 8112SOL     OW35968   3.380   0.179   7.186 -0.7164 -0.1206 -0.0935
 8112SOL    HW135969   3.335   0.218   7.261  1.7636 -0.4783  1.5953
 8112SOL    HW235970   3.319   0.208   7.118 -1.4032 -1.1899  0.0805
 8113SOL     OW35971   3.335   4.291   6.561  0.4027  0.0789 -0.5038
 8113SOL    HW135972   3.313   4.380   6.592 -1.5964 -1.7098  3.2495
 8113SOL    HW235973   3.382   4.314   6.481  1.4099  1.7395  0.5720
 8114SOL     OW35974   3.284   2.889  16.539  0.0016  0.3995  0.3908
 8114SOL    HW135975   3.245   2.972  16.511  2.5388  2.0419  1.7164
 8114SOL    HW235976   3.270   2.837  16.460  0.6357  2.9016 -1.3507
 8115SOL     OW35977   0.010   1.377   3.412  0.0140  0.4953 -0.4386
 8115SOL    HW135978   4.653   1.353   3.413  0.0103  0.6428  2.1820
 8115SOL    HW235979   0.018   1.450   3.473  0.9241 -0.8425  1.0226
 8116SOL     OW35980   2.633   2.616   1.464  0.1720  0.1112 -0.0559
 8116SOL    HW135981   2.594   2.698   1.494 -0.2030 -0.0251 -0.1668
 8116SOL    HW235982   2.701   2.607   1.530 -0.3225 -0.1944  0.4198
 8117SOL     OW35983   1.848   3.097  12.014 -0.2765 -0.2779 -0.7145
 8117SOL    HW135984   1.877   3.183  12.044 -0.2541  0.1903 -2.0773
 8117SOL    HW235985   1.756   3.106  11.987  0.1373 -1.5589 -2.5767
 8118SOL     OW35986   0.876   4.371  12.644 -0.3657  0.0995  0.1199
 8118SOL    HW135987   0.791   4.409  12.622 -0.2352  0.2372 -0.1513
 8118SOL    HW235988   0.854   4.278  12.645 -1.6567  0.3969 -0.6712
 8119SOL     OW35989   2.662   1.203   5.613  0.0965  0.3329  0.5156
 8119SOL    HW135990   2.745   1.220   5.568 -0.5581  0.0182 -0.8129
 8119SOL    HW235991   2.646   1.115   5.578 -0.5186  1.5533 -2.2557
 8120SOL     OW35992   2.814   1.353   3.231 -0.2314 -0.1570 -0.3224
 8120SOL    HW135993   2.802   1.365   3.325  0.6116  0.8750 -0.3494
 8120SOL    HW235994   2.745   1.407   3.194 -0.0290  1.2218  1.3020
 8121SOL     OW35995   1.828   4.492  11.357  0.2190 -0.0212  0.2667
 8121SOL    HW135996   1.740   4.531  11.361  0.5174  0.6874 -0.0969
 8121SOL    HW235997   1.870   4.573  11.385 -0.5501  0.7311 -0.7774
 8122SOL     OW35998   4.239   3.670   1.584 -0.4624  0.2490 -0.8661
 8122SOL    HW135999   4.289   3.638   1.660 -2.1463 -1.0471 -0.2812
 8122SOL    HW236000   4.315   3.711   1.544  0.0986  0.5697  0.5269
 8123SOL     OW36001   2.595   2.252   5.725 -0.0726  0.7040 -0.0584
 8123SOL    HW136002   2.508   2.221   5.701 -0.8788  3.6181 -0.8288
 8123SOL    HW236003   2.602   2.310   5.650 -0.1663  0.8483  0.0448
 8124SOL     OW36004   3.022   2.972   0.385  0.3056  0.1166  0.0892
 8124SOL    HW136005   3.001   2.965   0.292  3.4473 -3.2381 -0.3810
 8124SOL    HW236006   3.050   2.884   0.411  0.7649 -0.1144 -1.2296
 8125SOL     OW36007   0.869   1.899   4.085 -0.0656  0.0096  0.5165
 8125SOL    HW136008   0.943   1.938   4.039 -0.6230 -1.9437 -2.0551
 8125SOL    HW236009   0.817   1.871   4.010  1.3091  0.3896 -0.5803
 8126SOL     OW36010   4.712   4.727   3.655 -0.6379  0.1979  0.4926
 8126SOL    HW136011   0.023   4.728   3.572 -0.4536 -0.4626  0.5885
 8126SOL    HW236012   0.021   4.651   3.694  0.3596 -0.2513 -1.5543
 8127SOL     OW36013   3.789   0.850  14.657 -0.9165 -0.2626 -0.3357
 8127SOL    HW136014   3.812   0.759  14.636  0.3600 -0.0039 -0.0310
 8127SOL    HW236015   3.816   0.853  14.749 -0.1216  2.5405 -0.6903
 8128SOL     OW36016   2.593   3.116   9.393 -0.2996 -0.5484  0.4954
 8128SOL    HW136017   2.620   3.205   9.372  0.3412 -1.4834 -2.5876
 8128SOL    HW236018   2.658   3.061   9.350 -1.0867 -1.6206  0.6792
 8129SOL     OW36019   2.187   4.240  13.469 -0.2178 -0.4923 -0.1950
 8129SOL    HW136020   2.115   4.182  13.493  0.1810 -0.4020  1.2356
 8129SOL    HW236021   2.246   4.177  13.428  0.3537 -0.6823  0.9286
 8130SOL     OW36022   3.481   2.530   9.149 -0.2420  0.1847  0.2621
 8130SOL    HW136023   3.552   2.476   9.115 -1.8544 -1.4542 -0.5252
 8130SOL    HW236024   3.421   2.463   9.181  0.5915 -1.0757 -0.7741
 8131SOL     OW36025   2.193   2.455   3.748  0.3005  0.0640  0.1292
 8131SOL    HW136026   2.151   2.509   3.815 -1.6135  0.7099 -1.5952
 8131SOL    HW236027   2.172   2.366   3.778 -0.4223  0.2987  0.3289
 8132SOL     OW36028   3.141   0.355   3.015  0.1529 -0.3988 -0.3931
 8132SOL    HW136029   3.236   0.351   3.001 -0.2524 -2.0233 -2.5258
 8132SOL    HW236030   3.148   0.374   3.109  1.2508  1.5223 -0.8679
 8133SOL     OW36031   1.814   0.152   6.421 -0.1474 -0.0071 -0.5313
 8133SOL    HW136032   1.854   0.181   6.339  0.8618 -0.9957 -0.3947
 8133SOL    HW236033   1.830   0.221   6.485 -0.6309 -1.2787  0.9669
 8134SOL     OW36034   1.074   2.598   2.626 -0.2639  0.1006 -0.0313
 8134SOL    HW136035   1.146   2.646   2.584 -0.4361  1.3895  1.1539
 8134SOL    HW236036   1.010   2.597   2.554  1.3534  0.0683 -1.4539
 8135SOL     OW36037   3.180   1.022   3.286 -0.0924  0.4483 -0.1802
 8135SOL    HW136038   3.232   1.016   3.365  1.8736  4.2660 -1.2093
 8135SOL    HW236039   3.128   0.941   3.284  0.1656  0.2709  0.3692
 8136SOL     OW36040   2.984   2.964   6.053 -0.1318  0.7069  0.3009
 8136SOL    HW136041   2.976   3.036   5.990  1.1487  1.5316  1.0919
 8136SOL    HW236042   3.079   2.957   6.055 -0.1953 -1.0362 -2.0893
 8137SOL     OW36043   0.986   3.912   5.187  0.0580 -0.5534  0.2326
 8137SOL    HW136044   0.915   3.860   5.225 -1.5533  0.4744 -1.4494
 8137SOL    HW236045   0.950   3.937   5.103  1.6990 -2.2373 -0.9839
 8138SOL     OW36046   2.038   1.293   7.940  0.3968  0.2397  0.1229
 8138SOL    HW136047   2.061   1.210   7.899 -1.1381 -0.2346  0.2169
 8138SOL    HW236048   2.066   1.359   7.877 -2.7742 -0.5671 -2.1497
 8139SOL     OW36049   2.431   0.928   2.251 -0.1459  0.3660  0.0317
 8139SOL    HW136050   2.359   0.945   2.312 -1.3716 -1.8420 -0.7663
 8139SOL    HW236051   2.384   0.869   2.191  0.3338  0.4449 -0.4179
 8140SOL     OW36052   2.958   4.180   9.070 -0.2207 -0.1406 -0.0616
 8140SOL    HW136053   3.028   4.171   9.134  1.0971  1.6051 -1.2539
 8140SOL    HW236054   3.011   4.226   9.005 -2.3571  1.3535 -0.7467
 8141SOL     OW36055   0.456   0.343  13.331 -0.1669 -0.4133 -0.4488
 8141SOL    HW136056   0.522   0.274  13.332 -2.0095 -2.1489  0.2488
 8141SOL    HW236057   0.494   0.405  13.393  0.2635 -0.0911 -1.0355
 8142SOL     OW36058   2.367   3.441   2.333 -0.6892  0.8208 -0.0436
 8142SOL    HW136059   2.296   3.437   2.269 -0.1743 -1.9509 -0.4223
 8142SOL    HW236060   2.353   3.366   2.390  2.0239 -0.6255 -1.2811
 8143SOL     OW36061   3.901   1.024  12.718 -0.2524  0.2027  0.6044
 8143SOL    HW136062   3.841   1.078  12.667  0.7321  0.7425  0.0249
 8143SOL    HW236063   3.907   1.076  12.798  0.6861  0.3544  0.4361
 8144SOL     OW36064   3.690   3.091  13.452 -0.3668 -0.8357 -0.7807
 8144SOL    HW136065   3.653   3.087  13.541 -0.3842 -0.4812 -0.7702
 8144SOL    HW236066   3.617   3.129  13.403 -0.9160  0.3173  0.9144
 8145SOL     OW36067   4.173   2.103   3.162 -0.1049 -0.1864  0.1497
 8145SOL    HW136068   4.202   2.027   3.110 -2.2253  0.0553 -1.4062
 8145SOL    HW236069   4.154   2.070   3.250  1.3171 -1.2960  0.0544
 8146SOL     OW36070   4.357   2.915  13.659 -0.1326 -0.5616  0.7651
 8146SOL    HW136071   4.311   2.832  13.649 -1.4558  0.2935 -0.3324
 8146SOL    HW236072   4.380   2.920  13.752  1.9773  2.5536  0.0921
 8147SOL     OW36073   0.911   0.717   0.905  0.0008 -0.9158 -0.6224
 8147SOL    HW136074   0.877   0.728   0.816  1.9193  0.0295 -1.2412
 8147SOL    HW236075   0.830   0.698   0.953  0.8743 -2.0762  0.3942
 8148SOL     OW36076   2.402   3.406   8.580  0.4930  0.9375 -0.2259
 8148SOL    HW136077   2.359   3.488   8.603 -0.8776 -0.0471  0.7325
 8148SOL    HW236078   2.419   3.371   8.667 -2.9665 -0.4272 -0.0867
 8149SOL     OW36079   0.813   1.288   9.054  0.6051  0.1016  0.2844
 8149SOL    HW136080   0.815   1.358   8.989  1.3112  0.2562  0.4745
 8149SOL    HW236081   0.718   1.291   9.066  0.4632  0.5522 -1.0289
 8150SOL     OW36082   3.560   4.327  16.446  0.4475 -0.0547 -0.7718
 8150SOL    HW136083   3.518   4.398  16.494  0.3632 -0.7224  0.1238
 8150SOL    HW236084   3.628   4.308  16.510  0.2147 -1.4122 -0.9390
 8151SOL     OW36085   1.016   0.002   5.368 -0.6554 -0.0514  0.4056
 8151SOL    HW136086   1.020   4.645   5.395  0.6836  0.3767  1.7005
 8151SOL    HW236087   0.945   0.023   5.428 -1.4997 -0.1339 -0.5683
 8152SOL     OW36088   0.808   3.533   0.593  0.6439 -0.2980 -0.1718
 8152SOL    HW136089   0.753   3.567   0.663  0.6294  1.3079 -0.9488
 8152SOL    HW236090   0.735   3.486   0.555  0.7818  0.0985 -0.9264
 8153SOL     OW36091   3.330   3.399   6.095 -0.2958 -0.6286 -0.0018
 8153SOL    HW136092   3.269   3.379   6.024 -0.8356 -0.9364  0.5501
 8153SOL    HW236093   3.411   3.368   6.054  0.2928  2.4698 -1.1238
 8154SOL     OW36094   3.340   3.731  12.235  0.2002 -0.0807 -0.1694
 8154SOL    HW136095   3.264   3.673  12.224  0.6495 -0.5588 -0.7289
 8154SOL    HW236096   3.415   3.673  12.224 -0.5876 -0.8055 -1.7029
 8155SOL     OW36097   4.027   3.026   5.478 -0.1929 -0.4079  0.1714
 8155SOL    HW136098   4.085   3.095   5.510 -1.7054  1.4380 -1.0853
 8155SOL    HW236099   3.992   3.072   5.401 -0.9217 -2.2249 -0.5850
 8156SOL     OW36100   0.309   4.379   7.738 -0.4795 -0.0184 -0.3860
 8156SOL    HW136101   0.305   4.381   7.834 -0.2341 -0.2954 -0.3704
 8156SOL    HW236102   0.232   4.429   7.710 -0.6131  1.4405  2.5598
 8157SOL     OW36103   0.906   2.391   6.135 -0.3240  0.6228 -0.2055
 8157SOL    HW136104   0.977   2.449   6.107  2.8986 -2.5386  1.3238
 8157SOL    HW236105   0.863   2.431   6.210  2.0506  2.1785  0.3427
 8158SOL     OW36106   1.961   0.512   2.208 -0.5854 -0.0865  0.1525
 8158SOL    HW136107   1.940   0.429   2.165  0.9946 -0.9230  0.9933
 8158SOL    HW236108   1.913   0.579   2.160  0.1112  0.0009 -0.4255
 8159SOL     OW36109   3.567   4.295  12.042 -0.3811  0.5489 -0.0063
 8159SOL    HW136110   3.631   4.367  12.037 -1.4445  1.4932 -0.0273
 8159SOL    HW236111   3.541   4.314  12.131  0.1688  0.1523  0.2400
 8160SOL     OW36112   1.538   3.123   8.976  0.0554  0.5734  0.1536
 8160SOL    HW136113   1.485   3.066   8.919  0.7967 -0.7513  0.7978
 8160SOL    HW236114   1.595   3.065   9.025  2.1658  3.5293  1.1649
 8161SOL     OW36115   1.700   3.437   6.852 -0.4270  0.0228  0.0126
 8161SOL    HW136116   1.651   3.424   6.933 -0.6014 -0.0797 -0.1080
 8161SOL    HW236117   1.793   3.428   6.874 -0.0353  0.8274 -1.3484
 8162SOL     OW36118   0.760   0.466   7.796  0.4388  0.1826 -0.0987
 8162SOL    HW136119   0.783   0.433   7.882 -1.6765  0.7555  0.6765
 8162SOL    HW236120   0.805   0.551   7.801 -0.8437  0.7777  1.2951
 8163SOL     OW36121   0.617   2.512   5.582  0.6667 -0.4246 -0.3934
 8163SOL    HW136122   0.563   2.435   5.601 -2.3569  1.4471 -1.3746
 8163SOL    HW236123   0.636   2.528   5.675  0.6907 -1.3854 -0.2334
 8164SOL     OW36124   2.173   2.156   3.578  0.0100  0.4233 -0.3181
 8164SOL    HW136125   2.106   2.218   3.608 -0.8836 -0.1840 -1.0424
 8164SOL    HW236126   2.252   2.202   3.607 -0.5905  0.8567  0.6301
 8165SOL     OW36127   3.054   3.530  17.060 -0.0592  0.2966 -0.2732
 8165SOL    HW136128   2.974   3.567  17.099 -0.0690  0.1888 -0.1915
 8165SOL    HW236129   3.103   3.511  17.140  0.7701  1.1377 -0.5731
 8166SOL     OW36130   3.287   3.713  12.869  0.0020 -0.4609 -0.2520
 8166SOL    HW136131   3.271   3.684  12.780 -0.4193  1.5443 -0.8246
 8166SOL    HW236132   3.365   3.663  12.891 -1.0419 -0.3174  3.8381
 8167SOL     OW36133   4.060   4.000   3.687  0.3890 -0.3423  0.4524
 8167SOL    HW136134   4.090   3.941   3.757 -0.3862  0.5366  1.5108
 8167SOL    HW236135   4.013   4.061   3.743 -1.2630  0.3145 -1.6462
 8168SOL     OW36136   0.460   2.908   3.876  0.0591  0.1363 -0.4914
 8168SOL    HW136137   0.546   2.866   3.871  0.2676  0.4879  0.1347
 8168SOL    HW236138   0.497   2.996   3.884  0.7923 -0.3252  1.3004
 8169SOL     OW36139   4.270   2.458   6.121  0.0500 -0.2006  0.1139
 8169SOL    HW136140   4.341   2.512   6.085  0.5568  1.3643  3.3927
 8169SOL    HW236141   4.293   2.451   6.214 -0.7729 -1.9756  0.1816
 8170SOL     OW36142   3.463   4.272   5.017  0.0402  0.4998  0.0756
 8170SOL    HW136143   3.551   4.288   5.051  0.8081  0.0014 -1.6574
 8170SOL    HW236144   3.430   4.360   5.034  0.1379  0.5785 -0.1493
 8171SOL     OW36145   0.222   0.403   8.998  0.5055 -0.1018  0.2791
 8171SOL    HW136146   0.235   0.418   8.904 -0.5788  2.7794  0.5723
 8171SOL    HW236147   0.190   0.490   9.023  0.3897 -0.0583 -0.0165
 8172SOL     OW36148   4.031   0.818   3.081  0.1739 -0.5258  0.3014
 8172SOL    HW136149   4.067   0.892   3.031  0.0387 -0.7996 -0.2081
 8172SOL    HW236150   3.952   0.790   3.034 -0.7405  2.7531 -0.1121
 8173SOL     OW36151   0.655   1.975   2.687 -0.1579 -0.1594  0.0828
 8173SOL    HW136152   0.574   2.025   2.696 -0.8796 -1.4096  0.5163
 8173SOL    HW236153   0.720   2.036   2.721  0.2927 -2.0637  2.5863
 8174SOL     OW36154   0.166   2.474  12.536 -0.1352 -0.3776  0.8333
 8174SOL    HW136155   0.193   2.456  12.627  2.5122 -1.4325 -0.1471
 8174SOL    HW236156   0.082   2.429  12.531 -1.6675  2.4705  0.7421
 8175SOL     OW36157   1.707   0.434  11.036 -0.7418 -0.2184 -0.0084
 8175SOL    HW136158   1.697   0.495  11.110  3.0190  0.4553 -0.0831
 8175SOL    HW236159   1.726   0.351  11.080  0.4304 -0.1384 -0.3723
 8176SOL     OW36160   3.775   1.793   8.573  0.0721 -0.4474 -0.0894
 8176SOL    HW136161   3.751   1.755   8.488 -1.4999  0.8889 -0.2574
 8176SOL    HW236162   3.718   1.870   8.572  2.0034  0.9605 -1.0291
 8177SOL     OW36163   1.359   1.988   3.944 -0.0331 -0.1454 -0.4821
 8177SOL    HW136164   1.425   1.954   3.884 -0.6143 -1.7959 -0.2065
 8177SOL    HW236165   1.409   2.039   4.007  0.4595 -1.5268  0.2630
 8178SOL     OW36166   4.479   2.440   4.687  0.4001  0.0616 -0.7007
 8178SOL    HW136167   4.386   2.446   4.665  0.0328  1.1215  1.1994
 8178SOL    HW236168   4.462   2.379   4.758  0.0980 -2.4547 -2.9265
 8179SOL     OW36169   0.465   0.750   1.201 -0.6675 -0.3207  0.2206
 8179SOL    HW136170   0.524   0.821   1.226  0.3660 -0.4983 -1.7177
 8179SOL    HW236171   0.440   0.788   1.117  0.5319 -1.4894 -0.6770
 8180SOL     OW36172   2.170   4.465  15.525 -0.1310  0.0556 -0.5427
 8180SOL    HW136173   2.099   4.480  15.588 -0.7639  3.2632 -2.0245
 8180SOL    HW236174   2.126   4.449  15.442  0.0753 -1.9524 -0.2650
 8181SOL     OW36175   1.324   0.323  12.750 -0.2237  0.3284 -0.6227
 8181SOL    HW136176   1.264   0.391  12.782 -1.3704 -2.0207  2.2467
 8181SOL    HW236177   1.264   0.248  12.755 -1.0636  1.0575  0.2639
 8182SOL     OW36178   4.232   0.006  15.711 -0.6374  0.1549 -0.1608
 8182SOL    HW136179   4.186   4.720  15.792 -2.5718  2.7854 -0.5506
 8182SOL    HW236180   4.239   4.655  15.671 -2.3839 -0.1155  0.1061
 8183SOL     OW36181   1.195   0.044  17.426  0.1799  0.7302  0.1177
 8183SOL    HW136182   1.151   0.018  17.507  1.3987  0.8179  0.8082
 8183SOL    HW236183   1.284   0.023  17.454 -0.4967 -1.1288  0.9287
 8184SOL     OW36184   2.387   4.528   6.675  0.0789 -0.2413 -0.4550
 8184SOL    HW136185   2.317   4.579   6.717  0.6651 -0.9985  1.3908
 8184SOL    HW236186   2.340   4.467   6.618 -0.0041 -2.0728  1.6105
 8185SOL     OW36187   0.566   0.188   4.665 -0.0650  0.0116 -0.1103
 8185SOL    HW136188   0.545   0.269   4.619  1.6743  0.0826 -0.7499
 8185SOL    HW236189   0.602   0.137   4.593  1.4880  1.0375 -0.0382
 8186SOL     OW36190   1.864   4.436  13.307 -0.3323 -0.0778  0.0632
 8186SOL    HW136191   1.786   4.480  13.273 -0.5749 -0.1255  0.5501
 8186SOL    HW236192   1.867   4.354  13.257 -0.9179 -0.5221  0.7585
 8187SOL     OW36193   2.584   1.077  12.600 -0.1177 -0.4069  0.3920
 8187SOL    HW136194   2.590   0.991  12.641  2.5589 -0.3779  0.0038
 8187SOL    HW236195   2.676   1.102  12.596 -0.8484  2.2258 -0.0832
 8188SOL     OW36196   2.624   2.777  14.407 -0.4565  0.5496  0.0169
 8188SOL    HW136197   2.689   2.792  14.476 -0.3946 -2.0579  0.4990
 8188SOL    HW236198   2.569   2.715  14.454  1.9887 -1.0336  0.7896
 8189SOL     OW36199   3.347   3.645   4.471  0.0416  0.1833 -0.1512
 8189SOL    HW136200   3.260   3.631   4.508 -0.1656  0.6033 -0.4650
 8189SOL    HW236201   3.328   3.639   4.377 -0.7306 -2.0956  0.1734
 8190SOL     OW36202   0.391   2.059   6.358  0.6429 -0.2780  0.2192
 8190SOL    HW136203   0.483   2.084   6.357 -0.3835  3.6244 -0.0462
 8190SOL    HW236204   0.354   2.131   6.306 -1.7413  0.9577  3.6732
 8191SOL     OW36205   1.580   0.591  14.826 -0.1437  0.0957  0.1904
 8191SOL    HW136206   1.508   0.547  14.871  0.7768 -2.2494 -0.6740
 8191SOL    HW236207   1.636   0.521  14.793  2.4759  0.7810  3.1956
 8192SOL     OW36208   1.805   1.405   2.998 -0.3813 -0.0064  0.5153
 8192SOL    HW136209   1.750   1.483   3.007 -0.9618 -0.1994 -1.3344
 8192SOL    HW236210   1.893   1.443   2.997 -0.3463 -0.0940  0.1804
 8193SOL     OW36211   0.365   3.086   7.046  0.3524 -0.1506  0.1470
 8193SOL    HW136212   0.373   3.091   6.951 -0.1941  1.7249  0.1984
 8193SOL    HW236213   0.405   3.001   7.064  3.0322  0.8301 -1.0567
 8194SOL     OW36214   3.055   3.560  13.658 -0.4230 -0.2899 -0.1629
 8194SOL    HW136215   3.076   3.574  13.751 -1.3621 -1.2073  0.1943
 8194SOL    HW236216   2.962   3.544  13.674 -0.8150  1.7431 -0.3299
 8195SOL     OW36217   1.258   2.403   5.228  0.5566  0.5148 -0.0520
 8195SOL    HW136218   1.166   2.430   5.233  0.6768  0.9739 -0.3787
 8195SOL    HW236219   1.272   2.480   5.174  1.0292  1.1197  0.9380
 8196SOL     OW36220   2.427   1.846   9.153 -0.3114 -0.1858 -0.5548
 8196SOL    HW136221   2.416   1.834   9.247  1.8869 -1.7834 -0.5163
 8196SOL    HW236222   2.371   1.771   9.132 -1.9345  1.3804 -1.9477
 8197SOL     OW36223   3.347   3.231   8.584 -0.2549  0.1297  0.4345
 8197SOL    HW136224   3.313   3.205   8.498 -1.9503 -0.0606  1.1531
 8197SOL    HW236225   3.407   3.163   8.614  1.2488  1.6662  0.9141
 8198SOL     OW36226   0.601   3.131   6.516 -0.2195  0.2393  0.3379
 8198SOL    HW136227   0.593   3.227   6.516  1.8016  0.4233  1.7531
 8198SOL    HW236228   0.682   3.118   6.467 -1.5437  1.8507 -2.2659
 8199SOL     OW36229   0.683   2.581   1.963 -0.0719  0.1222 -0.2682
 8199SOL    HW136230   0.681   2.674   1.984 -2.3395 -0.1875  0.8928
 8199SOL    HW236231   0.706   2.596   1.872 -1.6120 -1.5272 -0.9313
 8200SOL     OW36232   3.127   4.274   2.524  0.6052  0.0367 -0.5311
 8200SOL    HW136233   3.179   4.355   2.523  0.4981  0.0931 -1.0533
 8200SOL    HW236234   3.184   4.203   2.496  0.2514  0.3786 -2.0745
 8201SOL     OW36235   1.568   2.840   8.229  0.5215  0.3535 -0.5602
 8201SOL    HW136236   1.515   2.848   8.149  2.1186 -0.3976 -1.6812
 8201SOL    HW236237   1.655   2.820   8.196  0.1803 -4.0570  1.1542
 8202SOL     OW36238   0.634   2.831   0.047  0.4346  0.0623  0.7858
 8202SOL    HW136239   0.659   2.865   0.134 -1.4061  2.5566  0.3556
 8202SOL    HW236240   0.549   2.874   0.036  2.1479  3.1451 -0.4454
 8203SOL     OW36241   4.141   0.639   2.207  0.2403  0.1726  0.3443
 8203SOL    HW136242   4.175   0.727   2.221  0.6243 -0.0560  0.8610
 8203SOL    HW236243   4.151   0.632   2.113 -4.4184  1.1682 -0.2083
 8204SOL     OW36244   3.968   1.093   4.292  0.2145  0.0908  0.9438
 8204SOL    HW136245   3.948   1.169   4.346 -0.9676 -0.4043  1.2086
 8204SOL    HW236246   3.942   1.028   4.357  1.4723 -0.7742  0.5833
 8205SOL     OW36247   3.322   1.086  16.589  0.5859 -0.3764  0.2759
 8205SOL    HW136248   3.298   1.081  16.497  2.7142 -0.9991 -0.2495
 8205SOL    HW236249   3.239   1.048  16.616  0.0740  0.7521  0.2705
 8206SOL     OW36250   0.273   2.290   6.281  0.1114  0.3172 -0.3084
 8206SOL    HW136251   0.212   2.266   6.351  0.8918 -2.1861 -0.4860
 8206SOL    HW236252   0.263   2.385   6.274 -0.4916  0.2039 -1.0432
 8207SOL     OW36253   3.694   0.639   1.063  0.0016 -0.8285  0.0478
 8207SOL    HW136254   3.635   0.564   1.065  1.6133 -2.1094 -0.5724
 8207SOL    HW236255   3.765   0.604   1.009  1.1347  2.2436 -0.4350
 8208SOL     OW36256   2.382   1.879   6.738  0.3565 -0.1776  0.4515
 8208SOL    HW136257   2.293   1.852   6.713 -0.3603  1.7303  0.9735
 8208SOL    HW236258   2.357   1.948   6.799 -1.9327 -2.2336  1.8499
 8209SOL     OW36259   0.607   3.997   4.545  0.3055  0.2991  0.7276
 8209SOL    HW136260   0.585   3.992   4.638 -1.1971  2.5412  0.4892
 8209SOL    HW236261   0.530   4.047   4.518  2.3176  2.3843 -1.1697
 8210SOL     OW36262   1.260   4.165   8.929 -0.1895  0.1335  0.1406
 8210SOL    HW136263   1.184   4.150   8.873  1.1256 -2.8888 -0.8381
 8210SOL    HW236264   1.237   4.254   8.955 -1.6972 -0.8427  2.1536
 8211SOL     OW36265   2.376   2.933   1.719 -0.5889  0.4969  0.3478
 8211SOL    HW136266   2.362   3.023   1.688  1.0276 -0.0030 -1.8146
 8211SOL    HW236267   2.287   2.909   1.745 -0.4444  0.1967  0.5608
 8212SOL     OW36268   2.624   1.901   9.658  0.1860  0.7430  0.1873
 8212SOL    HW136269   2.658   1.822   9.615 -0.0282  0.3784  0.6789
 8212SOL    HW236270   2.673   1.891   9.740 -0.1879  0.6429  0.3950
 8213SOL     OW36271   2.227   3.112   3.624 -0.1488 -0.2236 -0.2239
 8213SOL    HW136272   2.153   3.054   3.604 -0.2443  0.3542 -1.5386
 8213SOL    HW236273   2.286   3.049   3.665  0.5774 -0.2281 -1.2658
 8214SOL     OW36274   4.321   1.487   5.865  0.6440 -0.9267  0.1974
 8214SOL    HW136275   4.404   1.474   5.819 -0.4757 -0.8682 -1.8562
 8214SOL    HW236276   4.295   1.569   5.822 -1.4532 -1.4503  0.4814
 8215SOL     OW36277   2.725   4.302   6.227  0.0418  0.1139  0.5646
 8215SOL    HW136278   2.700   4.394   6.219  1.1697  0.2487 -1.3551
 8215SOL    HW236279   2.773   4.297   6.310  1.3950  2.7732 -0.0612
 8216SOL     OW36280   4.410   0.839   1.544 -0.4845 -0.2568 -0.1717
 8216SOL    HW136281   4.434   0.920   1.499 -2.0871  0.0938 -0.3779
 8216SOL    HW236282   4.414   0.870   1.635 -1.9018  3.0416 -1.2381
 8217SOL     OW36283   2.117   0.639  10.285 -0.0632 -0.0483  0.2867
 8217SOL    HW136284   2.137   0.624  10.377  0.9570 -1.9677 -0.2587
 8217SOL    HW236285   2.057   0.567  10.267  1.6453 -1.0924 -1.2040
 8218SOL     OW36286   0.612   2.889   5.103 -0.7750 -0.4559  0.3326
 8218SOL    HW136287   0.683   2.938   5.146 -1.0076 -0.6287  0.9119
 8218SOL    HW236288   0.582   2.957   5.044 -1.4999 -0.6413  0.4928
 8219SOL     OW36289   2.676   2.160   9.008  0.0816  0.1760  0.3603
 8219SOL    HW136290   2.593   2.117   9.028  0.9942 -0.9820  1.7104
 8219SOL    HW236291   2.718   2.124   9.086 -0.3101 -0.6685  0.1839
 8220SOL     OW36292   1.871   4.130   3.366  0.0119  0.4838  0.6696
 8220SOL    HW136293   1.884   4.059   3.303 -1.2136  2.5318 -1.8575
 8220SOL    HW236294   1.784   4.159   3.338  1.1217  1.9459 -1.2649
 8221SOL     OW36295   0.414   4.465   3.330 -0.2498  0.2136 -0.3685
 8221SOL    HW136296   0.432   4.425   3.415 -2.0878 -2.4009 -1.2154
 8221SOL    HW236297   0.399   4.385   3.279  0.7817  0.0428 -0.3995
 8222SOL     OW36298   3.215   1.883   7.780 -0.3636  0.0572  0.1454
 8222SOL    HW136299   3.178   1.811   7.830  1.4245 -0.1385  1.1720
 8222SOL    HW236300   3.216   1.961   7.835  1.5918  0.5036 -0.5446
 8223SOL     OW36301   1.867   2.004   6.839 -0.1901 -0.1351 -0.1667
 8223SOL    HW136302   1.782   2.014   6.796 -0.3120 -2.5888 -0.4882
 8223SOL    HW236303   1.888   1.911   6.835  1.8201  0.3233 -0.2284
 8224SOL     OW36304   2.249   0.836   3.796  0.0607  0.2382 -0.0657
 8224SOL    HW136305   2.336   0.846   3.833 -0.8221  1.1130  1.7519
 8224SOL    HW236306   2.252   0.749   3.756  2.7295  0.1938  0.2542
 8225SOL     OW36307   4.304   2.120   4.415  0.3328  0.5189  0.1591
 8225SOL    HW136308   4.368   2.157   4.354 -0.0418  0.6005 -0.1806
 8225SOL    HW236309   4.362   2.107   4.490 -0.3553  1.3155  0.8227
 8226SOL     OW36310   2.899   0.869  14.051  0.6328  0.1861  0.4902
 8226SOL    HW136311   2.842   0.943  14.074  0.9363  0.7013 -0.3850
 8226SOL    HW236312   2.923   0.881  13.959 -0.2258  2.3234  0.5334
 8227SOL     OW36313   4.595   2.945  17.239  0.4316 -0.4280 -0.1236
 8227SOL    HW136314   4.518   2.927  17.185 -0.7688 -0.2607  1.5007
 8227SOL    HW236315   4.672   2.910  17.195  1.2028  0.5251  0.4607
 8228SOL     OW36316   3.160   4.370   6.304 -0.1893 -0.0074  0.1585
 8228SOL    HW136317   3.235   4.320   6.338  0.0915 -1.0829 -2.0410
 8228SOL    HW236318   3.176   4.370   6.210  0.7040 -1.2786  0.3041
 8229SOL     OW36319   3.912   2.286   5.258 -0.2533  0.0845 -0.6917
 8229SOL    HW136320   3.874   2.367   5.225 -0.3896  0.7503  1.0833
 8229SOL    HW236321   3.849   2.258   5.325  3.4320 -2.2980  1.7464
 8230SOL     OW36322   3.014   0.975   3.778  0.1176  0.0286  0.9002
 8230SOL    HW136323   3.026   1.054   3.832 -3.0359 -0.6805  2.6233
 8230SOL    HW236324   3.021   1.026   3.697  0.7853 -0.1990  0.8121
 8231SOL     OW36325   2.835   0.523   3.682  0.0258 -0.2094 -0.4568
 8231SOL    HW136326   2.852   0.464   3.755  1.2520  0.4332 -0.2325
 8231SOL    HW236327   2.789   0.457   3.630  1.3750 -0.4423 -1.3389
 8232SOL     OW36328   3.462   1.726   8.453 -0.2985  0.0967  0.4076
 8232SOL    HW136329   3.368   1.743   8.463 -0.2270  0.8430 -0.1836
 8232SOL    HW236330   3.479   1.718   8.359 -0.3908 -2.3288  0.6076
 8233SOL     OW36331   0.080   4.473   4.142 -0.4489 -0.2291  0.2449
 8233SOL    HW136332   0.098   4.513   4.057  0.6867  0.8661  0.9992
 8233SOL    HW236333   0.095   4.549   4.198  1.0908 -0.1965 -0.2085
 8234SOL     OW36334   1.035   0.012   9.094  0.4026  0.1110  0.1206
 8234SOL    HW136335   1.017   0.055   9.178 -3.0787  1.8834 -1.5285
 8234SOL    HW236336   0.955   0.046   9.053  0.7594 -1.1903 -1.6242
 8235SOL     OW36337   0.365   1.214   0.643 -0.3366 -0.2721 -0.5606
 8235SOL    HW136338   0.450   1.170   0.642  0.1986  0.7180  0.9772
 8235SOL    HW236339   0.377   1.298   0.599 -3.9604  0.6094  0.0785
 8236SOL     OW36340   2.520   0.180   5.555  0.4933 -0.4651 -0.3523
 8236SOL    HW136341   2.579   0.255   5.550  0.2278 -0.2267  0.0110
 8236SOL    HW236342   2.575   0.113   5.515  0.2664  0.2447 -1.8195
 8237SOL     OW36343   1.429   2.490   6.023 -0.1252 -0.3082  0.3850
 8237SOL    HW136344   1.449   2.467   5.932 -0.3682 -0.6393  0.4185
 8237SOL    HW236345   1.461   2.419   6.078 -0.5076 -1.4267 -0.8331
 8238SOL     OW36346   4.683   3.227   6.152  0.1478 -0.0065  0.1212
 8238SOL    HW136347   4.592   3.202   6.172  0.6727 -0.2777  2.1881
 8238SOL    HW236348   4.735   3.151   6.179 -1.1444 -1.4297 -1.4242
 8239SOL     OW36349   3.705   0.240   8.455  0.3376  0.2853  0.6124
 8239SOL    HW136350   3.704   0.169   8.520 -2.0138  1.2754  1.6554
 8239SOL    HW236351   3.748   0.305   8.510  2.4979 -0.7227  0.1321
 8240SOL     OW36352   2.896   1.456   1.035 -0.2816 -0.1538  0.2299
 8240SOL    HW136353   2.891   1.360   1.039 -1.6544 -0.1013  0.0243
 8240SOL    HW236354   2.886   1.467   0.940  0.2789  1.4696  0.3748
 8241SOL     OW36355   1.722   3.166   4.229 -0.3235 -0.0982 -0.0303
 8241SOL    HW136356   1.746   3.210   4.311  0.2426 -1.0267  0.3035
 8241SOL    HW236357   1.783   3.201   4.164 -1.6818  2.5953  0.1525
 8242SOL     OW36358   4.256   2.833   5.625  0.5133  0.2915  0.5576
 8242SOL    HW136359   4.192   2.804   5.689 -2.6603 -0.1477 -2.7799
 8242SOL    HW236360   4.275   2.914   5.672 -1.0489 -0.3931  2.3800
 8243SOL     OW36361   3.782   2.037   1.536  0.2390  0.4126 -0.9984
 8243SOL    HW136362   3.688   2.046   1.522  0.0181  0.0050  0.2562
 8243SOL    HW236363   3.797   1.943   1.523  3.2918  0.7469  0.0252
 8244SOL     OW36364   1.560   3.225   1.852 -0.7492  0.3247 -0.0009
 8244SOL    HW136365   1.511   3.282   1.911 -0.4222  0.1187  0.4637
 8244SOL    HW236366   1.546   3.270   1.768 -1.3261  0.9623  0.4342
 8245SOL     OW36367   2.093   0.885   6.686  0.3579 -0.0024  0.6995
 8245SOL    HW136368   2.005   0.863   6.714 -0.2740  0.1683 -1.1360
 8245SOL    HW236369   2.139   0.871   6.768  1.3850  2.1547  0.5048
 8246SOL     OW36370   3.371   1.993  10.279 -0.6100  0.1396  0.3063
 8246SOL    HW136371   3.357   1.932  10.207 -0.8618 -0.8431  1.1921
 8246SOL    HW236372   3.368   1.934  10.354  0.1569 -0.6885 -0.3005
 8247SOL     OW36373   1.589   2.621   8.426  0.2359  0.3235 -0.1397
 8247SOL    HW136374   1.606   2.534   8.389 -1.2333  0.3518 -0.9083
 8247SOL    HW236375   1.533   2.667   8.363  2.9397 -0.2882 -2.9897
 8248SOL     OW36376   3.373   0.118   0.029  0.4465  0.1163  0.3937
 8248SOL    HW136377   3.407   0.194   0.076 -1.4381  1.0354  0.2879
 8248SOL    HW236378   3.291   0.145  17.728  0.8383  0.4124 -0.1771
 8249SOL     OW36379   1.020   2.722   0.074 -0.4199 -0.3698 -0.3811
 8249SOL    HW136380   1.111   2.753   0.066 -0.5193  0.3074  1.0300
 8249SOL    HW236381   0.999   2.736   0.166 -0.2280  0.2874 -0.4359
 8250SOL     OW36382   0.537   1.275  13.215  0.3277  0.0848 -0.4899
 8250SOL    HW136383   0.495   1.295  13.299 -2.2280  0.7258 -1.9182
 8250SOL    HW236384   0.617   1.231  13.242 -0.4740 -0.2946  1.2597
 8251SOL     OW36385   2.363   1.737   4.872 -0.0338  0.2456 -0.3587
 8251SOL    HW136386   2.295   1.692   4.922  1.7358 -1.6643  0.3467
 8251SOL    HW236387   2.395   1.807   4.929 -1.2902  0.2079  0.3771
 8252SOL     OW36388   2.227   1.618   6.058  0.1571 -0.0626  0.0503
 8252SOL    HW136389   2.261   1.689   6.113  1.2942  0.9607 -1.9722
 8252SOL    HW236390   2.289   1.549   6.079  0.6919  0.2124 -0.6172
 8253SOL     OW36391   1.484   3.823   5.453  0.0333 -0.1897 -0.0487
 8253SOL    HW136392   1.418   3.874   5.407  0.8087  0.8041 -0.0483
 8253SOL    HW236393   1.470   3.858   5.541  1.4119  2.5623 -0.9342
 8254SOL     OW36394   4.310   1.528  11.290 -0.4562  0.2527 -0.1491
 8254SOL    HW136395   4.319   1.623  11.280  1.4670 -0.0052 -0.8684
 8254SOL    HW236396   4.377   1.508  11.225 -0.8546 -0.1499 -0.4342
 8255SOL     OW36397   4.443   3.536  10.467  0.0142  0.0633 -0.0464
 8255SOL    HW136398   4.464   3.580  10.384 -0.2715 -2.3186 -1.3975
 8255SOL    HW236399   4.526   3.552  10.511  0.3430 -3.2318  0.5918
 8256SOL     OW36400   3.634   1.025   1.276 -0.5083  0.1727  0.3692
 8256SOL    HW136401   3.678   1.017   1.191 -1.9101 -1.1947 -0.2134
 8256SOL    HW236402   3.654   0.939   1.312  0.6515 -0.2209 -1.1865
 8257SOL     OW36403   1.104   1.028   5.689  0.6482  0.0648  0.1156
 8257SOL    HW136404   1.017   1.010   5.725  0.2280 -0.4798 -1.1995
 8257SOL    HW236405   1.111   0.942   5.649 -1.6232 -0.0216 -0.0891
 8258SOL     OW36406   3.570   2.348   7.846  0.6460  0.0103 -0.3271
 8258SOL    HW136407   3.623   2.271   7.865 -0.5571 -0.8859 -0.6312
 8258SOL    HW236408   3.516   2.340   7.924 -0.5927  0.3357 -1.1464
 8259SOL     OW36409   4.418   0.281   4.678  0.3712 -0.5098  0.3086
 8259SOL    HW136410   4.375   0.221   4.617  2.1845  0.5138 -1.9977
 8259SOL    HW236411   4.357   0.354   4.685  1.7359  0.7656 -0.9720
 8260SOL     OW36412   0.965   1.932   8.023  0.6294  0.0318  0.4108
 8260SOL    HW136413   0.890   1.962   7.971  0.5048 -1.7417 -0.4315
 8260SOL    HW236414   0.929   1.880   8.094 -0.8935  0.0836 -0.3241
 8261SOL     OW36415   0.159   2.902  12.352 -0.0080  0.8041 -0.3187
 8261SOL    HW136416   0.155   2.848  12.431  0.6965  0.7101 -0.3487
 8261SOL    HW236417   0.073   2.889  12.313  0.1312  1.8302 -0.9471
 8262SOL     OW36418   4.575   3.861   3.892 -0.3327  0.1247  0.1349
 8262SOL    HW136419   4.488   3.821   3.895  0.2351 -1.0394  1.1897
 8262SOL    HW236420   4.588   3.886   3.984  1.8202  1.0690 -0.4210
 8263SOL     OW36421   4.213   0.807   3.432  0.6911 -0.3103 -0.1358
 8263SOL    HW136422   4.249   0.735   3.484  0.7934  0.6026  1.0778
 8263SOL    HW236423   4.131   0.765   3.406  0.2751  0.9336 -0.8000
 8264SOL     OW36424   0.836   1.386   4.046  0.4396  0.5695 -0.6574
 8264SOL    HW136425   0.923   1.360   4.016 -0.4505 -2.3034 -0.7473
 8264SOL    HW236426   0.849   1.367   4.138 -0.5069  3.7363  0.1301
 8265SOL     OW36427   2.627   4.586   2.465  0.1343  0.0897 -0.3964
 8265SOL    HW136428   2.589   4.525   2.528 -2.5256  1.9507 -0.2260
 8265SOL    HW236429   2.657   4.652   2.527 -0.1252 -0.6479  0.5146
 8266SOL     OW36430   1.187   0.590   7.976 -0.3779  0.5054 -0.2675
 8266SOL    HW136431   1.219   0.502   7.956  0.4874  0.7616 -0.0236
 8266SOL    HW236432   1.202   0.581   8.070  0.6149  0.5687 -0.4171
 8267SOL     OW36433   0.878   1.744   8.491  0.0687  0.0806 -0.1902
 8267SOL    HW136434   0.890   1.692   8.411  0.7278  0.4814 -0.3543
 8267SOL    HW236435   0.956   1.711   8.536 -1.6840 -0.2788  2.5237
 8268SOL     OW36436   0.036   2.883   6.040 -0.2637 -0.0447 -0.1512
 8268SOL    HW136437   0.121   2.847   6.016  0.4562  1.5910 -0.0260
 8268SOL    HW236438   0.057   2.925   6.124  0.7769 -0.9444  0.0351
 8269SOL     OW36439   3.637   4.552   9.614 -0.5722  0.1308  0.3493
 8269SOL    HW136440   3.687   4.513   9.685 -2.8430  0.3097  2.0430
 8269SOL    HW236441   3.686   4.628   9.581  0.0473 -0.4586 -0.1034
 8270SOL     OW36442   4.054   0.026   2.504 -1.0750  0.1156  0.2180
 8270SOL    HW136443   4.147   0.004   2.507 -1.6019 -1.9901  1.1517
 8270SOL    HW236444   4.013   4.691   2.453  0.4738 -1.6616  1.4371
 8271SOL     OW36445   1.936   3.720   3.005  0.2235 -0.3182  0.4106
 8271SOL    HW136446   1.974   3.798   3.046  1.6675 -2.3462  2.9601
 8271SOL    HW236447   1.869   3.690   3.066 -0.0314 -0.0790  0.2453
 8272SOL     OW36448   0.795   4.273  10.799  0.9942 -0.0765 -0.9064
 8272SOL    HW136449   0.785   4.232  10.713  0.1743  1.3706 -1.5075
 8272SOL    HW236450   0.883   4.311  10.796  0.7014  0.7053  0.1278
 8273SOL     OW36451   4.040   3.439   3.271  0.2037  0.2710 -0.0865
 8273SOL    HW136452   4.086   3.356   3.281  0.1328  0.4541  1.8149
 8273SOL    HW236453   3.948   3.422   3.247 -0.6097  3.9919  0.4147
 8274SOL     OW36454   3.661   0.334  13.073  0.0744 -0.0052  0.5562
 8274SOL    HW136455   3.592   0.381  13.027  0.0541 -0.5101  0.0724
 8274SOL    HW236456   3.682   0.395  13.144 -0.2317 -0.6093  1.1666
 8275SOL     OW36457   2.831   2.127   9.741  0.4526  0.4618  0.2944
 8275SOL    HW136458   2.843   2.087   9.827 -1.4857 -0.0813  0.3219
 8275SOL    HW236459   2.856   2.215   9.767 -0.6221  1.5356 -2.2817
 8276SOL     OW36460   0.225   0.822   0.739 -0.0878  0.1500 -0.9196
 8276SOL    HW136461   0.144   0.871   0.753 -0.2022  0.4613 -2.6285
 8276SOL    HW236462   0.218   0.781   0.652  0.6213 -1.1984 -0.3344
 8277SOL     OW36463   0.095   3.016   6.259  0.1238 -0.2001 -0.0267
 8277SOL    HW136464   0.086   2.941   6.317 -4.3895  0.0644 -0.4187
 8277SOL    HW236465   0.184   3.043   6.281  1.0056 -2.7031 -0.5416
 8278SOL     OW36466   0.057   0.597   6.515  0.8463 -0.0080 -0.0388
 8278SOL    HW136467   4.735   0.622   6.587 -0.1667 -2.6041  0.0505
 8278SOL    HW236468   0.125   0.664   6.512  0.7189  0.1224 -0.0008
 8279SOL     OW36469   1.009   2.506   4.697  0.2615  0.5828  0.1167
 8279SOL    HW136470   0.979   2.596   4.711 -0.0858  0.1529  2.1023
 8279SOL    HW236471   0.990   2.502   4.603  2.0054  0.0252 -0.2097
 8280SOL     OW36472   4.370   2.039   2.583 -0.5492 -0.2705  0.2470
 8280SOL    HW136473   4.314   2.005   2.654 -2.8468  0.2214 -1.3262
 8280SOL    HW236474   4.391   1.958   2.537  0.8645  0.3530 -0.1784
 8281SOL     OW36475   2.865   3.576   7.320  0.1531  0.0150  0.0522
 8281SOL    HW136476   2.953   3.587   7.283  1.0299 -1.8946  1.5672
 8281SOL    HW236477   2.877   3.491   7.364  0.1895 -1.4242 -2.7473
 8282SOL     OW36478   0.629   1.331   8.193 -0.1722 -0.0077  0.0037
 8282SOL    HW136479   0.572   1.387   8.245 -0.6596  0.4402 -1.0183
 8282SOL    HW236480   0.589   1.244   8.197  2.6695 -1.2742  0.5216
 8283SOL     OW36481   4.570   1.896   8.417  0.0879 -0.0616  0.2608
 8283SOL    HW136482   4.555   1.990   8.427  3.1663  0.3605  0.8784
 8283SOL    HW236483   4.502   1.877   8.352 -1.2099  1.8039  1.0903
 8284SOL     OW36484   4.670   3.174  14.561 -0.5616  0.3411  0.9212
 8284SOL    HW136485   0.015   3.222  14.544 -1.6839  1.9789  0.1836
 8284SOL    HW236486   4.705   3.093  14.596 -1.6634  0.1188  1.5141
 8285SOL     OW36487   1.342   1.403  16.767  0.2053 -0.2582  0.0077
 8285SOL    HW136488   1.404   1.452  16.821 -0.1091  1.1200 -0.8852
 8285SOL    HW236489   1.385   1.323  16.737  0.9910  1.3984 -3.3077
 8286SOL     OW36490   1.666   2.572   2.217 -0.0382 -0.2954 -0.1763
 8286SOL    HW136491   1.665   2.521   2.136 -0.7679 -1.4607  0.5703
 8286SOL    HW236492   1.596   2.516   2.251 -1.1463 -1.1130 -3.8223
 8287SOL     OW36493   1.628   0.493   1.566  0.2736 -0.7493  0.4303
 8287SOL    HW136494   1.576   0.552   1.512 -0.7944 -0.2303  2.0540
 8287SOL    HW236495   1.671   0.437   1.501 -0.6841  0.0805 -0.8968
 8288SOL     OW36496   3.283   2.398   9.270 -0.1743 -0.4354 -0.1623
 8288SOL    HW136497   3.215   2.437   9.214  0.1480  1.2639  0.6142
 8288SOL    HW236498   3.237   2.315   9.277  1.1003 -1.1036  0.2163
 8289SOL     OW36499   2.261   2.537   3.348  0.1491  0.3660 -0.3571
 8289SOL    HW136500   2.247   2.632   3.349  1.0497  0.5204 -1.6270
 8289SOL    HW236501   2.279   2.534   3.254 -0.4983  1.1180 -0.5097
 8290SOL     OW36502   0.797   1.259   6.855 -0.8035 -0.0926 -1.0496
 8290SOL    HW136503   0.863   1.310   6.902  0.3292 -2.1790 -0.3509
 8290SOL    HW236504   0.787   1.186   6.916  1.5434 -0.6655 -1.3486
 8291SOL     OW36505   2.552   3.494   2.151 -0.3173  0.8385  0.3964
 8291SOL    HW136506   2.492   3.480   2.224 -0.6425 -1.7337 -0.3587
 8291SOL    HW236507   2.493   3.477   2.078  3.0010 -1.4218 -1.8009
 8292SOL     OW36508   1.346   1.137   0.964 -0.1825  0.2545  0.2091
 8292SOL    HW136509   1.271   1.157   0.908  0.1912  1.5688  0.1808
 8292SOL    HW236510   1.396   1.084   0.901 -0.2136 -2.9368  2.8366
 8293SOL     OW36511   2.889   1.831   6.085 -0.4206  0.3419 -0.4424
 8293SOL    HW136512   2.861   1.849   6.174 -0.0623  0.4013 -0.3414
 8293SOL    HW236513   2.854   1.903   6.032 -1.6879  1.5178  2.0134
 8294SOL     OW36514   2.315   3.948   9.294 -0.1432 -0.1619 -0.2822
 8294SOL    HW136515   2.264   3.918   9.370 -1.3842  0.8888 -0.7025
 8294SOL    HW236516   2.268   3.899   9.226  1.5008 -2.2089  0.0451
 8295SOL     OW36517   0.131   3.006   5.194 -0.0023  0.4267  0.5331
 8295SOL    HW136518   0.054   2.951   5.204 -1.7893  3.1754  1.9598
 8295SOL    HW236519   0.201   2.941   5.196  0.1820  0.6321  0.7820
 8296SOL     OW36520   3.008   4.174   3.413  0.1919 -0.1963  0.0870
 8296SOL    HW136521   3.001   4.126   3.495 -1.3807  1.5667  0.9800
 8296SOL    HW236522   3.089   4.134   3.380 -1.0803 -1.7058 -1.1629
 8297SOL     OW36523   1.688   0.111   8.645  0.1240 -0.0448  0.4772
 8297SOL    HW136524   1.598   0.102   8.614  0.2427 -0.1217  0.1567
 8297SOL    HW236525   1.713   0.201   8.626  0.1632  0.0197  0.8325
 8298SOL     OW36526   2.491   3.254   3.619 -0.2418 -0.0643 -0.0292
 8298SOL    HW136527   2.428   3.293   3.679 -0.5361  1.5732 -1.3902
 8298SOL    HW236528   2.500   3.164   3.651  0.0297  0.5581  1.6382
 8299SOL     OW36529   1.386   2.974  13.487  0.4332  0.3922  0.6493
 8299SOL    HW136530   1.362   3.032  13.560  2.0805  2.3872 -0.3764
 8299SOL    HW236531   1.314   2.911  13.490  1.0588 -0.3266  0.6535
 8300SOL     OW36532   1.855   3.564   7.485 -0.3794 -0.0276 -0.1742
 8300SOL    HW136533   1.864   3.530   7.574  0.5232  0.7769  0.0517
 8300SOL    HW236534   1.940   3.538   7.448 -1.0418 -2.7523  0.2361
 8301SOL     OW36535   3.858   0.901   8.944 -0.0277 -0.2299 -0.5977
 8301SOL    HW136536   3.882   0.833   9.008 -0.3738  0.5244  0.3434
 8301SOL    HW236537   3.908   0.878   8.866 -0.1705 -4.4211  0.4973
 8302SOL     OW36538   4.504   0.110  15.364 -0.4950 -0.2722 -0.2674
 8302SOL    HW136539   4.547   0.195  15.356  2.0348 -1.5109  0.0467
 8302SOL    HW236540   4.432   0.125  15.425  0.3572  0.4730  0.5478
 8303SOL     OW36541   0.959   1.313   5.159 -0.2137  0.9519 -0.3495
 8303SOL    HW136542   0.888   1.346   5.214 -0.4857 -2.5874  1.3849
 8303SOL    HW236543   0.923   1.232   5.122 -0.5096  1.2787 -0.7747
 8304SOL     OW36544   4.478   3.113  16.830  0.1378  0.1115  0.7974
 8304SOL    HW136545   4.513   3.200  16.814 -1.2433  0.5044 -0.0864
 8304SOL    HW236546   4.392   3.126  16.790 -0.4903  1.5910  2.6557
 8305SOL     OW36547   0.466   3.209  15.685 -0.1868 -0.4095 -0.1920
 8305SOL    HW136548   0.530   3.278  15.707 -0.2335 -0.7183  0.8971
 8305SOL    HW236549   0.434   3.206  15.775  1.6503 -3.8265  0.3408
 8306SOL     OW36550   0.855   3.110  15.025 -0.6410 -0.6366 -0.5320
 8306SOL    HW136551   0.809   3.192  15.042 -0.6434 -0.9047  0.7292
 8306SOL    HW236552   0.788   3.045  15.047 -0.8339 -0.3147 -0.1711
 8307SOL     OW36553   1.372   3.714   9.261 -0.0632 -0.4185 -0.5917
 8307SOL    HW136554   1.311   3.788   9.254  1.2001  0.5824 -0.9347
 8307SOL    HW236555   1.363   3.681   9.172 -0.3829  0.9764 -1.0776
 8308SOL     OW36556   2.481   1.848   3.596  0.4481 -1.1092 -0.0908
 8308SOL    HW136557   2.392   1.877   3.618  0.1064  0.4226 -3.3887
 8308SOL    HW236558   2.521   1.925   3.556 -1.4666 -0.4259 -0.7409
 8309SOL     OW36559   2.168   1.978   5.622 -0.0981 -0.3961 -0.5664
 8309SOL    HW136560   2.077   1.995   5.601 -0.3432 -0.9813  0.0302
 8309SOL    HW236561   2.168   1.940   5.710 -1.2001  0.2134 -0.3141
 8310SOL     OW36562   1.461   1.201   2.018 -0.6099 -0.1962 -0.1331
 8310SOL    HW136563   1.420   1.189   2.104 -4.8225 -0.6979 -2.2037
 8310SOL    HW236564   1.390   1.181   1.957  0.0305 -0.0683 -0.9291
 8311SOL     OW36565   0.669   1.586   3.946  0.1103 -0.1878 -0.2324
 8311SOL    HW136566   0.602   1.521   3.925  0.5830 -1.2362  1.4995
 8311SOL    HW236567   0.733   1.521   3.977 -0.3669 -0.8549 -0.6349
 8312SOL     OW36568   0.816   2.651   6.068 -0.2870 -0.2603 -0.3737
 8312SOL    HW136569   0.893   2.681   6.117 -1.1746  0.9177  0.3178
 8312SOL    HW236570   0.803   2.711   5.995  0.7859  0.1312 -0.2451
 8313SOL     OW36571   0.911   0.305  14.596  0.1689 -0.6221 -0.4232
 8313SOL    HW136572   0.966   0.293  14.518 -0.5824 -0.7408 -0.9303
 8313SOL    HW236573   0.858   0.225  14.594 -1.8098  0.6963 -0.6738
 8314SOL     OW36574   1.616   1.128   1.196 -0.4289 -0.3113 -1.0103
 8314SOL    HW136575   1.522   1.127   1.213 -0.0553 -0.4141  0.9952
 8314SOL    HW236576   1.633   1.050   1.144  3.1864  0.5683 -1.1504
 8315SOL     OW36577   1.416   3.905   4.530 -0.0539 -0.2909  0.0002
 8315SOL    HW136578   1.412   3.984   4.475  1.5110  0.4790  0.9878
 8315SOL    HW236579   1.401   3.945   4.616 -2.9381  0.4601 -0.8382
 8316SOL     OW36580   4.263   3.487   7.792  0.3554  0.7957  0.3436
 8316SOL    HW136581   4.268   3.575   7.830  1.5215  0.0678  1.8771
 8316SOL    HW236582   4.324   3.494   7.719 -0.5301 -1.8219 -0.6237
 8317SOL     OW36583   2.033   1.006   3.011  0.3539  0.3142  0.8341
 8317SOL    HW136584   2.033   1.081   2.952 -1.7992 -1.0405 -0.9434
 8317SOL    HW236585   2.072   1.047   3.087  0.9667 -0.9892  1.2319
 8318SOL     OW36586   4.002   2.803   7.938 -0.4008  0.3509  0.2166
 8318SOL    HW136587   4.018   2.819   8.031  0.8313 -1.6846  0.3704
 8318SOL    HW236588   4.067   2.733   7.936 -0.3086  0.4463 -0.0584
 8319SOL     OW36589   0.950   1.115   7.860 -0.0537  0.1248  0.1443
 8319SOL    HW136590   0.909   1.029   7.862  1.7667 -0.7846 -1.5127
 8319SOL    HW236591   1.045   1.101   7.866 -0.0633  0.7410  1.6429
 8320SOL     OW36592   2.128   2.475   8.686 -0.0963  0.6002 -0.0360
 8320SOL    HW136593   2.192   2.407   8.663 -1.1214 -0.3766 -0.0361
 8320SOL    HW236594   2.168   2.554   8.650 -1.4659  0.4768 -1.8157
 8321SOL     OW36595   4.221   0.695   9.977 -0.3131 -0.3816 -0.0181
 8321SOL    HW136596   4.227   0.620   9.917  2.1981  2.4010 -3.2617
 8321SOL    HW236597   4.284   0.762   9.948  0.3939 -1.0234  0.0578
 8322SOL     OW36598   1.595   1.618  16.597 -0.1396 -0.5313 -0.8571
 8322SOL    HW136599   1.590   1.606  16.691 -0.8394  0.9467 -0.7235
 8322SOL    HW236600   1.530   1.559  16.558 -0.9321  0.5988 -1.2434
 8323SOL     OW36601   2.854   3.540  14.612  0.3537  0.0765  0.1726
 8323SOL    HW136602   2.940   3.574  14.585 -0.0794  0.2620 -0.9881
 8323SOL    HW236603   2.827   3.498  14.530  1.8208 -0.4312 -0.0637
 8324SOL     OW36604   1.382   2.025   8.794 -0.1990  0.1730  0.7576
 8324SOL    HW136605   1.320   1.985   8.855  1.1231 -1.2241  1.2085
 8324SOL    HW236606   1.366   2.117   8.814  0.6106  1.0873 -2.7324
 8325SOL     OW36607   1.120   4.634   5.096 -0.6016  0.0533  0.3519
 8325SOL    HW136608   1.062   4.668   5.165  0.3299  0.0779  1.1103
 8325SOL    HW236609   1.198   4.613   5.147 -0.0517  1.9479  0.2655
 8326SOL     OW36610   2.322   2.784  13.784 -0.1573  0.4939  0.2919
 8326SOL    HW136611   2.350   2.732  13.709 -1.7123  1.5802 -1.0374
 8326SOL    HW236612   2.229   2.764  13.790 -0.3477  1.6619  1.2624
 8327SOL     OW36613   1.683   4.028   8.231 -0.4420  0.3954  0.0259
 8327SOL    HW136614   1.605   4.065   8.190  0.5052  1.0009 -1.2549
 8327SOL    HW236615   1.662   4.052   8.321 -3.6648 -1.9021 -0.1345
 8328SOL     OW36616   0.639   3.559   4.007  0.1618 -0.1210 -0.7268
 8328SOL    HW136617   0.665   3.613   3.933  2.5082  0.5797  0.5907
 8328SOL    HW236618   0.545   3.554   3.990  0.0661  1.4923 -0.5991
 8329SOL     OW36619   3.979   1.495   7.779  0.4016 -0.1807  0.0814
 8329SOL    HW136620   4.009   1.408   7.752  2.3795  0.2330  0.9563
 8329SOL    HW236621   3.885   1.481   7.790  0.7143 -0.7931  1.9893
 8330SOL     OW36622   0.725   4.190   7.151  0.6807  0.8203  0.2368
 8330SOL    HW136623   0.788   4.228   7.212  0.1000  2.8520 -0.4358
 8330SOL    HW236624   0.743   4.097   7.165  2.1939  1.1860  0.6877
 8331SOL     OW36625   3.814   1.772   0.747  1.2201  0.3110  0.0789
 8331SOL    HW136626   3.810   1.686   0.704 -1.9613 -1.4483  3.8179
 8331SOL    HW236627   3.860   1.751   0.829  0.3934 -1.3515  0.1211
 8332SOL     OW36628   0.792   0.133   7.924  0.1350  0.5774  0.4396
 8332SOL    HW136629   0.761   0.121   7.834 -0.5484  1.1755  0.5981
 8332SOL    HW236630   0.802   0.228   7.921  2.7612  0.3012  0.3070
 8333SOL     OW36631   1.346   0.606  17.175  0.3695 -0.1803  0.2532
 8333SOL    HW136632   1.426   0.570  17.137 -1.1591 -2.4917 -0.7272
 8333SOL    HW236633   1.346   0.688  17.124  0.7773  0.4457  1.2592
 8334SOL     OW36634   0.963   0.102   5.655  0.2985 -0.4676  0.6016
 8334SOL    HW136635   1.043   0.064   5.621 -0.5000 -0.3746 -1.4179
 8334SOL    HW236636   0.978   0.196   5.667 -1.4994 -0.0620 -0.3320
 8335SOL     OW36637   1.770   1.304   6.011  0.7270 -0.0708 -0.1344
 8335SOL    HW136638   1.799   1.238   5.949 -0.8242 -0.5217 -0.3696
 8335SOL    HW236639   1.824   1.379   5.985  1.2043 -0.1657  0.5960
 8336SOL     OW36640   1.800   3.544   1.335 -0.1617  0.1927 -0.2452
 8336SOL    HW136641   1.894   3.557   1.337 -0.2236  0.7099 -0.9696
 8336SOL    HW236642   1.798   3.458   1.377  1.4117  1.0981  1.7084
 8337SOL     OW36643   0.789   3.821   0.947 -0.5419  0.0876 -0.5425
 8337SOL    HW136644   0.790   3.905   0.902  0.9952 -0.4444 -1.4926
 8337SOL    HW236645   0.880   3.793   0.958 -0.4550  0.5672  0.0135
 8338SOL     OW36646   1.398   2.324   3.176  0.2647  0.2485  0.7853
 8338SOL    HW136647   1.321   2.373   3.147  1.3943  1.3778 -0.3245
 8338SOL    HW236648   1.394   2.243   3.126 -1.7852  0.5816  0.3746
 8339SOL     OW36649   2.948   0.655   5.845 -0.0295  0.5006  0.5724
 8339SOL    HW136650   3.009   0.729   5.840  0.0370  0.4812  1.1090
 8339SOL    HW236651   2.976   0.609   5.924 -1.7034  2.1810  2.1580
 8340SOL     OW36652   0.976   2.512  16.184  0.2484 -0.3060  0.0413
 8340SOL    HW136653   0.902   2.547  16.134 -0.2467 -0.1168  0.9076
 8340SOL    HW236654   1.044   2.533  16.119  0.9854 -1.3804  0.4689
 8341SOL     OW36655   0.658   0.148  10.238 -0.4367  0.3311 -0.0705
 8341SOL    HW136656   0.645   0.088  10.312 -0.4251  0.3037 -0.0904
 8341SOL    HW236657   0.738   0.188  10.273  0.3122 -0.2531 -1.1181
 8342SOL     OW36658   1.280   0.414  16.518 -0.4173  0.2942 -0.5881
 8342SOL    HW136659   1.310   0.388  16.606  0.8465  1.0891 -0.7952
 8342SOL    HW236660   1.210   0.475  16.541 -0.3941 -0.0621  0.4315
 8343SOL     OW36661   4.022   1.739   7.965  0.2367  0.0194  0.0763
 8343SOL    HW136662   4.000   1.647   7.957 -0.9361  0.2804  0.2839
 8343SOL    HW236663   4.110   1.734   7.929 -0.0528 -1.5629 -0.3916
 8344SOL     OW36664   1.663   1.754   4.303 -0.0776 -0.1922 -0.4161
 8344SOL    HW136665   1.600   1.771   4.233  1.7625  0.0901 -2.0157
 8344SOL    HW236666   1.631   1.679   4.352  1.1380 -1.4843 -1.6139
 8345SOL     OW36667   3.935   3.101   4.209 -0.4331 -0.0979 -0.3042
 8345SOL    HW136668   3.956   3.067   4.122 -0.2637  1.8398 -1.0210
 8345SOL    HW236669   3.883   3.029   4.245 -1.0141  0.3781 -0.1941
 8346SOL     OW36670   3.100   2.633   5.528  0.7929  0.3584 -0.1120
 8346SOL    HW136671   3.010   2.640   5.559  0.3097  2.7088 -1.9965
 8346SOL    HW236672   3.156   2.625   5.605  1.4588  1.4227 -0.4764
 8347SOL     OW36673   4.122   2.645   0.026 -0.1718 -0.1687 -0.2364
 8347SOL    HW136674   4.042   2.613  17.725 -1.2890 -0.6128  2.1850
 8347SOL    HW236675   4.179   2.671  17.696  0.3333 -1.7048 -0.3868
 8348SOL     OW36676   0.715   4.275   1.234  0.6095 -0.6433  0.0723
 8348SOL    HW136677   0.741   4.194   1.278 -2.1172 -1.2617  0.5306
 8348SOL    HW236678   0.769   4.337   1.284  1.5162  0.7976 -2.7061
 8349SOL     OW36679   3.273   2.189  16.788  0.1073  0.0542 -0.1202
 8349SOL    HW136680   3.339   2.121  16.773  1.5387  1.5310 -0.5163
 8349SOL    HW236681   3.191   2.141  16.773  0.5442 -0.0566 -2.1547
 8350SOL     OW36682   0.906   4.727   3.418  0.1972  0.0247 -0.0214
 8350SOL    HW136683   0.993   4.687   3.426  0.3863  0.2660 -0.8413
 8350SOL    HW236684   0.930   0.083   3.430 -0.8894  0.4158 -0.8584
 8351SOL     OW36685   4.008   2.908   3.046  0.4724  0.4522  0.1491
 8351SOL    HW136686   3.998   2.835   2.985 -0.2031  2.0222 -1.6105
 8351SOL    HW236687   4.026   2.857   3.125 -1.4841  0.6575  0.7164
 8352SOL     OW36688   0.071   3.461   5.395  0.4782  0.0200 -0.5406
 8352SOL    HW136689   0.092   3.554   5.384 -2.4812  0.6519 -0.7869
 8352SOL    HW236690   0.023   3.456   5.478  1.7332  1.4881  0.2599
 8353SOL     OW36691   3.250   0.261   7.424  0.3164  0.0839 -0.4324
 8353SOL    HW136692   3.271   0.198   7.493 -1.1602 -0.6246 -0.6113
 8353SOL    HW236693   3.175   0.301   7.468  0.5344  2.1150 -1.9008
 8354SOL     OW36694   0.270   3.557   3.989  0.5581 -0.2235 -0.0740
 8354SOL    HW136695   0.276   3.493   4.060  0.4866 -1.9999 -1.6787
 8354SOL    HW236696   0.197   3.517   3.941 -2.0495  1.6147  2.3524
 8355SOL     OW36697   0.527   0.795   4.241 -0.4130 -0.5030 -0.1111
 8355SOL    HW136698   0.436   0.777   4.261 -1.0286  1.2437 -1.3429
 8355SOL    HW236699   0.573   0.797   4.325 -0.6269  0.0398 -0.0051
 8356SOL     OW36700   3.133   0.496   7.236 -0.1267  0.0535  0.0609
 8356SOL    HW136701   3.217   0.531   7.205 -0.4088 -1.0819 -1.9421
 8356SOL    HW236702   3.080   0.574   7.254  0.4307  0.7247 -1.1480
 8357SOL     OW36703   2.230   0.680   8.542 -0.0313  0.0630  0.1955
 8357SOL    HW136704   2.191   0.672   8.455 -1.2302 -1.9338  0.9214
 8357SOL    HW236705   2.267   0.597   8.572 -2.6764 -1.3825 -0.5200
 8358SOL     OW36706   2.801   4.077   4.342 -0.4590  0.2098 -0.3702
 8358SOL    HW136707   2.733   4.142   4.361 -1.2479 -1.2812  1.8947
 8358SOL    HW236708   2.867   4.131   4.300  1.4329 -2.2396 -0.5209
 8359SOL     OW36709   4.564   1.373   1.550  0.3450 -1.0412  0.2261
 8359SOL    HW136710   4.648   1.394   1.509 -0.1988  1.0207  0.1738
 8359SOL    HW236711   4.583   1.353   1.641  1.1719 -2.0483 -0.1732
 8360SOL     OW36712   2.728   2.853   3.648 -0.3393 -0.0079  0.1519
 8360SOL    HW136713   2.770   2.871   3.564  1.1012  1.2752  1.1705
 8360SOL    HW236714   2.778   2.910   3.707  0.7718  0.0852 -0.8872
 8361SOL     OW36715   3.418   1.274   5.900  0.0869 -0.3445 -0.3539
 8361SOL    HW136716   3.390   1.359   5.932 -2.4255 -1.9488  1.6748
 8361SOL    HW236717   3.375   1.214   5.960  0.9838 -0.1082  0.5322
 8362SOL     OW36718   1.602   3.774   2.222  0.5844  0.1840  1.0675
 8362SOL    HW136719   1.662   3.848   2.213 -0.4020  0.7880 -0.5150
 8362SOL    HW236720   1.525   3.806   2.175  0.7350 -1.9411 -0.6414
 8363SOL     OW36721   1.327   4.553   5.909  0.3677  0.0992 -0.2690
 8363SOL    HW136722   1.316   4.648   5.903 -0.4641  0.0834  0.9478
 8363SOL    HW236723   1.241   4.520   5.881  1.7876 -0.7552 -3.6114
 8364SOL     OW36724   2.225   4.655   7.081 -0.0811  0.0232  0.2500
 8364SOL    HW136725   2.276   4.735   7.093 -0.6360  0.3545  0.4289
 8364SOL    HW236726   2.251   4.605   7.159 -0.0125 -0.3862 -0.0402
 8365SOL     OW36727   0.671   3.192   8.514  0.0355 -0.4637  0.0417
 8365SOL    HW136728   0.758   3.228   8.496 -1.2950  1.7943 -1.8881
 8365SOL    HW236729   0.686   3.130   8.585  1.4301  0.1285  0.2617
 8366SOL     OW36730   2.938   0.596  11.772 -0.3784 -0.0885 -0.0580
 8366SOL    HW136731   3.029   0.580  11.748 -0.8360 -3.3386  0.3404
 8366SOL    HW236732   2.927   0.691  11.774 -2.0394 -0.2153 -2.2059
 8367SOL     OW36733   0.035   2.282   6.768  0.1533  0.0792  0.1523
 8367SOL    HW136734   0.034   2.206   6.826  1.2738  0.5981  0.8601
 8367SOL    HW236735   4.687   2.322   6.790 -0.6416 -0.7871 -1.3148
 8368SOL     OW36736   2.328   3.302  15.287 -0.2877 -0.1220  0.3124
 8368SOL    HW136737   2.275   3.361  15.233 -1.7127 -2.3960 -0.7806
 8368SOL    HW236738   2.401   3.351  15.325 -1.7658  2.0970  0.2890
 8369SOL     OW36739   0.199   4.510   2.287 -0.0518  0.5283 -0.3018
 8369SOL    HW136740   0.224   4.501   2.194  3.3637  1.8133  0.4793
 8369SOL    HW236741   0.268   4.565   2.324 -2.0423  1.4002  2.0631
 8370SOL     OW36742   1.997   3.433  15.109  0.0773  0.6190 -0.7096
 8370SOL    HW136743   1.999   3.485  15.029  0.2835  0.5046 -0.7792
 8370SOL    HW236744   2.038   3.349  15.088  0.9462  0.4241  1.7909
 8371SOL     OW36745   2.823   0.355   1.275 -0.4616  0.0334  0.3319
 8371SOL    HW136746   2.792   0.265   1.266 -0.3577 -0.0070  0.3749
 8371SOL    HW236747   2.741   0.402   1.293  1.0195  1.5315  3.1097
 8372SOL     OW36748   4.303   1.478   0.688  0.4189  0.0813  0.2930
 8372SOL    HW136749   4.211   1.475   0.660  0.8756  2.0383 -1.4446
 8372SOL    HW236750   4.280   1.543   0.755 -2.0416  0.6810 -1.1142
 8373SOL     OW36751   3.623   4.100   6.351 -0.7115 -0.0358  0.5052
 8373SOL    HW136752   3.701   4.154   6.339 -1.7550  1.3321 -0.2082
 8373SOL    HW236753   3.641   4.021   6.301  0.0452  2.0627 -2.5292
 8374SOL     OW36754   3.116   0.669  13.615  0.1795 -0.5073  0.5685
 8374SOL    HW136755   3.056   0.693  13.545  1.5858  2.4177  0.3763
 8374SOL    HW236756   3.175   0.743  13.607 -0.3398 -0.2946 -1.1419
 8375SOL     OW36757   1.047   3.652   2.509  0.0178 -0.1336  0.0972
 8375SOL    HW136758   1.040   3.690   2.596 -0.9158  1.9908 -0.9252
 8375SOL    HW236759   1.098   3.572   2.521  2.0636  1.0943 -0.4257
 8376SOL     OW36760   4.381   1.571   3.699  0.1587 -0.0516  0.2785
 8376SOL    HW136761   4.430   1.541   3.776 -0.8239  0.9306  1.2746
 8376SOL    HW236762   4.344   1.491   3.662 -0.5401 -0.5363  2.0550
 8377SOL     OW36763   1.952   0.905   6.188  0.2614 -0.5278 -0.1449
 8377SOL    HW136764   1.931   0.995   6.212  0.5114  0.0664 -2.1283
 8377SOL    HW236765   1.874   0.894   6.132  0.1482  1.6091 -0.4177
 8378SOL     OW36766   1.963   3.945   9.919  0.1802  0.0105  0.3022
 8378SOL    HW136767   2.019   4.017   9.889 -2.1290  0.5398 -2.6543
 8378SOL    HW236768   1.883   3.963   9.871  1.5150  1.6523 -1.2730
 8379SOL     OW36769   4.562   0.682   8.038 -0.3782 -0.2539 -0.1975
 8379SOL    HW136770   4.576   0.682   7.943  1.0879 -1.5204  0.0270
 8379SOL    HW236771   4.639   0.641   8.077  0.4102  1.0180 -0.4165
 8380SOL     OW36772   2.848   3.689  15.311  0.0991 -0.2981 -0.3859
 8380SOL    HW136773   2.920   3.751  15.327 -0.9265  1.4307 -2.5359
 8380SOL    HW236774   2.816   3.714  15.225 -0.0701  0.1608 -0.1931
 8381SOL     OW36775   2.561   3.571   0.460  0.2548  0.1322 -0.5826
 8381SOL    HW136776   2.518   3.563   0.375 -2.2296 -0.8513  0.7615
 8381SOL    HW236777   2.615   3.492   0.458  0.3265  0.2001 -1.1729
 8382SOL     OW36778   0.629   2.631   2.538  0.1998 -0.4380 -0.1431
 8382SOL    HW136779   0.628   2.582   2.456  0.7307  0.3660 -0.6318
 8382SOL    HW236780   0.558   2.694   2.527  1.2036  1.0150  1.5483
 8383SOL     OW36781   0.672   4.524   6.016 -0.0050 -0.1919  0.3198
 8383SOL    HW136782   0.700   4.578   6.090 -0.2820  1.9811 -1.1789
 8383SOL    HW236783   0.722   4.446   6.041 -1.2113 -1.8951 -2.5764
 8384SOL     OW36784   2.958   0.436  16.549  0.5012  0.5177 -0.2808
 8384SOL    HW136785   3.046   0.471  16.537  0.3548  0.2775 -2.0844
 8384SOL    HW236786   2.988   0.367  16.608 -0.0437  0.4017 -0.1392
 8385SOL     OW36787   1.252   0.297   7.286 -0.2402 -0.2469  0.0322
 8385SOL    HW136788   1.346   0.292   7.299 -0.4335  0.7909  1.8061
 8385SOL    HW236789   1.246   0.378   7.235 -1.1772 -1.5515 -1.9341
 8386SOL     OW36790   2.100   1.639   5.658 -0.6910 -0.1998 -0.2699
 8386SOL    HW136791   2.164   1.574   5.628 -0.7526 -0.7140  0.6973
 8386SOL    HW236792   2.137   1.676   5.739  1.4615 -0.5199 -1.1102
 8387SOL     OW36793   1.239   1.920   5.683  0.0329  0.7503  0.3162
 8387SOL    HW136794   1.194   1.929   5.767 -2.2282 -0.4202 -0.7765
 8387SOL    HW236795   1.324   1.948   5.717 -0.4611  2.4575  0.1713
 8388SOL     OW36796   4.122   4.480  16.566 -0.3549 -0.1932 -0.4047
 8388SOL    HW136797   4.082   4.534  16.499 -0.7562 -0.9400 -0.7719
 8388SOL    HW236798   4.144   4.412  16.502 -0.1057 -0.1362 -0.3810
 8389SOL     OW36799   1.124   0.642   6.238 -0.1567  0.6684  0.0678
 8389SOL    HW136800   1.054   0.708   6.234  0.1896  1.0506  0.3962
 8389SOL    HW236801   1.198   0.701   6.227 -1.1620  1.8886 -0.2038
 8390SOL     OW36802   3.495   4.660   5.769 -0.4450 -0.5760  0.3676
 8390SOL    HW136803   3.411   4.700   5.748  0.5363  0.7334 -1.0341
 8390SOL    HW236804   3.510   4.631   5.679 -1.4401 -3.2790  1.0699
 8391SOL     OW36805   4.341   0.892   2.587  0.4869 -0.0329 -0.2379
 8391SOL    HW136806   4.382   0.855   2.509  1.3110 -0.5377  0.4332
 8391SOL    HW236807   4.258   0.924   2.550  0.5872  0.5658  0.0469
 8392SOL     OW36808   1.760   3.305   0.153  0.4404  0.2234 -0.3797
 8392SOL    HW136809   1.807   3.345   0.226 -0.7011  2.3431 -0.7852
 8392SOL    HW236810   1.680   3.263   0.184  1.3947 -1.2814  0.0448
 8393SOL     OW36811   2.800   0.672   6.251  0.0714  0.1697  0.6702
 8393SOL    HW136812   2.808   0.765   6.231  3.0239  0.3785  2.8196
 8393SOL    HW236813   2.842   0.655   6.335 -0.9178  0.1536  1.1694
 8394SOL     OW36814   0.317   4.213   4.188  0.2946 -0.3335  0.0444
 8394SOL    HW136815   0.351   4.146   4.129  1.3232 -0.1182  0.3839
 8394SOL    HW236816   0.372   4.289   4.169 -1.4080  1.2074  1.2841
 8395SOL     OW36817   3.951   1.459   4.323 -0.2782  0.3859  0.1588
 8395SOL    HW136818   3.947   1.551   4.346  1.3299  1.3547 -3.3956
 8395SOL    HW236819   4.044   1.461   4.302  0.0896 -1.2260  1.5636
 8396SOL     OW36820   2.329   2.267   7.561  0.3909  0.0334  0.0589
 8396SOL    HW136821   2.403   2.287   7.503 -0.9226  1.4425 -1.1297
 8396SOL    HW236822   2.284   2.187   7.534  0.1885  0.1989 -0.0973
 8397SOL     OW36823   4.568   2.256  16.869  0.3351  0.8032  0.3087
 8397SOL    HW136824   4.484   2.298  16.850 -0.7498 -1.0935  0.9850
 8397SOL    HW236825   4.601   2.240  16.781  0.4236  0.6304  0.3733
 8398SOL     OW36826   0.742   1.193  10.166 -0.2528  0.1844 -0.4313
 8398SOL    HW136827   0.651   1.214  10.189 -0.1374 -0.2671  0.4266
 8398SOL    HW236828   0.736   1.099  10.151 -1.0297 -0.1628  2.0523
 8399SOL     OW36829   2.469   3.114   2.705 -0.1349 -0.1939  0.0717
 8399SOL    HW136830   2.468   3.200   2.747  1.0435 -0.2641  0.2368
 8399SOL    HW236831   2.535   3.072   2.759 -0.5085  0.1808  0.8174
 8400SOL     OW36832   3.330   1.726   2.880 -0.1259 -0.3065  0.6114
 8400SOL    HW136833   3.279   1.656   2.838 -0.4220 -0.5538  1.3898
 8400SOL    HW236834   3.414   1.717   2.833  0.5193  0.2523  1.6779
 8401SOL     OW36835   0.387   3.580   5.852 -0.0075  0.2679  0.6164
 8401SOL    HW136836   0.388   3.539   5.765  1.3729  1.3699  0.1083
 8401SOL    HW236837   0.475   3.560   5.884  0.2140 -0.3778 -0.3973
 8402SOL     OW36838   0.364   1.747   1.077 -0.3228 -0.3404  0.3195
 8402SOL    HW136839   0.429   1.813   1.055  0.3625 -0.8286  0.9035
 8402SOL    HW236840   0.301   1.800   1.125  2.7800  2.2944  1.4629
 8403SOL     OW36841   3.117   3.297  13.467  0.0546  0.2231  0.0547
 8403SOL    HW136842   3.024   3.273  13.470 -0.0978  1.0479  1.9950
 8403SOL    HW236843   3.136   3.319  13.376  3.2263  0.6901  0.8367
 8404SOL     OW36844   2.496   1.462   6.533  0.0001 -0.4291  0.2548
 8404SOL    HW136845   2.430   1.498   6.474  0.8209  1.6136  0.6122
 8404SOL    HW236846   2.582   1.481   6.495 -0.9129  0.8580 -1.1712
 8405SOL     OW36847   0.120   2.819   3.393 -0.5415 -0.1729 -0.5502
 8405SOL    HW136848   0.173   2.840   3.315  0.6177  1.3327  0.6283
 8405SOL    HW236849   0.053   2.767   3.349  0.5688 -0.6640 -1.6699
 8406SOL     OW36850   4.189   3.524  13.344 -0.2570  0.0451 -0.3558
 8406SOL    HW136851   4.113   3.497  13.396  1.9110  0.1410  2.8672
 8406SOL    HW236852   4.193   3.617  13.363 -1.4701  0.3071 -1.4405
 8407SOL     OW36853   0.274   4.319   4.707  0.5567 -0.8081  0.1655
 8407SOL    HW136854   0.210   4.366   4.761 -1.2961  0.0985 -2.8535
 8407SOL    HW236855   0.355   4.357   4.743 -1.8603  2.6826  1.9601
 8408SOL     OW36856   2.487   4.447  10.252  0.3762 -0.1568  0.2733
 8408SOL    HW136857   2.457   4.507  10.320 -0.9491 -0.6453  0.1246
 8408SOL    HW236858   2.513   4.505  10.180 -0.9942 -1.4819 -1.3235
 8409SOL     OW36859   0.799   2.196   4.050 -0.6559  0.0693 -0.2467
 8409SOL    HW136860   0.759   2.274   4.010 -2.3036  1.0259  3.2291
 8409SOL    HW236861   0.820   2.144   3.973 -1.6858 -0.1298 -0.3991
 8410SOL     OW36862   1.540   2.321   2.572  0.3687  0.1637  0.7164
 8410SOL    HW136863   1.458   2.276   2.592  0.2484  0.8790  1.8453
 8410SOL    HW236864   1.526   2.350   2.482  0.8694  0.4306  0.7300
 8411SOL     OW36865   4.282   4.274   4.672  0.4519 -0.8486  0.4456
 8411SOL    HW136866   4.354   4.272   4.736  0.2954 -2.7915  0.5456
 8411SOL    HW236867   4.223   4.204   4.700 -0.8604 -0.4028 -1.1875
 8412SOL     OW36868   2.732   0.974   8.441  0.0328  0.6686 -0.2830
 8412SOL    HW136869   2.650   0.946   8.480  1.5384 -0.6469  1.9500
 8412SOL    HW236870   2.682   1.033   8.384 -0.5858  0.7605  0.3710
 8413SOL     OW36871   0.534   3.591   5.280 -0.3575  0.1364  0.2893
 8413SOL    HW136872   0.603   3.636   5.231 -1.4606  0.0836 -1.3023
 8413SOL    HW236873   0.574   3.519   5.328  0.1986  1.2669  1.5463
 8414SOL     OW36874   3.920   2.525   6.350  0.1749  0.5541 -0.2667
 8414SOL    HW136875   3.879   2.466   6.414 -0.5826  1.2611 -0.0915
 8414SOL    HW236876   3.995   2.553   6.402 -0.7494  3.0503 -0.2620
 8415SOL     OW36877   2.105   1.918   4.819 -0.5671  0.0426 -0.3522
 8415SOL    HW136878   2.200   1.923   4.818 -0.5044 -1.0337  0.0006
 8415SOL    HW236879   2.086   1.929   4.912 -0.6805  0.1329 -0.3856
 8416SOL     OW36880   1.750   3.793   5.950  0.1320 -0.4503 -0.2218
 8416SOL    HW136881   1.667   3.812   5.994  0.8807  1.4161  0.4095
 8416SOL    HW236882   1.728   3.731   5.881  2.2900 -2.3236  0.7417
 8417SOL     OW36883   4.656   4.490   9.142  0.1286 -0.1146  0.1998
 8417SOL    HW136884   4.585   4.498   9.205 -0.6317 -0.0664 -0.6515
 8417SOL    HW236885   4.610   4.509   9.060 -1.6481 -1.9944  0.7586
 8418SOL     OW36886   1.510   2.257  17.241 -0.3269  0.2955  0.6143
 8418SOL    HW136887   1.520   2.311  17.319  1.4207 -1.8992  1.9239
 8418SOL    HW236888   1.463   2.314  17.181 -0.9241  1.5627  2.3102
 8419SOL     OW36889   1.925   4.087   8.087 -0.2252  0.0171  0.1668
 8419SOL    HW136890   1.985   4.150   8.128  0.7000  0.1088 -1.3062
 8419SOL    HW236891   1.865   4.062   8.157 -0.7928 -0.6298 -0.5527
 8420SOL     OW36892   0.754   2.622   4.196 -0.1870 -0.5161  0.4292
 8420SOL    HW136893   0.664   2.653   4.181 -0.4127 -1.7993 -0.9235
 8420SOL    HW236894   0.808   2.692   4.160  1.3614 -1.1721  1.4874
 8421SOL     OW36895   1.375   2.048   6.841 -0.8706 -0.1379  0.4642
 8421SOL    HW136896   1.447   2.053   6.779 -2.3889  0.9183 -1.1790
 8421SOL    HW236897   1.357   2.139   6.864 -0.8495  0.4409 -1.9122
 8422SOL     OW36898   1.433   0.936   3.571  0.2507  0.1160  0.5537
 8422SOL    HW136899   1.343   0.961   3.548  0.3790  1.0491  1.0726
 8422SOL    HW236900   1.422   0.878   3.646  1.5019  0.4446  0.9939
 8423SOL     OW36901   1.711   2.916  14.336 -0.1133 -0.1610  0.2977
 8423SOL    HW136902   1.759   2.899  14.417 -2.3839 -1.0295  1.4463
 8423SOL    HW236903   1.741   3.006  14.324 -0.7844 -0.4030 -3.2239
 8424SOL     OW36904   4.606   1.809   8.906  0.2514 -0.0229  0.2336
 8424SOL    HW136905   4.626   1.849   8.821  1.1629  1.5433  1.1678
 8424SOL    HW236906   4.603   1.717   8.882 -0.0443 -0.3572  1.6059
 8425SOL     OW36907   2.899   2.436   6.517 -0.0815  0.7977  0.2200
 8425SOL    HW136908   2.994   2.429   6.515 -0.2451 -1.1787 -0.4221
 8425SOL    HW236909   2.870   2.349   6.491  2.3529 -0.5983  2.1621
 8426SOL     OW36910   2.063   4.439   5.679 -0.2216 -0.0327 -0.4592
 8426SOL    HW136911   2.132   4.395   5.629  0.0056 -0.0840 -0.1007
 8426SOL    HW236912   2.021   4.363   5.719  2.1476  0.1149  2.3014
 8427SOL     OW36913   3.863   2.967   7.461  0.0649 -0.3478 -0.0204
 8427SOL    HW136914   3.903   2.985   7.376  1.8552  2.1796  1.3272
 8427SOL    HW236915   3.902   3.046   7.500 -1.0701  1.5262 -2.6820
 8428SOL     OW36916   3.813   3.912   6.515 -0.5602 -0.0221 -0.0166
 8428SOL    HW136917   3.764   3.860   6.579  1.1510 -3.5317 -1.5832
 8428SOL    HW236918   3.773   3.885   6.433 -1.4028 -0.8647  0.6675
 8429SOL     OW36919   1.684   0.426   8.351 -0.4702  0.7123 -0.4591
 8429SOL    HW136920   1.755   0.375   8.315  0.4220  2.7312 -1.5317
 8429SOL    HW236921   1.605   0.391   8.309 -0.1631 -0.1516 -0.3226
 8430SOL     OW36922   2.470   4.173   3.658 -0.3414 -0.6249  0.5512
 8430SOL    HW136923   2.381   4.205   3.673  0.4233  1.5492  0.4915
 8430SOL    HW236924   2.504   4.172   3.748  1.1388 -3.0724 -0.0330
 8431SOL     OW36925   4.370   2.816   4.944  0.1995 -0.0679 -0.6055
 8431SOL    HW136926   4.316   2.792   4.868  1.1503 -1.6012 -0.7873
 8431SOL    HW236927   4.403   2.729   4.967  0.1810  0.2270  0.5243
 8432SOL     OW36928   2.044   1.758  14.361 -0.0795  0.0434 -0.4950
 8432SOL    HW136929   2.068   1.679  14.312 -1.2327  0.4867 -1.7532
 8432SOL    HW236930   2.090   1.747  14.444 -0.5598  0.0432 -0.2305
 8433SOL     OW36931   1.513   1.540   5.089 -0.1204 -0.0247  0.1362
 8433SOL    HW136932   1.586   1.482   5.066 -0.0995 -0.1977  0.6449
 8433SOL    HW236933   1.520   1.613   5.027 -0.0856  1.5951  2.0608
 8434SOL     OW36934   1.652   2.855   3.677 -0.3682  0.4646  0.1431
 8434SOL    HW136935   1.699   2.809   3.607 -0.9905 -1.0073  0.7015
 8434SOL    HW236936   1.699   2.841   3.759 -1.9975 -0.2718  0.9311
 8435SOL     OW36937   1.046   3.595   8.698  0.3024 -0.1932 -0.8898
 8435SOL    HW136938   0.959   3.599   8.660  0.0760  4.1049  0.1582
 8435SOL    HW236939   1.083   3.527   8.642 -0.9032 -1.6657  0.0969
 8436SOL     OW36940   2.852   2.704   7.112 -0.4024  0.7697 -0.1549
 8436SOL    HW136941   2.759   2.690   7.096 -0.3765 -1.0398  1.3144
 8436SOL    HW236942   2.845   2.756   7.192 -1.1913 -1.0177  0.9183
 8437SOL     OW36943   2.476   3.863  16.251 -0.6446  0.1469 -0.2740
 8437SOL    HW136944   2.544   3.845  16.186 -3.3356 -2.6636 -2.3339
 8437SOL    HW236945   2.415   3.907  16.192 -0.1967  1.0471 -0.0680
 8438SOL     OW36946   2.274   4.730   5.701  0.7145 -0.1281 -0.1539
 8438SOL    HW136947   2.247   4.638   5.689  1.3722 -0.8682  4.0309
 8438SOL    HW236948   2.312   0.011   5.615 -0.0334  0.0168 -0.4618
 8439SOL     OW36949   3.518   3.903   5.946 -0.5115  0.6705 -0.1774
 8439SOL    HW136950   3.555   3.976   5.898  2.5009  0.3161  1.6192
 8439SOL    HW236951   3.455   3.872   5.880  1.3768 -2.1569 -0.6689
 8440SOL     OW36952   0.171   1.355   8.298  0.0554 -0.7957  0.2035
 8440SOL    HW136953   0.131   1.268   8.296  0.6162 -1.0325 -0.6937
 8440SOL    HW236954   0.187   1.369   8.205 -2.6713  1.2179  0.0458
 8441SOL     OW36955   0.046   3.503   3.211  0.1883 -0.1135 -0.1308
 8441SOL    HW136956   0.107   3.463   3.149  1.3467  3.0879 -1.0177
 8441SOL    HW236957   0.102   3.556   3.267  1.3794  0.3568 -1.7629
 8442SOL     OW36958   0.086   4.519   3.865 -0.4453 -0.4416 -0.0799
 8442SOL    HW136959   0.018   4.457   3.891 -0.8348  0.8342  1.9496
 8442SOL    HW236960   0.163   4.464   3.856  0.1563  0.3994 -0.0274
 8443SOL     OW36961   1.686   0.281   7.760  0.5178 -0.8133 -0.2751
 8443SOL    HW136962   1.776   0.300   7.733  0.9379 -2.6667 -0.1301
 8443SOL    HW236963   1.652   0.257   7.674  0.9232  0.6431 -0.8437
 8444SOL     OW36964   3.128   4.729   4.306  0.6969 -0.4373  0.4119
 8444SOL    HW136965   3.205   4.732   4.250 -0.5856  1.5188 -1.2164
 8444SOL    HW236966   3.136   0.069   4.364  0.1284 -2.1007  2.6988
 8445SOL     OW36967   0.240   3.169   9.496  0.1799 -0.1369 -0.1259
 8445SOL    HW136968   0.191   3.087   9.495  0.4805 -0.3268  0.8047
 8445SOL    HW236969   0.296   3.141   9.424  1.1123  0.9231  0.1888
 8446SOL     OW36970   0.249   3.685   4.376  1.0025  0.2226  0.6545
 8446SOL    HW136971   0.262   3.671   4.469  0.2883  1.5180  0.9468
 8446SOL    HW236972   0.257   3.780   4.387  0.3262  0.1693  1.5836
 8447SOL     OW36973   0.117   3.750   8.448  0.1820  0.1457  0.0847
 8447SOL    HW136974   0.102   3.715   8.361 -0.1770 -0.4782  0.3925
 8447SOL    HW236975   0.036   3.801   8.454  0.5130  0.6054  0.6714
 8448SOL     OW36976   4.318   2.064   6.051 -0.2606 -0.1922 -0.6325
 8448SOL    HW136977   4.388   2.031   5.994  0.2502  2.5038 -1.5326
 8448SOL    HW236978   4.240   2.012   6.027 -0.6117 -1.4249  3.2305
 8449SOL     OW36979   2.688   2.176  12.521 -0.1518 -0.6428 -0.1157
 8449SOL    HW136980   2.737   2.250  12.484  1.2068 -1.5400 -0.1343
 8449SOL    HW236981   2.615   2.172  12.459  1.1788  2.9470 -1.9378
 8450SOL     OW36982   0.278   0.421  12.534 -0.4643 -0.7931 -0.1734
 8450SOL    HW136983   0.264   0.397  12.626 -1.2450  0.0896 -0.0607
 8450SOL    HW236984   0.285   0.517  12.540  1.4513 -0.8932 -0.7499
 8451SOL     OW36985   1.375   4.061   4.760  0.0410 -0.3122  0.1382
 8451SOL    HW136986   1.383   4.081   4.853 -0.8365 -2.1918  0.6245
 8451SOL    HW236987   1.296   4.102   4.724 -1.0967 -1.0292  1.8009
 8452SOL     OW36988   3.759   2.455   7.468 -0.0824  0.6063  0.1439
 8452SOL    HW136989   3.744   2.476   7.375  0.9752 -1.1671 -0.4343
 8452SOL    HW236990   3.669   2.475   7.494 -1.2073 -1.9439 -1.7789
 8453SOL     OW36991   0.598   0.659   4.846  0.6359  0.2132  0.1328
 8453SOL    HW136992   0.654   0.732   4.874  1.4895 -1.2182  2.1567
 8453SOL    HW236993   0.522   0.701   4.806  1.0234  0.3073 -0.4978
 8454SOL     OW36994   3.727   1.794   6.439 -0.3600  0.4161 -0.1236
 8454SOL    HW136995   3.797   1.785   6.503 -1.3420 -3.7788  0.3466
 8454SOL    HW236996   3.716   1.889   6.440  0.3004  0.5239 -1.9669
 8455SOL     OW36997   1.769   1.243  17.490 -1.1593 -0.3520  0.3961
 8455SOL    HW136998   1.722   1.173  17.535 -0.0510 -0.1057  1.9308
 8455SOL    HW236999   1.782   1.302  17.564  1.2182 -0.4197  0.0230
 8456SOL     OW37000   3.459   1.024   2.640 -0.2993 -0.0915 -0.7641
 8456SOL    HW137001   3.458   0.932   2.667 -1.8768 -0.8486 -3.3920
 8456SOL    HW237002   3.526   1.052   2.703  0.2696 -2.3503 -0.3720
 8457SOL     OW37003   1.177   3.348  17.010  0.0675 -0.0205  0.0321
 8457SOL    HW137004   1.094   3.371  16.968 -0.3568 -0.7027  0.4964
 8457SOL    HW237005   1.192   3.266  16.963 -2.5530 -0.7280  0.4250
 8458SOL     OW37006   4.641   2.826  11.882 -0.2720 -0.5735  0.3371
 8458SOL    HW137007   4.664   2.784  11.965  2.1112  2.2663  1.1140
 8458SOL    HW237008   4.596   2.755  11.835 -2.6830  2.0370 -1.2638
 8459SOL     OW37009   1.479   2.736   4.385  0.1392  0.0915  0.4717
 8459SOL    HW137010   1.450   2.825   4.369 -3.8935 -0.9611  2.0124
 8459SOL    HW237011   1.411   2.699   4.441 -0.9196  0.1579 -0.7720
 8460SOL     OW37012   4.254   2.242   9.829  0.2526 -0.4140 -0.4593
 8460SOL    HW137013   4.187   2.286   9.777 -1.1807 -1.6770  0.2903
 8460SOL    HW237014   4.213   2.204   9.907 -0.3511 -0.3322 -0.7330
 8461SOL     OW37015   2.071   4.732   3.138 -0.2626  0.0961  0.1674
 8461SOL    HW137016   2.025   0.080   3.139 -0.4067  0.0157  0.3541
 8461SOL    HW237017   2.156   0.030   3.109 -1.0539  1.7085 -0.2306
 8462SOL     OW37018   3.152   2.458   5.020 -0.2632  0.4649 -0.3444
 8462SOL    HW137019   3.109   2.479   5.103  0.1963 -1.3618  0.3556
 8462SOL    HW237020   3.242   2.476   5.046 -0.1045 -2.1275  0.9300
 8463SOL     OW37021   4.158   4.668   8.408 -0.6021  0.1990 -0.4294
 8463SOL    HW137022   4.155   4.655   8.502  1.3654  2.1175 -0.0943
 8463SOL    HW237023   4.251   4.648   8.401 -0.5836  0.9699 -2.7405
 8464SOL     OW37024   1.241   3.563   7.360 -0.1180 -0.4825 -0.0405
 8464SOL    HW137025   1.220   3.657   7.363 -0.0390 -0.4894  0.7431
 8464SOL    HW237026   1.321   3.569   7.413 -0.2979 -0.4882  0.2359
 8465SOL     OW37027   3.237   1.171   6.333  0.2230 -0.2979 -0.1018
 8465SOL    HW137028   3.176   1.244   6.344  0.3424 -0.2183  0.0355
 8465SOL    HW237029   3.211   1.113   6.405  0.0502 -2.0194 -1.5473
 8466SOL     OW37030   4.437   2.438   0.163  0.3434  0.2289  0.4093
 8466SOL    HW137031   4.484   2.411   0.084  0.2863 -2.7698  1.4001
 8466SOL    HW237032   4.349   2.446   0.126  0.2385  0.6236  0.7429
 8467SOL     OW37033   1.386   3.514   8.693 -1.0304 -0.0887  0.6508
 8467SOL    HW137034   1.331   3.442   8.661 -0.4988  1.6049 -3.9892
 8467SOL    HW237035   1.471   3.488   8.657 -1.1200  0.1745  0.2472
 8468SOL     OW37036   2.480   2.934   7.910  0.0340  0.3984  0.4038
 8468SOL    HW137037   2.503   2.873   7.840 -2.5937 -1.6507  1.3275
 8468SOL    HW237038   2.425   2.875   7.960 -0.1096 -1.5321 -2.0540
 8469SOL     OW37039   0.112   1.172   4.855 -0.0824 -0.1975  0.3508
 8469SOL    HW137040   0.049   1.146   4.788 -0.5037 -0.9083  1.0261
 8469SOL    HW237041   0.160   1.089   4.860 -0.3476 -0.2083  2.4324
 8470SOL     OW37042   4.192   2.867   3.619  0.3917 -0.3460 -0.1866
 8470SOL    HW137043   4.107   2.895   3.653  1.4629  0.7260  1.5732
 8470SOL    HW237044   4.220   2.792   3.670  0.8766  0.2853  0.4786
 8471SOL     OW37045   0.451   2.185   9.532  0.5445 -0.1266  0.1005
 8471SOL    HW137046   0.477   2.099   9.500  2.3171  0.1635  0.7393
 8471SOL    HW237047   0.402   2.150   9.607  2.0473  1.0669  1.6409
 8472SOL     OW37048   3.994   3.520   8.862  0.2717 -0.0704  0.4977
 8472SOL    HW137049   3.901   3.529   8.845 -0.0969  1.4339  3.1606
 8472SOL    HW237050   4.035   3.507   8.777  1.8524  0.4651  1.1628
 8473SOL     OW37051   0.554   1.567   1.185 -0.0186  0.2444  0.2259
 8473SOL    HW137052   0.592   1.549   1.099  0.6908  0.9431  0.3905
 8473SOL    HW237053   0.474   1.616   1.164  1.0533  2.8847  2.2323
 8474SOL     OW37054   3.098   4.356  13.215  0.0651  0.0476 -0.3618
 8474SOL    HW137055   3.004   4.359  13.199 -0.1287  3.0282  1.4294
 8474SOL    HW237056   3.101   4.398  13.301  2.1624  1.8940 -1.3346
 8475SOL     OW37057   1.875   2.135  13.618 -0.2614  0.0866 -0.1955
 8475SOL    HW137058   1.881   2.046  13.652  1.9649  0.8757  1.5096
 8475SOL    HW237059   1.853   2.105  13.530  2.9244  0.2233 -1.0607
 8476SOL     OW37060   3.620   1.444   2.335  0.2327  0.0350  0.3608
 8476SOL    HW137061   3.683   1.408   2.273 -0.1325  0.0271 -0.0055
 8476SOL    HW237062   3.662   1.525   2.364 -0.0788  0.1228  0.5746
 8477SOL     OW37063   0.470   0.404   4.510  0.0853  0.3956 -0.0013
 8477SOL    HW137064   0.380   0.431   4.525  0.2176  0.6591  0.3029
 8477SOL    HW237065   0.474   0.407   4.414  0.9197 -3.0391 -0.0903
 8478SOL     OW37066   0.357   1.365  17.156  0.5169 -0.8439  0.2211
 8478SOL    HW137067   0.434   1.395  17.205  0.3345 -1.1659  0.7018
 8478SOL    HW237068   0.365   1.426  17.083 -0.1560 -1.2938 -0.2308
 8479SOL     OW37069   3.500   0.996   7.225 -0.3743  0.1037  0.4240
 8479SOL    HW137070   3.414   0.983   7.263 -0.6592  2.5127  0.5748
 8479SOL    HW237071   3.483   0.999   7.131 -0.2302 -2.3731  0.3035
 8480SOL     OW37072   2.723   2.427   0.720 -0.1366 -0.0574  0.2965
 8480SOL    HW137073   2.792   2.467   0.774  0.3742 -2.8603  1.7135
 8480SOL    HW237074   2.644   2.456   0.765 -0.8565 -1.5010 -0.0331
 8481SOL     OW37075   0.930   2.619   2.413  0.1247  0.1509 -0.5505
 8481SOL    HW137076   0.973   2.642   2.330  0.7954  0.7685 -0.0263
 8481SOL    HW237077   0.862   2.686   2.407  1.5939  1.4804 -2.1505
 8482SOL     OW37078   1.833   0.714   3.446 -0.1176  0.1427 -0.5836
 8482SOL    HW137079   1.842   0.771   3.522 -2.3807  0.5031 -0.5828
 8482SOL    HW237080   1.906   0.749   3.395 -2.1420 -1.1825 -4.4442
 8483SOL     OW37081   0.432   1.084   3.217  0.0817  0.1269  0.6321
 8483SOL    HW137082   0.399   1.142   3.149 -2.8966 -0.9097  1.2199
 8483SOL    HW237083   0.358   1.062   3.273  0.4566 -1.8756  0.3522
 8484SOL     OW37084   2.684   1.324   6.942  0.5472 -0.2936 -0.5403
 8484SOL    HW137085   2.591   1.340   6.960  0.1235 -0.3331 -2.7443
 8484SOL    HW237086   2.717   1.405   6.904  0.5265  0.7674  1.6804
 8485SOL     OW37087   3.023   3.859  12.641 -0.2540 -0.0231 -0.6493
 8485SOL    HW137088   3.115   3.882  12.656 -0.1029 -0.3811 -1.0172
 8485SOL    HW237089   3.035   3.795  12.570 -0.4217 -0.5903 -0.1660
 8486SOL     OW37090   3.884   1.050   8.212 -0.0186  0.3287 -0.1650
 8486SOL    HW137091   3.793   1.047   8.183  0.6113  1.8729 -2.3110
 8486SOL    HW237092   3.918   1.087   8.130  0.4251 -0.1664 -0.2071
 8487SOL     OW37093   3.591   0.327   8.947 -0.1692 -0.0821  0.4080
 8487SOL    HW137094   3.507   0.337   8.992 -0.3755  0.4434 -0.0942
 8487SOL    HW237095   3.631   0.412   8.960 -0.4585  0.1467 -0.2018
 8488SOL     OW37096   1.663   4.616  17.687 -0.2863 -0.1351  0.3203
 8488SOL    HW137097   1.691   4.706  17.676 -2.8939  0.9670  2.6254
 8488SOL    HW237098   1.678   4.576  17.601  1.3788 -0.6670  0.8625
 8489SOL     OW37099   2.027   0.735   2.688 -0.8340  0.0235  0.0091
 8489SOL    HW137100   1.941   0.703   2.715  0.5454  1.1059  5.8060
 8489SOL    HW237101   2.014   0.734   2.593  1.0080 -0.7872 -0.2368
 8490SOL     OW37102   2.516   3.888  12.892  0.5073 -0.1030  0.4660
 8490SOL    HW137103   2.508   3.875  12.986  0.4194 -1.5223  0.2623
 8490SOL    HW237104   2.436   3.853  12.854  1.7803 -3.0528  0.5346
 8491SOL     OW37105   1.018   1.994  16.106 -0.2122 -0.1155  0.3501
 8491SOL    HW137106   0.991   1.904  16.088  1.0882 -0.1733 -1.2734
 8491SOL    HW237107   1.096   1.981  16.053 -0.7580  0.4168 -0.5715
 8492SOL     OW37108   1.118   3.832   5.751 -0.2647 -0.2746 -0.1191
 8492SOL    HW137109   1.113   3.824   5.655  1.9894 -1.0395 -0.1689
 8492SOL    HW237110   1.039   3.881   5.774  0.5854  0.7289  0.6398
 8493SOL     OW37111   0.432   3.765  17.665  0.4229 -0.5164  0.1033
 8493SOL    HW137112   0.383   3.683  17.672  1.7334 -1.2200  1.1673
 8493SOL    HW237113   0.432   3.791   0.015 -0.0057 -1.3564  0.3413
 8494SOL     OW37114   2.812   4.340   3.565 -0.4077  0.5698 -0.1198
 8494SOL    HW137115   2.866   4.285   3.509 -0.5554 -1.7949  2.0846
 8494SOL    HW237116   2.830   4.425   3.524  0.2488 -0.9568 -2.9706
 8495SOL     OW37117   4.542   4.247  13.541 -0.8405  0.2833  0.0893
 8495SOL    HW137118   4.623   4.208  13.574  0.6084  2.2680 -1.0684
 8495SOL    HW237119   4.473   4.209  13.595  0.9862 -1.8017  0.9380
 8496SOL     OW37120   0.477   2.587   7.084 -0.2811 -0.1260  0.0940
 8496SOL    HW137121   0.445   2.496   7.088 -0.3332 -0.0402  1.7555
 8496SOL    HW237122   0.394   2.636   7.087 -1.3184 -2.0587  3.3620
 8497SOL     OW37123   1.877   1.115  16.925  0.2226 -0.4619  0.1845
 8497SOL    HW137124   1.851   1.200  16.892 -2.3588 -1.2988  0.0419
 8497SOL    HW237125   1.845   1.124  17.015  3.5413  0.5315  1.2466
 8498SOL     OW37126   0.667   3.708   4.631 -0.0878  0.0351  0.0043
 8498SOL    HW137127   0.755   3.720   4.596 -0.0477  0.3462  0.2081
 8498SOL    HW237128   0.658   3.615   4.609 -0.6917  0.0832  0.0503
 8499SOL     OW37129   2.020   0.198   2.321 -0.3869  0.7505 -0.0611
 8499SOL    HW137130   2.084   0.135   2.354 -0.4061  0.4923 -0.5194
 8499SOL    HW237131   1.939   0.149   2.339  0.7955 -1.1310  0.1670
 8500SOL     OW37132   0.488   1.740   6.826  0.7096 -0.7863 -0.0135
 8500SOL    HW137133   0.572   1.777   6.800  0.2761 -0.4019 -0.8646
 8500SOL    HW237134   0.524   1.659   6.860  3.0677  0.8200  1.3315
 8501SOL     OW37135   4.572   1.175   3.812 -0.0625  0.0656 -0.2265
 8501SOL    HW137136   4.663   1.177   3.784  0.0828 -2.5780  0.0941
 8501SOL    HW237137   4.528   1.132   3.739 -1.2050  2.4533 -0.9562
 8502SOL     OW37138   2.936   2.617  14.900  0.0663  0.6247 -0.3010
 8502SOL    HW137139   2.908   2.679  14.967  0.8785 -0.3740  0.9504
 8502SOL    HW237140   2.990   2.676  14.848 -1.2477  3.4203  1.5310
 8503SOL     OW37141   1.987   3.996   5.924 -0.1798  0.0818  0.0214
 8503SOL    HW137142   1.921   4.036   5.982  2.6814  1.9496  1.9611
 8503SOL    HW237143   1.982   3.909   5.964 -1.1921  0.2139  0.1962
 8504SOL     OW37144   3.263   1.133  12.161 -0.2997 -0.6358  0.0553
 8504SOL    HW137145   3.279   1.057  12.105  3.3527  1.2759 -1.4966
 8504SOL    HW237146   3.353   1.165  12.154 -0.8069  1.0936  1.3393
 8505SOL     OW37147   0.333   0.052   5.434  0.3206 -0.0722 -0.0135
 8505SOL    HW137148   0.335   0.064   5.529 -0.5687 -1.0746  0.1388
 8505SOL    HW237149   0.360   0.141   5.411 -3.1564  1.3385  1.2743
 8506SOL     OW37150   3.728   1.276   4.802 -0.0767 -0.7339  0.4554
 8506SOL    HW137151   3.800   1.272   4.865 -1.2063 -1.2781  1.7074
 8506SOL    HW237152   3.653   1.324   4.838  0.4688  0.1551  0.4053
 8507SOL     OW37153   1.122   3.397   8.521  0.1408 -0.0743 -0.0042
 8507SOL    HW137154   1.127   3.304   8.540 -1.0163  0.1649  1.4505
 8507SOL    HW237155   1.184   3.400   8.448  0.6807 -2.7377  0.3472
 8508SOL     OW37156   0.196   0.716   2.560  0.4364 -0.4948  0.2337
 8508SOL    HW137157   0.130   0.784   2.547  0.0711 -1.1725 -1.4014
 8508SOL    HW237158   0.174   0.695   2.651  1.8545  0.5783  0.8083
 8509SOL     OW37159   2.583   0.567  14.266 -0.6184  0.0757  0.3251
 8509SOL    HW137160   2.561   0.484  14.308  0.5795  0.2500  1.2667
 8509SOL    HW237161   2.678   0.568  14.275 -0.5707 -2.2229  0.0357
 8510SOL     OW37162   2.848   2.350   3.890  0.0288 -0.5145 -0.2728
 8510SOL    HW137163   2.768   2.310   3.857 -0.6019 -0.7845  1.5980
 8510SOL    HW237164   2.852   2.426   3.833  1.2236  1.2792  2.2094
 8511SOL     OW37165   1.933   0.341   7.604  0.3428 -0.3530  0.0035
 8511SOL    HW137166   1.910   0.366   7.514  3.2621  1.1556 -0.3143
 8511SOL    HW237167   1.988   0.266   7.583  0.3853 -0.1813 -0.4981
 8512SOL     OW37168   2.058   3.336   3.536  0.5969 -0.0327  0.2652
 8512SOL    HW137169   1.986   3.314   3.477  0.7078 -0.0646  0.1393
 8512SOL    HW237170   2.110   3.257   3.521 -1.0115 -1.5197  2.7115
 8513SOL     OW37171   0.696   0.643   0.173  0.0996 -0.1544  0.3722
 8513SOL    HW137172   0.781   0.688   0.174 -0.1564  0.3700 -0.8141
 8513SOL    HW237173   0.699   0.594   0.091  1.3015 -1.1382  1.0114
 8514SOL     OW37174   2.002   2.851   5.971 -0.6099 -0.1294  0.1898
 8514SOL    HW137175   1.986   2.920   6.036 -2.6890 -1.1717  0.7695
 8514SOL    HW237176   2.018   2.907   5.894 -4.0021  2.1343  1.1038
 8515SOL     OW37177   2.091   2.723   2.680  0.3589  0.1343  0.0729
 8515SOL    HW137178   2.048   2.647   2.640 -2.9101  0.9079  2.0511
 8515SOL    HW237179   2.153   2.755   2.615  2.0501 -1.4840  0.8777
 8516SOL     OW37180   2.969   0.850   3.371 -0.1494 -0.3059 -0.1834
 8516SOL    HW137181   2.971   0.756   3.389  0.2449 -0.6328 -1.9134
 8516SOL    HW237182   2.909   0.876   3.441 -0.3901 -2.3035  0.3478
 8517SOL     OW37183   1.636   0.229   6.009 -1.1068  0.1541 -0.3153
 8517SOL    HW137184   1.599   0.152   6.052  0.7478 -0.9141 -0.6234
 8517SOL    HW237185   1.578   0.239   5.933 -1.8366  0.8275  0.3355
 8518SOL     OW37186   2.138   3.194   6.282 -0.2987  0.3738 -0.3840
 8518SOL    HW137187   2.196   3.146   6.341  0.4601 -1.4430 -2.6501
 8518SOL    HW237188   2.198   3.256   6.240 -0.3473 -0.0059 -1.0052
 8519SOL     OW37189   0.382   1.125   7.421  0.9668  0.2785  0.0424
 8519SOL    HW137190   0.359   1.216   7.441  0.5124 -0.4085  2.6451
 8519SOL    HW237191   0.367   1.117   7.326  1.3078  2.2595 -0.1792
 8520SOL     OW37192   1.567   0.073  10.487  0.6043 -0.1558 -0.3427
 8520SOL    HW137193   1.629   0.023  10.433  0.1132 -1.4325  0.2869
 8520SOL    HW237194   1.621   0.091  10.564  0.0802  0.3604 -0.1046
 8521SOL     OW37195   4.292   2.141   1.831  0.3790  0.2108  0.2041
 8521SOL    HW137196   4.334   2.193   1.763 -1.4332  1.8806  0.3580
 8521SOL    HW237197   4.265   2.064   1.782 -0.2810  0.8779 -0.4794
 8522SOL     OW37198   2.584   2.261   3.537  0.4781 -0.6076 -0.1171
 8522SOL    HW137199   2.576   2.345   3.491  0.6856  0.0530  1.0690
 8522SOL    HW237200   2.574   2.196   3.467 -2.7524 -2.4692  2.0722
 8523SOL     OW37201   0.102   4.141   7.539  0.4271  0.3012 -0.1363
 8523SOL    HW137202   0.037   4.210   7.522  0.7306  0.7261  0.4348
 8523SOL    HW237203   0.084   4.110   7.627  0.2498 -0.2046 -0.3487
 8524SOL     OW37204   0.607   2.257   4.385 -0.0194 -0.0457  0.0110
 8524SOL    HW137205   0.569   2.336   4.423 -2.8421 -1.5212  0.2676
 8524SOL    HW237206   0.699   2.270   4.407  0.5088 -1.5610 -1.3304
 8525SOL     OW37207   0.105   0.374   5.793  0.1413  0.1503  0.2533
 8525SOL    HW137208   0.159   0.319   5.848 -1.2836 -2.9164 -1.4401
 8525SOL    HW237209   0.056   0.308   5.743  0.4341 -0.7962  1.2323
 8526SOL     OW37210   2.203   0.518   7.867  0.2759 -0.2475  0.2491
 8526SOL    HW137211   2.210   0.540   7.774 -0.5870  2.3540  0.7843
 8526SOL    HW237212   2.208   0.609   7.897  0.9912 -0.0613 -0.4529
 8527SOL     OW37213   2.984   1.749   2.831 -0.3380  0.1320 -0.1719
 8527SOL    HW137214   2.934   1.717   2.907 -1.4873  1.8926 -0.1939
 8527SOL    HW237215   2.923   1.731   2.760  0.5284 -2.3416 -0.2917
 8528SOL     OW37216   2.899   2.252  15.021 -0.2905 -0.1788 -0.2951
 8528SOL    HW137217   2.915   2.268  14.928 -1.5563 -0.4751 -0.5634
 8528SOL    HW237218   2.839   2.177  15.019  0.6067 -0.8658 -1.2321
 8529SOL     OW37219   1.983   0.607  12.909  0.3387 -0.3212  0.4939
 8529SOL    HW137220   1.924   0.584  12.981 -1.6137 -3.9352 -2.3023
 8529SOL    HW237221   1.933   0.598  12.828 -0.6128  1.0136  0.9283
 8530SOL     OW37222   3.850   0.365   8.191  0.0099 -0.2436  0.3310
 8530SOL    HW137223   3.909   0.349   8.265  1.4370 -0.7625 -0.9229
 8530SOL    HW237224   3.808   0.449   8.214 -0.3340 -0.3219 -0.0210
 8531SOL     OW37225   0.897   4.540  11.336  0.3993 -0.2621 -0.5648
 8531SOL    HW137226   0.806   4.546  11.307  0.2694 -0.4387 -0.1897
 8531SOL    HW237227   0.907   4.622  11.386 -2.4174  0.4533 -1.1868
 8532SOL     OW37228   0.596   1.523   6.492  0.0235  0.0602 -0.3225
 8532SOL    HW137229   0.662   1.585   6.524  0.2283 -0.7656  0.8626
 8532SOL    HW237230   0.566   1.472   6.567 -1.4367  0.5162 -0.5910
 8533SOL     OW37231   1.098   0.182   7.477 -0.2230 -0.1487  1.0212
 8533SOL    HW137232   1.071   0.100   7.435  0.5534  0.1518 -0.0289
 8533SOL    HW237233   1.147   0.223   7.407 -1.4179  1.3643  1.0723
 8534SOL     OW37234   1.390   3.552  16.893  0.1651  0.0967 -0.5172
 8534SOL    HW137235   1.298   3.575  16.907  0.1344 -1.3648  1.6748
 8534SOL    HW237236   1.433   3.542  16.978  0.4208 -1.3243 -0.8218
 8535SOL     OW37237   1.692   4.024   7.184 -0.4088  0.2253 -0.1383
 8535SOL    HW137238   1.779   4.008   7.221  1.1429  0.4858 -3.6500
 8535SOL    HW237239   1.710   4.082   7.110 -1.5516  1.5716  0.6389
 8536SOL     OW37240   2.859   0.591  10.047  0.9094 -0.1992 -0.1867
 8536SOL    HW137241   2.769   0.621  10.044  0.4002 -1.6072  1.6436
 8536SOL    HW237242   2.856   0.496  10.034  0.5951  0.0690 -2.0877
 8537SOL     OW37243   4.174   3.575   2.706 -0.1951 -0.5959  0.7707
 8537SOL    HW137244   4.213   3.641   2.649 -0.8324  1.9505  3.3450
 8537SOL    HW237245   4.131   3.629   2.772  0.1189  0.0966  0.4123
 8538SOL     OW37246   0.142   1.732   2.639  0.2143 -0.0082  0.6468
 8538SOL    HW137247   0.153   1.742   2.733  1.2983  0.3254  0.4881
 8538SOL    HW237248   0.047   1.735   2.631  0.3600  1.5477 -0.6668
 8539SOL     OW37249   1.879   1.057  17.215  0.0077 -0.0414 -0.1095
 8539SOL    HW137250   1.807   1.121  17.214  0.7191  0.7916  2.4387
 8539SOL    HW237251   1.953   1.112  17.241 -1.1338  0.9854  0.9898
 8540SOL     OW37252   0.615   4.354   2.197  0.0717 -0.1934 -0.2569
 8540SOL    HW137253   0.624   4.416   2.269 -0.5178 -1.3328  0.8037
 8540SOL    HW237254   0.538   4.308   2.228 -0.5626  1.2930  0.3614
 8541SOL     OW37255   4.658   2.436   3.033  0.0152 -0.2487 -0.3939
 8541SOL    HW137256   4.681   2.355   2.987 -1.6771 -0.8851 -0.1399
 8541SOL    HW237257   4.668   2.403   3.122 -0.6012  0.9828  0.1292
 8542SOL     OW37258   4.498   0.625   3.337  0.4036  0.0182 -0.3269
 8542SOL    HW137259   4.458   0.596   3.419 -2.2294  0.3082 -1.4968
 8542SOL    HW237260   4.470   0.716   3.328 -2.8401 -0.7000  2.5180
 8543SOL     OW37261   1.958   0.051   4.744 -0.2149 -0.5164  0.0323
 8543SOL    HW137262   1.973   0.058   4.650  0.0492  0.4353  0.1409
 8543SOL    HW237263   2.047   0.066   4.776 -0.7924  1.1681  0.8397
 8544SOL     OW37264   3.399   0.546   6.858  0.8252 -0.2831  0.4478
 8544SOL    HW137265   3.368   0.633   6.885 -0.3546 -0.8864  1.0188
 8544SOL    HW237266   3.420   0.556   6.765  0.1893 -1.4226  0.1819
 8545SOL     OW37267   2.067   0.473   5.364  0.5190 -0.3170 -0.6974
 8545SOL    HW137268   2.146   0.429   5.332 -0.4980 -2.1379 -0.6882
 8545SOL    HW237269   2.046   0.529   5.289  1.1766  3.5710  2.0411
 8546SOL     OW37270   1.062   0.974  11.623  0.3783  0.2986  0.3503
 8546SOL    HW137271   1.132   0.922  11.583 -0.1275 -0.0559 -0.0609
 8546SOL    HW237272   0.995   0.917  11.586  0.4747 -1.1125  2.3533
 8547SOL     OW37273   0.077   4.571   7.748  0.7161  1.0055 -0.6302
 8547SOL    HW137274   4.736   4.517   7.766  1.4497  0.0832 -0.2329
 8547SOL    HW237275   0.090   4.605   7.836  0.6974  0.6214 -0.4765
 8548SOL     OW37276   0.574   3.580  15.964 -0.1523 -0.5839 -0.4017
 8548SOL    HW137277   0.506   3.616  15.906 -1.6150 -2.4989  0.1368
 8548SOL    HW237278   0.535   3.553  16.047  0.1825  0.3530  0.0701
 8549SOL     OW37279   4.057   4.456   3.975 -0.1007  0.2516  0.1189
 8549SOL    HW137280   4.092   4.404   3.903  0.1664 -1.3827  1.4464
 8549SOL    HW237281   4.080   4.399   4.048  1.0656  2.7634  1.7523
 8550SOL     OW37282   4.606   1.378   7.714 -0.0801 -0.5450 -0.2206
 8550SOL    HW137283   4.605   1.411   7.804  2.5892  1.7019 -1.0153
 8550SOL    HW237284   4.577   1.287   7.724 -1.6102 -0.1005 -0.6976
 8551SOL     OW37285   2.415   2.810   7.212  0.2378 -0.0533 -0.1886
 8551SOL    HW137286   2.491   2.770   7.169 -0.6605 -2.1460  0.1459
 8551SOL    HW237287   2.422   2.901   7.184  1.1132 -0.3246 -0.8615
 8552SOL     OW37288   4.140   3.967   3.181  0.2720  0.5385  0.1897
 8552SOL    HW137289   4.105   3.985   3.268 -0.8121  1.6597 -0.4695
 8552SOL    HW237290   4.093   3.888   3.157 -0.8695  0.5178  2.5994
 8553SOL     OW37291   1.311   3.863  10.054 -0.4898  0.0535 -0.1942
 8553SOL    HW137292   1.332   3.774  10.082  1.3230  0.4186 -0.3683
 8553SOL    HW237293   1.251   3.880  10.127  0.6007 -3.3379  1.5006
 8554SOL     OW37294   3.835   4.555   7.689 -0.2233  0.2234  0.0013
 8554SOL    HW137295   3.844   4.647   7.714 -0.1765  0.5770 -1.3352
 8554SOL    HW237296   3.801   4.521   7.772 -1.9799 -0.1528 -0.8788
 8555SOL     OW37297   2.242   3.163   5.879 -0.1117 -0.1578  0.1046
 8555SOL    HW137298   2.310   3.188   5.816  0.8536  1.4616  1.7839
 8555SOL    HW237299   2.187   3.100   5.834  3.1393 -2.1123 -1.1275
 8556SOL     OW37300   1.225   1.771   5.443 -0.0993 -0.2366 -0.0986
 8556SOL    HW137301   1.277   1.842   5.406 -1.0878  0.2088 -0.6422
 8556SOL    HW237302   1.218   1.796   5.535  0.5510 -1.3490  0.2626
 8557SOL     OW37303   1.290   2.523  12.351 -0.3667 -0.3419  0.0814
 8557SOL    HW137304   1.231   2.589  12.315 -1.2252 -0.6318  0.9688
 8557SOL    HW237305   1.279   2.447  12.294 -0.3687 -0.4832  0.2700
 8558SOL     OW37306   0.768   4.254   4.939  0.4647  0.2887  0.4976
 8558SOL    HW137307   0.726   4.324   4.890 -2.3269 -2.0167 -0.4219
 8558SOL    HW237308   0.850   4.301   4.953  0.4749 -0.2140  2.0810
 8559SOL     OW37309   1.649   3.692  10.601 -0.3868  0.4517 -0.6774
 8559SOL    HW137310   1.743   3.698  10.617 -0.5799  0.4757  0.4196
 8559SOL    HW237311   1.643   3.771  10.546 -1.6173  0.4421 -0.5657
 8560SOL     OW37312   3.626   3.200   2.615 -0.8370 -1.3632 -0.1663
 8560SOL    HW137313   3.544   3.242   2.640 -0.6975 -1.1323 -0.0970
 8560SOL    HW237314   3.667   3.264   2.556 -1.2209  0.6195  1.7366
 8561SOL     OW37315   0.834   0.121   7.643 -0.0720  0.1728  0.2352
 8561SOL    HW137316   0.915   0.088   7.605  0.3617  2.2943 -0.6429
 8561SOL    HW237317   0.773   0.146   7.573 -0.4823  1.0738  0.9203
 8562SOL     OW37318   3.688   4.350   7.136  0.0328  0.0129  0.4713
 8562SOL    HW137319   3.645   4.422   7.182  1.7911  0.1170  1.9761
 8562SOL    HW237320   3.645   4.274   7.175 -0.2091 -0.4143 -0.6169
 8563SOL     OW37321   0.779   1.724   7.376  0.1174 -0.2910 -0.6914
 8563SOL    HW137322   0.694   1.710   7.418  0.4635 -0.2299  0.0226
 8563SOL    HW237323   0.829   1.695   7.452  0.0988 -2.0609 -1.3708
 8564SOL     OW37324   3.987   4.451  13.050  0.1641 -0.0263 -0.0895
 8564SOL    HW137325   3.957   4.374  13.002  2.1209 -2.1921  2.1831
 8564SOL    HW237326   3.957   4.526  12.999 -2.8735 -0.9371  0.3557
 8565SOL     OW37327   3.963   2.176   4.606  0.4010 -0.0043  0.3074
 8565SOL    HW137328   3.885   2.199   4.556 -0.4749  0.1038  1.7482
 8565SOL    HW237329   3.919   2.132   4.679 -0.5968 -1.9167 -1.4290
 8566SOL     OW37330   2.155   1.879   3.556  0.1299  0.0709 -0.3275
 8566SOL    HW137331   2.169   1.973   3.566  1.3295 -0.0053 -1.2693
 8566SOL    HW237332   2.061   1.865   3.550 -0.2529  2.1488  0.6565
 8567SOL     OW37333   3.211   1.128  15.099 -0.0832  0.0926 -0.1472
 8567SOL    HW137334   3.256   1.189  15.156 -0.3246 -0.3653  0.5405
 8567SOL    HW237335   3.243   1.045  15.134 -0.0748  0.3095  0.3628
 8568SOL     OW37336   4.167   3.395  15.714 -0.6541  0.2581 -0.0320
 8568SOL    HW137337   4.104   3.435  15.654 -0.3862  0.8341  0.0653
 8568SOL    HW237338   4.165   3.302  15.692  0.7399  0.0154  0.8247
 8569SOL     OW37339   2.960   3.296   1.796  0.2517 -0.0212 -0.0880
 8569SOL    HW137340   2.941   3.230   1.863 -0.1555 -0.1191 -0.2978
 8569SOL    HW237341   2.906   3.369   1.827  0.0876 -0.0795 -0.2350
 8570SOL     OW37342   2.210   4.638   8.956  0.0770  0.0787 -0.1858
 8570SOL    HW137343   2.273   4.618   9.026 -1.5322  0.6293  1.4178
 8570SOL    HW237344   2.214   4.561   8.900 -1.5052 -0.2351  0.1333
 8571SOL     OW37345   0.112   0.108   2.473  0.2522 -0.2604 -0.0421
 8571SOL    HW137346   0.051   0.156   2.418  0.5116 -0.0066 -0.1102
 8571SOL    HW237347   0.053   0.038   2.499 -0.4169  0.8107  1.3604
 8572SOL     OW37348   0.391   3.210   1.970  0.0931  0.5758  0.6050
 8572SOL    HW137349   0.378   3.169   1.885  0.9220  1.1063  0.2301
 8572SOL    HW237350   0.312   3.265   1.966 -1.1783 -1.0834  2.6768
 8573SOL     OW37351   4.534   4.082  15.537  0.3545  0.3942 -0.1132
 8573SOL    HW137352   4.571   4.142  15.472  1.5483  0.6177  0.7761
 8573SOL    HW237353   4.603   4.096  15.602  0.4617 -1.1273  0.0951
 8574SOL     OW37354   2.634   2.478   6.662 -0.0253 -0.2433  0.7101
 8574SOL    HW137355   2.614   2.487   6.569 -0.0409  0.3141  0.7652
 8574SOL    HW237356   2.687   2.399   6.659 -2.2013 -1.7059  0.7652
 8575SOL     OW37357   2.710   3.222   8.097 -0.5970  0.6106  0.4091
 8575SOL    HW137358   2.729   3.135   8.062  1.7686  1.6082 -0.7831
 8575SOL    HW237359   2.797   3.262   8.097 -0.5716  0.5529  0.8423
 8576SOL     OW37360   3.032   4.456   5.904 -0.2669 -0.2988 -0.2481
 8576SOL    HW137361   2.969   4.495   5.964 -0.7960 -1.0721 -0.2947
 8576SOL    HW237362   3.118   4.451   5.945 -0.3836 -1.0965 -0.0980
 8577SOL     OW37363   3.577   2.740   3.857  0.1231  0.0468 -0.1126
 8577SOL    HW137364   3.626   2.784   3.787 -1.8806  0.9317 -0.9892
 8577SOL    HW237365   3.499   2.722   3.804 -0.2049 -3.2303  1.5235
 8578SOL     OW37366   0.864   0.181  14.273 -0.1170 -0.3696 -0.5658
 8578SOL    HW137367   0.932   0.239  14.238 -0.4973  1.1372  1.1672
 8578SOL    HW237368   0.894   0.094  14.247  0.2036 -0.2175 -0.7125
 8579SOL     OW37369   0.850   0.953   3.512  0.1157 -0.4569 -0.1252
 8579SOL    HW137370   0.907   0.990   3.444 -0.4069 -0.7688 -0.7344
 8579SOL    HW237371   0.766   0.980   3.475  0.0636 -0.0023  0.3117
 8580SOL     OW37372   1.195   1.597  15.254  0.0346  0.2112  0.0518
 8580SOL    HW137373   1.176   1.525  15.194 -1.9857 -0.4436  1.4654
 8580SOL    HW237374   1.240   1.546  15.321  1.3265  0.9283 -0.2765
 8581SOL     OW37375   3.351   3.597   2.889 -0.9305 -0.1760  0.3217
 8581SOL    HW137376   3.303   3.517   2.871 -2.1475  0.5762  0.2299
 8581SOL    HW237377   3.440   3.563   2.898 -0.6647  0.3835 -0.2103
 8582SOL     OW37378   1.936   0.336  15.481 -0.5559  0.2058 -0.0997
 8582SOL    HW137379   1.949   0.406  15.417  3.3841  0.6143  1.1805
 8582SOL    HW237380   1.948   0.262  15.421 -1.5833 -1.2432  1.4919
 8583SOL     OW37381   4.506   2.608   2.279 -0.0699  0.4856  0.9356
 8583SOL    HW137382   4.572   2.676   2.293  0.6656  0.2007 -1.0491
 8583SOL    HW237383   4.427   2.663   2.279  0.2963  1.0151  0.4597
 8584SOL     OW37384   4.040   0.245   4.563 -0.0420  0.6629 -0.9329
 8584SOL    HW137385   4.017   0.284   4.479 -1.7227  0.9970 -0.3069
 8584SOL    HW237386   3.978   0.279   4.628  1.3273  0.9726  0.2217
 8585SOL     OW37387   3.751   0.991   6.944  0.4639  0.0149  0.6664
 8585SOL    HW137388   3.764   1.052   7.017  0.2376  1.1089 -0.2009
 8585SOL    HW237389   3.816   1.029   6.886 -1.5925  2.0087 -0.3412
 8586SOL     OW37390   1.624   3.158   6.396  0.7881 -0.3883  0.1139
 8586SOL    HW137391   1.594   3.249   6.406  2.5605  0.5243 -2.7789
 8586SOL    HW237392   1.713   3.173   6.429  0.6799 -1.4070  0.8323
 8587SOL     OW37393   3.146   0.048   8.405 -0.6062 -0.2971  0.3269
 8587SOL    HW137394   3.083   0.075   8.338  0.3450 -0.7201 -0.7520
 8587SOL    HW237395   3.085   0.025   8.474  1.3555 -0.3705  2.0336
 8588SOL     OW37396   0.501   4.699   3.266  0.2428 -0.4326 -0.5240
 8588SOL    HW137397   0.473   4.611   3.293 -1.0727 -0.3086 -1.5024
 8588SOL    HW237398   0.423   4.731   3.222  0.8740  1.7278 -0.0872
 8589SOL     OW37399   3.840   1.825  11.713  0.3520 -0.4391 -0.3983
 8589SOL    HW137400   3.773   1.757  11.711  0.2166 -0.3559  0.9095
 8589SOL    HW237401   3.818   1.876  11.791 -0.2517  1.6301 -1.9497
 8590SOL     OW37402   4.258   2.715   4.616  0.5896 -0.2830  0.4783
 8590SOL    HW137403   4.278   2.789   4.558  1.0380 -0.7659  0.0265
 8590SOL    HW237404   4.262   2.650   4.547 -0.9228  0.0196  0.0977
 8591SOL     OW37405   4.728   1.079  17.145 -0.1062  0.1538 -0.1904
 8591SOL    HW137406   4.649   1.128  17.121 -0.0863  0.7264  0.9140
 8591SOL    HW237407   0.056   1.116  17.083 -0.6741  0.0350 -0.8522
 8592SOL     OW37408   3.182   0.652   9.277  0.0612  1.0183 -0.2564
 8592SOL    HW137409   3.128   0.731   9.282  0.5317  1.3196  0.0392
 8592SOL    HW237410   3.142   0.603   9.349 -2.4568 -1.2066 -3.1591
 8593SOL     OW37411   4.307   1.980   8.605  0.3501  0.5514 -0.3119
 8593SOL    HW137412   4.371   2.035   8.650 -1.3553  0.3616  2.3190
 8593SOL    HW237413   4.316   2.030   8.524  2.7388 -0.4641 -0.6827
 8594SOL     OW37414   4.427   4.713   4.240 -0.3947  0.2725 -0.3621
 8594SOL    HW137415   4.365   4.641   4.250 -1.5378  1.0559 -2.0224
 8594SOL    HW237416   4.499   4.674   4.291  1.2272  1.4329 -1.7719
 8595SOL     OW37417   1.897   1.124   8.128  0.7255 -0.0556  0.1843
 8595SOL    HW137418   1.920   1.179   8.053  4.3263 -0.1817  1.2157
 8595SOL    HW237419   1.827   1.072   8.089  1.1314  0.0432 -0.6821
 8596SOL     OW37420   4.669   3.846   2.698  0.3136 -0.4361  0.1297
 8596SOL    HW137421   0.023   3.824   2.675 -0.3993  1.2058 -4.1683
 8596SOL    HW237422   4.676   3.880   2.787  0.2221  4.0322 -1.6127
 8597SOL     OW37423   3.813   4.074   9.013 -0.0908  0.2760  0.4196
 8597SOL    HW137424   3.746   4.115   9.067 -0.3745 -0.4703  0.6332
 8597SOL    HW237425   3.768   4.017   8.950 -1.3575  1.2109  0.4682
 8598SOL     OW37426   0.309   3.692   6.211  0.3717  0.2274 -0.0392
 8598SOL    HW137427   0.292   3.731   6.297 -2.9643 -1.5913  0.1178
 8598SOL    HW237428   0.316   3.601   6.240  1.6471 -0.6406 -3.0621
 8599SOL     OW37429   0.438   1.133  13.565  0.4315 -0.4191  0.0356
 8599SOL    HW137430   0.352   1.091  13.572  0.7109 -1.2375 -1.6007
 8599SOL    HW237431   0.498   1.062  13.590 -1.2306 -1.5913  0.7394
 8600SOL     OW37432   2.168   0.408   0.440 -0.0407  0.6514 -0.1498
 8600SOL    HW137433   2.206   0.384   0.525  1.7821 -0.5526 -1.2793
 8600SOL    HW237434   2.228   0.361   0.382  0.1563  1.0064 -0.2306
 8601SOL     OW37435   1.409   0.923  13.779  0.3148  0.0549 -0.6534
 8601SOL    HW137436   1.491   0.966  13.756  0.0441  0.6141 -0.5835
 8601SOL    HW237437   1.434   0.857  13.843  1.1510  2.8966  1.9502
 8602SOL     OW37438   3.250   0.997   4.562  0.5216 -0.2850 -0.0507
 8602SOL    HW137439   3.291   0.973   4.646 -2.1433 -1.0770  1.0189
 8602SOL    HW237440   3.295   1.074   4.527 -1.1022  1.3401  1.3899
 8603SOL     OW37441   1.052   2.998  17.000  0.3446 -1.0930  0.0557
 8603SOL    HW137442   1.002   3.058  17.055 -0.5268 -2.3139  0.5952
 8603SOL    HW237443   1.101   3.059  16.944  1.5866  2.0772  4.5527
 8604SOL     OW37444   1.338   3.648  10.938 -0.1263 -0.1820 -0.2694
 8604SOL    HW137445   1.310   3.707  11.008 -0.3347 -1.1345  0.4539
 8604SOL    HW237446   1.271   3.580  10.938 -0.2386 -0.0809  0.8431
 8605SOL     OW37447   3.778   4.415   3.904 -0.2708 -0.2757 -0.2418
 8605SOL    HW137448   3.717   4.460   3.963 -0.0662 -0.9643  0.4969
 8605SOL    HW237449   3.865   4.440   3.936  0.0552  1.1729 -2.2973
 8606SOL     OW37450   3.683   0.072   5.330 -0.6443  0.1371 -0.5253
 8606SOL    HW137451   3.710   4.718   5.350 -0.4996  0.6329  1.5133
 8606SOL    HW237452   3.588   0.059   5.331 -0.3691 -1.8626 -0.0947
 8607SOL     OW37453   4.695   2.388   6.278  0.3338  0.4682 -0.0906
 8607SOL    HW137454   4.637   2.316   6.302 -0.2766  0.6816 -0.9460
 8607SOL    HW237455   4.693   2.393   6.183  1.0059 -0.7977 -0.1742
 8608SOL     OW37456   1.019   0.305  15.708  0.1248 -0.2529  0.3179
 8608SOL    HW137457   0.939   0.356  15.717  0.3261  0.6522 -3.1978
 8608SOL    HW237458   1.051   0.319  15.797 -0.2687  0.1348  0.3988
 8609SOL     OW37459   2.172   3.848   2.811  0.7149 -0.0654 -0.4084
 8609SOL    HW137460   2.133   3.860   2.898  2.9730 -1.9279  0.8680
 8609SOL    HW237461   2.250   3.798   2.835 -0.5237 -0.5509  2.5522
 8610SOL     OW37462   1.793   2.677   6.122 -0.2335 -0.3509 -0.0284
 8610SOL    HW137463   1.767   2.710   6.209  2.8368 -0.7684  1.0458
 8610SOL    HW237464   1.828   2.747   6.068 -0.9480  0.2367  0.2664
 8611SOL     OW37465   2.689   4.431   7.103 -0.1589 -0.0392  0.3504
 8611SOL    HW137466   2.673   4.434   7.197 -1.8816  0.1959  0.0411
 8611SOL    HW237467   2.703   4.525   7.088 -1.6174 -0.3362 -2.8980
 8612SOL     OW37468   0.999   1.552   3.594 -0.4650  0.0454  0.5629
 8612SOL    HW137469   0.928   1.492   3.570  0.9216 -0.8785 -1.2854
 8612SOL    HW237470   1.069   1.520   3.536 -1.0256 -0.1177 -0.0290
 8613SOL     OW37471   4.478   3.761  15.141 -0.6564  0.7667  0.4118
 8613SOL    HW137472   4.401   3.729  15.188  0.1039  0.6758  1.5948
 8613SOL    HW237473   4.542   3.734  15.207 -0.0351  0.2628 -0.3957
 8614SOL     OW37474   1.593   4.300   3.942  0.8445 -0.1938 -0.5445
 8614SOL    HW137475   1.557   4.292   3.854  2.8936  0.3883 -1.4373
 8614SOL    HW237476   1.684   4.323   3.927  0.7058 -0.2864 -1.5470
 8615SOL     OW37477   2.980   1.387  14.693  0.1915 -0.0960  0.2954
 8615SOL    HW137478   2.976   1.297  14.727  2.4535 -0.0899  0.5478
 8615SOL    HW237479   2.890   1.416  14.680 -0.4358 -1.9775  0.3260
 8616SOL     OW37480   2.242   2.704   1.928 -0.2488 -0.2047  0.1808
 8616SOL    HW137481   2.328   2.675   1.898 -0.6163 -0.5366 -0.5493
 8616SOL    HW237482   2.253   2.704   2.023  0.3346  0.6332  0.1137
 8617SOL     OW37483   1.430   1.035  15.075 -0.7529 -0.2404  0.1337
 8617SOL    HW137484   1.485   0.999  15.006  0.3418  1.7351 -0.0231
 8617SOL    HW237485   1.484   1.108  15.104  0.1171  0.0261 -2.1612
 8618SOL     OW37486   1.283   1.844   2.965 -0.5437  0.0076 -0.1906
 8618SOL    HW137487   1.287   1.786   2.889 -0.4954  0.1089 -0.2645
 8618SOL    HW237488   1.267   1.787   3.040 -1.6646 -1.9007 -1.8926
 8619SOL     OW37489   3.075   4.036   4.968 -0.1548 -0.3109 -0.2196
 8619SOL    HW137490   3.102   3.992   5.049  0.9606  0.5137 -0.1541
 8619SOL    HW237491   2.979   4.033   4.971 -0.2179  0.4041 -1.7689
 8620SOL     OW37492   1.719   2.824  13.448 -0.6375 -0.4249 -0.7422
 8620SOL    HW137493   1.654   2.862  13.507 -0.4650  0.7315 -1.2924
 8620SOL    HW237494   1.797   2.811  13.501 -0.0676  2.1716 -0.9538
 8621SOL     OW37495   2.793   0.360   6.690  0.1843  0.2715 -0.0439
 8621SOL    HW137496   2.824   0.280   6.646 -0.1465  0.0568  0.1110
 8621SOL    HW237497   2.860   0.426   6.671 -0.2339  0.9331  0.8115
 8622SOL     OW37498   2.711   4.552  11.444 -0.4499 -0.4272 -0.6110
 8622SOL    HW137499   2.703   4.647  11.459  3.1152 -0.1126 -0.8138
 8622SOL    HW237500   2.782   4.537  11.506  0.5025  0.1986 -1.5544
 8623SOL     OW37501   3.832   3.147   6.562  0.2680 -0.3313  0.1578
 8623SOL    HW137502   3.832   3.238   6.532  0.3235 -0.4017 -0.0571
 8623SOL    HW237503   3.741   3.115   6.560  0.5108 -0.9554 -2.0188
 8624SOL     OW37504   0.114   3.246   1.832  0.2852  0.1843  0.6814
 8624SOL    HW137505   0.033   3.238   1.882  0.1408 -2.0052  0.1117
 8624SOL    HW237506   0.095   3.179   1.767  0.3247 -0.5765  1.4533
 8625SOL     OW37507   0.322   2.516  10.979  0.3167 -1.0887  0.2066
 8625SOL    HW137508   0.370   2.555  11.052  0.5512 -0.0604 -0.4879
 8625SOL    HW237509   0.304   2.427  11.010  0.3439 -1.3633 -0.5572
 8626SOL     OW37510   0.634   3.183   2.266  0.0173 -0.3235  0.6215
 8626SOL    HW137511   0.696   3.120   2.303  0.9902  0.7037  0.7426
 8626SOL    HW237512   0.556   3.171   2.320 -0.3738  0.7351  0.2821
 8627SOL     OW37513   4.489   0.499   0.392  0.4902  0.3405 -0.1715
 8627SOL    HW137514   4.498   0.407   0.366 -1.0501  0.9129 -2.7118
 8627SOL    HW237515   4.508   0.490   0.486  0.0045 -1.5490 -0.2384
 8628SOL     OW37516   2.875   3.620   4.739  0.2599 -0.3183  0.2633
 8628SOL    HW137517   2.926   3.607   4.818  0.8039  1.4078  0.1971
 8628SOL    HW237518   2.855   3.713   4.750 -0.3829 -0.1626 -2.0754
 8629SOL     OW37519   0.795   3.861   5.383  0.6480 -0.0530 -0.4003
 8629SOL    HW137520   0.716   3.905   5.350  0.7759  1.0579  0.7831
 8629SOL    HW237521   0.759   3.843   5.470  3.2457 -1.2554  0.4206
 8630SOL     OW37522   0.692   3.081   3.377  0.2242  0.0796 -0.5271
 8630SOL    HW137523   0.667   3.018   3.444  1.7723 -1.4858 -1.4410
 8630SOL    HW237524   0.666   3.160   3.424 -1.8083 -0.1998 -1.1768
 8631SOL     OW37525   3.203   1.554   2.249  0.4072 -0.0063 -0.2697
 8631SOL    HW137526   3.230   1.468   2.281  0.9021 -0.1741 -1.1247
 8631SOL    HW237527   3.244   1.558   2.162  2.2063  1.9742  0.6725
 8632SOL     OW37528   3.964   3.614  17.252 -0.3543  1.0144 -0.1383
 8632SOL    HW137529   3.875   3.642  17.274 -0.6745  0.8096 -1.1480
 8632SOL    HW237530   3.989   3.536  17.301  2.5247  0.8132 -1.9358
 8633SOL     OW37531   1.702   4.325   7.978  0.4562 -0.3567  0.0405
 8633SOL    HW137532   1.629   4.368   7.935  0.8677 -1.3149 -1.6074
 8633SOL    HW237533   1.691   4.246   7.925 -0.8639 -0.1712  0.0365
 8634SOL     OW37534   4.326   1.330   3.577 -0.0664 -0.0817 -0.0370
 8634SOL    HW137535   4.296   1.244   3.606  0.1315  0.0831  0.6415
 8634SOL    HW237536   4.414   1.308   3.546  0.6856  2.2069  0.4792
 8635SOL     OW37537   1.019   4.030   8.988 -0.5360 -0.6316 -0.4056
 8635SOL    HW137538   1.039   3.981   8.909  1.6334 -1.6443  0.7800
 8635SOL    HW237539   1.099   4.034   9.041 -1.7942  1.3879  1.3447
 8636SOL     OW37540   2.520   3.441  15.420 -0.7921  0.8752 -0.3501
 8636SOL    HW137541   2.616   3.446  15.424 -0.8865  2.9042 -0.8823
 8636SOL    HW237542   2.491   3.452  15.510  0.2801  0.5075  0.0393
 8637SOL     OW37543   0.583   2.655   3.442  0.2531  0.3012  0.0348
 8637SOL    HW137544   0.587   2.711   3.364 -1.9752 -2.0178 -1.7325
 8637SOL    HW237545   0.605   2.720   3.509 -0.0217  1.3876 -0.9138
 8638SOL     OW37546   0.995   0.272   1.225  0.0956 -0.6648  0.6427
 8638SOL    HW137547   1.011   0.339   1.291  1.9550 -1.4686  1.0106
 8638SOL    HW237548   1.064   0.298   1.164  0.7866 -4.3374 -0.1847
 8639SOL     OW37549   3.252   2.521  16.498  0.0027  0.5248  0.3817
 8639SOL    HW137550   3.209   2.500  16.581 -0.7412  0.0721 -0.1265
 8639SOL    HW237551   3.339   2.548  16.529 -0.5587  0.5839  1.8955
 8640SOL     OW37552   4.734   2.791   6.666 -0.4029 -1.0976 -0.0016
 8640SOL    HW137553   4.646   2.796   6.630  0.5918  0.3956 -2.2886
 8640SOL    HW237554   0.051   2.783   6.586 -0.2966 -0.8394  0.0409
 8641SOL     OW37555   1.129   2.605   8.306 -0.5170  0.0496 -0.0020
 8641SOL    HW137556   1.174   2.530   8.346 -0.7328  0.3090  0.7427
 8641SOL    HW237557   1.123   2.569   8.218 -1.1707 -0.5234  0.2791
 8642SOL     OW37558   0.213   1.655   7.209 -0.3324  0.8653  0.2404
 8642SOL    HW137559   0.154   1.582   7.191  1.4543 -0.4553 -0.2810
 8642SOL    HW237560   0.172   1.726   7.160 -2.6032 -1.6158 -1.4355
 8643SOL     OW37561   3.493   1.868  12.018 -0.2429  0.5335 -0.5266
 8643SOL    HW137562   3.547   1.789  12.023  0.8537  1.3497  0.7471
 8643SOL    HW237563   3.482   1.885  12.112 -0.7406  0.5419 -0.5901
 8644SOL     OW37564   2.720   2.560   9.243  0.1425  1.0839 -0.0526
 8644SOL    HW137565   2.645   2.501   9.248  0.2479  0.9737  0.2679
 8644SOL    HW237566   2.699   2.621   9.314 -1.4727 -0.7995  1.0974
 8645SOL     OW37567   2.415   2.623   5.088  0.3688 -0.2807  0.2981
 8645SOL    HW137568   2.335   2.676   5.080  0.9920  0.7477  0.7505
 8645SOL    HW237569   2.473   2.667   5.026  0.3589 -1.0409 -0.2452
 8646SOL     OW37570   2.244   4.195  16.783 -0.4175 -0.0578  0.2254
 8646SOL    HW137571   2.233   4.290  16.781  0.4102 -0.0013 -1.2925
 8646SOL    HW237572   2.242   4.164  16.873 -1.5186 -0.3732  0.0879
 8647SOL     OW37573   3.245   4.003   3.960  0.1405  0.5467 -0.2982
 8647SOL    HW137574   3.249   4.004   4.055  2.0791 -1.8283 -0.3611
 8647SOL    HW237575   3.177   3.936   3.952 -1.0535  1.5730  1.4173
 8648SOL     OW37576   0.550   1.395   0.895 -0.0138 -0.3609 -0.3624
 8648SOL    HW137577   0.535   1.429   0.807  0.8736  0.0335 -0.3572
 8648SOL    HW237578   0.642   1.421   0.892 -0.1277  0.2104  1.1867
 8649SOL     OW37579   3.626   2.371   4.702  0.0672  0.2061 -0.3222
 8649SOL    HW137580   3.700   2.351   4.759  1.2166  1.7661 -1.2493
 8649SOL    HW237581   3.591   2.441   4.758  0.3152 -0.4120  0.6001
 8650SOL     OW37582   4.453   1.230  12.314 -0.2647 -0.2841  0.1765
 8650SOL    HW137583   4.546   1.211  12.323 -0.4506 -1.0846  0.3682
 8650SOL    HW237584   4.409   1.167  12.257 -0.8561  1.4155 -1.2583
 8651SOL     OW37585   0.564   4.706   2.181  0.5504  0.1113 -0.0027
 8651SOL    HW137586   0.478   4.712   2.221  0.5208  1.4741 -0.2513
 8651SOL    HW237587   0.603   4.644   2.242  1.9665 -1.4409 -2.4752
 8652SOL     OW37588   4.133   2.237  10.952  0.2738 -0.1407 -0.0860
 8652SOL    HW137589   4.116   2.330  10.936 -0.5671 -0.5306 -1.4841
 8652SOL    HW237590   4.130   2.249  11.047 -0.2763  1.3731 -0.2889
 8653SOL     OW37591   3.840   2.134   3.008 -0.0818  0.3798  0.0107
 8653SOL    HW137592   3.920   2.180   2.981 -1.2577  1.2962 -1.9047
 8653SOL    HW237593   3.872   2.071   3.072  0.3037  0.3584 -0.2025
 8654SOL     OW37594   0.147   2.986   7.284 -0.8696 -0.2634  0.0831
 8654SOL    HW137595   0.166   3.080   7.278 -1.6510 -0.0483  1.0359
 8654SOL    HW237596   0.169   2.969   7.376 -0.6771 -0.9630 -0.0931
 8655SOL     OW37597   3.830   1.877  17.537  0.0983 -0.4418 -0.1086
 8655SOL    HW137598   3.783   1.832  17.467  1.5983 -1.5566 -0.4027
 8655SOL    HW237599   3.923   1.877  17.514  0.5950 -0.7461  1.8912
 8656SOL     OW37600   1.787   4.237   7.581  0.5625 -0.1732 -0.6963
 8656SOL    HW137601   1.875   4.208   7.604 -0.5229 -1.7807  1.4477
 8656SOL    HW237602   1.808   4.302   7.514 -2.0816 -1.0059 -2.3390
 8657SOL     OW37603   1.699   0.686   0.592  0.1262 -0.4782  0.0258
 8657SOL    HW137604   1.687   0.707   0.500 -0.3795  1.7138  0.5728
 8657SOL    HW237605   1.775   0.628   0.597  1.3555  1.0798 -0.7415
 8658SOL     OW37606   4.180   1.868   9.158 -0.1228  0.7572  0.1134
 8658SOL    HW137607   4.226   1.854   9.075  0.0134  2.7407 -0.1363
 8658SOL    HW237608   4.121   1.936   9.126 -0.6684  0.3243  0.1881
 8659SOL     OW37609   3.594   0.793   6.824 -0.7389 -0.1885  0.4678
 8659SOL    HW137610   3.642   0.865   6.863 -0.0010 -1.6667  2.2655
 8659SOL    HW237611   3.610   0.711   6.871 -2.2517 -0.8828 -0.2161
 8660SOL     OW37612   1.494   4.189   6.260  0.3097  0.0524 -0.1396
 8660SOL    HW137613   1.518   4.237   6.339  1.5515 -1.9676  0.7237
 8660SOL    HW237614   1.427   4.245   6.221  0.5285 -1.3583 -2.5606
 8661SOL     OW37615   3.213   4.636   8.758  0.1942 -0.1647 -0.1872
 8661SOL    HW137616   3.131   4.675   8.729  0.6977 -0.2582 -1.7465
 8661SOL    HW237617   3.221   4.553   8.711  0.6759 -0.0800 -0.2555
 8662SOL     OW37618   0.451   2.201   4.102 -0.3622  0.1503  0.4449
 8662SOL    HW137619   0.452   2.108   4.124  0.0261 -0.3770 -1.7556
 8662SOL    HW237620   0.533   2.230   4.142 -0.7202 -0.8202  1.8491
 8663SOL     OW37621   0.204   1.955   5.291  0.0653 -0.5012 -0.4391
 8663SOL    HW137622   0.185   1.894   5.220  0.3399  0.3383 -1.2289
 8663SOL    HW237623   0.116   1.971   5.323  0.5289  0.8062  0.1857
 8664SOL     OW37624   3.323   3.770   5.778  0.0882  0.3871 -0.1512
 8664SOL    HW137625   3.313   3.845   5.720  0.6134  0.3651 -0.2691
 8664SOL    HW237626   3.295   3.703   5.716  2.7441  0.2442 -1.1652
 8665SOL     OW37627   1.845   2.953   7.977  0.0889 -0.0552 -0.3176
 8665SOL    HW137628   1.773   2.955   7.914 -0.6093  2.0873  0.5393
 8665SOL    HW237629   1.885   3.033   7.944  1.1008 -0.5238 -0.2389
 8666SOL     OW37630   1.655   1.851   6.326  0.0469 -0.2818  0.0681
 8666SOL    HW137631   1.729   1.910   6.339  0.8873 -1.3142  0.0027
 8666SOL    HW237632   1.679   1.817   6.240 -0.6507 -1.5577  0.3728
 8667SOL     OW37633   3.597   1.672  10.061 -0.0673 -0.4929  0.2851
 8667SOL    HW137634   3.639   1.706  10.140 -0.6092  1.2989 -0.2104
 8667SOL    HW237635   3.539   1.612  10.108 -0.8966  0.4825  0.4895
 8668SOL     OW37636   3.478   3.295   1.109 -0.2295 -0.3356  0.2007
 8668SOL    HW137637   3.405   3.304   1.170 -0.8238  1.8441 -0.8373
 8668SOL    HW237638   3.491   3.387   1.089  2.3143 -0.8845 -0.5916
 8669SOL     OW37639   1.453   3.311   5.947 -0.8489  0.2571 -0.1183
 8669SOL    HW137640   1.487   3.249   6.012 -0.3634  0.3062 -0.3276
 8669SOL    HW237641   1.476   3.393   5.991 -0.7614 -1.1835  2.5569
 8670SOL     OW37642   0.763   1.724  16.966  0.2464  0.4963 -0.4679
 8670SOL    HW137643   0.811   1.750  16.888  1.9349  0.2882  0.5096
 8670SOL    HW237644   0.680   1.717  16.918  1.0285 -0.7577 -1.6274
 8671SOL     OW37645   3.760   1.986   3.642  0.1322  0.4026  0.0665
 8671SOL    HW137646   3.798   1.929   3.576  1.6461  1.3551  0.1395
 8671SOL    HW237647   3.670   1.997   3.612  0.4788 -0.5497 -1.3049
 8672SOL     OW37648   1.549   1.502   7.576 -0.9100 -0.5974  0.1604
 8672SOL    HW137649   1.489   1.573   7.599  0.4631  0.3481  0.8063
 8672SOL    HW237650   1.536   1.449   7.655 -3.4581 -0.5039 -0.2126
 8673SOL     OW37651   3.870   3.148   2.397 -0.1170  0.4349  0.0874
 8673SOL    HW137652   3.928   3.083   2.359  0.2041  0.9214 -0.2541
 8673SOL    HW237653   3.852   3.111   2.484 -1.3131  2.4409  0.6841
 8674SOL     OW37654   2.654   3.322  10.444  0.5699  0.4090 -0.0473
 8674SOL    HW137655   2.607   3.399  10.411  0.5878  0.7818  0.7819
 8674SOL    HW237656   2.641   3.250  10.383 -0.2302  0.9555 -0.5340
 8675SOL     OW37657   0.308   1.147  11.590 -0.2551  0.3340  0.0426
 8675SOL    HW137658   0.280   1.072  11.537 -3.5557  2.4586 -1.1660
 8675SOL    HW237659   0.400   1.156  11.563  0.3461 -2.5039  1.1449
 8676SOL     OW37660   0.717   2.862   0.314  0.5716 -0.6008 -0.1098
 8676SOL    HW137661   0.731   2.777   0.356 -1.5663 -0.5917  0.5859
 8676SOL    HW237662   0.802   2.906   0.323  0.2430 -0.0981  0.5026
 8677SOL     OW37663   4.707   3.468  11.773  0.0518 -0.0177  0.8105
 8677SOL    HW137664   0.040   3.437  11.832 -0.1887  0.6560  1.4373
 8677SOL    HW237665   0.022   3.516  11.707  1.9378  1.2115  3.1780
 8678SOL     OW37666   0.435   0.775   0.532 -0.0013  0.3001 -0.1150
 8678SOL    HW137667   0.363   0.713   0.543  1.7576 -0.8424  5.0324
 8678SOL    HW237668   0.457   0.771   0.438 -1.5691 -3.4918 -0.2910
 8679SOL     OW37669   1.018   2.572   0.624  0.3713  0.2203  0.4043
 8679SOL    HW137670   1.089   2.516   0.592  0.2389 -0.0883  0.6521
 8679SOL    HW237671   0.938   2.535   0.587  0.7337 -0.2277  0.0734
 8680SOL     OW37672   0.963   4.639  14.253 -0.0879  0.1544  0.3122
 8680SOL    HW137673   0.910   4.562  14.232 -0.4348  0.5300 -0.2137
 8680SOL    HW237674   0.940   4.657  14.344 -2.0667  0.4783 -0.2380
 8681SOL     OW37675   0.890   3.871   0.335  0.2946  0.0379  0.0163
 8681SOL    HW137676   0.843   3.864   0.418  1.1795  1.7903  0.6710
 8681SOL    HW237677   0.948   3.796   0.347  0.8557  0.9622  3.0981
 8682SOL     OW37678   0.669   3.811   1.512 -0.2639  0.0620  0.5446
 8682SOL    HW137679   0.641   3.840   1.426  1.8100  1.0391  0.2114
 8682SOL    HW237680   0.639   3.880   1.572  0.7546 -0.4955  1.7031
 8683SOL     OW37681   3.640   4.229  13.650 -0.3747  0.2638  0.0226
 8683SOL    HW137682   3.610   4.310  13.692 -0.2829  0.7911 -0.9184
 8683SOL    HW237683   3.585   4.169  13.701  0.6729 -0.3106  0.4798
 8684SOL     OW37684   2.744   4.274   3.838  0.0070 -0.4509  0.7558
 8684SOL    HW137685   2.715   4.364   3.852 -0.8770 -0.8533  1.5314
 8684SOL    HW237686   2.764   4.275   3.745  2.0996 -1.8081  1.1927
 8685SOL     OW37687   2.385   0.705   0.707  0.9637  0.3125  0.7359
 8685SOL    HW137688   2.403   0.611   0.713 -3.8438 -0.6312  0.3202
 8685SOL    HW237689   2.469   0.736   0.673  0.7521 -0.3598 -0.4114
 8686SOL     OW37690   2.849   3.666   3.610  0.1147  0.7522  0.2753
 8686SOL    HW137691   2.807   3.642   3.527  1.6271 -2.9669  0.5862
 8686SOL    HW237692   2.850   3.579   3.651  0.5591  0.6376  0.0128
 8687SOL     OW37693   2.854   1.921   3.442 -0.1116 -0.4835  0.0773
 8687SOL    HW137694   2.867   1.996   3.501 -0.2352 -3.1378  3.4847
 8687SOL    HW237695   2.834   1.970   3.363 -0.1773 -0.1622  0.2935
 8688SOL     OW37696   2.646   2.768  10.283 -0.2267 -0.5791  0.0502
 8688SOL    HW137697   2.607   2.681  10.277 -1.5953  0.0645 -0.4569
 8688SOL    HW237698   2.691   2.754  10.366 -0.2753 -0.3327  0.1193
 8689SOL     OW37699   2.362   2.537   7.230  0.2130  0.0672 -0.1722
 8689SOL    HW137700   2.369   2.630   7.209  1.6487  0.0056  0.0351
 8689SOL    HW237701   2.449   2.520   7.267  0.2757  2.0547  0.5843
 8690SOL     OW37702   4.725   3.312  17.117 -0.8385 -0.2978  0.8284
 8690SOL    HW137703   0.025   3.338  17.202  0.2177 -0.3532  0.4074
 8690SOL    HW237704   4.632   3.318  17.141 -1.3204  3.2114 -1.9348
 8691SOL     OW37705   3.528   3.611   4.093 -0.2913 -0.2305 -0.4170
 8691SOL    HW137706   3.484   3.626   4.177  1.2310 -0.8284  0.4923
 8691SOL    HW237707   3.594   3.679   4.083  1.1248 -1.1302  2.8111
 8692SOL     OW37708   3.849   0.429   6.569  0.2772  0.5743 -0.2245
 8692SOL    HW137709   3.781   0.495   6.572 -1.2614 -0.9477 -1.5431
 8692SOL    HW237710   3.813   0.368   6.505  0.5950  0.3765 -0.2176
 8693SOL     OW37711   4.287   3.709   5.154  0.1099 -0.1980  0.2938
 8693SOL    HW137712   4.274   3.744   5.066  2.2804  0.2567  0.1477
 8693SOL    HW237713   4.314   3.618   5.144 -0.6419 -0.4422  0.5297
 8694SOL     OW37714   0.093   2.667   5.335 -0.2694 -0.4806  0.0123
 8694SOL    HW137715   0.149   2.623   5.271 -0.5855  2.1269 -2.0650
 8694SOL    HW237716   0.132   2.635   5.416 -0.8290  1.1119  0.8976
 8695SOL     OW37717   1.701   2.564  15.362  0.0344 -0.3244 -0.3947
 8695SOL    HW137718   1.779   2.613  15.388  0.0100  0.5134 -1.8796
 8695SOL    HW237719   1.639   2.577  15.433  0.4039 -0.1771 -0.0973
 8696SOL     OW37720   2.209   0.877   2.845 -0.3391  0.1286 -0.2783
 8696SOL    HW137721   2.153   0.844   2.775 -0.9318 -1.3126  0.8768
 8696SOL    HW237722   2.142   0.916   2.901  0.6291  0.2160  0.8011
 8697SOL     OW37723   0.969   0.822   2.885 -0.3062 -0.3354 -0.6154
 8697SOL    HW137724   0.934   0.882   2.952 -0.0668  3.0786 -3.5301
 8697SOL    HW237725   1.048   0.867   2.854  1.3724 -2.9339 -0.0880
 8698SOL     OW37726   1.532   1.180   5.040 -0.7929  1.0192  0.0249
 8698SOL    HW137727   1.544   1.238   5.115 -0.1478 -0.4032  1.0394
 8698SOL    HW237728   1.442   1.150   5.055 -0.0699 -1.2708 -0.1806
 8699SOL     OW37729   4.554   0.231   7.892  0.1955  0.1909  0.0685
 8699SOL    HW137730   4.630   0.285   7.915  1.3661 -0.6141 -1.9948
 8699SOL    HW237731   4.527   0.199   7.978 -1.0908  2.7673  0.6436
 8700SOL     OW37732   3.950   0.840   3.345  0.3505 -0.4164 -0.2880
 8700SOL    HW137733   4.002   0.912   3.381 -0.4100 -1.0121  2.0497
 8700SOL    HW237734   3.965   0.836   3.251  1.5402  2.5093 -0.2259
 8701SOL     OW37735   0.351   2.414  15.614  0.1203 -0.1753 -0.4444
 8701SOL    HW137736   0.440   2.449  15.608 -1.1557  3.0304 -0.7913
 8701SOL    HW237737   0.325   2.418  15.706  4.1158 -1.3133  0.7230
 8702SOL     OW37738   4.648   0.312   7.428 -0.3057 -0.3860 -0.9064
 8702SOL    HW137739   4.657   0.227   7.471 -0.4763 -0.6966 -1.4771
 8702SOL    HW237740   4.688   0.357   7.502 -1.7965  1.3892 -1.1985
 8703SOL     OW37741   3.284   4.453   9.029 -0.3459 -0.2335 -0.0178
 8703SOL    HW137742   3.370   4.418   9.006 -1.3149 -1.7753 -1.3627
 8703SOL    HW237743   3.226   4.418   8.961 -1.2914  0.9980  0.1645
 8704SOL     OW37744   3.539   1.424   4.395  0.0789  0.2015 -0.4432
 8704SOL    HW137745   3.585   1.381   4.323 -0.3181  0.9727 -1.1442
 8704SOL    HW237746   3.608   1.466   4.447  0.1922 -0.9869  0.3665
 8705SOL     OW37747   4.112   1.043   8.393 -0.2745  0.4957  0.5814
 8705SOL    HW137748   4.136   1.134   8.374  0.4907  0.1873  0.0930
 8705SOL    HW237749   4.043   1.036   8.326  1.1654  0.3264 -0.8763
 8706SOL     OW37750   3.762   2.696   5.540 -0.4092 -0.7352  0.1576
 8706SOL    HW137751   3.671   2.682   5.565 -0.0392 -0.7479  1.5274
 8706SOL    HW237752   3.763   2.788   5.514 -2.9234 -1.0784 -1.1164
 8707SOL     OW37753   1.328   4.171   4.400 -0.2479 -0.7080  0.0375
 8707SOL    HW137754   1.379   4.246   4.431 -1.7202 -0.5529  2.1253
 8707SOL    HW237755   1.330   4.185   4.305 -1.9948  1.6768  0.3313
 8708SOL     OW37756   4.403   0.168   2.024 -0.0727  0.3176 -0.4874
 8708SOL    HW137757   4.453   0.246   2.000  0.5773  0.4087  1.1318
 8708SOL    HW237758   4.467   0.129   2.084 -0.3451 -1.2073 -1.1893
 8709SOL     OW37759   3.393   1.959   0.744  0.1223 -0.8999  0.5890
 8709SOL    HW137760   3.429   1.881   0.702  0.4445  0.6969 -2.1395
 8709SOL    HW237761   3.312   1.974   0.696  0.0239  0.7626  1.2866
 8710SOL     OW37762   0.220   3.801   6.463 -0.5769  0.0173 -0.3162
 8710SOL    HW137763   0.308   3.832   6.484 -0.4976 -0.6878  0.4136
 8710SOL    HW237764   0.168   3.840   6.533 -2.2231 -1.5334 -0.6967
 8711SOL     OW37765   1.426   0.384   3.608  0.0624  0.2759  0.5552
 8711SOL    HW137766   1.489   0.437   3.657 -0.8434  2.1129 -0.2716
 8711SOL    HW237767   1.420   0.446   3.535  0.1501  0.3242  0.5887
 8712SOL     OW37768   1.724   4.437  15.550  0.5632  0.4693 -0.2006
 8712SOL    HW137769   1.773   4.381  15.490  0.3244  0.9496 -0.8493
 8712SOL    HW237770   1.704   4.508  15.488  0.9547  0.8038  0.0575
 8713SOL     OW37771   4.025   0.374   5.481  0.3816  0.3553 -0.4850
 8713SOL    HW137772   4.042   0.364   5.575  1.6023 -0.2280 -0.7537
 8713SOL    HW237773   4.027   0.468   5.467  1.1194 -0.1131 -3.6737
 8714SOL     OW37774   1.582   1.557   5.881  0.5839  0.3086 -0.1172
 8714SOL    HW137775   1.659   1.609   5.903  0.0948  0.6881  0.7564
 8714SOL    HW237776   1.524   1.633   5.879  0.1565 -0.0115 -0.0982
 8715SOL     OW37777   1.679   0.535   7.459 -0.0157  0.0137  0.3579
 8715SOL    HW137778   1.610   0.474   7.431 -0.9353  1.9785 -1.6668
 8715SOL    HW237779   1.727   0.537   7.375  0.4585 -1.9555  0.5719
 8716SOL     OW37780   2.916   3.995   6.314 -0.0178  0.1503  0.4016
 8716SOL    HW137781   2.907   4.081   6.354 -0.7670  0.0011  0.5417
 8716SOL    HW237782   2.841   3.996   6.254 -1.7402  2.7238  2.5894
 8717SOL     OW37783   2.847   4.182   2.825 -0.0448  0.1100 -0.1705
 8717SOL    HW137784   2.881   4.265   2.790 -1.1695  1.0063  0.8430
 8717SOL    HW237785   2.763   4.215   2.857  0.1741  1.2728 -0.7959
 8718SOL     OW37786   4.135   3.940  10.386  0.0714 -0.5863  0.1448
 8718SOL    HW137787   4.070   3.965  10.452 -1.4475 -5.0671  0.3155
 8718SOL    HW237788   4.180   3.874  10.437 -0.2950 -1.9074 -1.2423
 8719SOL     OW37789   1.527   4.297  15.335 -0.4430  0.3364 -0.1285
 8719SOL    HW137790   1.511   4.319  15.243  1.7277  1.3580 -0.2481
 8719SOL    HW237791   1.439   4.287  15.371 -0.5196  0.2599 -0.3375
 8720SOL     OW37792   1.355   1.135   2.261 -0.2926  0.4720 -0.4063
 8720SOL    HW137793   1.377   1.128   2.354 -0.5022  0.8562 -0.3243
 8720SOL    HW237794   1.284   1.199   2.266 -2.0396 -1.3871 -1.4550
 8721SOL     OW37795   3.525   3.370   3.972  0.2989 -0.4413  0.3035
 8721SOL    HW137796   3.518   3.455   4.016  1.8216 -1.4481  2.5077
 8721SOL    HW237797   3.553   3.310   4.041  0.2289 -0.9282 -0.0926
 8722SOL     OW37798   0.430   0.954   7.624  0.4510 -0.1798 -0.2265
 8722SOL    HW137799   0.430   1.025   7.689 -0.1377 -1.0431  0.7111
 8722SOL    HW237800   0.374   0.997   7.558 -0.1667  0.9525  1.0260
 8723SOL     OW37801   0.538   3.156   7.712  0.1426  0.7083  0.5882
 8723SOL    HW137802   0.524   3.238   7.664  0.3891  1.4636  1.8169
 8723SOL    HW237803   0.628   3.142   7.683 -0.6984  3.0105 -3.1971
 8724SOL     OW37804   4.211   0.787  15.790  0.7875  0.2720  0.1761
 8724SOL    HW137805   4.119   0.779  15.816  0.8131  1.3433  0.5813
 8724SOL    HW237806   4.256   0.744  15.862 -0.0242 -0.5863  0.1766
 8725SOL     OW37807   4.726   0.063   7.546  0.4704 -0.5236 -0.3106
 8725SOL    HW137808   0.076   0.061   7.502  1.2893  0.7377  1.2315
 8725SOL    HW237809   0.008   4.724   7.603 -0.6829 -1.5567 -1.2886
 8726SOL     OW37810   0.409   1.591  12.844 -0.9352  0.8719  0.5322
 8726SOL    HW137811   0.431   1.500  12.867 -0.0349  0.7509 -0.7960
 8726SOL    HW237812   0.330   1.567  12.797 -1.2769  0.0956  1.5086
 8727SOL     OW37813   3.550   3.630   7.445  0.1962 -0.3072 -0.1604
 8727SOL    HW137814   3.514   3.560   7.498 -1.1802 -0.5175 -1.3538
 8727SOL    HW237815   3.519   3.614   7.355  2.7257  1.4288 -1.3431
 8728SOL     OW37816   4.403   3.633   2.272 -0.3608  0.1012  0.2706
 8728SOL    HW137817   4.358   3.554   2.302 -1.3234  0.4014 -0.3761
 8728SOL    HW237818   4.474   3.628   2.336 -0.3698  1.3144  0.3792
 8729SOL     OW37819   0.301   3.248  16.844  0.0030  0.0164  0.6995
 8729SOL    HW137820   0.244   3.179  16.877  0.3317 -0.0731  1.0784
 8729SOL    HW237821   0.253   3.331  16.841 -1.6808 -0.9628  0.9288
 8730SOL     OW37822   4.517   4.564  11.421  0.2866 -0.3975  0.4746
 8730SOL    HW137823   4.537   4.613  11.341  1.8941 -1.0087  0.4964
 8730SOL    HW237824   4.588   4.500  11.415  0.9910  0.9609 -5.0964
 8731SOL     OW37825   1.049   2.967   6.309 -0.0349 -0.2801  0.7651
 8731SOL    HW137826   1.073   2.969   6.402 -3.4244 -1.7342  1.6677
 8731SOL    HW237827   1.119   3.017   6.266 -1.5565 -0.6361 -2.1177
 8732SOL     OW37828   4.061   4.194   3.053  0.3397  0.1159 -0.6652
 8732SOL    HW137829   4.099   4.115   3.091 -0.2089  2.1706  4.1797
 8732SOL    HW237830   4.141   4.209   3.004 -0.5339  0.6119 -1.9531
 8733SOL     OW37831   0.867   2.543  12.140  0.0835  0.0609 -0.0776
 8733SOL    HW137832   0.958   2.514  12.129  0.5708  2.0027 -1.1446
 8733SOL    HW237833   0.811   2.466  12.150 -0.9646  1.1663  2.6538
 8734SOL     OW37834   0.185   4.724  14.836 -0.3495 -0.0393  0.5993
 8734SOL    HW137835   0.116   0.043  14.872  0.7146  1.7213 -0.0347
 8734SOL    HW237836   0.133   4.656  14.794  0.2941 -0.5543  0.6403
 8735SOL     OW37837   2.022   2.060  13.896 -0.4378  0.1256 -0.0007
 8735SOL    HW137838   2.101   2.028  13.853  0.2234  2.6414 -0.6596
 8735SOL    HW237839   1.962   1.993  13.864  3.7126 -3.0749 -1.0079
 8736SOL     OW37840   4.024   1.735   3.583  0.2790 -0.6042 -0.2623
 8736SOL    HW137841   4.079   1.661   3.557  0.7485  0.2838 -1.7451
 8736SOL    HW237842   3.971   1.692   3.650  1.9033 -1.1964  0.6338
 8737SOL     OW37843   4.384   0.784   4.746  0.0605  0.2032 -0.3452
 8737SOL    HW137844   4.352   0.867   4.711 -2.9898 -0.9125 -0.2191
 8737SOL    HW237845   4.479   0.783   4.734  0.1005  1.0712 -0.0544
 8738SOL     OW37846   4.665   2.309   7.866 -0.2037 -0.2678 -0.2761
 8738SOL    HW137847   4.571   2.297   7.848  0.0465 -0.1755 -1.6248
 8738SOL    HW237848   4.702   2.304   7.778  1.1488 -0.1986  0.2894
 8739SOL     OW37849   3.973   4.404   7.176 -0.2978 -0.1858 -0.4943
 8739SOL    HW137850   3.904   4.394   7.241  1.1594  0.7551  1.2034
 8739SOL    HW237851   3.937   4.369   7.095  0.7841  0.6263 -1.3417
 8740SOL     OW37852   0.928   2.534  15.854 -0.6875  0.3442  0.3770
 8740SOL    HW137853   1.007   2.517  15.904 -1.3087 -0.7028  1.0017
 8740SOL    HW237854   0.970   2.534  15.768  0.3195  1.5966  0.8836
 8741SOL     OW37855   3.152   0.695  14.032 -0.1062  0.3827 -0.8111
 8741SOL    HW137856   3.099   0.763  14.074 -0.2226 -0.7601  0.8758
 8741SOL    HW237857   3.231   0.699  14.086  0.1069  0.8315 -1.1584
 8742SOL     OW37858   1.983   0.356   7.890 -0.3582  0.0892  0.0613
 8742SOL    HW137859   1.974   0.337   7.797 -1.6910 -0.2855  0.2651
 8742SOL    HW237860   2.066   0.403   7.887 -0.7864  0.8959  0.8476
 8743SOL     OW37861   3.158   0.055   7.855  0.0667 -0.4219 -0.2655
 8743SOL    HW137862   3.153   0.135   7.908 -1.1287 -0.1002 -0.8465
 8743SOL    HW237863   3.252   0.038   7.858  0.1431  0.2556  1.1131
 8744SOL     OW37864   1.062   0.261  15.446 -0.0363  0.0216  0.0503
 8744SOL    HW137865   0.972   0.233  15.428 -0.6730  2.2921 -0.3953
 8744SOL    HW237866   1.060   0.273  15.541 -1.1782  1.3950 -0.1264
 8745SOL     OW37867   1.603   0.785   4.271 -0.1328 -0.2640  0.0897
 8745SOL    HW137868   1.525   0.826   4.235  0.3165  0.0359 -0.5369
 8745SOL    HW237869   1.665   0.816   4.205 -0.8809  0.6704 -0.1735
 8746SOL     OW37870   0.555   4.192   5.436  0.3778 -0.3586 -0.1951
 8746SOL    HW137871   0.542   4.112   5.385 -0.9907  0.0806 -0.5397
 8746SOL    HW237872   0.645   4.214   5.412  0.7994 -2.0345 -0.2011
 8747SOL     OW37873   0.246   4.269   3.165 -0.2022  0.1046 -0.0055
 8747SOL    HW137874   0.230   4.175   3.160  0.3776 -0.0674  1.2363
 8747SOL    HW237875   0.159   4.308   3.165 -0.5964 -0.7639  1.2939
 8748SOL     OW37876   1.309   0.734   2.144  0.0788  0.1296  0.6812
 8748SOL    HW137877   1.261   0.726   2.061  0.3096 -1.2134  0.6779
 8748SOL    HW237878   1.352   0.820   2.137 -0.1234  0.2156  0.4608
 8749SOL     OW37879   0.117   1.026   4.121 -0.1391  0.0661  0.6555
 8749SOL    HW137880   0.042   1.084   4.135  0.3480  1.4878 -2.7539
 8749SOL    HW237881   0.187   1.081   4.156 -0.2573 -0.4021  1.6425
 8750SOL     OW37882   4.547   1.855  14.865 -0.3465 -0.1004  0.5008
 8750SOL    HW137883   4.541   1.947  14.839  2.6216  0.8354  3.1722
 8750SOL    HW237884   4.590   1.816  14.789  2.0737  3.2996  0.1211
 8751SOL     OW37885   1.455   2.198   2.100  0.0190  0.1465  0.1856
 8751SOL    HW137886   1.403   2.177   2.023 -2.0728  1.6487  1.1586
 8751SOL    HW237887   1.516   2.264   2.067  2.4199 -0.2983  3.7224
 8752SOL     OW37888   3.219   0.231   0.817 -0.6648  0.0394  0.6694
 8752SOL    HW137889   3.165   0.291   0.765 -1.2665 -0.6133  0.5464
 8752SOL    HW237890   3.297   0.205   0.768  0.1282  2.6435  0.5187
 8753SOL     OW37891   4.314   4.249   9.772 -0.5109  0.1983 -0.4369
 8753SOL    HW137892   4.257   4.312   9.816  0.7388  1.9667 -1.3227
 8753SOL    HW237893   4.299   4.165   9.815  1.3393 -0.7708 -1.6745
 8754SOL     OW37894   3.345   4.023   3.687 -0.5067  0.1748  0.4448
 8754SOL    HW137895   3.256   4.058   3.680 -0.7746 -0.9069 -1.4024
 8754SOL    HW237896   3.336   3.994   3.778  1.8793  0.6270  0.8293
 8755SOL     OW37897   3.871   2.194   7.472 -0.3058 -0.0762 -0.1511
 8755SOL    HW137898   3.835   2.282   7.466  0.5667  0.2880  0.0217
 8755SOL    HW237899   3.800   2.150   7.520 -1.1362  0.7868 -0.5952
 8756SOL     OW37900   3.046   3.599   4.940 -0.1546  0.0086 -0.0767
 8756SOL    HW137901   3.086   3.515   4.964 -0.9315 -0.8127 -1.6264
 8756SOL    HW237902   3.056   3.655   5.017 -1.9534 -1.7583  1.4408
 8757SOL     OW37903   0.321   4.650  16.355  0.3409  0.0041 -0.4600
 8757SOL    HW137904   0.412   4.639  16.327  1.3386  0.6198  2.5169
 8757SOL    HW237905   0.295   4.561  16.378  0.5874  0.1382  0.3415
 8758SOL     OW37906   2.931   3.422  10.253  0.0831  0.7767  0.6176
 8758SOL    HW137907   2.880   3.492  10.293 -0.7505  1.1642 -1.1617
 8758SOL    HW237908   2.981   3.462  10.182 -2.3610  0.6868 -1.1193
 8759SOL     OW37909   0.837   2.870   8.238 -0.0963 -0.3021  1.0614
 8759SOL    HW137910   0.883   2.896   8.318 -1.3359 -2.8233  2.6039
 8759SOL    HW237911   0.756   2.920   8.249  0.2264  0.1601  1.3558
 8760SOL     OW37912   3.225   0.436   8.382 -0.7502 -0.3359  0.2531
 8760SOL    HW137913   3.240   0.374   8.311  1.4171 -0.0873  0.4884
 8760SOL    HW237914   3.309   0.436   8.429 -0.2920  0.9315 -0.5645
 8761SOL     OW37915   1.120   1.863  15.136 -0.3855 -0.2268  0.1832
 8761SOL    HW137916   1.093   1.841  15.047  2.5236  0.2685 -0.8230
 8761SOL    HW237917   1.130   1.774  15.170  1.5678 -0.2049 -0.3405
 8762SOL     OW37918   3.163   2.985  17.661 -0.1247 -0.7835  0.1568
 8762SOL    HW137919   3.174   2.993   0.014 -2.4512 -1.6562  0.5221
 8762SOL    HW237920   3.076   2.947  17.650 -0.9327  0.9041  0.6072
 8763SOL     OW37921   4.029   3.632   7.687 -0.0071 -0.0282  0.1489
 8763SOL    HW137922   3.978   3.592   7.617  0.9044 -1.3487  0.2342
 8763SOL    HW237923   4.088   3.558   7.699  0.3400 -0.1597 -2.3082
 8764SOL     OW37924   3.527   4.525  15.960  0.6954 -0.2588  0.5418
 8764SOL    HW137925   3.530   4.593  16.028 -1.6553  0.5419 -0.1760
 8764SOL    HW237926   3.524   4.450  16.019  4.2783  1.1956  2.6493
 8765SOL     OW37927   0.922   4.504  12.856  0.0391 -0.4632  0.1685
 8765SOL    HW137928   0.897   4.460  12.776  1.2490  1.7353 -1.4261
 8765SOL    HW237929   0.982   4.433  12.878  1.4616  0.1434 -1.7856
 8766SOL     OW37930   4.527   4.598   5.521  0.2437  0.2442 -0.3821
 8766SOL    HW137931   4.543   4.507   5.496 -0.1833 -0.0446  0.3785
 8766SOL    HW237932   4.453   4.626   5.466 -2.9085  0.0578  3.7646
 8767SOL     OW37933   1.516   2.013   5.089 -0.4681  0.4682 -0.5498
 8767SOL    HW137934   1.581   1.947   5.110  0.9966  2.3365  0.8907
 8767SOL    HW237935   1.566   2.090   5.062  0.0785  0.2912 -0.0455
 8768SOL     OW37936   0.300   2.551   2.967 -0.2902 -0.1542  0.4383
 8768SOL    HW137937   0.390   2.523   2.951 -1.2174 -2.2495 -1.1836
 8768SOL    HW237938   0.310   2.603   3.046  0.5845  1.9558 -1.0775
 8769SOL     OW37939   1.201   3.473   6.467  0.2652  0.2574  0.3811
 8769SOL    HW137940   1.214   3.481   6.372 -0.0064 -0.2891  0.2986
 8769SOL    HW237941   1.268   3.412   6.496  0.7554  0.6952  0.1718
 8770SOL     OW37942   0.882   4.359   6.050 -0.1180 -0.7976 -0.1660
 8770SOL    HW137943   0.909   4.347   6.141  0.0018 -0.9123 -0.2177
 8770SOL    HW237944   0.867   4.268   6.025 -1.6896 -0.6276  0.1286
 8771SOL     OW37945   2.066   3.323   1.073  0.3802 -0.3540  0.0697
 8771SOL    HW137946   2.051   3.410   1.109  0.4572 -0.3463  0.0835
 8771SOL    HW237947   1.976   3.292   1.070  0.4346 -0.4032 -1.3685
 8772SOL     OW37948   2.393   2.058   2.974  0.2901  0.0270 -0.4520
 8772SOL    HW137949   2.391   2.154   2.971 -0.5578  0.0582  0.8993
 8772SOL    HW237950   2.323   2.042   2.911  0.4063 -0.1013 -0.5470
 8773SOL     OW37951   0.018   2.539  11.399 -0.1878 -0.5579 -0.0451
 8773SOL    HW137952   4.724   2.530  11.489 -0.7421  0.1368 -0.1507
 8773SOL    HW237953   0.002   2.456  11.353  0.6657 -1.2737  0.9631
 8774SOL     OW37954   2.110   4.544   6.421 -0.4728 -0.2531 -1.0547
 8774SOL    HW137955   2.042   4.484   6.452  0.5280 -1.1904 -0.6387
 8774SOL    HW237956   2.156   4.484   6.362  0.0048 -1.4820  0.5517
 8775SOL     OW37957   4.593   0.322   9.241 -0.4532  0.3521  0.1456
 8775SOL    HW137958   4.642   0.400   9.213  0.9170 -1.0496 -1.2977
 8775SOL    HW237959   4.507   0.364   9.247 -0.1298  1.2356 -1.3986
 8776SOL     OW37960   3.590   0.522   9.278 -0.6761 -0.3373  0.3917
 8776SOL    HW137961   3.528   0.588   9.308  0.8618  0.6740  1.3319
 8776SOL    HW237962   3.668   0.559   9.321 -0.1063  0.1486 -1.0578
 8777SOL     OW37963   2.414   4.619   8.678 -0.5718  0.3868 -0.7848
 8777SOL    HW137964   2.468   4.680   8.728 -0.8377  1.8607 -2.3102
 8777SOL    HW237965   2.377   4.689   8.624 -0.6101  1.5634  0.7478
 8778SOL     OW37966   1.797   1.376  13.315  0.5994 -0.3917 -0.0715
 8778SOL    HW137967   1.764   1.466  13.311 -0.7052 -0.9688 -2.0577
 8778SOL    HW237968   1.849   1.369  13.235  0.1912 -0.5949 -0.3180
 8779SOL     OW37969   3.472   2.710   2.181  0.0876  0.1880 -0.1130
 8779SOL    HW137970   3.378   2.695   2.192 -0.2755  1.9235 -0.8548
 8779SOL    HW237971   3.491   2.656   2.104  2.6026  1.1501 -0.1682
 8780SOL     OW37972   3.060   1.380   4.227 -0.2853 -0.1369  0.5877
 8780SOL    HW137973   3.051   1.288   4.202  0.7172 -0.3163  0.9218
 8780SOL    HW237974   3.150   1.395   4.201 -0.7128 -0.4191 -1.0148
 8781SOL     OW37975   0.087   2.025   3.896  0.3187 -0.6347 -0.3300
 8781SOL    HW137976   0.106   2.083   3.970 -0.7632  0.9807 -1.3337
 8781SOL    HW237977   0.162   1.968   3.913 -0.5516 -1.0691  2.0816
 8782SOL     OW37978   2.288   4.216   9.210  0.0899 -0.0031  0.3974
 8782SOL    HW137979   2.215   4.236   9.269  1.7704 -0.2422  2.5298
 8782SOL    HW237980   2.281   4.121   9.221  1.3547 -0.0518  0.7274
 8783SOL     OW37981   0.844   4.186   5.719 -0.2791  0.0794  0.2774
 8783SOL    HW137982   0.843   4.157   5.628 -0.8171 -3.4690  1.4087
 8783SOL    HW237983   0.934   4.217   5.717 -0.6881  1.2850  0.1900
 8784SOL     OW37984   0.485   0.748   7.479 -0.2136  0.6329 -0.8181
 8784SOL    HW137985   0.536   0.791   7.410 -0.9076 -0.3671 -1.9439
 8784SOL    HW237986   0.473   0.823   7.537  1.2368  0.7050 -0.6144
 8785SOL     OW37987   4.634   1.166   4.345  0.7480  0.1742 -0.1928
 8785SOL    HW137988   4.559   1.223   4.364  0.6170 -0.1678  0.3041
 8785SOL    HW237989   4.623   1.165   4.250 -1.2640 -0.4443  0.0613
 8786SOL     OW37990   1.896   3.508   3.165  0.0929 -0.1455 -0.0418
 8786SOL    HW137991   1.812   3.533   3.202  0.3057  1.7814 -0.8700
 8786SOL    HW237992   1.880   3.457   3.086  3.0628  1.1227 -1.4667
 8787SOL     OW37993   4.077   1.052   7.111 -0.3495 -0.1860  0.1647
 8787SOL    HW137994   4.045   1.076   7.025  0.5572 -1.4599 -0.5285
 8787SOL    HW237995   4.129   0.977   7.083 -0.7990 -1.1008  1.7514
 8788SOL     OW37996   1.153   1.321   2.232  0.7323 -0.3324 -0.3346
 8788SOL    HW137997   1.158   1.414   2.214  1.1091 -0.6734 -1.9826
 8788SOL    HW237998   1.098   1.324   2.310 -0.3050  2.7394 -1.1922
 8789SOL     OW37999   1.767   2.416   6.227 -0.4881  0.0810 -0.6943
 8789SOL    HW138000   1.782   2.499   6.182 -0.4725  0.1143 -0.6271
 8789SOL    HW238001   1.846   2.408   6.280 -1.4517 -0.4702  0.6599
 8790SOL     OW38002   1.137   2.456   8.770  0.1844  0.1860 -0.4797
 8790SOL    HW138003   1.190   2.462   8.691 -2.9613  1.1960 -2.5100
 8790SOL    HW238004   1.096   2.369   8.767  1.8678 -0.7156  2.3231
 8791SOL     OW38005   4.627   1.776  14.609 -0.0429 -0.9076  0.4936
 8791SOL    HW138006   4.709   1.733  14.588  1.3066  1.2496  1.3429
 8791SOL    HW238007   4.619   1.833  14.533  2.5890 -2.5557 -0.9983
 8792SOL     OW38008   2.181   0.776   9.055  0.5964  0.3266 -0.1034
 8792SOL    HW138009   2.132   0.732   8.986  0.8588 -0.7508  0.3920
 8792SOL    HW238010   2.161   0.869   9.054  0.7637  0.3397 -2.5072
 8793SOL     OW38011   3.435   0.300   6.423 -0.0436 -0.0336  0.0466
 8793SOL    HW138012   3.370   0.230   6.430 -1.2766  1.1133  0.1373
 8793SOL    HW238013   3.517   0.259   6.395  0.2164  0.5270 -0.0067
 8794SOL     OW38014   1.837   1.760   5.009  0.0178 -0.0250 -0.0520
 8794SOL    HW138015   1.832   1.750   4.914 -0.0723  0.2922 -0.0820
 8794SOL    HW238016   1.902   1.831   5.012 -0.6213  0.5480  0.0673
 8795SOL     OW38017   2.373   3.316   4.002  0.6263 -0.6250 -0.7982
 8795SOL    HW138018   2.329   3.381   4.056  1.6554 -0.8809  0.3512
 8795SOL    HW238019   2.407   3.371   3.931  0.6218 -0.9690 -1.0644
 8796SOL     OW38020   3.920   1.302   8.845 -0.3936 -0.7109  1.0005
 8796SOL    HW138021   3.948   1.226   8.896  0.7864 -1.1620 -0.2897
 8796SOL    HW238022   3.996   1.360   8.842  0.5610 -2.0191 -0.7505
 8797SOL     OW38023   1.506   4.360   4.982  0.0866  0.0949 -0.5311
 8797SOL    HW138024   1.529   4.452   4.996  1.1990  0.2567 -3.3987
 8797SOL    HW238025   1.437   4.352   5.048 -0.6434 -0.0817 -1.3178
 8798SOL     OW38026   0.395   4.575   0.839 -0.0409  0.2504 -0.4716
 8798SOL    HW138027   0.454   4.546   0.770 -1.1861  0.4741 -1.5339
 8798SOL    HW238028   0.453   4.586   0.914 -1.1093  1.3941  0.1911
 8799SOL     OW38029   4.157   4.349   8.259  0.1558 -0.2400  0.5970
 8799SOL    HW138030   4.085   4.400   8.296 -0.3520  0.2016 -0.9811
 8799SOL    HW238031   4.237   4.397   8.279 -1.5696  3.1621 -0.7218
 8800SOL     OW38032   4.234   1.137  10.881 -0.6120 -0.9280 -0.0906
 8800SOL    HW138033   4.218   1.106  10.792  1.0334 -1.2056 -0.2750
 8800SOL    HW238034   4.319   1.174  10.861 -0.6369  0.1032  1.6950
 8801SOL     OW38035   2.417   1.520   8.629  0.3444 -0.2070 -0.1208
 8801SOL    HW138036   2.433   1.543   8.721 -0.0047 -2.5749  0.5467
 8801SOL    HW238037   2.486   1.455   8.613  2.3784  1.9621 -0.0983
 8802SOL     OW38038   2.534   1.576   2.248  0.1280  0.5096 -0.0500
 8802SOL    HW138039   2.608   1.616   2.294  1.0429  0.5467 -1.5714
 8802SOL    HW238040   2.460   1.566   2.309  0.7904 -0.7594  0.5596
 8803SOL     OW38041   2.202   0.114   3.813  0.4682  0.1400  0.0781
 8803SOL    HW138042   2.245   0.153   3.889  1.1437 -0.8719  0.2090
 8803SOL    HW238043   2.263   0.153   3.750 -1.0365  0.4270 -1.2188
 8804SOL     OW38044   3.967   4.057   9.853  0.0455  0.0501 -0.8251
 8804SOL    HW138045   4.058   4.059   9.826  0.1082 -0.5790 -0.6540
 8804SOL    HW238046   3.969   4.037   9.946  1.4426  1.4835 -0.5523
 8805SOL     OW38047   4.574   0.123   1.547 -0.6880  0.0941 -0.0233
 8805SOL    HW138048   4.589   0.133   1.641 -0.3712  0.6970 -0.1344
 8805SOL    HW238049   4.535   0.209   1.529  1.1756  0.5757 -1.7923
 8806SOL     OW38050   3.091   0.186   5.129  0.2147  0.0199  0.4175
 8806SOL    HW138051   3.110   0.276   5.155  2.5240 -0.7223  1.3183
 8806SOL    HW238052   3.126   0.128   5.197 -0.1791 -1.2352 -0.4538
 8807SOL     OW38053   2.952   0.409   5.663 -0.3562 -0.2646  0.7633
 8807SOL    HW138054   2.937   0.469   5.736 -1.6015  0.8579 -0.4303
 8807SOL    HW238055   3.047   0.414   5.674 -0.3929 -0.5153  1.2264
 8808SOL     OW38056   3.087   1.040   7.896 -0.4385  0.2939  0.2504
 8808SOL    HW138057   3.097   0.945   7.897 -0.5957  0.2678 -0.5175
 8808SOL    HW238058   3.167   1.082   7.865 -1.2846  0.6835 -1.4019
 8809SOL     OW38059   1.921   4.674   5.797 -0.0934 -0.1203 -0.1385
 8809SOL    HW138060   1.962   0.024   5.787  0.7424 -0.2805  1.8665
 8809SOL    HW238061   1.978   4.617   5.744 -0.0556 -1.1583  1.0169
 8810SOL     OW38062   4.007   1.075   5.415  0.1256  0.1980  0.2642
 8810SOL    HW138063   4.089   1.098   5.371  0.2571  1.8682  1.4052
 8810SOL    HW238064   4.035   1.016   5.486  0.6661 -0.5279 -0.5547
 8811SOL     OW38065   3.028   3.495   1.306  0.2625  0.4349 -0.0064
 8811SOL    HW138066   2.976   3.467   1.382 -1.4471 -0.3539 -1.4518
 8811SOL    HW238067   3.061   3.577   1.342  0.0700  1.1166 -1.3824
 8812SOL     OW38068   3.919   2.522  10.360  0.2617  0.3214  0.2552
 8812SOL    HW138069   3.908   2.616  10.374  1.6307  0.1533  2.4939
 8812SOL    HW238070   4.001   2.511  10.408  0.4062 -0.5610 -0.1797
 8813SOL     OW38071   3.708   1.113   8.827 -0.4339  0.2092  0.3912
 8813SOL    HW138072   3.770   1.180   8.797  2.5659 -2.2457  1.0863
 8813SOL    HW238073   3.765   1.046   8.864 -2.1527 -0.5103  1.7185
 8814SOL     OW38074   1.080   0.434   2.231  0.4867 -0.1484 -0.5295
 8814SOL    HW138075   1.148   0.448   2.297  3.7909 -0.3921 -3.8733
 8814SOL    HW238076   1.005   0.457   2.286  1.9666  2.9389  0.2098
 8815SOL     OW38077   1.827   4.183  13.044 -0.2661 -0.2894  0.3402
 8815SOL    HW138078   1.823   4.099  13.090 -1.4682 -0.1152  0.5469
 8815SOL    HW238079   1.912   4.211  13.078  0.5753 -0.0502 -1.9540
 8816SOL     OW38080   4.548   2.467   9.605  0.0017 -0.0756  0.1230
 8816SOL    HW138081   4.576   2.415   9.530 -0.1041 -0.2680  0.2191
 8816SOL    HW238082   4.544   2.400   9.673  2.6243 -0.6301 -0.2688
 8817SOL     OW38083   0.471   0.012   2.839 -0.0122  0.1976  0.8246
 8817SOL    HW138084   0.382   0.046   2.843 -0.3439 -0.3819 -1.7525
 8817SOL    HW238085   0.525   0.087   2.863 -0.1439  0.0129  1.7009
 8818SOL     OW38086   4.205   1.948   0.266 -0.5275  0.1993 -0.0546
 8818SOL    HW138087   4.154   2.016   0.310 -0.0148 -0.0600  0.9486
 8818SOL    HW238088   4.287   1.991   0.239  0.4918 -1.3558  0.5285
 8819SOL     OW38089   3.940   3.832   8.358 -0.5632  0.0666  0.0584
 8819SOL    HW138090   3.945   3.906   8.417 -1.3703  0.3902 -0.2668
 8819SOL    HW238091   4.007   3.856   8.295 -0.2753  0.6898  0.6126
 8820SOL     OW38092   1.830   0.636   7.657 -0.0305 -0.5807  0.1652
 8820SOL    HW138093   1.896   0.567   7.651  0.8347  0.2672 -0.0918
 8820SOL    HW238094   1.765   0.596   7.599  0.2695 -0.8973  0.0510
 8821SOL     OW38095   4.061   2.807  10.106 -0.0563  0.1541  0.0994
 8821SOL    HW138096   3.983   2.795  10.052  0.1149  0.7219 -0.2711
 8821SOL    HW238097   4.132   2.769  10.055  0.6551  1.3033  0.2180
 8822SOL     OW38098   3.832   0.038   8.158 -0.0820  0.2656 -0.3480
 8822SOL    HW138099   3.889   0.095   8.211 -0.0204 -0.8813  0.8327
 8822SOL    HW238100   3.894   4.708   8.126  0.7778 -0.4032  2.6735
 8823SOL     OW38101   1.183   1.372  10.287  0.0195  0.5652  0.4106
 8823SOL    HW138102   1.099   1.364  10.242 -0.1168 -1.2742  0.9979
 8823SOL    HW238103   1.215   1.459  10.264  0.5612  0.4849  0.8738
 8824SOL     OW38104   2.595   2.402  17.274 -0.1594  0.0655  0.6585
 8824SOL    HW138105   2.554   2.370  17.355 -1.0731  0.0683  0.1995
 8824SOL    HW238106   2.583   2.495  17.289  0.7368  0.1212  1.0060
 8825SOL     OW38107   2.308   0.260   2.163  0.4969  1.1042  0.0035
 8825SOL    HW138108   2.359   0.217   2.231  0.2249 -0.8809 -1.0280
 8825SOL    HW238109   2.301   0.348   2.198 -2.9629  0.2209  1.5835
 8826SOL     OW38110   4.570   0.035  15.103  0.2349  0.0414 -0.0954
 8826SOL    HW138111   4.550   0.057  15.193 -2.0495  0.9601 -0.8379
 8826SOL    HW238112   4.607   4.684  15.119  1.9215  0.8842  0.5620
 8827SOL     OW38113   0.252   3.551  10.198 -0.2405  0.5167  0.2090
 8827SOL    HW138114   0.202   3.630  10.177  2.1522  1.3598 -2.3534
 8827SOL    HW238115   0.282   3.579  10.284  1.0155 -0.9956  0.2677
 8828SOL     OW38116   3.488   4.041   4.873  0.1360 -0.3239 -0.3108
 8828SOL    HW138117   3.463   4.120   4.921  1.1967  0.4372 -0.9988
 8828SOL    HW238118   3.583   4.037   4.867  0.0896  1.4989 -2.4153
 8829SOL     OW38119   0.431   2.057  16.873  0.4450 -0.3706  0.8415
 8829SOL    HW138120   0.409   2.001  16.799  1.0474 -0.1737  0.5133
 8829SOL    HW238121   0.521   2.071  16.845  0.3698  0.1390  0.8565
 8830SOL     OW38122   2.654   3.381  11.044  0.2748 -0.6423  0.2027
 8830SOL    HW138123   2.648   3.427  10.960 -0.1644  3.2008  2.3450
 8830SOL    HW238124   2.570   3.399  11.086  0.3396 -0.4497  0.2511
 8831SOL     OW38125   0.617   1.290   4.301 -0.0968 -0.1617 -0.1475
 8831SOL    HW138126   0.617   1.217   4.238  0.2092 -0.7494  0.5310
 8831SOL    HW238127   0.575   1.361   4.254  0.0678  0.3298  0.4551
 8832SOL     OW38128   3.115   0.876  17.551  0.0599 -0.3556 -0.0528
 8832SOL    HW138129   3.060   0.817  17.499 -0.7611  0.1794  0.2147
 8832SOL    HW238130   3.059   0.904  17.623  1.6563  2.3080  0.1436
 8833SOL     OW38131   0.355   4.463  10.592  0.5372 -0.3565 -0.2071
 8833SOL    HW138132   0.295   4.524  10.549  0.0258 -0.2230  0.7020
 8833SOL    HW238133   0.307   4.434  10.669 -1.0313  0.1431 -0.9858
 8834SOL     OW38134   3.901   2.019   0.668  0.9871 -0.0475  0.1685
 8834SOL    HW138135   3.864   1.937   0.700  2.1852 -0.4107  0.6021
 8834SOL    HW238136   3.819   2.066   0.687  0.2386 -1.1641 -0.2887
 8835SOL     OW38137   2.164   0.373   1.181  0.2153  0.5893 -0.0251
 8835SOL    HW138138   2.205   0.382   1.267 -0.2664 -2.2244  0.4625
 8835SOL    HW238139   2.119   0.457   1.172 -2.3111 -0.5452  2.2562
 8836SOL     OW38140   0.974   1.139  16.070 -0.2212  0.1953 -0.3023
 8836SOL    HW138141   0.921   1.149  15.991 -1.3533  1.0217  0.5498
 8836SOL    HW238142   1.052   1.184  16.038 -0.2182 -2.5988 -4.0905
 8837SOL     OW38143   0.610   2.318  15.366  0.3232  0.0678 -0.3492
 8837SOL    HW138144   0.601   2.395  15.310  1.2821  0.8626  0.5954
 8837SOL    HW238145   0.699   2.298  15.337  0.4607 -0.0504  0.1578
 8838SOL     OW38146   3.077   0.776   4.434 -0.1861 -0.3627 -0.0535
 8838SOL    HW138147   3.131   0.818   4.501  1.1872 -0.3185 -1.1843
 8838SOL    HW238148   3.055   0.848   4.374  2.2433  1.2957  1.0675
 8839SOL     OW38149   2.222   2.289   6.232 -0.0720  0.3521 -0.0127
 8839SOL    HW138150   2.215   2.353   6.303  0.1055 -0.3141  0.6098
 8839SOL    HW238151   2.153   2.316   6.172  1.4425  1.4136 -1.2948
 8840SOL     OW38152   2.056   3.799   7.710  0.5765 -0.1487  0.0128
 8840SOL    HW138153   2.127   3.826   7.768 -1.5702  1.8242  1.7634
 8840SOL    HW238154   2.066   3.707   7.688 -0.2253 -0.3352  0.4099
 8841SOL     OW38155   2.832   1.060   3.254 -0.4470 -0.1182 -0.0690
 8841SOL    HW138156   2.916   1.019   3.236 -1.1896 -1.2591 -0.9820
 8841SOL    HW238157   2.842   1.142   3.204  0.6051  0.1153  0.5262
 8842SOL     OW38158   2.133   2.351   9.002 -0.3246  0.1389 -0.1184
 8842SOL    HW138159   2.154   2.263   9.033 -2.1979 -0.1310  0.4043
 8842SOL    HW238160   2.057   2.371   9.058 -0.7426 -1.2712 -0.1701
 8843SOL     OW38161   1.244   0.738   5.319 -0.4391 -0.1073 -0.0885
 8843SOL    HW138162   1.273   0.782   5.238  0.2478 -1.7485 -0.7328
 8843SOL    HW238163   1.152   0.722   5.298 -1.1079  1.6626  1.4882
 8844SOL     OW38164   2.799   3.602   1.650 -0.3699  1.0026 -0.2610
 8844SOL    HW138165   2.817   3.683   1.602 -1.0060  2.2693  1.6395
 8844SOL    HW238166   2.858   3.540   1.605 -2.7147 -0.8392 -0.7973
 8845SOL     OW38167   2.694   0.183   3.014  0.0052  0.6439  0.0109
 8845SOL    HW138168   2.618   0.125   3.011  0.4517 -0.0430  1.8490
 8845SOL    HW238169   2.722   0.168   2.924 -0.2314  0.9465 -0.1119
 8846SOL     OW38170   0.050   1.917   5.635 -0.4191 -0.4864  0.4850
 8846SOL    HW138171   0.088   1.850   5.579 -0.9921 -1.3002  1.0798
 8846SOL    HW238172   0.113   1.988   5.625  0.0052 -1.2116 -1.9607
 8847SOL     OW38173   4.520   2.534   3.594  0.3627 -0.1066  0.6971
 8847SOL    HW138174   4.553   2.451   3.559 -1.3942 -0.8955  0.9094
 8847SOL    HW238175   4.493   2.559   3.505  2.5004 -0.1143  0.0316
 8848SOL     OW38176   1.229   4.136  16.293 -0.1850 -0.2702  0.8288
 8848SOL    HW138177   1.207   4.045  16.312 -1.1136  0.0607  1.3597
 8848SOL    HW238178   1.275   4.162  16.373  0.5407  1.1800 -0.0527
 8849SOL     OW38179   0.634   0.534   2.401 -0.2508 -0.1022  0.2146
 8849SOL    HW138180   0.630   0.590   2.323  3.2562 -1.5933 -1.0570
 8849SOL    HW238181   0.572   0.579   2.458 -0.2363 -1.1441  1.0479
 8850SOL     OW38182   3.917   3.751   7.010 -0.1043  0.1026 -0.1359
 8850SOL    HW138183   3.970   3.808   7.067 -0.6696  1.0918 -0.6032
 8850SOL    HW238184   3.954   3.679   7.062 -2.2057 -0.1465  0.9901
 8851SOL     OW38185   4.340   2.506   0.408  0.1395  0.2756  0.2909
 8851SOL    HW138186   4.391   2.467   0.479 -0.3373 -0.5637  0.1694
 8851SOL    HW238187   4.388   2.471   0.333 -0.5928 -1.2974  0.5628
 8852SOL     OW38188   3.316   3.917  12.038  0.7634 -0.5186 -0.2708
 8852SOL    HW138189   3.308   3.855  12.111 -1.7639 -0.7733 -0.7367
 8852SOL    HW238190   3.238   3.898  11.986  0.3615  1.0986 -0.2772
 8853SOL     OW38191   3.418   3.505   5.119  0.0128  0.1997 -0.3808
 8853SOL    HW138192   3.470   3.510   5.200  2.1323  0.6165 -1.7857
 8853SOL    HW238193   3.349   3.442   5.134  0.9347 -1.1196 -1.7386
 8854SOL     OW38194   1.886   1.419   6.443 -0.3645 -0.3240  0.5319
 8854SOL    HW138195   1.973   1.454   6.464  0.8302 -2.9859 -0.0142
 8854SOL    HW238196   1.884   1.343   6.501 -1.0220 -0.2143  0.6430
 8855SOL     OW38197   4.253   2.959  12.782  0.0979  0.5361 -0.1363
 8855SOL    HW138198   4.193   3.034  12.779  1.2597  1.3313 -3.5798
 8855SOL    HW238199   4.297   3.003  12.855 -1.1528 -1.1713  1.6310
 8856SOL     OW38200   2.284   1.708   3.363  0.1801  0.4280 -0.0545
 8856SOL    HW138201   2.310   1.789   3.319  0.0595  0.8552  0.6676
 8856SOL    HW238202   2.254   1.749   3.444 -1.5873  0.4145 -0.7035
 8857SOL     OW38203   4.234   3.210   5.567 -0.3597 -0.7162 -0.1383
 8857SOL    HW138204   4.303   3.144   5.572  0.4443  0.1154 -0.3374
 8857SOL    HW238205   4.258   3.261   5.645  0.0999 -1.6212  0.3068
 8858SOL     OW38206   3.470   3.685   1.312  0.1104 -0.1903 -0.0028
 8858SOL    HW138207   3.503   3.598   1.336  1.5654  0.3078 -0.1932
 8858SOL    HW238208   3.430   3.664   1.228 -2.2971  0.8743  0.8888
 8859SOL     OW38209   0.414   2.435   7.719 -0.3729  0.2738  0.2748
 8859SOL    HW138210   0.431   2.509   7.662  0.0862  1.0373  1.4058
 8859SOL    HW238211   0.477   2.446   7.791  0.5537  1.2529 -0.6941
 8860SOL     OW38212   0.471   2.176   3.279  0.6328 -0.1225 -0.1859
 8860SOL    HW138213   0.428   2.261   3.290  1.1326 -0.0199  0.9607
 8860SOL    HW238214   0.403   2.112   3.296 -0.3565  0.9944  0.0882
 8861SOL     OW38215   4.703   1.437   7.476  0.2532  0.2668 -0.1254
 8861SOL    HW138216   4.617   1.421   7.515  0.6161  1.3981  1.1328
 8861SOL    HW238217   4.678   1.457   7.386  1.9532  1.9612 -0.2207
 8862SOL     OW38218   0.699   1.996   6.638 -0.1148 -0.3743  0.2164
 8862SOL    HW138219   0.735   2.012   6.725  2.4853 -4.1167 -0.1746
 8862SOL    HW238220   0.606   2.017   6.644 -0.1310 -0.0815 -0.9201
 8863SOL     OW38221   2.239   0.382  15.090 -0.0363 -0.1028 -0.1891
 8863SOL    HW138222   2.266   0.330  15.166  0.9051  0.6595 -0.0026
 8863SOL    HW238223   2.152   0.410  15.118  0.4676  2.0416 -0.7647
 8864SOL     OW38224   0.822   4.006  14.228  0.3123  0.2921  0.4736
 8864SOL    HW138225   0.770   4.007  14.148 -0.8302  1.6953  1.2382
 8864SOL    HW238226   0.759   4.039  14.292 -1.5536 -0.0037 -1.2219
 8865SOL     OW38227   2.631   1.333  15.132  0.0407 -0.3783 -0.1321
 8865SOL    HW138228   2.604   1.402  15.193  3.2669  0.1394  0.7375
 8865SOL    HW238229   2.556   1.313  15.076  2.4840 -0.4335 -3.3345
 8866SOL     OW38230   2.795   1.672   4.609  0.3435  0.2275  0.1324
 8866SOL    HW138231   2.841   1.595   4.577 -0.6194  0.1056 -0.9436
 8866SOL    HW238232   2.710   1.634   4.630  0.8481 -1.4382 -0.8647
 8867SOL     OW38233   2.503   3.370   2.828 -0.1513  0.1055  0.1040
 8867SOL    HW138234   2.500   3.434   2.900  0.2603  0.0323  0.1896
 8867SOL    HW238235   2.563   3.413   2.767 -1.0234 -2.3670 -2.4684
 8868SOL     OW38236   0.129   4.698   8.740  0.4502  0.0976 -0.2013
 8868SOL    HW138237   0.063   4.629   8.734 -1.6454  2.0679  0.1411
 8868SOL    HW238238   0.207   4.645   8.758  0.0305 -0.8206 -1.0950
 8869SOL     OW38239   1.752   1.335  16.841 -0.6900 -0.4183 -0.3544
 8869SOL    HW138240   1.662   1.356  16.868 -0.4925 -1.0894  0.8049
 8869SOL    HW238241   1.765   1.371  16.753  0.2217  0.2546  0.0516
 8870SOL     OW38242   3.997   2.158   5.869  0.6349  0.7788 -0.2680
 8870SOL    HW138243   4.080   2.197   5.896  1.3115 -0.2933 -0.7811
 8870SOL    HW238244   3.942   2.236   5.872 -0.6169 -0.1654  1.4015
 8871SOL     OW38245   3.982   4.337   4.936  0.1758 -0.3397  0.3840
 8871SOL    HW138246   4.052   4.377   4.987  0.9806 -1.7569  0.3970
 8871SOL    HW238247   3.962   4.411   4.879 -0.1575 -0.8029 -0.1044
 8872SOL     OW38248   0.034   0.213   1.858 -0.1719  0.5251  0.9473
 8872SOL    HW138249   0.121   0.223   1.820 -0.6949  0.9077 -0.1382
 8872SOL    HW238250   0.039   0.281   1.925 -2.2706  0.1780  1.4389
 8873SOL     OW38251   4.396   4.691  13.274 -0.4392 -0.2587  0.2072
 8873SOL    HW138252   4.360   0.035  13.235  0.5815  0.3270  0.4399
 8873SOL    HW238253   4.478   4.728  13.308  0.4674 -1.9976 -0.0770
 8874SOL     OW38254   0.141   3.935   1.766  0.3591  0.2264  0.0311
 8874SOL    HW138255   0.086   3.878   1.820 -0.4122 -0.4140 -1.4323
 8874SOL    HW238256   0.106   4.018   1.797 -1.5303  0.0645 -1.6660
 8875SOL     OW38257   3.471   1.259   6.746 -0.1281 -0.8751  0.2209
 8875SOL    HW138258   3.508   1.330   6.798 -3.2932  0.7254  0.3049
 8875SOL    HW238259   3.397   1.307   6.708  2.0300 -0.3512 -3.3090
 8876SOL     OW38260   3.138   4.160   3.680 -0.0697 -0.2058  0.2057
 8876SOL    HW138261   3.123   4.231   3.619  1.0027 -0.5354 -0.4423
 8876SOL    HW238262   3.138   4.203   3.765 -0.8289  1.0079 -0.4171
 8877SOL     OW38263   0.738   4.032   8.946  0.4402  0.2781 -0.3255
 8877SOL    HW138264   0.724   3.945   8.909  1.9246  0.3677 -1.0958
 8877SOL    HW238265   0.829   4.033   8.973  1.0410 -1.7605 -2.2908
 8878SOL     OW38266   1.724   3.851  14.635 -0.5444  0.0701 -0.0676
 8878SOL    HW138267   1.682   3.826  14.552  1.9158 -1.0575 -0.9563
 8878SOL    HW238268   1.767   3.931  14.606 -0.3190  0.1739  0.5528
 8879SOL     OW38269   2.394   1.826   9.424  0.2161 -0.4816  0.0354
 8879SOL    HW138270   2.355   1.859   9.505  0.6353  0.4798 -0.1523
 8879SOL    HW238271   2.448   1.753   9.455 -0.0539  0.0234  1.7094
 8880SOL     OW38272   2.413   3.806   5.886 -0.5915 -0.0910 -0.2070
 8880SOL    HW138273   2.368   3.773   5.963  1.9941  0.7394  1.6520
 8880SOL    HW238274   2.495   3.831   5.928 -0.9283  2.4076 -0.9843
 8881SOL     OW38275   0.635   2.401  16.971 -0.1241 -0.0032  0.1541
 8881SOL    HW138276   0.647   2.314  16.934  2.2919  0.5336 -0.2647
 8881SOL    HW238277   0.655   2.454  16.895 -1.3895  1.8756  1.1149
 8882SOL     OW38278   1.113   3.299   4.987 -0.0590  0.1197 -0.0969
 8882SOL    HW138279   1.170   3.309   5.064 -2.4040  1.7780  1.4136
 8882SOL    HW238280   1.036   3.344   5.020  1.0332  2.4231 -0.6645
 8883SOL     OW38281   2.104   3.136   2.276 -0.3866  0.3855 -0.7102
 8883SOL    HW138282   2.198   3.129   2.295 -0.0284  2.6115 -1.6932
 8883SOL    HW238283   2.060   3.193   2.339  1.4771 -0.4724  1.4143
 8884SOL     OW38284   4.589   1.557   8.825 -0.1589  0.0838  0.1510
 8884SOL    HW138285   4.641   1.488   8.867 -0.3132 -0.5769 -0.7280
 8884SOL    HW238286   4.506   1.539   8.870 -0.4346 -2.5848 -1.3888
 8885SOL     OW38287   0.877   2.092   5.279 -0.3325 -0.5161 -0.2452
 8885SOL    HW138288   0.939   2.019   5.281  0.1686 -0.0348  1.3687
 8885SOL    HW238289   0.906   2.156   5.345  0.1641  0.0216 -0.9802
 8886SOL     OW38290   1.101   4.113   2.709 -0.1001 -0.3258 -0.3536
 8886SOL    HW138291   1.042   4.185   2.733  2.0080  1.0990  0.5105
 8886SOL    HW238292   1.076   4.046   2.774 -1.3282 -2.6351 -3.2059
 8887SOL     OW38293   2.987   3.884   3.569  0.0348  0.0967  0.3354
 8887SOL    HW138294   2.955   3.937   3.495  0.6032  1.3428  0.9896
 8887SOL    HW238295   2.916   3.823   3.590  0.7871 -1.0671 -0.4903
 8888SOL     OW38296   3.211   1.248   2.088  0.8008  0.1380  0.1079
 8888SOL    HW138297   3.285   1.305   2.110  0.5185  0.6941 -0.3779
 8888SOL    HW238298   3.237   1.221   2.000  1.1668 -0.0311  0.2674
 8889SOL     OW38299   1.099   2.180   6.506 -0.1128 -0.0749  0.0782
 8889SOL    HW138300   1.070   2.176   6.415 -0.8984  1.0590  0.2787
 8889SOL    HW238301   1.025   2.220   6.552 -0.3709  0.4020 -0.7523
 8890SOL     OW38302   0.651   1.780  10.724 -0.4790 -0.8553  0.1310
 8890SOL    HW138303   0.729   1.730  10.745  1.0519  0.7283 -1.7588
 8890SOL    HW238304   0.605   1.717  10.669 -0.0844 -0.9618 -0.0776
 8891SOL     OW38305   2.563   2.793   4.932  0.4655  0.2712  0.3449
 8891SOL    HW138306   2.491   2.785   4.870 -0.5769  2.3573  1.3091
 8891SOL    HW238307   2.633   2.813   4.870  2.0166  2.4821  2.7712
 8892SOL     OW38308   2.106   0.612   6.563  0.8649 -0.0500  0.1636
 8892SOL    HW138309   2.047   0.650   6.498  0.9353  1.3074  0.9025
 8892SOL    HW238310   2.121   0.694   6.610  0.2824  0.2822 -0.2285
 8893SOL     OW38311   4.569   3.362  17.587 -0.6554 -0.2161  0.0119
 8893SOL    HW138312   4.523   3.412  17.520  1.2240  0.8565 -0.4711
 8893SOL    HW238313   4.622   3.301  17.535  0.3554 -1.0899  2.0704
 8894SOL     OW38314   2.874   3.763  12.850  0.3393  0.6745  0.3324
 8894SOL    HW138315   2.949   3.792  12.798  0.1688  0.4259 -0.0584
 8894SOL    HW238316   2.862   3.842  12.902 -2.8647 -0.2296  0.9802
 8895SOL     OW38317   1.372   1.471   7.141  0.9185  0.6378  0.6658
 8895SOL    HW138318   1.396   1.511   7.057 -1.9082 -1.0362 -0.9198
 8895SOL    HW238319   1.459   1.460   7.181  1.2316  0.5707 -0.0290
 8896SOL     OW38320   2.190   3.110  15.436  0.2077  0.6515  0.2771
 8896SOL    HW138321   2.227   3.030  15.399 -0.5619 -0.1767  1.3144
 8896SOL    HW238322   2.236   3.173  15.380 -1.1313  1.6831  0.3200
 8897SOL     OW38323   2.178   3.086   0.956  0.0519 -0.2220  0.0659
 8897SOL    HW138324   2.129   3.164   0.982 -0.1750 -0.7054  1.0793
 8897SOL    HW238325   2.189   3.044   1.041  0.7331 -0.7067 -0.2688
 8898SOL     OW38326   1.444   1.979   3.437 -0.0552 -1.5004 -0.1156
 8898SOL    HW138327   1.439   2.032   3.516 -1.0509 -0.9472 -0.5436
 8898SOL    HW238328   1.489   2.039   3.377  0.8876 -1.8092  0.2839
 8899SOL     OW38329   3.929   3.155  14.950  0.3615 -0.2026  0.6882
 8899SOL    HW138330   3.867   3.226  14.966 -1.4753 -1.4464 -0.8591
 8899SOL    HW238331   3.882   3.080  14.986  0.3593 -1.4746 -1.9755
 8900SOL     OW38332   0.775   1.279   3.262 -0.0722 -0.1827 -0.2404
 8900SOL    HW138333   0.811   1.364   3.289  1.4607  0.0689 -3.1105
 8900SOL    HW238334   0.736   1.304   3.178  1.0617  0.0032 -0.7078
 8901SOL     OW38335   3.456   1.011   4.760 -0.9883 -0.0710 -0.0336
 8901SOL    HW138336   3.439   1.090   4.811 -0.7011 -0.7416  1.1097
 8901SOL    HW238337   3.496   0.949   4.821  0.6541  0.2464 -0.7744
 8902SOL     OW38338   4.719   3.934   9.360  0.1869 -0.2149 -0.5000
 8902SOL    HW138339   0.036   3.856   9.345  0.5838  0.2994 -1.7730
 8902SOL    HW238340   4.671   3.904   9.437 -0.7207  0.2998 -0.8633
 8903SOL     OW38341   2.961   0.887  11.750 -0.0665 -0.8076 -0.0784
 8903SOL    HW138342   2.941   0.952  11.683 -0.7644 -0.5123  0.4143
 8903SOL    HW238343   2.940   0.944  11.824  1.0587 -1.2089  0.5469
 8904SOL     OW38344   3.278   0.065   4.924 -0.6373 -0.3862  0.3443
 8904SOL    HW138345   3.240   0.150   4.946  1.3782 -0.0679  2.6425
 8904SOL    HW238346   3.367   0.101   4.920 -0.7381 -0.1496  0.2387
 8905SOL     OW38347   1.027   1.260  14.237  0.2640 -0.3146  0.1751
 8905SOL    HW138348   0.958   1.322  14.212  0.3258  0.1018  1.0287
 8905SOL    HW238349   1.053   1.227  14.151 -1.8246  0.6475 -0.8147
 8906SOL     OW38350   3.725   2.677   8.783 -0.3800 -0.1839 -0.1345
 8906SOL    HW138351   3.654   2.670   8.720  0.4305  0.7325 -1.1567
 8906SOL    HW238352   3.786   2.607   8.758  0.7690  0.4110  0.9839
 8907SOL     OW38353   3.692   2.979   2.824 -0.4539  0.0277  0.4439
 8907SOL    HW138354   3.602   2.999   2.798 -0.5145  0.7702  1.2247
 8907SOL    HW238355   3.717   3.044   2.889 -0.1232 -0.2857  0.6317
 8908SOL     OW38356   2.030   0.277   3.232  0.1606 -0.5667 -0.4370
 8908SOL    HW138357   2.033   0.368   3.263  1.6941 -0.6967 -0.2136
 8908SOL    HW238358   2.123   0.262   3.220  0.6401  1.9615  0.1374
 8909SOL     OW38359   4.165   4.230   3.568 -0.0302  0.7543 -0.0986
 8909SOL    HW138360   4.099   4.267   3.510  0.9618  2.5096 -0.1279
 8909SOL    HW238361   4.122   4.149   3.594  0.7702  0.1824 -0.5547
 8910SOL     OW38362   1.574   0.201   5.286 -0.4252  0.1267 -0.5747
 8910SOL    HW138363   1.613   0.285   5.309  0.1417  0.0584 -1.2723
 8910SOL    HW238364   1.653   0.152   5.263 -1.5188 -0.9455 -2.0994
 8911SOL     OW38365   1.392   1.387  15.159 -0.0813  0.0358 -0.0570
 8911SOL    HW138366   1.483   1.375  15.131 -0.3681 -1.0782 -0.5299
 8911SOL    HW238367   1.377   1.460  15.099 -0.5877 -0.7439 -0.8798
 8912SOL     OW38368   2.574   0.829  12.704  0.0151 -0.0466 -0.1284
 8912SOL    HW138369   2.565   0.759  12.768  0.0613  1.0915  1.1243
 8912SOL    HW238370   2.565   0.781  12.621 -0.5463 -1.3925  0.7070
 8913SOL     OW38371   1.621   0.946   8.576  0.2233  0.0115 -0.1104
 8913SOL    HW138372   1.671   1.025   8.554  1.6238 -0.5851  0.8937
 8913SOL    HW238373   1.685   0.908   8.636 -0.7078 -0.1241  0.8106
 8914SOL     OW38374   2.096   3.191  15.096 -0.2053  0.2414 -0.0321
 8914SOL    HW138375   2.126   3.134  15.025  0.1250  0.0089  0.2962
 8914SOL    HW238376   2.022   3.148  15.140 -1.9847  0.2488 -3.0736
 8915SOL     OW38377   0.795   0.734  10.783 -0.1374  0.1069 -0.0148
 8915SOL    HW138378   0.787   0.790  10.706  1.3007 -1.1689 -1.1002
 8915SOL    HW238379   0.861   0.671  10.752 -1.1177  0.3199 -2.4989
 8916SOL     OW38380   0.406   3.433  10.888  0.1539  0.3302 -0.2022
 8916SOL    HW138381   0.323   3.390  10.868  0.7263 -1.4171  1.2172
 8916SOL    HW238382   0.388   3.496  10.958  1.0028 -0.9343  1.1495
 8917SOL     OW38383   4.189   4.197   5.238  0.7457  0.4052  0.1793
 8917SOL    HW138384   4.161   4.280   5.199 -1.0683 -0.9116 -1.3335
 8917SOL    HW238385   4.267   4.192   5.182  1.3103  2.4022  0.7887
 8918SOL     OW38386   3.493   3.657   1.772 -0.5278 -0.2295  0.2327
 8918SOL    HW138387   3.531   3.569   1.774  0.4079  0.1409 -1.1161
 8918SOL    HW238388   3.513   3.677   1.863 -0.4875 -2.1764  0.6530
 8919SOL     OW38389   2.476   3.345   0.844  0.1533 -0.1758  0.2906
 8919SOL    HW138390   2.475   3.341   0.939 -2.7239 -0.1157  0.2782
 8919SOL    HW238391   2.556   3.395   0.832  0.2621 -0.3006  0.5083
 8920SOL     OW38392   0.531   4.603   5.425  0.1038 -0.2951 -0.2515
 8920SOL    HW138393   0.463   4.670   5.433  1.0045  0.6911 -0.8714
 8920SOL    HW238394   0.509   4.528   5.481  1.5343 -1.0467 -0.6937
 8921SOL     OW38395   3.260   4.423   1.950 -0.9616  0.2311  0.0747
 8921SOL    HW138396   3.293   4.447   2.037 -0.9455 -0.4763  0.2598
 8921SOL    HW238397   3.200   4.351   1.970 -0.6879 -0.9041 -3.3607
 8922SOL     OW38398   4.045   3.121  12.032  0.2573 -0.0771  0.9522
 8922SOL    HW138399   3.996   3.136  12.112  0.0215 -1.8997  1.1618
 8922SOL    HW238400   3.986   3.152  11.963 -0.1126 -3.3210 -0.2035
 8923SOL     OW38401   0.875   2.238  16.082 -0.0433 -0.2724 -0.2951
 8923SOL    HW138402   0.902   2.146  16.075  2.1169  0.4028 -0.7945
 8923SOL    HW238403   0.947   2.266  16.137  1.9259 -1.5679 -2.1836
 8924SOL     OW38404   0.924   1.797   6.184  0.0820 -0.9929 -0.3583
 8924SOL    HW138405   0.884   1.884   6.180 -0.2441 -1.1308 -0.0913
 8924SOL    HW238406   0.926   1.786   6.089 -0.4589  1.9185 -0.7104
 8925SOL     OW38407   2.361   0.368   8.024  0.0712 -0.1188 -0.4761
 8925SOL    HW138408   2.380   0.445   8.077  1.4455 -0.8852  0.1482
 8925SOL    HW238409   2.307   0.418   7.962 -1.7451 -1.4031  0.0873
 8926SOL     OW38410   1.794   3.258   1.096 -0.0777 -0.5080 -0.2198
 8926SOL    HW138411   1.767   3.229   1.183  0.2651  2.6146  0.9317
 8926SOL    HW238412   1.781   3.175   1.051 -1.3223 -0.0006 -0.8248
 8927SOL     OW38413   4.509   1.808   7.895 -0.1487 -0.0006  0.0674
 8927SOL    HW138414   4.470   1.874   7.837 -1.1305 -0.1942  0.5047
 8927SOL    HW238415   4.461   1.827   7.976  0.4641  0.4456  0.3267
 8928SOL     OW38416   3.972   1.441   8.508 -0.6655  0.0529  0.0755
 8928SOL    HW138417   4.013   1.435   8.422  1.5210 -2.5828  1.2879
 8928SOL    HW238418   3.925   1.358   8.519  1.7325 -1.1669  1.2240
 8929SOL     OW38419   0.476   4.373   8.328 -0.0849  0.2407 -0.4489
 8929SOL    HW138420   0.389   4.406   8.353  0.4724  0.1728  1.4910
 8929SOL    HW238421   0.538   4.423   8.381  1.2980 -1.6780 -0.2955
 8930SOL     OW38422   4.420   3.400   4.306  0.2268  0.7962  0.2228
 8930SOL    HW138423   4.451   3.491   4.304 -1.2715  1.3220  0.8854
 8930SOL    HW238424   4.352   3.406   4.373  0.2373  0.6279  0.2463
 8931SOL     OW38425   4.301   3.367   5.766  0.1970 -0.0217 -0.4383
 8931SOL    HW138426   4.228   3.427   5.784  1.0626  1.0100 -0.3826
 8931SOL    HW238427   4.327   3.350   5.856 -0.0626 -0.1176 -0.3796
 8932SOL     OW38428   3.385   3.257   6.849 -0.2831  0.1277 -0.2501
 8932SOL    HW138429   3.313   3.319   6.839 -0.3374 -0.1501 -1.5581
 8932SOL    HW238430   3.334   3.178   6.864 -0.0378 -0.1373 -0.8191
 8933SOL     OW38431   0.024   0.180   8.856  0.5460  0.2258  0.5255
 8933SOL    HW138432   0.056   0.106   8.804 -1.9139  0.8547 -1.8760
 8933SOL    HW238433   0.097   0.242   8.858  1.1209 -0.3666 -3.1368
 8934SOL     OW38434   2.132   2.071   9.034  0.4893  0.4744  0.3655
 8934SOL    HW138435   2.107   1.994   9.085 -0.8752  0.4621 -0.3117
 8934SOL    HW238436   2.089   2.058   8.950 -3.2589  0.7972  2.2056
 8935SOL     OW38437   4.168   0.753  12.029 -0.8644  0.1747  0.5307
 8935SOL    HW138438   4.190   0.679  11.973 -2.4022  1.7641 -2.1579
 8935SOL    HW238439   4.162   0.709  12.114  2.9964  1.2333  1.3456
 8936SOL     OW38440   4.526   4.511  12.907  0.4052 -0.5423  0.0747
 8936SOL    HW138441   4.547   4.521  12.814 -0.5970 -1.1440 -0.2243
 8936SOL    HW238442   4.430   4.518  12.908  0.4385  0.1187 -0.8089
 8937SOL     OW38443   1.655   2.155  12.306  0.1998 -0.4896 -0.3280
 8937SOL    HW138444   1.724   2.173  12.371 -0.9715 -1.4844  1.1828
 8937SOL    HW238445   1.681   2.204  12.227 -0.3799  0.6296  0.1699
 8938SOL     OW38446   4.692   3.185  16.689  0.1149 -0.3845 -0.4127
 8938SOL    HW138447   4.676   3.118  16.755 -0.9462 -0.0617 -0.3392
 8938SOL    HW238448   4.667   3.267  16.734 -2.9133 -1.8890  0.6732
 8939SOL     OW38449   3.592   2.588   4.077 -0.2702  0.0118  0.1861
 8939SOL    HW138450   3.563   2.503   4.044 -1.1352  0.3972 -0.0569
 8939SOL    HW238451   3.592   2.641   3.997  4.7823 -1.2020 -0.6147
 8940SOL     OW38452   4.239   4.451   9.048  0.0279 -1.1423 -0.0706
 8940SOL    HW138453   4.271   4.362   9.032  3.8720  0.3224 -0.3411
 8940SOL    HW238454   4.184   4.433   9.124  0.2661 -1.9984 -0.1034
 8941SOL     OW38455   0.359   0.896   4.768  0.1560  0.1191 -0.2119
 8941SOL    HW138456   0.319   0.872   4.852 -0.0434 -3.9850 -1.4746
 8941SOL    HW238457   0.411   0.971   4.797  2.0982 -1.1448 -0.4280
 8942SOL     OW38458   3.597   3.778   3.262 -0.1113 -0.1827  0.0910
 8942SOL    HW138459   3.559   3.845   3.205  3.3487  0.5574 -1.3067
 8942SOL    HW238460   3.521   3.721   3.274 -1.1042  0.3547 -3.5608
 8943SOL     OW38461   1.264   2.705   4.545  0.3760  0.1148  0.3826
 8943SOL    HW138462   1.214   2.629   4.577  0.2876  0.1410  0.3091
 8943SOL    HW238463   1.202   2.754   4.491 -0.5835  2.6548  3.7907
 8944SOL     OW38464   0.729   0.807   2.304  0.1013  0.2208 -0.2472
 8944SOL    HW138465   0.765   0.767   2.383 -2.4324 -0.0547  0.7769
 8944SOL    HW238466   0.721   0.897   2.337 -1.5401 -0.0857  0.1924
 8945SOL     OW38467   1.566   3.267   3.713 -0.4069 -0.2994  0.1003
 8945SOL    HW138468   1.655   3.230   3.713  0.5726  2.0268 -2.3955
 8945SOL    HW238469   1.516   3.186   3.706  0.2431 -0.7520  0.6859
 8946SOL     OW38470   2.943   1.429   4.834 -0.1419 -0.0776  0.3666
 8946SOL    HW138471   2.936   1.444   4.928  2.4261  1.1782  0.3411
 8946SOL    HW238472   2.853   1.437   4.801  0.3914  2.0676 -0.5731
 8947SOL     OW38473   2.486   3.726   6.452 -0.1483  0.0042 -0.1100
 8947SOL    HW138474   2.528   3.662   6.509  0.5189 -1.2254 -1.9679
 8947SOL    HW238475   2.422   3.668   6.409 -1.5541  1.1300  0.4678
 8948SOL     OW38476   1.117   4.182   5.592  0.8534 -0.6120 -0.2349
 8948SOL    HW138477   1.056   4.138   5.534 -0.8973 -0.2187  1.3247
 8948SOL    HW238478   1.171   4.229   5.529  1.7165 -0.6166  0.4850
 8949SOL     OW38479   1.610   0.297   4.976 -0.0249  0.2595 -0.7349
 8949SOL    HW138480   1.618   0.215   4.927 -0.9549 -0.7169  0.7703
 8949SOL    HW238481   1.687   0.300   5.033 -0.0230  2.2446 -0.8197
 8950SOL     OW38482   1.878   4.187   9.765  0.3209  0.1052 -0.4363
 8950SOL    HW138483   1.891   4.158   9.675 -3.0350  0.8444 -1.1632
 8950SOL    HW238484   1.783   4.184   9.775  0.5235  1.6479  2.0928
 8951SOL     OW38485   3.652   3.489   7.766 -0.2734 -0.6409  0.1862
 8951SOL    HW138486   3.593   3.448   7.703 -1.9787  0.9641  0.7238
 8951SOL    HW238487   3.601   3.568   7.786  0.4532  0.1716 -1.1239
 8952SOL     OW38488   3.115   2.074   7.167  0.6160 -0.5830 -0.2802
 8952SOL    HW138489   3.152   2.007   7.110 -0.1258  0.1458 -1.6001
 8952SOL    HW238490   3.021   2.068   7.152  1.0804 -1.6825 -2.6782
 8953SOL     OW38491   3.428   1.774   1.728 -0.3680  0.2345  0.1938
 8953SOL    HW138492   3.389   1.710   1.787 -0.9362  0.7605  0.3840
 8953SOL    HW238493   3.519   1.771   1.757 -0.3704  1.4185  0.3075
 8954SOL     OW38494   3.546   3.231  14.669 -0.8219  0.3917 -0.5780
 8954SOL    HW138495   3.507   3.181  14.740  0.7035 -1.0625 -0.7886
 8954SOL    HW238496   3.493   3.312  14.669  1.2580  1.7522 -0.7067
 8955SOL     OW38497   2.301   0.700   6.117 -0.8819  0.4995  0.7449
 8955SOL    HW138498   2.316   0.706   6.211 -0.3337 -1.0294  0.7489
 8955SOL    HW238499   2.227   0.640   6.117 -0.2875 -0.2318  0.2257
 8956SOL     OW38500   2.326   2.103   0.634  0.2523 -0.1360  0.2540
 8956SOL    HW138501   2.378   2.069   0.707 -0.3291  2.1255  1.7184
 8956SOL    HW238502   2.337   2.193   0.666  0.1541 -0.0733  0.1089
 8957SOL     OW38503   1.411   3.276   6.680 -0.3046 -0.0559  0.3964
 8957SOL    HW138504   1.495   3.235   6.658 -0.7720 -2.1263  2.4019
 8957SOL    HW238505   1.410   3.280   6.775  0.8577 -2.3015  0.5052
 8958SOL     OW38506   1.376   2.551  15.773  0.4615 -0.1477  0.2150
 8958SOL    HW138507   1.290   2.534  15.735  1.2270  0.3429 -1.7374
 8958SOL    HW238508   1.385   2.646  15.784 -0.8128 -0.0509  0.3793
 8959SOL     OW38509   4.575   0.044   7.209  0.3759  0.3194 -0.0159
 8959SOL    HW138510   4.577   4.733   7.125 -0.4614 -0.9283  0.6691
 8959SOL    HW238511   4.667   0.043   7.237 -0.1632 -2.1684  1.6716
 8960SOL     OW38512   0.997   1.512   5.519  0.5654 -0.2418 -0.5629
 8960SOL    HW138513   0.946   1.447   5.567  2.6875  0.0545  2.1222
 8960SOL    HW238514   1.031   1.453   5.451 -0.6495  0.9702 -2.2212
 8961SOL     OW38515   4.519   3.292   5.218 -0.1118  0.0399  0.1766
 8961SOL    HW138516   4.607   3.255   5.232 -0.1904 -0.0286  0.4771
 8961SOL    HW238517   4.490   3.222   5.160 -0.0378 -0.4943  0.7847
 8962SOL     OW38518   2.125   2.499   5.737  0.2678  0.2984  0.2349
 8962SOL    HW138519   2.202   2.521   5.685  0.8689 -0.1819  0.9287
 8962SOL    HW238520   2.076   2.581   5.747 -0.4904  0.0497 -1.5459
 8963SOL     OW38521   1.302   2.082  12.871  0.3247  0.2342 -0.3488
 8963SOL    HW138522   1.265   2.022  12.807 -2.3470  1.1169  0.4010
 8963SOL    HW238523   1.278   2.170  12.844 -2.2295  0.1317  1.5833
 8964SOL     OW38524   1.017   3.075   4.905 -0.0286  0.2972 -0.1522
 8964SOL    HW138525   1.073   3.150   4.924  0.1460 -0.4422  2.3170
 8964SOL    HW238526   0.978   3.068   4.992  1.5108 -1.9474  0.3546
 8965SOL     OW38527   4.638   4.614   9.665  0.1682 -0.2755 -0.7523
 8965SOL    HW138528   4.648   4.526   9.701  0.4540 -0.0739 -0.3363
 8965SOL    HW238529   4.699   4.656   9.726 -1.0582 -0.3523  0.5403
 8966SOL     OW38530   3.179   4.510   8.309 -0.1353 -0.6241  0.0523
 8966SOL    HW138531   3.208   4.596   8.340  1.1111 -0.0418 -2.7679
 8966SOL    HW238532   3.137   4.529   8.225  0.3590  0.1546 -0.0135
 8967SOL     OW38533   1.686   1.567   8.602 -0.3446 -0.4512 -0.6080
 8967SOL    HW138534   1.758   1.616   8.562  0.2219 -0.2367  0.6524
 8967SOL    HW238535   1.611   1.591   8.548 -0.4634 -1.1403 -0.7457
 8968SOL     OW38536   4.122   1.926   2.329 -0.0700 -0.0390 -0.2594
 8968SOL    HW138537   4.172   1.985   2.272 -0.4728 -0.0817 -0.6501
 8968SOL    HW238538   4.035   1.964   2.332  0.6040  1.4235  0.7375
 8969SOL     OW38539   3.581   0.728   5.192  0.3145  0.2378 -0.3246
 8969SOL    HW138540   3.636   0.803   5.217 -2.7532  2.5356 -0.5638
 8969SOL    HW238541   3.520   0.723   5.265  0.6659 -2.5638 -0.2204
 8970SOL     OW38542   3.882   0.269   3.164  0.2484  0.4413 -0.3838
 8970SOL    HW138543   3.928   0.276   3.080  3.0997  0.9421  1.2217
 8970SOL    HW238544   3.945   0.291   3.233 -1.1578  1.1667  0.6468
 8971SOL     OW38545   0.233   1.852   6.405 -0.1119  0.4833  0.0837
 8971SOL    HW138546   0.292   1.923   6.383 -0.6781  0.4367 -1.5596
 8971SOL    HW238547   0.248   1.839   6.499 -2.7930 -0.4881  0.3860
 8972SOL     OW38548   2.806   2.487   2.195  0.7087  0.2244 -0.4428
 8972SOL    HW138549   2.856   2.564   2.222  0.3061 -0.6811  2.9136
 8972SOL    HW238550   2.749   2.521   2.125  0.3337  0.9921  0.2240
 8973SOL     OW38551   0.123   4.400  13.474  0.0532 -0.3091  0.2923
 8973SOL    HW138552   0.133   4.343  13.398 -0.7262  1.1489 -0.9016
 8973SOL    HW238553   0.067   4.473  13.449  1.8816  0.2864 -2.1187
 8974SOL     OW38554   3.961   4.168   3.915  0.0081  1.3460 -0.2955
 8974SOL    HW138555   3.882   4.210   3.948  1.1020  3.9168 -0.9504
 8974SOL    HW238556   4.035   4.228   3.922 -1.1775  2.9242 -1.3903
 8975SOL     OW38557   3.163   3.388   5.151 -0.6037  0.3547  0.0126
 8975SOL    HW138558   3.086   3.426   5.193 -0.1849  1.9784 -0.6707
 8975SOL    HW238559   3.133   3.345   5.072  0.9484 -0.0181 -0.3743
 8976SOL     OW38560   2.463   4.575   1.938  0.1117 -0.1665  0.0077
 8976SOL    HW138561   2.471   4.535   1.852 -0.9987 -1.6544  0.6031
 8976SOL    HW238562   2.485   4.503   1.997 -0.2505 -2.5515 -2.7812
 8977SOL     OW38563   4.242   4.107  14.315  0.3602 -0.3643  0.0958
 8977SOL    HW138564   4.294   4.127  14.392  1.3585 -0.1895 -0.6208
 8977SOL    HW238565   4.151   4.101  14.344 -0.0400  1.6999 -0.7466
 8978SOL     OW38566   0.636   3.683   4.293 -0.3319  0.0221 -0.1644
 8978SOL    HW138567   0.553   3.715   4.258 -0.4673 -0.6431 -0.4570
 8978SOL    HW238568   0.652   3.616   4.227 -0.1474 -0.3555  0.2616
 8979SOL     OW38569   2.996   3.573  13.403  0.0498 -0.0037  0.1931
 8979SOL    HW138570   3.070   3.624  13.370  1.3133 -1.6006  0.5886
 8979SOL    HW238571   3.029   3.558  13.491  0.3603 -1.6887 -0.2124
 8980SOL     OW38572   4.339   2.726   4.100  0.0155  0.1805  0.1856
 8980SOL    HW138573   4.324   2.785   4.026  1.5311  0.5148  0.1475
 8980SOL    HW238574   4.293   2.776   4.166 -1.1863  0.8488 -1.1556
 8981SOL     OW38575   3.197   1.919   2.298 -0.5630  0.5260 -0.1684
 8981SOL    HW138576   3.190   1.977   2.222  2.7788 -0.5799 -1.3420
 8981SOL    HW238577   3.245   1.841   2.269 -1.1330 -0.9031  2.7497
 8982SOL     OW38578   2.915   3.399  12.171 -0.9715 -0.0867  0.5634
 8982SOL    HW138579   2.858   3.324  12.181  0.5932 -1.4865 -1.0022
 8982SOL    HW238580   2.850   3.457  12.209 -0.4715  0.3678  0.7263
 8983SOL     OW38581   1.597   0.422   4.573  0.5114 -0.8614  0.0335
 8983SOL    HW138582   1.569   0.435   4.664 -0.6079 -1.5872 -0.2052
 8983SOL    HW238583   1.587   0.328   4.556 -1.2053 -0.8377  0.8961
 8984SOL     OW38584   1.546   3.499   9.077 -0.3139 -0.1167 -0.0727
 8984SOL    HW138585   1.617   3.549   9.036 -0.2324 -2.6548 -3.0877
 8984SOL    HW238586   1.470   3.547   9.046 -2.0808 -2.4523  0.6401
 8985SOL     OW38587   2.555   0.453   9.836  0.0604 -0.5624  0.1517
 8985SOL    HW138588   2.554   0.525   9.899 -1.8480 -0.1644 -0.3254
 8985SOL    HW238589   2.556   0.381   9.899 -0.2457  1.2320  2.2146
 8986SOL     OW38590   1.245   2.452  10.907 -0.0338 -0.2492  0.4934
 8986SOL    HW138591   1.202   2.370  10.882  0.7231 -0.3431 -0.4741
 8986SOL    HW238592   1.195   2.508  10.849 -0.0992 -0.6703  0.1409
 8987SOL     OW38593   0.868   3.686   5.662 -0.2117 -0.9149 -0.0845
 8987SOL    HW138594   0.774   3.699   5.653  0.0752  0.2021 -1.6441
 8987SOL    HW238595   0.865   3.641   5.746  0.3626  0.0192  0.4379
 8988SOL     OW38596   4.439   1.211  14.686  0.2066 -0.6400  0.4386
 8988SOL    HW138597   4.464   1.149  14.618  0.7214 -1.8746  1.7509
 8988SOL    HW238598   4.489   1.290  14.662 -1.3071  0.2535  0.2616
 8989SOL     OW38599   1.420   0.616   1.759  0.2063 -0.0349 -0.4330
 8989SOL    HW138600   1.436   0.535   1.710  3.4195  2.0944 -2.9443
 8989SOL    HW238601   1.324   0.613   1.766  0.1382  1.2707 -0.7672
 8990SOL     OW38602   1.975   0.698   4.566  0.0948 -0.2055  0.3673
 8990SOL    HW138603   1.991   0.748   4.646  0.4689  0.0086  0.1622
 8990SOL    HW238604   1.881   0.714   4.554 -0.3947 -1.3447  2.7080
 8991SOL     OW38605   4.166   3.232  14.185 -0.1212 -0.1778 -0.8169
 8991SOL    HW138606   4.230   3.203  14.251 -0.8655 -0.0333 -0.0312
 8991SOL    HW238607   4.087   3.230  14.240  0.3709  2.0229 -0.0629
 8992SOL     OW38608   0.874   2.106   2.831  0.3437 -0.3701  0.0581
 8992SOL    HW138609   0.887   2.050   2.908 -2.0270 -1.7067 -0.5041
 8992SOL    HW238610   0.822   2.171   2.879 -1.6837 -1.3613 -0.7988
 8993SOL     OW38611   2.159   0.559   4.429  0.2502 -0.1070 -0.0359
 8993SOL    HW138612   2.117   0.608   4.500  3.2673  3.2612 -0.5634
 8993SOL    HW238613   2.079   0.517   4.396 -1.2282  0.3375  3.0233
 8994SOL     OW38614   1.570   3.567   6.651  0.0856 -0.2035  0.6523
 8994SOL    HW138615   1.617   3.549   6.732 -0.4969  0.7722  1.2182
 8994SOL    HW238616   1.621   3.642   6.618  2.1807 -2.9230 -2.2119
 8995SOL     OW38617   2.685   1.845   2.963  0.4516  0.3566  0.2182
 8995SOL    HW138618   2.684   1.886   3.049  2.7180 -0.3636  0.5841
 8995SOL    HW238619   2.730   1.762   2.981 -2.8019 -1.4287  0.0612
 8996SOL     OW38620   3.936   0.297   1.058 -0.6169 -0.3206  0.3101
 8996SOL    HW138621   3.862   0.324   1.003 -1.0568  0.6648  1.3910
 8996SOL    HW238622   3.895   0.212   1.073  0.6980 -1.0708 -0.3531
 8997SOL     OW38623   2.631   2.202   3.790  0.1957 -0.6423 -0.0448
 8997SOL    HW138624   2.634   2.214   3.695  0.2299 -1.6962 -0.1670
 8997SOL    HW238625   2.552   2.148   3.799 -0.6061  0.3693 -1.0698
 8998SOL     OW38626   3.558   0.630   0.082 -0.1536 -0.1946 -0.4701
 8998SOL    HW138627   3.618   0.690   0.038  1.7036 -0.7598  1.2898
 8998SOL    HW238628   3.581   0.650   0.173  0.6517 -0.7041 -0.5617
 8999SOL     OW38629   1.791   4.629   7.814  0.2938  0.4524  0.1909
 8999SOL    HW138630   1.696   4.627   7.822 -0.0315  1.2902 -3.2797
 8999SOL    HW238631   1.814   4.584   7.895  0.6765 -1.6949 -1.1147
 9000SOL     OW38632   3.690   4.153  11.730 -0.1407  0.0203  0.1517
 9000SOL    HW138633   3.757   4.220  11.746 -1.4701  0.8047  2.3614
 9000SOL    HW238634   3.617   4.184  11.783  0.1606 -2.3128  1.9176
 9001SOL     OW38635   1.913   2.291   1.941 -0.2910 -0.2215  0.6164
 9001SOL    HW138636   2.002   2.266   1.968  0.2609  1.5495  0.4769
 9001SOL    HW238637   1.938   2.361   1.881 -0.9392 -0.0198  0.5824
 9002SOL     OW38638   4.308   1.088   3.189  0.3122 -0.2686 -0.9263
 9002SOL    HW138639   4.262   1.063   3.109 -2.8103 -0.4757  0.9457
 9002SOL    HW238640   4.301   1.183   3.196 -0.2015 -0.1453 -3.3485
 9003SOL     OW38641   2.809   1.996  11.492  0.3269  0.5039  0.6947
 9003SOL    HW138642   2.769   2.076  11.458 -0.4738  0.7489  2.1807
 9003SOL    HW238643   2.900   2.026  11.495  0.8800 -0.7945 -3.1210
 9004SOL     OW38644   4.559   3.688   6.795  0.3133  0.3253 -0.3037
 9004SOL    HW138645   4.603   3.641   6.724  1.4247  2.1661 -0.8269
 9004SOL    HW238646   4.471   3.669   6.763 -0.3254  0.2821  1.4781
 9005SOL     OW38647   2.365   2.909  17.342  0.2110 -0.3332 -0.3609
 9005SOL    HW138648   2.289   2.870  17.297 -0.4380  0.8516 -0.2999
 9005SOL    HW238649   2.332   2.875  17.426  0.1711 -1.0458 -0.6641
 9006SOL     OW38650   2.274   0.598   1.585  0.2289 -0.2602  0.1424
 9006SOL    HW138651   2.192   0.640   1.557  0.4244  0.0001 -0.0330
 9006SOL    HW238652   2.259   0.505   1.565  1.5846  0.0372 -2.2964
 9007SOL     OW38653   4.718   2.234   2.838 -0.4792  0.0475 -0.4810
 9007SOL    HW138654   4.636   2.237   2.788  0.5995  1.3062 -2.1574
 9007SOL    HW238655   4.699   2.159   2.894  0.0551 -0.3409 -0.8183
 9008SOL     OW38656   4.389   2.474   5.488  0.7173 -0.0878 -0.2097
 9008SOL    HW138657   4.459   2.412   5.471  1.3296  1.1184 -2.0640
 9008SOL    HW238658   4.323   2.419   5.446  0.7402 -0.8759  0.7871
 9009SOL     OW38659   4.392   4.583   1.571  0.2893 -0.1409  0.9416
 9009SOL    HW138660   4.412   4.677   1.567  0.4660 -0.1838  0.8046
 9009SOL    HW238661   4.296   4.588   1.571  0.2361 -1.1856 -0.0066
 9010SOL     OW38662   1.093   2.249   7.109  0.2686 -0.5544 -0.1448
 9010SOL    HW138663   1.182   2.269   7.078 -0.2460  1.2940 -0.4245
 9010SOL    HW238664   1.041   2.278   7.034 -0.8280  0.5068  1.0443
 9011SOL     OW38665   3.546   2.880   6.036  0.1416 -0.0278 -0.6189
 9011SOL    HW138666   3.560   2.941   5.963  2.5010 -1.7519 -1.6265
 9011SOL    HW238667   3.561   2.932   6.114  3.0268 -2.5400  0.4563
 9012SOL     OW38668   4.186   0.054  16.522  0.3650 -0.3149 -0.0731
 9012SOL    HW138669   4.188   0.133  16.575 -2.0243  0.6522 -1.3888
 9012SOL    HW238670   4.236   0.000  16.583  2.9602  1.1327 -0.9143
 9013SOL     OW38671   3.570   1.635   0.857  0.0169 -0.0500  0.5280
 9013SOL    HW138672   3.597   1.716   0.814 -0.1153  0.2893  1.0929
 9013SOL    HW238673   3.593   1.653   0.948  0.2430 -0.7267  0.6069
 9014SOL     OW38674   3.670   1.130  14.180 -0.1222 -0.4669 -0.0136
 9014SOL    HW138675   3.702   1.140  14.270  0.5401  0.6063 -0.3705
 9014SOL    HW238676   3.649   1.218  14.149  0.3742 -0.2663  0.2169
 9015SOL     OW38677   1.075   1.033  10.871  0.6030 -0.4023  0.1353
 9015SOL    HW138678   1.063   1.104  10.808 -0.7023 -0.3249  0.4786
 9015SOL    HW238679   1.154   1.076  10.904 -0.6382  1.2269  0.9855
 9016SOL     OW38680   2.346   3.342   6.146  0.3093  0.4610  0.0572
 9016SOL    HW138681   2.341   3.291   6.065 -0.5683  2.0275 -0.8823
 9016SOL    HW238682   2.422   3.306   6.192 -0.1553  0.1143  0.5440
 9017SOL     OW38683   1.588   4.397  16.972 -0.1219  0.0244  0.3565
 9017SOL    HW138684   1.658   4.455  16.942  0.2952 -1.4021 -1.4628
 9017SOL    HW238685   1.628   4.310  16.978  1.5058  0.7946  0.6751
 9018SOL     OW38686   0.725   2.064   1.869  0.7170  0.0677 -0.5369
 9018SOL    HW138687   0.632   2.085   1.876  0.5158 -1.0064  0.1075
 9018SOL    HW238688   0.754   2.092   1.783 -0.2998  0.9390 -0.5986
 9019SOL     OW38689   2.667   3.924  12.006  0.5767 -0.0396 -0.4157
 9019SOL    HW138690   2.748   3.873  12.005  0.9478  0.5421 -0.2997
 9019SOL    HW238691   2.692   3.991  11.942 -0.7336 -0.3929 -1.2835
 9020SOL     OW38692   4.315   2.204   6.291  0.1597  0.8601 -0.3602
 9020SOL    HW138693   4.330   2.169   6.203  1.4027 -0.6573  0.4538
 9020SOL    HW238694   4.228   2.168   6.311 -0.8161  2.8827 -1.0111
 9021SOL     OW38695   1.240   3.765  14.414  0.5863 -0.1010 -0.3818
 9021SOL    HW138696   1.313   3.799  14.466  1.2021  0.4653 -1.6136
 9021SOL    HW238697   1.251   3.832  14.346 -2.3140  1.4190  0.6412
 9022SOL     OW38698   0.180   4.577  11.726  0.1416 -0.3348 -0.2732
 9022SOL    HW138699   0.102   4.630  11.741  1.2840  0.6147  2.3104
 9022SOL    HW238700   0.222   4.578  11.812 -0.1809 -1.0726 -0.1087
 9023SOL     OW38701   1.525   2.674  10.250  0.0526 -0.2343  0.2342
 9023SOL    HW138702   1.567   2.749  10.207  0.7978 -0.5152  0.4751
 9023SOL    HW238703   1.538   2.713  10.336 -1.9066  1.5464 -0.2860
 9024SOL     OW38704   4.130   4.575   7.743 -1.0657 -0.0003  0.1208
 9024SOL    HW138705   4.186   4.604   7.671 -0.3084 -1.9243 -0.0602
 9024SOL    HW238706   4.077   4.508   7.699 -0.7778 -0.1033 -0.0678
 9025SOL     OW38707   2.055   1.738  16.600  0.3760 -0.0786  0.2453
 9025SOL    HW138708   2.125   1.678  16.625  0.1608 -0.1542  0.6683
 9025SOL    HW238709   2.070   1.819  16.648  0.6414 -0.1498  0.2854
 9026SOL     OW38710   0.179   2.472   6.904 -0.0574  0.0351 -0.1849
 9026SOL    HW138711   0.232   2.423   6.967 -0.5812  0.6916  0.7588
 9026SOL    HW238712   0.136   2.396   6.865 -2.1766  1.6961 -1.1048
 9027SOL     OW38713   3.070   4.654  10.011 -0.1251 -0.6083 -0.4586
 9027SOL    HW138714   3.013   4.663  10.087 -2.4576 -0.0040 -2.2943
 9027SOL    HW238715   3.030   4.581   9.963  0.2081 -0.6429 -0.6868
 9028SOL     OW38716   3.795   3.704   3.061  0.5084  0.4527  0.0273
 9028SOL    HW138717   3.736   3.730   3.131  0.9515  0.9193  0.2273
 9028SOL    HW238718   3.730   3.651   3.014  0.4445 -1.4838  2.2782
 9029SOL     OW38719   0.569   0.138  16.458 -0.2304 -0.1661  0.2430
 9029SOL    HW138720   0.510   0.110  16.528  0.4274 -0.3368  0.7354
 9029SOL    HW238721   0.576   0.231  16.476 -1.2645  0.1607 -1.0569
 9030SOL     OW38722   2.053   1.236   2.843  0.5011 -0.1633  0.6766
 9030SOL    HW138723   2.000   1.295   2.788  0.1057  1.8746  3.2563
 9030SOL    HW238724   2.123   1.208   2.784  0.5474  1.0440  0.1438
 9031SOL     OW38725   2.413   2.550   8.721 -0.2795 -0.1101 -0.2934
 9031SOL    HW138726   2.426   2.642   8.699  1.0609 -0.4433 -0.8514
 9031SOL    HW238727   2.344   2.553   8.788 -2.2281  0.4112 -2.3022
 9032SOL     OW38728   1.544   2.935  11.209 -0.4148 -0.0779 -0.9718
 9032SOL    HW138729   1.521   2.894  11.125  2.0184 -3.5533  0.0412
 9032SOL    HW238730   1.576   3.020  11.179 -1.5763  0.6863 -0.0695
 9033SOL     OW38731   4.619   3.881   3.288  0.5822  0.0927 -0.3158
 9033SOL    HW138732   4.619   3.956   3.228  0.4464  1.0919  0.9379
 9033SOL    HW238733   4.568   3.813   3.245 -2.2833  3.2498 -1.9489
 9034SOL     OW38734   2.581   3.622   7.346 -0.2414  0.5632  0.7126
 9034SOL    HW138735   2.571   3.648   7.255 -2.9816  0.6178  1.0317
 9034SOL    HW238736   2.658   3.566   7.352 -2.2158 -2.2846 -0.5942
 9035SOL     OW38737   3.257   3.005   8.972 -0.4249 -0.3050 -0.7430
 9035SOL    HW138738   3.255   2.984   8.878  0.4758 -3.0524 -0.1323
 9035SOL    HW238739   3.342   2.966   8.990 -0.7042 -0.3412  0.5159
 9036SOL     OW38740   0.756   2.924  17.028 -0.2199  0.3232  0.1800
 9036SOL    HW138741   0.809   2.958  17.100  2.0981  0.4181 -1.6015
 9036SOL    HW238742   0.808   2.848  17.007 -2.2552 -1.0569  0.1066
 9037SOL     OW38743   3.560   3.685   6.076  0.1741  0.3006 -0.0484
 9037SOL    HW138744   3.542   3.771   6.038 -0.1996  0.3677  0.2810
 9037SOL    HW238745   3.588   3.639   5.997 -0.0348  0.0558  0.0208
 9038SOL     OW38746   1.777   4.513   2.483 -0.2125  0.1895  0.3622
 9038SOL    HW138747   1.839   4.581   2.510  2.0256 -1.5018 -0.5047
 9038SOL    HW238748   1.723   4.513   2.562  0.1522  0.4502  0.6142
 9039SOL     OW38749   2.390   0.038   1.451 -0.6322 -0.1116 -0.2039
 9039SOL    HW138750   2.343   0.083   1.521 -1.8978 -0.4395 -0.8357
 9039SOL    HW238751   2.471   0.088   1.452 -0.5721 -0.1791 -1.0540
 9040SOL     OW38752   0.556   4.349   2.529 -0.0955 -0.5475  0.2298
 9040SOL    HW138753   0.527   4.377   2.616  4.4361 -0.4904  1.7034
 9040SOL    HW238754   0.647   4.323   2.541 -0.8493 -4.0005 -1.6767
 9041SOL     OW38755   1.337   0.407  12.509  0.0173 -0.0233 -0.1539
 9041SOL    HW138756   1.280   0.357  12.451 -1.2062  0.1959  0.8636
 9041SOL    HW238757   1.346   0.359  12.591 -1.6245 -0.4610 -0.2296
 9042SOL     OW38758   0.121   0.274  15.346  0.0527 -0.1562 -0.6005
 9042SOL    HW138759   0.215   0.291  15.341 -0.2208  1.7124  0.5624
 9042SOL    HW238760   0.115   0.220  15.425 -0.0699 -0.7957 -1.0542
 9043SOL     OW38761   2.096   1.849   4.390 -0.1758  0.0624 -0.1896
 9043SOL    HW138762   2.143   1.932   4.386  2.1072 -1.2767 -0.7832
 9043SOL    HW238763   2.121   1.821   4.302 -2.3629  2.7154 -1.6807
 9044SOL     OW38764   3.208   1.668   5.455 -0.2652  0.5945  0.0581
 9044SOL    HW138765   3.233   1.598   5.395  2.2731  1.1693  0.4353
 9044SOL    HW238766   3.296   1.705   5.463  0.1194 -0.3344  0.1201
 9045SOL     OW38767   1.231   0.832  17.603  0.0510 -0.3319  0.0875
 9045SOL    HW138768   1.316   0.790  17.591  0.8716  1.3797 -0.0035
 9045SOL    HW238769   1.199   0.866  17.519  3.8987 -0.6533 -1.5372
 9046SOL     OW38770   3.046   0.204   2.773 -0.3850  0.1335 -0.1966
 9046SOL    HW138771   3.085   0.244   2.852  1.0952  1.6558 -1.6910
 9046SOL    HW238772   3.062   0.269   2.704 -1.6607  1.1289  0.4489
 9047SOL     OW38773   1.466   4.620   7.545  0.1884  0.0177  0.4780
 9047SOL    HW138774   1.535   4.677   7.513 -0.3384  0.0026 -0.6830
 9047SOL    HW238775   1.403   4.681   7.582 -0.8010  1.4803 -3.7073
 9048SOL     OW38776   1.941   1.342  11.334  0.0798 -0.2839 -0.0285
 9048SOL    HW138777   1.976   1.369  11.419 -2.3532  1.7601  0.3280
 9048SOL    HW238778   1.858   1.299  11.351 -0.0388  0.0838  0.3267
 9049SOL     OW38779   3.517   1.831   9.853 -0.8137 -0.0886 -0.5843
 9049SOL    HW138780   3.555   1.763   9.910  0.7801  1.1740 -0.1500
 9049SOL    HW238781   3.600   1.877   9.846 -1.5845  1.5324  1.0440
 9050SOL     OW38782   0.133   2.191   4.772 -1.0692 -0.1109  0.2489
 9050SOL    HW138783   0.163   2.251   4.704 -2.1714  0.3196  0.1409
 9050SOL    HW238784   0.219   2.152   4.783 -0.1042  2.1249  0.6914
 9051SOL     OW38785   3.421   2.185   2.906  0.1926  0.0037 -0.3693
 9051SOL    HW138786   3.505   2.229   2.917  0.3205 -0.1563 -0.6828
 9051SOL    HW238787   3.434   2.101   2.950 -1.4123  0.5018  1.0430
 9052SOL     OW38788   2.853   3.824   1.273  0.3057  0.3473 -0.6439
 9052SOL    HW138789   2.794   3.810   1.348 -1.3997  0.1175 -2.0209
 9052SOL    HW238790   2.814   3.759   1.215  1.4770 -0.6618 -0.2974
 9053SOL     OW38791   1.500   0.499   8.729  0.8396 -0.2654 -0.6857
 9053SOL    HW138792   1.414   0.542   8.732  0.2596 -1.4980  0.5669
 9053SOL    HW238793   1.474   0.408   8.742  0.4836 -0.0032  0.4521
 9054SOL     OW38794   3.907   1.934   3.204  0.3596 -0.1156 -0.5111
 9054SOL    HW138795   3.980   1.873   3.197  0.0173 -0.8386  2.2545
 9054SOL    HW238796   3.855   1.886   3.269  0.7810 -0.0702 -0.1409
 9055SOL     OW38797   0.920   0.946   6.477  0.3389 -0.1121  0.1603
 9055SOL    HW138798   1.011   0.975   6.479  1.6639 -4.3792  0.5724
 9055SOL    HW238799   0.891   1.020   6.530 -1.8015 -0.9478  0.1457
 9056SOL     OW38800   0.010   3.903   2.336 -0.6182 -0.0112 -0.1040
 9056SOL    HW138801   0.034   3.972   2.274  1.1995 -1.5318 -1.1180
 9056SOL    HW238802   4.665   3.939   2.373 -0.3284  0.8728 -0.3271
 9057SOL     OW38803   0.567   1.204   3.603 -0.4104  0.3809  0.3145
 9057SOL    HW138804   0.539   1.123   3.560  1.3525  1.2990 -2.4895
 9057SOL    HW238805   0.522   1.271   3.553 -1.2801 -0.0729  0.4823
 9058SOL     OW38806   3.069   3.032   7.716  0.0307 -0.6476  0.2749
 9058SOL    HW138807   3.036   3.121   7.730  3.9561  0.7944  0.3191
 9058SOL    HW238808   3.156   3.042   7.755 -0.6161 -0.7228  1.7749
 9059SOL     OW38809   1.317   4.312   1.681 -0.1294 -0.0241  0.3324
 9059SOL    HW138810   1.318   4.220   1.655 -1.2152 -0.2451  1.0866
 9059SOL    HW238811   1.338   4.302   1.774  2.9880 -0.6274 -0.4228
 9060SOL     OW38812   4.514   4.123  15.223 -0.4616  0.1982  0.3850
 9060SOL    HW138813   4.486   4.032  15.216  1.0560  0.0493 -3.4961
 9060SOL    HW238814   4.605   4.099  15.240 -0.6699 -0.9201 -0.1080
 9061SOL     OW38815   4.603   2.214  15.702  0.4228  0.3069  0.1015
 9061SOL    HW138816   4.553   2.186  15.625  1.5061 -1.5175  0.0773
 9061SOL    HW238817   4.616   2.129  15.743  0.5076  0.9392  1.3857
 9062SOL     OW38818   3.411   1.369   8.778  0.2914 -0.0378 -0.5147
 9062SOL    HW138819   3.390   1.447   8.727 -1.0655  0.0887  0.2318
 9062SOL    HW238820   3.507   1.371   8.780  0.3308  0.7668 -3.7196
 9063SOL     OW38821   2.158   3.390   4.731 -1.0063 -0.5579  0.0280
 9063SOL    HW138822   2.253   3.397   4.722 -0.8346 -2.4145  0.3102
 9063SOL    HW238823   2.140   3.482   4.711 -0.6960 -0.8782 -1.7142
 9064SOL     OW38824   0.704   0.202   5.703  0.4050 -0.1319 -0.0170
 9064SOL    HW138825   0.675   0.129   5.757 -2.1255  2.5685  2.2699
 9064SOL    HW238826   0.785   0.173   5.661 -0.8253  0.1474 -2.6202
 9065SOL     OW38827   2.184   2.877   7.911 -0.6235  0.0133 -0.0763
 9065SOL    HW138828   2.214   2.908   7.825 -0.1266 -2.5508 -0.8369
 9065SOL    HW238829   2.156   2.789   7.888  1.1018 -0.0684 -1.9149
 9066SOL     OW38830   3.573   2.381   7.200 -0.3836 -0.2315  0.5209
 9066SOL    HW138831   3.564   2.318   7.272  0.6262 -2.3679 -1.2145
 9066SOL    HW238832   3.488   2.367   7.158 -0.1788 -2.3039  0.7677
 9067SOL     OW38833   3.997   4.277   6.902 -0.2550  0.4019  0.2837
 9067SOL    HW138834   3.952   4.285   6.818 -0.0485 -0.1830  0.1160
 9067SOL    HW238835   4.082   4.271   6.857 -0.1161  0.3337  0.5586
 9068SOL     OW38836   0.412   1.496   6.012  0.2644  0.6057  0.3410
 9068SOL    HW138837   0.499   1.536   6.011  0.5214  0.0012 -1.2308
 9068SOL    HW238838   0.378   1.537   5.933 -0.9262 -0.7754  0.1349
 9069SOL     OW38839   2.157   4.235   1.115 -0.0178 -0.1766  0.5221
 9069SOL    HW138840   2.115   4.181   1.048 -2.6591  2.0993  0.3440
 9069SOL    HW238841   2.231   4.268   1.064 -1.1601  0.0696 -0.9756
 9070SOL     OW38842   4.007   0.911   9.737 -0.6913  0.0257  0.0913
 9070SOL    HW138843   3.936   0.945   9.682  0.6923 -0.4103 -1.9824
 9070SOL    HW238844   4.022   0.824   9.701  1.4952  0.6740 -0.5649
 9071SOL     OW38845   0.647   2.759   5.442  1.0786 -0.2375  0.1877
 9071SOL    HW138846   0.645   2.681   5.497  2.0107 -1.3577 -1.3619
 9071SOL    HW238847   0.571   2.807   5.474  2.2210 -0.7934  3.6917
 9072SOL     OW38848   1.696   1.865   5.222  0.0691  0.2201 -0.4003
 9072SOL    HW138849   1.658   1.795   5.275  0.2053  0.3554 -0.1223
 9072SOL    HW238850   1.747   1.812   5.159  1.8005 -0.0730  1.2372
 9073SOL     OW38851   4.171   4.542  12.148  0.4768  0.1297  0.1713
 9073SOL    HW138852   4.211   4.568  12.065 -0.1059 -1.0325 -0.4744
 9073SOL    HW238853   4.076   4.534  12.134  0.6293  0.1502 -0.8148
 9074SOL     OW38854   1.752   0.535   8.790 -0.0836 -0.2311 -0.2224
 9074SOL    HW138855   1.798   0.482   8.725 -0.3962 -0.1770 -0.4883
 9074SOL    HW238856   1.665   0.542   8.751 -0.0742  0.2508 -0.1620
 9075SOL     OW38857   1.996   1.273   1.710  0.5052  0.0021 -0.6610
 9075SOL    HW138858   1.913   1.268   1.757  0.3522  0.7068 -0.8566
 9075SOL    HW238859   1.993   1.193   1.657  0.3206 -1.1424  1.1020
 9076SOL     OW38860   2.901   3.434   3.055 -0.2114 -0.1054  0.2804
 9076SOL    HW138861   2.820   3.383   3.066  0.3587 -1.1396 -0.2531
 9076SOL    HW238862   2.903   3.484   3.136  2.4996 -0.8432  0.6676
 9077SOL     OW38863   0.386   3.146  16.514  0.5732 -0.1939 -0.4756
 9077SOL    HW138864   0.397   3.112  16.603  0.5755 -0.8126 -0.7103
 9077SOL    HW238865   0.299   3.187  16.518  2.0422  2.6823  2.2555
 9078SOL     OW38866   0.197   1.506   6.547  0.8202 -0.2345  0.1044
 9078SOL    HW138867   0.120   1.519   6.492  0.3328  1.4667  1.1694
 9078SOL    HW238868   0.226   1.423   6.510 -0.6461 -1.6419  2.1897
 9079SOL     OW38869   2.349   1.936   0.134 -0.5743 -0.6138 -0.4952
 9079SOL    HW138870   2.259   1.911   0.153 -0.9946  2.2645  1.2856
 9079SOL    HW238871   2.397   1.927   0.217  2.5170 -1.3017 -2.3579
 9080SOL     OW38872   0.480   2.247   7.520 -0.3996  0.1633 -0.2554
 9080SOL    HW138873   0.429   2.276   7.596  0.5064 -1.8117  1.1204
 9080SOL    HW238874   0.557   2.305   7.518  0.5089 -0.9265  2.2870
 9081SOL     OW38875   0.133   2.174   3.135 -0.0903 -0.3001 -0.8033
 9081SOL    HW138876   0.181   2.138   3.209 -0.0916  0.3920 -0.4622
 9081SOL    HW238877   0.093   2.250   3.178 -0.1216  0.0751 -1.4964
 9082SOL     OW38878   4.072   2.720   5.143  0.0591  0.0347  0.0420
 9082SOL    HW138879   4.092   2.738   5.235 -1.1447 -1.1014  0.5434
 9082SOL    HW238880   4.067   2.807   5.104 -1.3765  1.1593  2.7521
 9083SOL     OW38881   2.421   3.268   5.233 -0.2146 -0.3837  0.1888
 9083SOL    HW138882   2.454   3.189   5.190 -0.7674 -1.5637  1.9241
 9083SOL    HW238883   2.397   3.318   5.156  0.2499 -0.8404 -0.2476
 9084SOL     OW38884   1.603   3.692  14.843  0.3157 -0.4202 -0.0355
 9084SOL    HW138885   1.523   3.644  14.821  1.1279 -2.1130  0.6485
 9084SOL    HW238886   1.619   3.734  14.758  0.0043 -1.1389 -0.4541
 9085SOL     OW38887   3.580   1.604   6.555 -0.1122 -0.5056 -0.5576
 9085SOL    HW138888   3.632   1.673   6.514  1.2187 -0.4362  1.2401
 9085SOL    HW238889   3.553   1.569   6.470 -1.2878 -1.0116  0.0190
 9086SOL     OW38890   4.496   1.656  11.594  0.2594  0.0986 -0.2364
 9086SOL    HW138891   4.553   1.579  11.594 -0.2452 -0.2749  0.1561
 9086SOL    HW238892   4.558   1.729  11.583  1.6472 -1.3118 -1.9320
 9087SOL     OW38893   4.641   0.621   3.114  0.4309  0.0002  0.2154
 9087SOL    HW138894   4.608   0.599   3.201 -2.1077 -0.0420 -0.7683
 9087SOL    HW238895   4.569   0.671   3.074  0.4343 -1.0266 -1.0877
 9088SOL     OW38896   0.520   1.981   7.234 -0.0043  0.1491  0.0667
 9088SOL    HW138897   0.606   2.007   7.268 -1.3390  0.7743  2.9238
 9088SOL    HW238898   0.535   1.919   7.161 -2.2221 -0.6486  0.2955
 9089SOL     OW38899   1.454   1.328   6.205 -0.3289  0.2351 -0.3242
 9089SOL    HW138900   1.488   1.245   6.240 -0.2490  0.5858  0.4434
 9089SOL    HW238901   1.527   1.387   6.225 -2.4493  2.7208 -0.0079
 9090SOL     OW38902   1.229   3.152  16.837  0.0490  0.2719 -0.3540
 9090SOL    HW138903   1.219   3.105  16.754 -0.8385 -0.1881  0.0133
 9090SOL    HW238904   1.318   3.185  16.823  1.2226 -1.4812  3.0878
 9091SOL     OW38905   1.926   0.929   8.377  0.0612  0.3127 -0.1375
 9091SOL    HW138906   1.935   0.864   8.446 -0.0420 -0.6323 -1.0221
 9091SOL    HW238907   1.835   0.924   8.348  0.0743 -0.1442 -0.0900
 9092SOL     OW38908   2.849   1.251   1.926  0.0239  0.3970  0.1584
 9092SOL    HW138909   2.900   1.217   1.853 -0.8755 -0.6558  0.0200
 9092SOL    HW238910   2.756   1.250   1.901 -0.6559 -0.1272  2.6832
 9093SOL     OW38911   2.544   2.257   7.383 -0.3982 -0.1006 -0.0244
 9093SOL    HW138912   2.605   2.286   7.450  0.0230 -0.0779 -0.4212
 9093SOL    HW238913   2.558   2.162   7.379  1.5637  0.2619 -1.3003
 9094SOL     OW38914   3.425   2.106   5.445 -0.0648 -0.0713 -0.0288
 9094SOL    HW138915   3.482   2.129   5.519  1.0326 -1.2551 -0.5062
 9094SOL    HW238916   3.343   2.152   5.462 -0.5292 -0.3799 -1.4389
 9095SOL     OW38917   2.661   0.765   4.249  0.4340 -0.4798 -0.1129
 9095SOL    HW138918   2.584   0.818   4.271  0.3555 -1.0331  0.9501
 9095SOL    HW238919   2.669   0.711   4.327  1.0183  0.4598  0.4768
 9096SOL     OW38920   2.729   3.296  15.903 -0.4728 -0.6008  0.5460
 9096SOL    HW138921   2.695   3.323  15.988  1.3598  2.6412  0.2344
 9096SOL    HW238922   2.771   3.216  15.935  0.8950 -0.6747 -1.4552
 9097SOL     OW38923   1.672   3.629   8.881 -0.4771 -0.0638  1.1644
 9097SOL    HW138924   1.615   3.704   8.867 -0.6031 -0.1976  0.9533
 9097SOL    HW238925   1.653   3.585   8.798 -0.1753 -0.9344  1.5552
 9098SOL     OW38926   2.553   2.848   1.546 -0.3171 -0.2867  0.0845
 9098SOL    HW138927   2.617   2.910   1.581 -0.0740  1.0887 -2.7768
 9098SOL    HW238928   2.482   2.853   1.609  1.3935 -1.5472  2.1249
 9099SOL     OW38929   1.147   0.169   6.378 -0.0360  0.3748  0.2030
 9099SOL    HW138930   1.124   0.104   6.311  0.9019  0.9234 -0.6618
 9099SOL    HW238931   1.134   0.124   6.461  0.0281 -1.9160 -1.0219
 9100SOL     OW38932   4.136   1.377   8.304  0.1608  0.4148  0.6169
 9100SOL    HW138933   4.223   1.337   8.303  0.4250  1.0518 -2.3549
 9100SOL    HW238934   4.113   1.359   8.212  1.4391 -0.1489  0.4085
 9101SOL     OW38935   2.931   0.315  11.748  0.0487 -0.1831  0.1344
 9101SOL    HW138936   2.846   0.308  11.704  0.0444 -2.4520  0.4944
 9101SOL    HW238937   2.945   0.410  11.742  1.0162 -0.2362  1.4091
 9102SOL     OW38938   1.676   3.481   3.555  0.5858  0.3096  0.0310
 9102SOL    HW138939   1.663   3.417   3.624  0.5095 -0.2039 -0.4539
 9102SOL    HW238940   1.757   3.527   3.576  1.7023 -0.5887 -2.2690
 9103SOL     OW38941   3.735   1.768  17.301  0.4005  0.2382 -0.4840
 9103SOL    HW138942   3.668   1.700  17.294  1.6869 -1.0264 -0.5008
 9103SOL    HW238943   3.743   1.798  17.211  1.5121  0.5719 -0.2696
 9104SOL     OW38944   0.978   0.040  12.138 -0.0420 -0.0648 -0.5993
 9104SOL    HW138945   0.952   4.705  12.198  0.8767 -1.0710 -1.3705
 9104SOL    HW238946   0.909   0.105  12.146  2.5613  2.6692 -0.5998
 9105SOL     OW38947   2.301   2.237  15.385 -0.6420  0.0298 -0.2308
 9105SOL    HW138948   2.206   2.242  15.374 -0.6942 -0.4559 -0.0207
 9105SOL    HW238949   2.322   2.159  15.333  0.0233  0.5828 -0.7866
 9106SOL     OW38950   2.682   2.963   4.728  0.1694 -0.4227 -0.2081
 9106SOL    HW138951   2.605   3.017   4.709 -2.2979 -3.4652  1.2665
 9106SOL    HW238952   2.695   2.919   4.644 -0.8642 -0.8737 -0.1236
 9107SOL     OW38953   1.291   3.238   3.763  0.4276  0.7160 -0.2902
 9107SOL    HW138954   1.354   3.294   3.717 -0.1333  0.2379 -1.6313
 9107SOL    HW238955   1.351   3.169   3.790  2.4883  2.1389 -1.2685
 9108SOL     OW38956   1.535   0.024  11.196 -0.1485  0.4484 -0.3382
 9108SOL    HW138957   1.568   4.694  11.257  1.3528 -0.3262 -1.9773
 9108SOL    HW238958   1.613   0.078  11.180  0.7950 -0.0615  2.6141
 9109SOL     OW38959   2.026   0.997  10.542 -0.3853  0.4483  0.3886
 9109SOL    HW138960   2.022   1.091  10.526  0.3310  0.5412  0.7576
 9109SOL    HW238961   2.078   0.991  10.623  0.2022 -1.8376 -0.1696
 9110SOL     OW38962   3.516   0.239   4.454  0.1874 -0.4563 -0.2385
 9110SOL    HW138963   3.551   0.150   4.447  1.3546  0.1300 -2.0821
 9110SOL    HW238964   3.454   0.228   4.526 -1.1642 -0.2133 -1.3661
 9111SOL     OW38965   1.364   0.748   7.551 -0.5393 -0.0668 -0.0943
 9111SOL    HW138966   1.281   0.730   7.506 -0.7574 -1.0143  0.6889
 9111SOL    HW238967   1.361   0.687   7.625  1.3629 -0.4428 -0.3391
 9112SOL     OW38968   0.103   2.165   4.391  0.8576  0.3067  0.1234
 9112SOL    HW138969   0.066   2.238   4.442  1.2518 -1.5260  3.0124
 9112SOL    HW238970   0.189   2.149   4.429  0.8955  0.7911  0.2440
 9113SOL     OW38971   2.358   0.429   1.973  0.2969  0.6388 -0.6403
 9113SOL    HW138972   2.344   0.359   2.036 -0.0713  0.5815 -0.7833
 9113SOL    HW238973   2.426   0.400   1.912 -0.1812 -0.4539 -0.6551
 9114SOL     OW38974   3.566   2.941   5.482  0.5104 -0.2852  0.7844
 9114SOL    HW138975   3.502   2.909   5.545 -0.4194 -0.1082 -0.0865
 9114SOL    HW238976   3.534   2.895   5.405 -2.9484  1.0092  1.4490
 9115SOL     OW38977   2.151   1.972   6.212 -0.6784  0.3934 -0.1418
 9115SOL    HW138978   2.166   2.063   6.236 -2.8572  0.5831  0.4182
 9115SOL    HW238979   2.173   1.936   6.298  0.0389  1.2236  0.0227
 9116SOL     OW38980   4.283   2.853   8.485 -0.0856 -0.5561  0.3325
 9116SOL    HW138981   4.329   2.771   8.464 -0.0043 -0.4260 -0.0114
 9116SOL    HW238982   4.198   2.824   8.516 -2.2656  3.2906 -2.0963
 9117SOL     OW38983   2.827   2.911   3.413 -0.2335  0.5910 -0.0475
 9117SOL    HW138984   2.892   2.980   3.426  0.7022 -0.2784 -0.1086
 9117SOL    HW238985   2.877   2.848   3.360  0.6926 -0.1367  1.6804
 9118SOL     OW38986   3.869   4.432   0.288 -0.2619  0.4119  0.0737
 9118SOL    HW138987   3.939   4.386   0.334  0.5049  1.1766 -0.3185
 9118SOL    HW238988   3.811   4.437   0.364 -1.0693  1.3321 -0.6070
 9119SOL     OW38989   2.888   4.175  10.204  0.0723  0.0924  0.3124
 9119SOL    HW138990   2.967   4.210  10.244 -0.4092 -0.9209  2.1403
 9119SOL    HW238991   2.817   4.215  10.254  0.2800 -0.2728  0.8950
 9120SOL     OW38992   0.570   0.903  11.153 -0.4641 -0.1107  0.1120
 9120SOL    HW138993   0.499   0.847  11.182 -0.0165  0.4850  2.3192
 9120SOL    HW238994   0.538   0.992  11.163  1.3019  0.4029  1.2152
 9121SOL     OW38995   3.249   3.378   2.808  0.3376 -0.4930  0.0753
 9121SOL    HW138996   3.160   3.394   2.777  0.3176 -0.2320  0.2692
 9121SOL    HW238997   3.235   3.300   2.862 -0.9713 -1.5769 -1.8047
 9122SOL     OW38998   2.847   4.511  16.487  0.2210  0.3236  0.4220
 9122SOL    HW138999   2.837   4.535  16.395 -1.7802 -1.4137  0.1936
 9122SOL    HW239000   2.907   4.580  16.514  2.1115  0.0023 -3.0399
 9123SOL     OW39001   2.013   4.511   7.069 -0.4764  0.6106 -0.3176
 9123SOL    HW139002   1.936   4.556   7.036 -1.5045 -0.4547  0.6468
 9123SOL    HW239003   2.066   4.591   7.068  0.2499  0.1905  3.2022
 9124SOL     OW39004   2.729   0.273   2.433  0.6699 -0.1751 -1.1576
 9124SOL    HW139005   2.782   0.349   2.410  0.5409  0.6869  1.3283
 9124SOL    HW239006   2.656   0.327   2.465  2.3847  0.6475  1.3772
 9125SOL     OW39007   2.819   3.411   9.761 -0.0734  0.0737  0.0481
 9125SOL    HW139008   2.840   3.469   9.834 -1.3673  0.8769 -0.2213
 9125SOL    HW239009   2.907   3.383   9.735 -0.0932  0.5613 -0.5245
 9126SOL     OW39010   0.743   2.695  16.070 -0.0610 -0.1743 -0.3183
 9126SOL    HW139011   0.750   2.600  16.061  2.8027 -0.1086  1.0374
 9126SOL    HW239012   0.684   2.724  16.000 -2.4148 -0.9993  1.3048
 9127SOL     OW39013   2.961   0.909   2.697  0.2345  0.0125 -0.0206
 9127SOL    HW139014   2.962   0.990   2.645  1.1620 -0.2863 -0.4648
 9127SOL    HW239015   2.966   0.951   2.783  0.7676 -0.6239  0.2532
 9128SOL     OW39016   1.550   3.440   7.353  0.2072  0.5787  0.5520
 9128SOL    HW139017   1.546   3.523   7.400 -1.4461  0.7691  0.0885
 9128SOL    HW239018   1.524   3.375   7.419 -1.7135 -0.7647 -1.5141
 9129SOL     OW39019   3.162   1.471   4.495 -0.8037 -0.2359  0.0581
 9129SOL    HW139020   3.090   1.455   4.434  1.1343  1.3449 -2.6437
 9129SOL    HW239021   3.174   1.565   4.489  1.4356 -0.5674 -0.6300
 9130SOL     OW39022   3.366   0.126  16.008  0.5651  0.2153  0.0691
 9130SOL    HW139023   3.408   0.080  16.081 -0.0301 -0.7220 -0.1831
 9130SOL    HW239024   3.312   0.053  15.979 -1.5226  2.2592 -1.1465
 9131SOL     OW39025   0.179   3.594  14.023  0.1819  0.4432  0.3724
 9131SOL    HW139026   0.112   3.632  14.080 -0.9073 -3.5137  1.7149
 9131SOL    HW239027   0.150   3.504  14.008 -1.8295  0.7423  2.4127
 9132SOL     OW39028   3.535   4.169   6.915  0.1996  0.3282 -0.1165
 9132SOL    HW139029   3.478   4.114   6.970 -0.1381  1.9200  1.1202
 9132SOL    HW239030   3.590   4.209   6.982 -0.3501  0.5460  0.2035
 9133SOL     OW39031   0.670   3.397   5.422  0.1654  0.3127  0.5217
 9133SOL    HW139032   0.744   3.404   5.362 -0.9826  3.1287 -0.5699
 9133SOL    HW239033   0.685   3.310   5.459  0.3413  0.1668  0.0978
 9134SOL     OW39034   3.261   2.998   6.033 -0.6024  0.4154 -0.8659
 9134SOL    HW139035   3.275   3.044   6.116 -0.9469 -0.2002 -0.4655
 9134SOL    HW239036   3.311   2.922   6.063  0.5298  1.3618 -0.3328
 9135SOL     OW39037   4.383   2.045   9.516 -0.8149  0.1165  0.5438
 9135SOL    HW139038   4.337   2.102   9.454 -1.6562 -0.0244  1.0343
 9135SOL    HW239039   4.310   2.014   9.569 -2.0891  1.0881 -0.6340
 9136SOL     OW39040   1.559   3.602   1.628 -0.3542  0.1038 -0.2163
 9136SOL    HW139041   1.647   3.582   1.660 -0.4332  0.9633  0.5167
 9136SOL    HW239042   1.550   3.697   1.629  3.0541  0.3982  0.3517
 9137SOL     OW39043   1.272   0.478   2.417  0.5827 -0.0008 -0.1709
 9137SOL    HW139044   1.274   0.435   2.502  2.0783  1.8482  0.7122
 9137SOL    HW239045   1.344   0.540   2.418  0.3754  0.2286  0.4703
 9138SOL     OW39046   0.560   0.410  12.377  0.3335 -0.2158  0.6569
 9138SOL    HW139047   0.616   0.471  12.328  0.9115 -2.3018 -1.2654
 9138SOL    HW239048   0.483   0.456  12.410  0.1058 -0.6486  0.7225
 9139SOL     OW39049   2.005   4.161  15.739 -0.2101 -0.1905 -0.3003
 9139SOL    HW139050   1.923   4.137  15.782  0.1996  0.4670  0.8550
 9139SOL    HW239051   1.977   4.186  15.651 -0.3407 -0.2875 -0.2866
 9140SOL     OW39052   3.834   3.243   5.405  0.1112 -0.4248  0.3304
 9140SOL    HW139053   3.861   3.241   5.313  3.6206  3.4975  1.2503
 9140SOL    HW239054   3.740   3.229   5.393  0.0789  0.0117  0.0837
 9141SOL     OW39055   0.120   1.011   7.628 -0.4162  0.2289 -0.8050
 9141SOL    HW139056   0.162   1.076   7.572 -0.8653 -0.3080 -1.7772
 9141SOL    HW239057   0.081   1.066   7.696  0.0573 -0.3893 -0.0391
 9142SOL     OW39058   1.082   0.772   2.355 -0.7825 -0.3011  0.5157
 9142SOL    HW139059   1.080   0.701   2.419 -2.0305 -1.1328 -0.4246
 9142SOL    HW239060   1.146   0.732   2.296 -2.2711 -1.7090 -0.1809
 9143SOL     OW39061   2.002   3.052   4.302 -0.2128 -0.0721  0.3722
 9143SOL    HW139062   1.957   3.008   4.374 -0.2664 -1.3369 -0.4364
 9143SOL    HW239063   2.044   3.124   4.349  0.7885 -1.8288  2.1530
 9144SOL     OW39064   0.156   4.711   8.247  0.1136 -0.0702  0.4069
 9144SOL    HW139065   0.252   4.709   8.251  0.1321  1.2831  0.8513
 9144SOL    HW239066   0.149   0.039   8.318  1.5011 -0.5000  0.9339
 9145SOL     OW39067   1.828   3.021   5.426  0.4912 -0.0225 -0.9380
 9145SOL    HW139068   1.825   2.939   5.376  0.2330 -0.6291  0.0540
 9145SOL    HW239069   1.765   3.002   5.496 -0.2877  1.4248 -1.2391
 9146SOL     OW39070   3.969   1.930  12.133 -0.3119  0.0145  0.3391
 9146SOL    HW139071   4.056   1.909  12.168  0.2089 -0.5623 -1.2570
 9146SOL    HW239072   3.961   2.022  12.158 -1.2172  0.0639 -0.1375
 9147SOL     OW39073   3.436   4.513   8.418  0.0056  0.5662  0.5875
 9147SOL    HW139074   3.515   4.535   8.466  0.9675  1.2043 -1.2782
 9147SOL    HW239075   3.380   4.476   8.486  0.0493 -0.8772 -0.1478
 9148SOL     OW39076   1.092   0.816   8.253 -0.3386 -0.3989  0.2923
 9148SOL    HW139077   1.036   0.788   8.180  1.0512 -3.8059  0.5237
 9148SOL    HW239078   1.026   0.863   8.304 -0.5408 -1.3198  0.8884
 9149SOL     OW39079   0.459   2.091   1.802  0.5215  0.4501 -0.2775
 9149SOL    HW139080   0.418   2.005   1.815 -0.7431  0.5303 -3.7897
 9149SOL    HW239081   0.420   2.134   1.878 -0.8882 -2.6558  0.7809
 9150SOL     OW39082   0.199   4.011   5.943  0.0178  0.1862  0.1670
 9150SOL    HW139083   0.204   3.916   5.934  3.3970  0.3085  0.9344
 9150SOL    HW239084   0.289   4.039   5.926  0.1683 -0.0104  0.6588
 9151SOL     OW39085   2.360   1.886   3.177 -0.3529  0.0941 -0.0751
 9151SOL    HW139086   2.268   1.874   3.154 -0.1185 -1.6541 -0.1226
 9151SOL    HW239087   2.383   1.957   3.117 -0.0502 -1.1340 -1.4196
 9152SOL     OW39088   4.314   0.500   9.770 -0.2010 -0.3892  0.5419
 9152SOL    HW139089   4.395   0.550   9.763 -0.2194 -0.3776  0.4192
 9152SOL    HW239090   4.335   0.425   9.715 -0.9261  0.6604 -1.1523
 9153SOL     OW39091   1.983   1.320   9.108 -0.1471 -0.1150  0.6014
 9153SOL    HW139092   1.967   1.396   9.052  0.7794  1.3232  2.2747
 9153SOL    HW239093   1.939   1.254   9.055  2.1751 -0.9218 -0.2893
 9154SOL     OW39094   4.677   3.467   6.278  0.3384 -0.8010  0.3153
 9154SOL    HW139095   4.641   3.499   6.195 -0.2037 -1.0900  0.4380
 9154SOL    HW239096   4.705   3.381   6.247 -0.8703 -0.2820 -2.2310
 9155SOL     OW39097   4.531   3.487   3.535 -0.5602  0.7141 -0.3185
 9155SOL    HW139098   4.481   3.490   3.454  2.4260  2.1000 -2.0978
 9155SOL    HW239099   4.546   3.581   3.545  0.0206  0.6943 -1.0483
 9156SOL     OW39100   2.546   4.134   4.175 -0.4027  0.3008  0.1854
 9156SOL    HW139101   2.516   4.224   4.189  1.1231  0.6082  1.5001
 9156SOL    HW239102   2.557   4.128   4.080 -1.2008  3.3742 -0.1117
 9157SOL     OW39103   3.638   4.646   4.798  0.1275  0.1163 -0.1731
 9157SOL    HW139104   3.563   4.613   4.748 -0.2775  0.4346  0.2200
 9157SOL    HW239105   3.696   4.658   4.723 -2.6960  1.2887 -2.1765
 9158SOL     OW39106   2.392   1.096   2.891  0.1308  0.1093 -0.2510
 9158SOL    HW139107   2.442   1.092   2.810  0.4364  2.4797 -0.1593
 9158SOL    HW239108   2.329   1.031   2.859  1.9668 -1.1469 -1.2460
 9159SOL     OW39109   3.725   2.036   6.848 -0.1939 -0.6334 -0.2365
 9159SOL    HW139110   3.707   2.109   6.789  0.2328 -0.1879  0.1815
 9159SOL    HW239111   3.674   2.054   6.927 -1.0467 -2.0653 -0.4637
 9160SOL     OW39112   1.705   4.196   5.633  0.4056 -0.4343 -0.0013
 9160SOL    HW139113   1.778   4.252   5.660 -0.8188  1.7722 -1.3183
 9160SOL    HW239114   1.690   4.152   5.717  1.4659  1.5914  1.2499
 9161SOL     OW39115   1.660   1.886  15.573  0.6149  0.1439 -0.2756
 9161SOL    HW139116   1.566   1.897  15.559  0.3119  1.8457  3.1297
 9161SOL    HW239117   1.675   1.804  15.528 -1.5377  0.9036 -2.3674
 9162SOL     OW39118   1.742   2.747   4.526 -0.2474  0.6100 -0.2212
 9162SOL    HW139119   1.746   2.654   4.549  1.3479  0.8858  0.6219
 9162SOL    HW239120   1.668   2.750   4.466  0.4001  2.5426 -0.9363
 9163SOL     OW39121   1.247   1.481   7.962 -0.1301  0.4456 -0.2826
 9163SOL    HW139122   1.271   1.448   7.876  0.8352 -1.5577  0.7497
 9163SOL    HW239123   1.265   1.404   8.017 -1.1419  0.7297  0.4439
 9164SOL     OW39124   3.078   3.143   9.997  0.6445  0.5326  0.0422
 9164SOL    HW139125   3.084   3.129  10.091  3.8452  1.8870  0.0072
 9164SOL    HW239126   2.992   3.106   9.974  0.7389  0.1433  0.3283
 9165SOL     OW39127   2.555   1.987   4.586  0.0934  0.3602 -0.3235
 9165SOL    HW139128   2.535   2.001   4.679 -0.1517 -0.0206 -0.3162
 9165SOL    HW239129   2.649   1.986   4.569 -0.0443  1.0701 -1.1062
 9166SOL     OW39130   1.155   1.105   7.450 -0.2669 -0.2709  0.3147
 9166SOL    HW139131   1.248   1.119   7.433 -0.5602 -0.4914 -1.4624
 9166SOL    HW239132   1.150   1.041   7.520  0.4497  0.2989  0.8937
 9167SOL     OW39133   3.675   0.677   5.606 -0.0629  0.1340  0.2969
 9167SOL    HW139134   3.750   0.655   5.661  0.1757  0.4333  0.0904
 9167SOL    HW239135   3.686   0.771   5.593  1.7891 -0.0619  0.3800
 9168SOL     OW39136   2.169   2.538   7.022 -0.2887 -0.2059 -0.6155
 9168SOL    HW139137   2.169   2.444   7.000 -0.9644  0.8001 -4.9108
 9168SOL    HW239138   2.215   2.530   7.105  1.0251 -0.9656 -1.4127
 9169SOL     OW39139   4.297   2.075   4.990  0.5080 -0.3222  0.3487
 9169SOL    HW139140   4.205   2.071   4.965  0.2353  0.0243  1.3103
 9169SOL    HW239141   4.321   1.986   4.965 -0.3782 -0.4165 -0.1825
 9170SOL     OW39142   2.241   1.971   6.967  0.2062  0.9559 -0.6747
 9170SOL    HW139143   2.180   2.007   7.031  0.9788 -0.1270  0.6781
 9170SOL    HW239144   2.262   1.889   7.012 -0.7648  0.6714 -0.7188
 9171SOL     OW39145   2.452   1.711  14.905 -0.2002 -0.4292  0.0600
 9171SOL    HW139146   2.446   1.781  14.839 -0.1544 -1.0346 -0.5939
 9171SOL    HW239147   2.546   1.695  14.895 -0.1773 -0.6885  0.7263
 9172SOL     OW39148   0.152   3.917  16.963 -0.2704 -0.0146  0.4960
 9172SOL    HW139149   0.120   3.997  17.005  2.2128  0.3418  1.6879
 9172SOL    HW239150   0.097   3.929  16.886 -1.7137 -0.5148  1.4385
 9173SOL     OW39151   0.802   4.494   4.764 -0.7378 -0.4383  0.2466
 9173SOL    HW139152   0.829   4.559   4.699 -0.7166 -0.1409  0.5550
 9173SOL    HW239153   0.886   4.480   4.807  0.2606  2.1754 -0.7896
 9174SOL     OW39154   1.667   3.990   2.835 -0.5058  0.1422 -0.4110
 9174SOL    HW139155   1.641   3.960   2.748  0.8323 -1.2908 -0.3162
 9174SOL    HW239156   1.667   4.085   2.825  0.8414  0.0742 -1.1259
 9175SOL     OW39157   2.691   2.804   5.259 -0.1269 -0.0261 -0.0610
 9175SOL    HW139158   2.756   2.770   5.197  0.8160 -1.4610  1.7393
 9175SOL    HW239159   2.717   2.896   5.246  1.6618 -0.4341  0.6322
 9176SOL     OW39160   3.852   4.195  13.271  0.9821 -0.2360  0.0414
 9176SOL    HW139161   3.761   4.168  13.278  0.7760  0.9789  2.0644
 9176SOL    HW239162   3.833   4.289  13.275  1.9781 -0.0096 -0.3046
 9177SOL     OW39163   3.409   2.446   5.118 -1.0913 -0.2447 -0.6199
 9177SOL    HW139164   3.396   2.457   5.212 -0.8499 -2.3897 -0.3395
 9177SOL    HW239165   3.470   2.372   5.114 -1.2077 -0.3140 -1.2233
 9178SOL     OW39166   3.427   0.830   3.966  0.2459 -0.3464 -0.3291
 9178SOL    HW139167   3.340   0.822   3.926  0.0039 -1.6025  0.4293
 9178SOL    HW239168   3.443   0.736   3.976 -0.5916 -0.6070 -1.4528
 9179SOL     OW39169   4.376   1.249   8.841 -0.5205 -0.0267 -0.0596
 9179SOL    HW139170   4.346   1.258   8.750  0.1084 -2.0113 -0.4854
 9179SOL    HW239171   4.365   1.335   8.879 -2.8170 -0.4774  0.3024
 9180SOL     OW39172   1.252   3.191   2.797  0.1122 -0.0404 -0.0029
 9180SOL    HW139173   1.209   3.106   2.795 -0.3467  0.1314  2.1133
 9180SOL    HW239174   1.180   3.237   2.841 -2.1924  0.4659 -4.3411
 9181SOL     OW39175   3.695   2.575   3.175 -0.2951 -0.2404  0.4607
 9181SOL    HW139176   3.704   2.532   3.260 -0.1588 -1.8560 -0.3598
 9181SOL    HW239177   3.702   2.667   3.198 -1.2379  0.1367 -0.7592
 9182SOL     OW39178   1.602   3.960   4.240 -0.1989  0.3147  0.6142
 9182SOL    HW139179   1.526   4.016   4.226  2.2449  3.6771  0.4795
 9182SOL    HW239180   1.666   4.010   4.291  0.7682 -0.9179  0.5992
 9183SOL     OW39181   0.544   4.461   6.581 -0.1897 -0.0395 -0.0835
 9183SOL    HW139182   0.499   4.400   6.522 -1.2671  1.4258 -0.7731
 9183SOL    HW239183   0.530   4.542   6.532  2.1143 -0.0121 -0.6874
 9184SOL     OW39184   4.708   0.805  17.070  0.2879 -0.4160  0.2169
 9184SOL    HW139185   4.723   0.895  17.100  0.2488 -0.6745  1.0053
 9184SOL    HW239186   0.042   0.763  17.119  2.2139  1.8048 -0.6413
 9185SOL     OW39187   3.407   3.775   3.527  0.5477 -0.0228 -0.3392
 9185SOL    HW139188   3.355   3.780   3.447 -2.4812 -0.5742  1.6134
 9185SOL    HW239189   3.416   3.864   3.560  1.8105 -0.4358  0.4263
 9186SOL     OW39190   0.997   2.890   7.004  0.0309 -0.5989  0.7762
 9186SOL    HW139191   1.086   2.920   6.987  0.5654 -1.7340  1.5914
 9186SOL    HW239192   1.005   2.796   7.018  1.4393 -0.6042 -0.0085
 9187SOL     OW39193   2.881   3.123  10.986  0.3492  0.2994  0.0727
 9187SOL    HW139194   2.858   3.181  11.058  0.2089  0.5937 -0.2076
 9187SOL    HW239195   2.796   3.092  10.954  0.5892  1.0399 -1.2929
 9188SOL     OW39196   4.346   1.086   2.777 -0.5056  0.7807 -0.2577
 9188SOL    HW139197   4.440   1.081   2.757 -0.3307  1.0118  0.5017
 9188SOL    HW239198   4.313   1.026   2.710  0.3608  0.6492 -0.5695
 9189SOL     OW39199   3.077   0.304   3.438  0.4128 -1.3035  0.8920
 9189SOL    HW139200   2.987   0.289   3.467  0.0140  0.3565  0.5401
 9189SOL    HW239201   3.083   0.242   3.366  0.8247 -0.5395  0.2711
 9190SOL     OW39202   2.685   3.047   2.888 -0.0606 -0.1339 -0.1401
 9190SOL    HW139203   2.753   3.003   2.940 -0.1059  0.2017  0.2063
 9190SOL    HW239204   2.629   3.078   2.960  3.1404  0.3615  2.1496
 9191SOL     OW39205   0.569   3.645   7.247 -1.1287  0.5122  0.2084
 9191SOL    HW139206   0.518   3.577   7.291  0.4595 -2.5944 -2.7817
 9191SOL    HW239207   0.530   3.645   7.159 -2.3747  0.4165  0.7612
 9192SOL     OW39208   2.939   0.083   8.241  1.3429 -0.1187 -0.6243
 9192SOL    HW139209   2.904   0.164   8.203  1.3390 -0.0884 -0.5549
 9192SOL    HW239210   2.897   0.015   8.187  0.2292  1.6994 -2.0460
 9193SOL     OW39211   1.484   0.755  17.620 -0.3004 -0.5318  0.1483
 9193SOL    HW139212   1.566   0.757  17.668 -1.1043  1.4424  1.4482
 9193SOL    HW239213   1.508   0.702  17.544 -0.4225  0.6436 -0.7105
 9194SOL     OW39214   4.031   0.638   5.524 -0.2691  0.2428 -0.2571
 9194SOL    HW139215   4.083   0.710   5.560 -0.2716 -0.3155  0.8748
 9194SOL    HW239216   3.973   0.628   5.599  2.5364 -0.6906  1.8110
 9195SOL     OW39217   0.546   0.482   6.789  0.0524  0.0297  0.0098
 9195SOL    HW139218   0.572   0.501   6.879 -2.1645 -1.2774  0.9147
 9195SOL    HW239219   0.489   0.557   6.772 -0.0710 -0.2374 -0.7611
 9196SOL     OW39220   3.808   2.283   4.137  0.8296 -0.2532  0.5986
 9196SOL    HW139221   3.892   2.238   4.130  1.2934  1.0750 -2.1871
 9196SOL    HW239222   3.775   2.267   4.049  1.1820  0.1943  0.3850
 9197SOL     OW39223   2.094   1.964  16.722 -0.5285 -0.3528 -0.0112
 9197SOL    HW139224   2.060   2.038  16.772  1.7516  0.6357  0.0557
 9197SOL    HW239225   2.187   1.959  16.744 -0.5609 -0.2612  0.1506
 9198SOL     OW39226   1.043   0.496   3.689 -0.4877 -0.1848  0.0527
 9198SOL    HW139227   1.019   0.561   3.755  0.4178  0.9296 -0.7095
 9198SOL    HW239228   1.011   0.538   3.610 -1.1100 -0.8315 -0.0479
 9199SOL     OW39229   1.426   4.375   9.567 -0.0717 -0.4470  0.7527
 9199SOL    HW139230   1.387   4.300   9.611  1.4430 -1.0302  1.1026
 9199SOL    HW239231   1.372   4.391   9.490 -0.0333  0.8316  0.9899
 9200SOL     OW39232   4.657   0.226   6.872  0.3051 -0.1926 -0.2829
 9200SOL    HW139233   4.653   0.189   6.784  0.7219 -0.9263  0.0080
 9200SOL    HW239234   0.015   0.222   6.887  0.5488  2.2168 -1.1261
 9201SOL     OW39235   3.354   0.387   2.509 -0.4233  0.0791 -0.2213
 9201SOL    HW139236   3.322   0.346   2.429 -0.9709 -1.9651  1.0313
 9201SOL    HW239237   3.407   0.310   2.531 -0.0578  0.8487  1.5689
 9202SOL     OW39238   2.603   3.427  15.701  0.2637 -0.0412  0.2563
 9202SOL    HW139239   2.639   3.373  15.772 -2.9552 -1.0569  1.1143
 9202SOL    HW239240   2.658   3.401  15.626  1.5332 -0.2755  1.2574
 9203SOL     OW39241   1.659   0.730   3.115  0.3296 -0.7060  0.4539
 9203SOL    HW139242   1.680   0.639   3.136  1.9680 -0.0788  1.4531
 9203SOL    HW239243   1.743   0.761   3.081  0.1214 -0.1262  0.4773
 9204SOL     OW39244   0.749   3.157   6.973  0.1279 -0.2857  0.0501
 9204SOL    HW139245   0.741   3.071   6.933 -1.8293  0.5404 -1.2794
 9204SOL    HW239246   0.835   3.182   6.938 -0.4626 -0.6158 -1.5817
 9205SOL     OW39247   4.655   3.615  16.716  0.0091 -0.6157 -0.3334
 9205SOL    HW139248   4.708   3.658  16.649  0.2414 -1.2365 -0.5518
 9205SOL    HW239249   4.606   3.689  16.750  2.8969  0.6443  1.0405
 9206SOL     OW39250   0.982   0.600   0.214  0.1332 -0.5381  0.2541
 9206SOL    HW139251   0.996   0.523   0.160  1.8357 -0.6066  0.7861
 9206SOL    HW239252   0.995   0.672   0.153  0.1978 -0.6256  0.1654
 9207SOL     OW39253   2.244   4.152   4.623 -0.5760 -0.5230  0.0757
 9207SOL    HW139254   2.212   4.200   4.546  2.1081 -0.6004 -1.1160
 9207SOL    HW239255   2.297   4.099   4.563  0.4316  1.4511 -0.7862
 9208SOL     OW39256   0.576   4.514  11.480 -0.9005  0.0145 -0.6150
 9208SOL    HW139257   0.530   4.519  11.397 -1.4705  2.9285 -0.0987
 9208SOL    HW239258   0.605   4.600  11.508  3.3071 -0.7739 -2.4330
 9209SOL     OW39259   3.305   2.478   4.209 -0.3756 -0.0140  0.1292
 9209SOL    HW139260   3.328   2.385   4.202 -0.8755 -0.2712  1.9245
 9209SOL    HW239261   3.332   2.491   4.300  1.1893 -1.0878 -0.1850
 9210SOL     OW39262   3.230   3.001   7.224 -0.3266  0.3197 -0.1478
 9210SOL    HW139263   3.233   3.096   7.211  0.9759  0.3795  0.5552
 9210SOL    HW239264   3.203   3.009   7.316  1.3061  1.5417  0.2220
 9211SOL     OW39265   1.276   2.542   0.845  0.3283  0.5239 -0.1388
 9211SOL    HW139266   1.231   2.482   0.785 -1.1731  1.1765  0.3245
 9211SOL    HW239267   1.210   2.596   0.888  0.2078  1.2829 -1.2959
 9212SOL     OW39268   4.640   2.837   2.790  0.0407  0.2281 -0.1882
 9212SOL    HW139269   4.637   2.782   2.712  0.0974 -2.2041  1.5369
 9212SOL    HW239270   4.590   2.787   2.854  1.3131  2.2110  2.3174
 9213SOL     OW39271   4.202   2.318   4.663  0.7856 -0.1006 -0.2916
 9213SOL    HW139272   4.123   2.280   4.625  0.3853  0.3259  0.1191
 9213SOL    HW239273   4.258   2.240   4.654  2.1351  0.6070  2.0333
 9214SOL     OW39274   1.675   2.941   4.839 -0.5034 -0.0571  0.3745
 9214SOL    HW139275   1.591   2.902   4.812  0.3881 -0.4738 -1.8340
 9214SOL    HW239276   1.663   2.966   4.930 -1.6493 -0.3308  0.2984
 9215SOL     OW39277   2.937   3.557   6.877  0.0270 -0.2158 -0.2286
 9215SOL    HW139278   2.877   3.483   6.882  0.1089 -0.3318 -0.9431
 9215SOL    HW239279   2.887   3.634   6.849 -2.1263 -1.0552  1.3293
 9216SOL     OW39280   4.268   3.482   3.902  0.2453 -0.6821  0.7694
 9216SOL    HW139281   4.220   3.425   3.841 -2.0569  0.4950  1.4808
 9216SOL    HW239282   4.359   3.463   3.881 -0.0463  0.0019 -1.1568
 9217SOL     OW39283   0.949   1.066   3.268  0.3437 -0.3862 -0.6677
 9217SOL    HW139284   0.970   1.033   3.181  1.0469 -2.7060  0.3765
 9217SOL    HW239285   0.905   1.146   3.240 -0.8322 -0.3157  1.4189
 9218SOL     OW39286   0.819   2.699   5.234 -0.2004 -0.0723  0.0936
 9218SOL    HW139287   0.900   2.747   5.254 -0.4112 -0.0546  0.9220
 9218SOL    HW239288   0.768   2.730   5.310 -1.3697  0.9639 -1.1072
 9219SOL     OW39289   4.718   4.331   4.628  0.5098 -0.2620  0.1238
 9219SOL    HW139290   0.052   4.303   4.569  0.1002 -1.3129  0.1412
 9219SOL    HW239291   4.673   4.247   4.638 -0.9073  0.7354  2.2221
 9220SOL     OW39292   4.626   1.252   6.085 -0.8598  0.1638 -0.2775
 9220SOL    HW139293   4.625   1.340   6.048 -0.0190 -0.3435 -1.4960
 9220SOL    HW239294   4.555   1.204   6.043 -1.2898  1.5035 -1.0633
 9221SOL     OW39295   1.517   4.308   1.417 -0.4360  0.0565  0.1868
 9221SOL    HW139296   1.549   4.280   1.331  0.1591  0.1047  0.3913
 9221SOL    HW239297   1.447   4.244   1.430  0.4579 -0.6749  1.4437
 9222SOL     OW39298   2.557   0.934   6.669  0.0281  0.2161 -0.1342
 9222SOL    HW139299   2.525   0.890   6.590 -0.7595  2.0226 -0.8065
 9222SOL    HW239300   2.553   1.025   6.643  0.6855 -0.1108 -1.3722
 9223SOL     OW39301   4.320   4.529   3.054 -0.5567 -0.4295  0.8607
 9223SOL    HW139302   4.288   4.612   3.089  1.2023  0.5196  0.2103
 9223SOL    HW239303   4.399   4.571   3.020 -1.9586  3.1235  2.0341
 9224SOL     OW39304   1.785   3.370   5.672  0.3960 -0.0196  0.1243
 9224SOL    HW139305   1.872   3.353   5.708  0.6592 -0.6882 -0.8451
 9224SOL    HW239306   1.754   3.280   5.683 -1.6270  0.3952 -2.2494
 9225SOL     OW39307   2.008   1.456   2.651  0.5604  0.3570 -0.4707
 9225SOL    HW139308   1.976   1.546   2.662  0.9450  0.1826  1.9694
 9225SOL    HW239309   2.061   1.462   2.571 -0.3946 -2.2916 -1.2770
 9226SOL     OW39310   1.006   4.501   7.982  0.2119  0.1528  0.0064
 9226SOL    HW139311   0.959   4.485   8.064  0.8945 -2.5460 -0.1351
 9226SOL    HW239312   1.062   4.570   8.018  0.0352 -0.5959  1.7348
 9227SOL     OW39313   4.341   0.924   6.734  0.1944  0.1429  0.4940
 9227SOL    HW139314   4.251   0.901   6.760  0.1872 -0.6200 -0.2152
 9227SOL    HW239315   4.378   0.928   6.822 -1.2844  1.0106  1.0685
 9228SOL     OW39316   1.104   3.332   7.100  0.7066 -0.9958  0.3924
 9228SOL    HW139317   1.078   3.419   7.129  0.0804 -0.9229 -0.3844
 9228SOL    HW239318   1.052   3.267   7.148 -2.9819  0.6367 -1.3564
 9229SOL     OW39319   0.440   2.538   5.854 -0.0128  0.4308  0.0264
 9229SOL    HW139320   0.533   2.557   5.866  0.4317 -0.0263 -2.7786
 9229SOL    HW239321   0.444   2.442   5.848  4.4080  0.6378 -0.2767
 9230SOL     OW39322   1.515   1.847   1.630 -0.3864 -0.0737  0.1326
 9230SOL    HW139323   1.536   1.935   1.660  3.0981  0.6999 -4.5287
 9230SOL    HW239324   1.454   1.820   1.699 -1.2303  1.5041  0.0185
 9231SOL     OW39325   2.578   3.039   5.126  0.4360  0.2666  0.2781
 9231SOL    HW139326   2.566   2.962   5.069 -0.7415  1.7274 -1.4447
 9231SOL    HW239327   2.634   3.096   5.074  0.1890  0.7747  0.5757
 9232SOL     OW39328   3.986   0.925  11.924 -0.2728 -0.6177  0.2697
 9232SOL    HW139329   4.018   1.005  11.966  0.5607 -0.2197 -1.1244
 9232SOL    HW239330   4.050   0.859  11.952  0.2414 -0.4058 -0.4274
 9233SOL     OW39331   3.018   3.695   8.955  0.8049 -0.0021  0.1898
 9233SOL    HW139332   2.962   3.719   8.881  1.0914 -0.5776 -0.2191
 9233SOL    HW239333   2.968   3.718   9.033  1.2013 -1.5400  0.9062
 9234SOL     OW39334   1.168   1.973   6.691  0.0767  0.2864 -0.4245
 9234SOL    HW139335   1.137   2.058   6.662  1.4105  1.1014  0.5316
 9234SOL    HW239336   1.230   2.005   6.756  0.5469 -3.5150  1.0231
 9235SOL     OW39337   0.722   3.316  16.749 -0.2149 -0.2103  0.6923
 9235SOL    HW139338   0.800   3.262  16.732  0.3090  1.0030 -0.7682
 9235SOL    HW239339   0.757   3.401  16.723 -0.3723 -0.2604  0.3091
 9236SOL     OW39340   2.880   1.479  11.933  0.2689 -0.2458 -0.2707
 9236SOL    HW139341   2.846   1.549  11.878  0.9401 -0.3943 -0.8713
 9236SOL    HW239342   2.922   1.540  11.994 -2.2818  1.8561 -0.6326
 9237SOL     OW39343   3.487   1.442   9.068 -0.0573  0.3929 -0.3596
 9237SOL    HW139344   3.396   1.416   9.082  0.2142  1.0178  2.6793
 9237SOL    HW239345   3.498   1.359   9.022  4.5164  1.0103 -0.4209
 9238SOL     OW39346   1.820   3.253   6.060  0.0740 -0.0686 -0.7148
 9238SOL    HW139347   1.784   3.322   6.116  0.1737  0.4338 -1.2705
 9238SOL    HW239348   1.886   3.299   6.008 -0.7382  1.7993 -0.0940
 9239SOL     OW39349   4.459   4.461   9.374  0.0655 -0.2692 -0.1692
 9239SOL    HW139350   4.394   4.525   9.403  1.2408  1.2241 -0.7621
 9239SOL    HW239351   4.413   4.380   9.392 -0.7260  0.4530  1.0319
 9240SOL     OW39352   4.327   2.744  11.764 -0.0340 -0.7488  0.6230
 9240SOL    HW139353   4.265   2.811  11.792  0.7056  0.9723 -1.8489
 9240SOL    HW239354   4.373   2.795  11.698 -2.6127  1.2543  0.3878
 9241SOL     OW39355   2.905   4.286   8.111  0.0338  0.0718 -0.3656
 9241SOL    HW139356   2.901   4.195   8.139  0.3150  0.0382 -0.4325
 9241SOL    HW239357   2.906   4.333   8.195 -1.2553  1.8280 -1.3161
 9242SOL     OW39358   2.105   4.517  13.439  0.0534 -0.0462  0.2069
 9242SOL    HW139359   2.152   4.434  13.434  1.5173  0.8216 -0.3676
 9242SOL    HW239360   2.023   4.481  13.403  1.9268 -1.2139 -2.9517
 9243SOL     OW39361   0.500   4.635  17.487 -0.4522  0.0962  0.1209
 9243SOL    HW139362   0.407   4.616  17.498 -0.3337  0.6668  2.0754
 9243SOL    HW239363   0.531   4.555  17.445 -2.2190  1.2132 -3.3266
 9244SOL     OW39364   0.750   2.659   8.481 -0.3561 -0.0212  0.1437
 9244SOL    HW139365   0.790   2.746   8.476 -1.8643  0.6213 -0.5499
 9244SOL    HW239366   0.682   2.661   8.548 -0.9082  1.1197 -0.4551
 9245SOL     OW39367   2.246   2.506  14.336  0.0212 -0.3585 -0.1851
 9245SOL    HW139368   2.278   2.520  14.247  1.1590  4.1310  0.9451
 9245SOL    HW239369   2.154   2.484  14.321 -0.5236 -0.4128  3.2720
 9246SOL     OW39370   1.087   2.772   3.282 -0.5752 -0.1714  0.9538
 9246SOL    HW139371   1.091   2.852   3.230  0.3528  0.1623  1.5202
 9246SOL    HW239372   1.016   2.724   3.241 -0.1510  3.0400 -3.4824
 9247SOL     OW39373   0.122   3.350   2.639  0.0552  0.0412  0.2170
 9247SOL    HW139374   0.103   3.261   2.668 -1.4402  0.8148  1.6533
 9247SOL    HW239375   0.073   3.411   2.694  1.8612  1.5924  0.1033
 9248SOL     OW39376   1.970   3.586   9.486  0.6498 -0.1643 -0.1897
 9248SOL    HW139377   1.961   3.666   9.538  1.7874 -0.0902 -0.0951
 9248SOL    HW239378   2.042   3.543   9.534  0.1099  0.3975  1.1272
 9249SOL     OW39379   0.737   2.850   5.854 -0.2659 -0.0618 -0.0059
 9249SOL    HW139380   0.647   2.823   5.835  0.4166 -1.8248 -0.6820
 9249SOL    HW239381   0.728   2.946   5.857  1.7745  0.0840  1.4146
 9250SOL     OW39382   3.275   2.843   5.063 -0.5323 -0.4767 -0.5040
 9250SOL    HW139383   3.310   2.823   4.977 -0.1574  0.9911 -0.6899
 9250SOL    HW239384   3.182   2.824   5.048 -1.1896  1.3526  1.2103
 9251SOL     OW39385   0.390   2.060   4.813  0.7786  0.1770  0.0244
 9251SOL    HW139386   0.414   2.013   4.893  1.5073 -1.9333 -1.4722
 9251SOL    HW239387   0.450   2.017   4.753  0.2943  0.7005 -0.8450
 9252SOL     OW39388   3.456   4.122   8.720 -0.1508 -0.5566 -0.1425
 9252SOL    HW139389   3.528   4.067   8.748 -0.0152 -1.2364 -1.8088
 9252SOL    HW239390   3.493   4.152   8.637  0.7256  0.9153  0.7851
 9253SOL     OW39391   0.288   0.109   3.198 -0.0408 -0.0599 -0.1087
 9253SOL    HW139392   0.212   0.158   3.168  0.0249 -1.2207 -2.1973
 9253SOL    HW239393   0.274   0.034   3.139  0.6789  0.0261 -0.3959
 9254SOL     OW39394   3.480   0.619   3.007  0.2001  0.4404 -0.1310
 9254SOL    HW139395   3.448   0.574   3.085 -0.5320 -0.9034 -1.1932
 9254SOL    HW239396   3.397   0.654   2.973 -0.6152 -2.2402 -0.8526
 9255SOL     OW39397   1.404   3.180   7.973 -0.4952 -0.6431 -0.4438
 9255SOL    HW139398   1.405   3.085   7.977  0.2821 -0.5923  0.5282
 9255SOL    HW239399   1.336   3.198   7.908 -0.1158  0.2394 -0.6040
 9256SOL     OW39400   4.396   3.203  14.382  0.4058  0.1077  0.1099
 9256SOL    HW139401   4.455   3.277  14.366  0.7836 -0.4652 -1.1451
 9256SOL    HW239402   4.397   3.196  14.477 -1.7546  0.8354  0.1997
 9257SOL     OW39403   2.288   3.297  10.089 -0.3441  0.7624  0.5940
 9257SOL    HW139404   2.234   3.375  10.105 -2.4859 -0.6219 -0.0439
 9257SOL    HW239405   2.322   3.309  10.001 -3.5555 -1.4766 -0.9200
 9258SOL     OW39406   3.905   4.416  16.317  0.4018  0.0621  0.1859
 9258SOL    HW139407   3.963   4.364  16.261  1.6159  2.1292 -0.4655
 9258SOL    HW239408   3.952   4.500  16.323  1.0356 -0.1506 -1.6465
 9259SOL     OW39409   1.313   2.308  12.114  0.4629  0.1454 -0.2074
 9259SOL    HW139410   1.306   2.270  12.026 -0.0107  0.1133 -0.1537
 9259SOL    HW239411   1.381   2.371  12.089 -0.8206  2.4683  2.2280
 9260SOL     OW39412   1.647   1.025   8.898  0.2927  0.7559 -0.2066
 9260SOL    HW139413   1.600   0.942   8.909  2.1993 -0.4550 -1.2453
 9260SOL    HW239414   1.586   1.083   8.943 -0.2777  0.1980 -0.2488
 9261SOL     OW39415   3.220   2.281   3.300  0.4221  0.1220 -0.1677
 9261SOL    HW139416   3.200   2.207   3.242 -0.1217 -0.8032  1.1948
 9261SOL    HW239417   3.220   2.241   3.387  2.4517  0.6297  0.0774
 9262SOL     OW39418   1.301   1.673  14.485 -0.7561  0.0912 -0.0566
 9262SOL    HW139419   1.325   1.691  14.576  1.1198  0.8021 -0.6989
 9262SOL    HW239420   1.267   1.583  14.486 -2.0289  0.5705 -0.5583
 9263SOL     OW39421   3.986   1.686   0.980  0.2503 -0.1009  0.1704
 9263SOL    HW139422   3.995   1.763   1.036  0.3597 -0.5906  0.8234
 9263SOL    HW239423   4.073   1.651   0.964  0.6837  0.7575  0.6576
 9264SOL     OW39424   4.182   4.619   6.141  0.5327  0.6345 -1.0293
 9264SOL    HW139425   4.183   4.625   6.046  0.0364 -1.1586 -1.1620
 9264SOL    HW239426   4.095   4.581   6.154  0.7614  0.8025  1.0206
 9265SOL     OW39427   1.334   0.068   3.880 -0.7424 -0.1246  0.0839
 9265SOL    HW139428   1.292   0.135   3.826  1.8777  1.5743  0.1639
 9265SOL    HW239429   1.325   0.118   3.961 -1.9243  0.4367 -0.3817
 9266SOL     OW39430   4.090   3.938   8.125 -0.1507  0.0278  0.3456
 9266SOL    HW139431   4.180   3.960   8.100 -0.1618  0.6684  0.8878
 9266SOL    HW239432   4.084   3.857   8.074 -1.9335  0.5221 -0.2316
 9267SOL     OW39433   0.879   4.159  11.641 -0.5511 -0.1004  0.0071
 9267SOL    HW139434   0.806   4.098  11.635 -2.3467  2.0743 -0.1119
 9267SOL    HW239435   0.917   4.151  11.553 -3.2005 -3.0087 -0.8975
 9268SOL     OW39436   2.985   4.130   9.661  0.2406  0.4577 -0.2888
 9268SOL    HW139437   2.960   4.203   9.605  0.3705 -0.2865 -1.3156
 9268SOL    HW239438   3.055   4.096   9.605 -0.3146 -2.7797  0.9446
 9269SOL     OW39439   2.332   1.773   7.221 -0.1277  0.1168 -0.7109
 9269SOL    HW139440   2.259   1.719   7.251 -0.1101  1.1979  1.2776
 9269SOL    HW239441   2.353   1.819   7.302 -2.3535 -2.6156  1.3845
 9270SOL     OW39442   0.995   4.108   3.822  0.2039  0.0516  0.4205
 9270SOL    HW139443   1.070   4.127   3.878  0.6853 -0.7044  0.0378
 9270SOL    HW239444   0.959   4.031   3.866 -4.3715  3.0752  2.0124
 9271SOL     OW39445   4.530   1.120   7.779 -0.0638  0.5700  0.9605
 9271SOL    HW139446   4.578   1.047   7.818  2.2695  0.7452 -1.6093
 9271SOL    HW239447   4.466   1.071   7.726 -0.5065  1.6426  0.5027
 9272SOL     OW39448   0.481   3.906   6.484  0.0637 -0.2740  0.2684
 9272SOL    HW139449   0.560   3.855   6.504  0.8269  1.1566  0.9584
 9272SOL    HW239450   0.525   3.964   6.422 -0.9310  0.8505  0.6040
 9273SOL     OW39451   4.193   4.635   7.029  0.3455 -0.7478  0.0294
 9273SOL    HW139452   4.167   4.640   7.121 -3.2378 -0.6303 -0.9849
 9273SOL    HW239453   4.249   4.557   7.040 -0.6972 -1.6096 -0.7484
 9274SOL     OW39454   2.287   4.223  10.087 -0.6068  0.4146 -0.7282
 9274SOL    HW139455   2.266   4.315  10.069 -1.2704  0.5746  0.8447
 9274SOL    HW239456   2.211   4.180  10.048 -0.3401  0.4758 -1.3177
 9275SOL     OW39457   4.556   0.367   8.771  0.3601 -0.1192  0.5314
 9275SOL    HW139458   4.612   0.424   8.719 -1.2591  0.7829 -0.2428
 9275SOL    HW239459   4.609   0.291   8.793 -0.2832 -0.3802  1.1939
 9276SOL     OW39460   3.845   1.449   0.102  0.2069  0.3605  0.6648
 9276SOL    HW139461   3.914   1.482   0.045  0.6971 -0.3519  0.8468
 9276SOL    HW239462   3.891   1.393   0.165 -0.0204 -0.4904  0.0664
 9277SOL     OW39463   4.661   1.911   3.198 -0.3851 -0.1325 -0.3106
 9277SOL    HW139464   0.007   1.959   3.187  0.9437 -2.7120 -1.6200
 9277SOL    HW239465   4.702   1.825   3.208  1.7179  0.4569 -4.0272
 9278SOL     OW39466   2.761   1.087  15.148  0.0626  0.4325  0.3177
 9278SOL    HW139467   2.736   1.179  15.159 -2.5043 -0.1990 -0.2229
 9278SOL    HW239468   2.822   1.096  15.074 -0.6766 -1.3360 -0.4965
 9279SOL     OW39469   3.502   3.519   3.578  0.4615  0.2598 -0.0251
 9279SOL    HW139470   3.517   3.463   3.502 -1.1521 -0.3397  0.0996
 9279SOL    HW239471   3.509   3.609   3.547 -0.4500 -0.0631 -1.1535
 9280SOL     OW39472   2.350   0.206   5.159  0.1975  0.8425  0.4970
 9280SOL    HW139473   2.437   0.247   5.158 -1.1496  3.7511  0.5854
 9280SOL    HW239474   2.325   0.245   5.243 -2.2286 -0.4422  0.3637
 9281SOL     OW39475   4.708   1.335   0.907  0.3426 -0.9232 -0.0050
 9281SOL    HW139476   4.685   1.388   0.831  0.4858  1.0158  1.3155
 9281SOL    HW239477   0.062   1.310   0.883  0.8928  0.8139  0.2184
 9282SOL     OW39478   3.689   4.064   3.006 -0.1435  0.5827 -0.1810
 9282SOL    HW139479   3.656   4.067   2.916 -0.9745 -1.3275  0.0525
 9282SOL    HW239480   3.727   4.150   3.019 -1.9814  1.6250 -1.7602
 9283SOL     OW39481   3.155   2.159   9.317 -0.5987  0.1430  0.2753
 9283SOL    HW139482   3.079   2.151   9.374  0.0516  0.4097  1.1807
 9283SOL    HW239483   3.122   2.138   9.230 -1.2624  2.0736  0.0541
 9284SOL     OW39484   3.489   2.144   8.345 -0.0368  0.9780 -0.2495
 9284SOL    HW139485   3.551   2.078   8.314  0.7940  1.0749  1.2379
 9284SOL    HW239486   3.404   2.112   8.314  1.0740 -0.5380 -1.7057
 9285SOL     OW39487   4.221   3.593  10.056  0.2685  0.2933 -0.2053
 9285SOL    HW139488   4.227   3.505  10.094 -1.2979 -0.2211 -1.1857
 9285SOL    HW239489   4.131   3.614  10.079  0.4122 -1.0235  1.6336
 9286SOL     OW39490   1.435   0.019  17.567 -0.2458 -1.2787 -0.1517
 9286SOL    HW139491   1.504   4.722  17.625 -1.3953  1.9591  3.0019
 9286SOL    HW239492   1.447   0.113  17.555 -1.8682 -1.1009 -0.3633
 9287SOL     OW39493   2.713   0.800  16.840 -0.4928 -0.6135  0.1273
 9287SOL    HW139494   2.653   0.740  16.796 -0.0483  0.1814 -1.5605
 9287SOL    HW239495   2.777   0.734  16.867  0.6847  0.3556 -0.2582
 9288SOL     OW39496   1.867   0.939  11.321  0.2933 -0.4438 -0.6703
 9288SOL    HW139497   1.825   0.873  11.375  0.3755 -0.9835 -1.2704
 9288SOL    HW239498   1.836   1.016  11.369 -0.4798 -1.8210  1.0384
 9289SOL     OW39499   1.519   0.499  11.256  0.0827 -0.0404 -0.2003
 9289SOL    HW139500   1.528   0.518  11.349  1.1378  1.7487 -0.6646
 9289SOL    HW239501   1.430   0.529  11.241 -0.6238 -1.6160  0.8208
 9290SOL     OW39502   4.616   1.772   2.641  0.1778 -0.6992  0.1127
 9290SOL    HW139503   4.598   1.863   2.665  0.2271 -0.6938  0.1297
 9290SOL    HW239504   4.547   1.759   2.576  0.4736  2.2502 -0.7989
 9291SOL     OW39505   1.258   4.521  17.269  0.0176  0.1581  0.6126
 9291SOL    HW139506   1.188   4.474  17.315  1.0576 -1.2317  0.7818
 9291SOL    HW239507   1.219   4.553  17.188  0.1238 -0.3832  0.3517
 9292SOL     OW39508   4.422   3.611   7.613 -0.1555 -0.2478  0.8252
 9292SOL    HW139509   4.431   3.706   7.620  0.9451 -0.3149  0.2970
 9292SOL    HW239510   4.481   3.596   7.539  1.2451 -0.4177  1.9709
 9293SOL     OW39511   4.061   2.749   2.078 -0.4255 -0.1325  0.4466
 9293SOL    HW139512   4.062   2.742   1.983 -1.8956 -3.4088  0.6501
 9293SOL    HW239513   3.993   2.685   2.101  0.9067 -1.2900  1.2067
 9294SOL     OW39514   2.237   0.543   7.035  0.4763  0.5008  0.1971
 9294SOL    HW139515   2.312   0.513   7.087  2.7698  0.1670 -3.3406
 9294SOL    HW239516   2.255   0.511   6.947 -1.2905 -1.5819  0.5849
 9295SOL     OW39517   1.430   0.333   8.334  0.4869  0.3721 -0.4294
 9295SOL    HW139518   1.416   0.253   8.385 -0.9939  0.2055 -1.0963
 9295SOL    HW239519   1.370   0.387   8.384  0.2901 -1.5087  1.3694
 9296SOL     OW39520   0.173   4.000  10.384 -0.6406  0.2643  0.0503
 9296SOL    HW139521   0.127   3.965  10.460  1.8836  0.1142  1.5237
 9296SOL    HW239522   0.119   4.077  10.367 -0.8313 -0.0988 -0.9944
 9297SOL     OW39523   1.617   4.307  15.767  0.4029  0.1737 -0.1993
 9297SOL    HW139524   1.522   4.320  15.772  0.2478 -1.2975  0.4841
 9297SOL    HW239525   1.644   4.336  15.680  1.4949 -0.4094 -0.0601
 9298SOL     OW39526   1.008   0.393   6.227  0.2000 -0.0198 -0.7890
 9298SOL    HW139527   1.054   0.476   6.214  4.2604 -2.2754 -0.7849
 9298SOL    HW239528   1.077   0.326   6.229  1.2164  0.9627 -2.3428
 9299SOL     OW39529   1.409   0.272   2.059  0.0200  0.1046 -0.4485
 9299SOL    HW139530   1.469   0.237   1.992 -0.3707  2.5765 -2.0663
 9299SOL    HW239531   1.366   0.190   2.085  1.2357 -0.2209  0.5386
 9300SOL     OW39532   3.081   0.674   6.890 -0.7790  0.5048 -0.0742
 9300SOL    HW139533   3.062   0.698   6.981  0.6439 -2.5842  1.0114
 9300SOL    HW239534   3.158   0.729   6.875 -0.0348 -0.2137  1.1040
 9301SOL     OW39535   4.369   0.772   0.975  0.5271 -0.1272  0.3837
 9301SOL    HW139536   4.344   0.833   1.045 -0.9882  0.7385 -0.9017
 9301SOL    HW239537   4.411   0.699   1.021 -1.5090  0.4100  3.1160
 9302SOL     OW39538   2.232   2.607   8.953 -0.6018  0.0477  0.5697
 9302SOL    HW139539   2.185   2.539   8.905 -1.2899  1.2213 -0.4102
 9302SOL    HW239540   2.241   2.557   9.033 -0.4267  0.2611  0.6853
 9303SOL     OW39541   3.599   3.039  13.702 -0.1428 -0.0238  0.3764
 9303SOL    HW139542   3.627   2.965  13.756 -0.1250  0.7931  1.4938
 9303SOL    HW239543   3.520   3.062  13.751 -1.0190 -2.4694  0.0710
 9304SOL     OW39544   0.595   1.119   8.894 -0.0321 -0.1729 -0.3186
 9304SOL    HW139545   0.582   1.199   8.945 -2.0677 -1.2493  0.8018
 9304SOL    HW239546   0.506   1.097   8.868 -0.4036  2.3448 -1.2204
 9305SOL     OW39547   0.157   1.892   9.876 -0.0230 -0.1054  0.1773
 9305SOL    HW139548   0.130   1.969   9.926  0.6374 -0.4445  1.0735
 9305SOL    HW239549   0.073   1.870   9.835 -0.5687  0.4579  0.9887
 9306SOL     OW39550   2.886   3.035   5.239 -0.0647 -0.5081  0.1400
 9306SOL    HW139551   2.831   3.102   5.278 -1.1401 -0.0022 -2.2433
 9306SOL    HW239552   2.902   2.992   5.323  2.6112 -1.5239 -0.8828
 9307SOL     OW39553   2.145   4.136   4.894 -0.0840 -0.2793 -0.4133
 9307SOL    HW139554   2.162   4.227   4.920  2.0426 -0.9540  0.5543
 9307SOL    HW239555   2.175   4.136   4.803  0.1118 -1.0916 -0.3453
 9308SOL     OW39556   3.253   3.684   4.770  0.3375 -0.2133  0.1577
 9308SOL    HW139557   3.278   3.593   4.784 -0.0232 -0.2687  0.4331
 9308SOL    HW239558   3.179   3.678   4.829 -0.0125  3.0270  0.0474
 9309SOL     OW39559   1.342   3.585  10.141  0.2112  0.5628 -0.1410
 9309SOL    HW139560   1.369   3.510  10.087 -0.6516  0.0540  0.1413
 9309SOL    HW239561   1.262   3.555  10.184 -0.2508  1.4688 -0.3730
 9310SOL     OW39562   0.468   0.129  16.739 -0.3396 -0.2895  0.2807
 9310SOL    HW139563   0.451   0.200  16.801 -0.5951 -2.3218  2.5626
 9310SOL    HW239564   0.405   0.069  16.778  2.0768 -2.2606  1.1724
 9311SOL     OW39565   4.084   0.582   4.393 -0.0890 -0.5764  0.3735
 9311SOL    HW139566   4.051   0.498   4.362  1.4260 -1.0624  0.0475
 9311SOL    HW239567   4.179   0.588   4.378  0.0115 -0.2229  1.1388
 9312SOL     OW39568   4.079   2.695   5.783  0.0466 -0.0216  0.7894
 9312SOL    HW139569   3.988   2.670   5.764  0.3657 -0.8846  0.4207
 9312SOL    HW239570   4.080   2.706   5.878  0.1812  0.7825  0.6962
 9313SOL     OW39571   1.914   1.198   5.808  0.1280 -0.1368  0.4738
 9313SOL    HW139572   1.930   1.108   5.780 -0.5133 -0.3367  0.7590
 9313SOL    HW239573   1.988   1.235   5.760  1.0628 -0.1461  1.9117
 9314SOL     OW39574   0.136   3.688   9.341 -0.0766 -0.5181  0.1311
 9314SOL    HW139575   0.225   3.656   9.326  0.0284  0.4366 -1.1982
 9314SOL    HW239576   0.103   3.616   9.395 -0.7189 -0.3695 -0.0627
 9315SOL     OW39577   1.154   2.045   9.355 -0.4011 -0.2795 -0.1615
 9315SOL    HW139578   1.169   2.021   9.446 -0.4605 -0.2311 -0.1390
 9315SOL    HW239579   1.227   2.105   9.339 -2.3130  1.4244 -2.6844
 9316SOL     OW39580   1.467   2.789   7.602 -0.6599  0.1204 -0.2060
 9316SOL    HW139581   1.438   2.880   7.588 -1.7209 -0.2006 -0.0452
 9316SOL    HW239582   1.418   2.742   7.535  1.9194 -1.5880 -0.8959
 9317SOL     OW39583   3.430   3.149   3.267  0.4440  0.4595 -0.5051
 9317SOL    HW139584   3.434   3.110   3.180 -0.2568  0.6504 -0.6219
 9317SOL    HW239585   3.348   3.196   3.253  0.5410  0.8266  0.1568
 9318SOL     OW39586   0.006   0.520   5.528  0.6642 -0.1249  0.6525
 9318SOL    HW139587   4.733   0.459   5.455  0.9244  1.6251 -0.8419
 9318SOL    HW239588   4.651   0.530   5.558  1.1488  1.1267  1.7018
 9319SOL     OW39589   4.653   4.298  12.293  0.5538 -0.5563  0.1384
 9319SOL    HW139590   4.563   4.265  12.283  0.5401 -0.4498 -0.1092
 9319SOL    HW239591   4.678   4.272  12.381  4.3174 -1.8466 -1.3207
 9320SOL     OW39592   0.539   3.408  16.219 -0.3518  0.2948  0.2684
 9320SOL    HW139593   0.560   3.339  16.281 -1.5305 -1.5664 -1.3807
 9320SOL    HW239594   0.457   3.444  16.254  0.0545  0.9103  0.5862
 9321SOL     OW39595   4.315   2.014   3.654  0.1917  0.0698 -0.0338
 9321SOL    HW139596   4.311   2.007   3.749 -0.2416 -0.4847 -0.0921
 9321SOL    HW239597   4.297   2.108   3.653  1.9661  0.4582  2.6620
 9322SOL     OW39598   3.414   1.326  10.647 -0.5452 -0.4367 -0.4430
 9322SOL    HW139599   3.439   1.243  10.688 -1.1296 -0.1006  0.6033
 9322SOL    HW239600   3.320   1.328  10.665 -0.7022  0.5223 -1.3857
 9323SOL     OW39601   1.059   2.382  11.499 -0.4422  0.9838 -0.3094
 9323SOL    HW139602   1.044   2.472  11.526 -1.0444  1.5413 -2.4895
 9323SOL    HW239603   1.140   2.394  11.450 -1.4080  0.3458 -2.0495
 9324SOL     OW39604   1.923   1.938   8.209 -0.0139 -0.3596  0.5766
 9324SOL    HW139605   1.845   1.894   8.242 -1.6491 -0.0432 -2.7838
 9324SOL    HW239606   1.982   1.863   8.216  0.1042 -0.4841 -1.6034
 9325SOL     OW39607   4.570   4.413   0.061 -0.3469  0.3660  0.1941
 9325SOL    HW139608   4.537   4.422   0.150 -1.6527 -0.9783 -0.1439
 9325SOL    HW239609   4.663   4.416   0.083 -0.5759 -0.5134  1.2663
 9326SOL     OW39610   1.904   0.179   1.815 -0.3972  0.3922 -0.1304
 9326SOL    HW139611   1.960   0.180   1.892  0.4727 -1.4851 -0.7198
 9326SOL    HW239612   1.817   0.209   1.839 -1.8294 -2.5281 -1.6218
 9327SOL     OW39613   1.621   2.320  11.185 -0.6230  0.4728 -0.1840
 9327SOL    HW139614   1.547   2.262  11.205  0.7468 -0.3817  2.4075
 9327SOL    HW239615   1.681   2.292  11.255 -0.4553 -0.2178 -0.6064
 9328SOL     OW39616   3.966   1.294   4.941 -0.7339 -0.3180  0.2167
 9328SOL    HW139617   4.018   1.227   4.985  0.0917 -0.7015 -1.3586
 9328SOL    HW239618   3.993   1.373   4.989  0.2642  0.4519 -1.6254
 9329SOL     OW39619   1.968   0.983  17.611  0.3213  0.2593 -0.4928
 9329SOL    HW139620   1.874   0.991  17.627 -0.3273 -3.4968 -2.3386
 9329SOL    HW239621   2.006   1.018  17.691 -1.0408  2.0356 -0.6282
 9330SOL     OW39622   0.199   2.284   7.632  0.0186  0.0599 -0.3076
 9330SOL    HW139623   0.272   2.338   7.662  0.6830 -1.1544  0.2700
 9330SOL    HW239624   0.127   2.342   7.608 -2.4490 -2.1648  1.7142
 9331SOL     OW39625   3.784   2.876   9.419  0.0215  0.6171 -0.4518
 9331SOL    HW139626   3.807   2.962   9.384  1.6849  0.8540  1.2662
 9331SOL    HW239627   3.756   2.896   9.508  0.6151 -2.9487  0.5078
 9332SOL     OW39628   0.409   2.830   0.482  0.6198 -0.3219 -0.4214
 9332SOL    HW139629   0.357   2.772   0.537 -0.4385 -1.2899 -2.4362
 9332SOL    HW239630   0.487   2.833   0.536  0.5488 -2.3924 -0.1875
 9333SOL     OW39631   1.182   2.683  11.293  0.0550 -0.0598 -0.5647
 9333SOL    HW139632   1.185   2.604  11.238  2.3584  0.2503 -0.8851
 9333SOL    HW239633   1.212   2.645  11.375 -0.3774  0.4542 -0.1703
 9334SOL     OW39634   2.908   1.350   5.757  0.3578 -0.1554  0.2118
 9334SOL    HW139635   2.977   1.392   5.705  0.9222 -0.8014  0.4443
 9334SOL    HW239636   2.948   1.332   5.842 -0.8635  0.6386  0.9680
 9335SOL     OW39637   1.661   1.157   2.706  0.2294 -0.2672 -0.4823
 9335SOL    HW139638   1.643   1.166   2.799 -0.7588  1.1593 -0.7978
 9335SOL    HW239639   1.671   1.247   2.673  2.9244 -0.2987  0.2560
 9336SOL     OW39640   1.157   0.441   1.955  0.7434 -0.1759  0.5540
 9336SOL    HW139641   1.228   0.378   1.970 -0.3112 -1.3830  0.3923
 9336SOL    HW239642   1.164   0.480   2.043  0.1909  1.8727 -0.3074
 9337SOL     OW39643   2.467   3.007  14.306  0.0313  0.4418 -0.2901
 9337SOL    HW139644   2.455   3.029  14.398 -1.6896 -2.4132  0.1999
 9337SOL    HW239645   2.512   2.922  14.313 -1.0694  0.0905  2.3593
 9338SOL     OW39646   4.495   4.117   7.430  0.3085 -0.4075 -0.1120
 9338SOL    HW139647   4.436   4.160   7.367 -1.8421 -0.6664  1.6918
 9338SOL    HW239648   4.559   4.183   7.457 -0.4519  0.7563 -1.1412
 9339SOL     OW39649   3.044   3.507   8.241 -0.1520  0.2990  0.1341
 9339SOL    HW139650   3.126   3.497   8.288  0.5372  2.9119 -0.5313
 9339SOL    HW239651   3.038   3.430   8.184  2.5106  0.7902 -0.7609
 9340SOL     OW39652   0.679   0.941   4.469  0.0754 -0.6736 -0.3466
 9340SOL    HW139653   0.720   0.990   4.540 -1.5123 -1.4008  1.0612
 9340SOL    HW239654   0.729   0.980   4.397  2.5617 -0.5980  1.4266
 9341SOL     OW39655   2.532   2.323   9.804  0.2356 -0.1998 -0.3833
 9341SOL    HW139656   2.518   2.267   9.728  0.9247  0.6796 -1.1682
 9341SOL    HW239657   2.515   2.411   9.768  0.7695 -0.0962 -0.3923
 9342SOL     OW39658   0.441   0.712  12.360 -0.4933  0.6654 -0.0608
 9342SOL    HW139659   0.525   0.668  12.372  0.1000  1.0561 -2.6669
 9342SOL    HW239660   0.412   0.724  12.450 -0.8512 -3.3486  0.3284
 9343SOL     OW39661   4.649   1.795   4.885  0.3229  0.3631  0.1418
 9343SOL    HW139662   4.656   1.740   4.806  0.8886  0.4889  0.1048
 9343SOL    HW239663   4.683   1.737   4.952 -2.1233  0.2977  1.3302
 9344SOL     OW39664   0.013   0.579   0.821  0.1938 -0.4964  0.5291
 9344SOL    HW139665   0.088   0.602   0.876  0.9666 -1.5999 -0.0533
 9344SOL    HW239666   4.694   0.655   0.841  1.1512 -0.0130  1.2929
 9345SOL     OW39667   1.992   1.217   0.113  0.1984 -0.3267 -0.0558
 9345SOL    HW139668   2.012   1.309   0.127  1.1295 -0.5737  0.2221
 9345SOL    HW239669   2.034   1.171   0.185  0.9649  1.5370  0.6625
 9346SOL     OW39670   2.327   3.228   7.599  0.8038 -0.5644  0.0673
 9346SOL    HW139671   2.257   3.218   7.664  1.2895  0.1657  0.7040
 9346SOL    HW239672   2.319   3.320   7.577  0.6867 -0.4321  0.6633
 9347SOL     OW39673   0.047   2.463   9.057 -0.4629  0.7063  0.1673
 9347SOL    HW139674   4.697   2.421   9.056 -0.3453  0.4594  0.3814
 9347SOL    HW239675   0.079   2.446   9.145  1.5645 -1.1281 -0.9205
 9348SOL     OW39676   1.928   2.873   4.810  0.2736 -0.6972  0.5280
 9348SOL    HW139677   1.833   2.867   4.820  0.0521  1.7156 -0.2984
 9348SOL    HW239678   1.947   2.967   4.815 -1.8790 -0.1480 -2.2625
 9349SOL     OW39679   3.464   2.584  14.511 -0.3269 -0.2862  1.0274
 9349SOL    HW139680   3.455   2.613  14.420  1.3710  1.3123  1.3809
 9349SOL    HW239681   3.543   2.531  14.510 -0.9072 -1.1061 -0.4126
 9350SOL     OW39682   2.502   2.244  12.310 -0.3914 -0.0493 -0.9539
 9350SOL    HW139683   2.417   2.230  12.269 -1.2667  0.8127  0.5570
 9350SOL    HW239684   2.471   2.309  12.373  1.0326 -0.1912 -0.0783
 9351SOL     OW39685   4.037   0.512   5.987 -0.4924  0.2803  0.0395
 9351SOL    HW139686   4.113   0.571   5.988  1.1885 -1.8777  0.3183
 9351SOL    HW239687   4.050   0.457   6.064 -2.4190 -0.8294 -0.4460
 9352SOL     OW39688   1.428   2.505   6.774  0.0356  0.0528 -0.3931
 9352SOL    HW139689   1.509   2.550   6.751  0.2605 -0.9101 -1.4804
 9352SOL    HW239690   1.378   2.508   6.693  0.7535  0.7514 -0.8143
 9353SOL     OW39691   4.632   3.049   9.200 -0.1940 -0.5808  0.2410
 9353SOL    HW139692   4.612   3.112   9.269 -0.2452 -1.2000  0.7910
 9353SOL    HW239693   4.541   3.023   9.188 -0.4224  0.6915 -0.7210
 9354SOL     OW39694   2.189   1.300  12.523 -0.4500  0.0626  0.4864
 9354SOL    HW139695   2.160   1.209  12.526  1.0978 -0.4550  0.1523
 9354SOL    HW239696   2.283   1.283  12.533 -0.2100  0.6419 -0.7687
 9355SOL     OW39697   2.061   2.183   4.169 -0.0280  0.3944 -0.2730
 9355SOL    HW139698   2.103   2.269   4.174  1.8016 -0.5589  0.5185
 9355SOL    HW239699   2.060   2.170   4.264  0.8125 -1.8626 -0.5875
 9356SOL     OW39700   4.709   4.123   9.831 -0.0749 -0.4913 -0.5711
 9356SOL    HW139701   0.026   4.102   9.754  0.3443 -2.0254  0.1207
 9356SOL    HW239702   4.682   4.047   9.884 -2.0223  1.5981  1.4230
 9357SOL     OW39703   4.315   3.075   8.320 -0.3138  0.2736  0.2045
 9357SOL    HW139704   4.350   3.024   8.247 -0.7322  1.0771 -0.5639
 9357SOL    HW239705   4.351   3.019   8.388 -2.2763  0.0665  1.0808
 9358SOL     OW39706   0.083   3.991   8.630  0.6528  0.2186 -0.0195
 9358SOL    HW139707   0.129   3.907   8.630  0.1511 -0.0524  2.0754
 9358SOL    HW239708   0.109   4.032   8.713  0.0040 -1.2400  0.9054
 9359SOL     OW39709   1.471   4.110   8.034 -0.0541  0.1616  0.3038
 9359SOL    HW139710   1.429   4.026   8.015 -0.6868  0.6924 -0.6622
 9359SOL    HW239711   1.521   4.122   7.953  2.7771  0.0365  2.0318
 9360SOL     OW39712   1.983   4.350   7.918  0.9258  0.2042  0.4093
 9360SOL    HW139713   2.005   4.429   7.967 -0.5563  1.0362 -0.2700
 9360SOL    HW239714   1.890   4.341   7.937  0.9528 -1.7434 -0.3834
 9361SOL     OW39715   0.620   2.113   5.234 -0.0268 -0.2515 -0.9066
 9361SOL    HW139716   0.630   2.208   5.235  3.0642 -0.6020 -0.0603
 9361SOL    HW239717   0.713   2.089   5.237  0.6640  2.7356  1.0730
 9362SOL     OW39718   1.718   0.233   0.807  0.6949  0.8403  0.3638
 9362SOL    HW139719   1.776   0.164   0.840 -0.2354 -0.7123 -1.2168
 9362SOL    HW239720   1.790   0.275   0.759  0.6420  0.2815 -0.2108
 9363SOL     OW39721   2.910   2.268   8.414  0.1540  0.2448 -0.5503
 9363SOL    HW139722   2.869   2.353   8.400  0.8049  0.4759 -1.0734
 9363SOL    HW239723   2.834   2.211   8.400 -1.5733  2.4103  0.0693
 9364SOL     OW39724   1.188   1.546  16.552 -0.1401 -0.2910 -0.4444
 9364SOL    HW139725   1.184   1.492  16.473  0.2757  0.8454 -1.2479
 9364SOL    HW239726   1.236   1.493  16.616 -1.7415  0.9750  1.7570
 9365SOL     OW39727   1.532   0.731   6.119 -0.0220 -0.0200 -0.0756
 9365SOL    HW139728   1.557   0.639   6.129  2.5715  0.6895 -0.0128
 9365SOL    HW239729   1.441   0.743   6.146  0.1988  0.7482  0.3429
 9366SOL     OW39730   1.603   1.550   0.037 -0.6007 -0.4497 -0.5671
 9366SOL    HW139731   1.640   1.463   0.052 -0.7833 -0.7974 -2.1814
 9366SOL    HW239732   1.683   1.603   0.036 -0.8505 -0.0649  0.1245
 9367SOL     OW39733   4.374   0.450   6.141  0.0268 -0.8282 -0.1248
 9367SOL    HW139734   4.344   0.503   6.068 -0.2553 -1.5544 -0.5380
 9367SOL    HW239735   4.293   0.407   6.168 -0.2759  0.4181  0.9671
 9368SOL     OW39736   3.089   3.283   3.838 -0.0259 -0.5609 -0.0858
 9368SOL    HW139737   3.092   3.303   3.931 -1.2251  0.7023 -0.3091
 9368SOL    HW239738   3.183   3.295   3.825  0.0355 -0.4636  0.4401
 9369SOL     OW39739   1.760   2.906   4.155 -0.0180  0.2637 -0.3592
 9369SOL    HW139740   1.748   2.996   4.184  1.5979  0.6573 -0.8845
 9369SOL    HW239741   1.851   2.913   4.125  0.8565 -1.2535  1.9842
 9370SOL     OW39742   0.189   1.672   2.237  0.7155 -0.1696 -0.6401
 9370SOL    HW139743   0.116   1.724   2.205  0.6440 -0.5223 -1.0542
 9370SOL    HW239744   0.225   1.639   2.155  1.5130  1.8284 -1.0872
 9371SOL     OW39745   2.430   2.734   4.680 -0.0328 -0.1708 -0.3401
 9371SOL    HW139746   2.341   2.700   4.677  0.4983 -1.3310 -2.5074
 9371SOL    HW239747   2.418   2.810   4.624  1.2789 -0.1554 -0.5912
 9372SOL     OW39748   3.290   2.555   7.138  0.2876  0.0121  0.5286
 9372SOL    HW139749   3.307   2.535   7.230  1.6918 -0.3795  0.1905
 9372SOL    HW239750   3.301   2.649   7.149  1.5635 -0.2752  1.7427
 9373SOL     OW39751   2.012   0.523  15.284 -0.3517 -0.3205  0.5520
 9373SOL    HW139752   2.066   0.597  15.311  0.7340 -0.5110 -1.1477
 9373SOL    HW239753   1.933   0.567  15.253 -1.4267 -2.1939  0.6153
 9374SOL     OW39754   4.040   1.578   4.048 -0.1501  0.1988 -0.1920
 9374SOL    HW139755   4.093   1.644   4.093 -0.8508  0.0109  0.8969
 9374SOL    HW239756   4.084   1.551   3.968  0.7722 -1.1023  0.7448
 9375SOL     OW39757   1.199   2.606   3.461  0.0337 -0.4814 -0.1991
 9375SOL    HW139758   1.203   2.638   3.551 -1.0880 -2.6105  0.6066
 9375SOL    HW239759   1.158   2.678   3.414 -0.9507 -0.8230  0.1516
 9376SOL     OW39760   2.985   0.035   8.637 -0.4220  0.1050  0.4753
 9376SOL    HW139761   2.926   4.697   8.654 -0.7529  0.2309 -0.1242
 9376SOL    HW239762   2.922   0.106   8.631 -1.0152 -0.2842  2.1547
 9377SOL     OW39763   2.155   1.185  16.219 -0.0990  0.3576  0.3050
 9377SOL    HW139764   2.087   1.147  16.273 -2.5628 -1.4808 -4.0970
 9377SOL    HW239765   2.131   1.278  16.218 -1.3744  0.0170 -1.0723
 9378SOL     OW39766   0.810   0.242   5.122  0.5888  0.0666  0.1862
 9378SOL    HW139767   0.902   0.245   5.096  1.1126 -0.9130  1.9444
 9378SOL    HW239768   0.750   0.241   5.047  1.7122  1.6124 -0.7296
 9379SOL     OW39769   2.461   1.618   7.612 -0.0471 -0.8131 -0.0700
 9379SOL    HW139770   2.450   1.524   7.632 -4.0563 -0.1462  0.9363
 9379SOL    HW239771   2.400   1.660   7.673 -1.1762 -0.0484 -1.7452
 9380SOL     OW39772   4.410   0.256   7.146 -0.0905  0.7424  0.0842
 9380SOL    HW139773   4.468   0.183   7.168 -0.3171  0.4404 -0.3055
 9380SOL    HW239774   4.437   0.332   7.197  1.9802 -0.1367  0.2684
 9381SOL     OW39775   3.782   1.008   4.909 -1.0455 -0.0499  0.3414
 9381SOL    HW139776   3.737   1.071   4.852  0.3221 -0.9947 -1.7669
 9381SOL    HW239777   3.845   1.060   4.959 -0.2948  0.1867 -0.8369
 9382SOL     OW39778   3.130   1.485   5.660  0.0474 -0.1162 -0.5039
 9382SOL    HW139779   3.189   1.491   5.735  0.1796  3.1445 -0.8772
 9382SOL    HW239780   3.135   1.572   5.622  2.0979 -0.2816 -0.6552
 9383SOL     OW39781   3.800   2.847   4.759  0.3982 -0.0950  0.0839
 9383SOL    HW139782   3.806   2.763   4.714  1.8968  0.0815 -0.0454
 9383SOL    HW239783   3.725   2.889   4.718 -0.1240 -0.1187  1.0215
 9384SOL     OW39784   0.783   1.572   9.984  0.8552  0.3343 -0.3140
 9384SOL    HW139785   0.721   1.557   9.913  1.2344 -1.4826 -0.2646
 9384SOL    HW239786   0.868   1.554   9.943  1.4920  1.9223  0.3086
 9385SOL     OW39787   1.115   2.487  15.649  0.0857 -0.0779  0.5162
 9385SOL    HW139788   1.080   2.400  15.629 -4.3185  1.3444  2.0966
 9385SOL    HW239789   1.080   2.539  15.577 -2.0024 -1.0537  0.8289
 9386SOL     OW39790   4.225   2.141  17.737  0.5916 -0.7454 -0.3213
 9386SOL    HW139791   4.284   2.204  17.694  0.4378 -0.1484  0.3560
 9386SOL    HW239792   4.283   2.103   0.061 -0.1597  0.4585  1.0349
 9387SOL     OW39793   0.591   0.136   9.624  0.1061  0.8176  0.7118
 9387SOL    HW139794   0.664   0.074   9.613 -0.7035 -0.1678  0.9202
 9387SOL    HW239795   0.572   0.097   9.710 -1.1594 -2.5367 -1.1027
 9388SOL     OW39796   0.579   3.946   5.218 -0.1175  0.4072  0.2514
 9388SOL    HW139797   0.628   3.900   5.150 -0.5490 -0.4508  0.5194
 9388SOL    HW239798   0.516   4.002   5.174  0.2788 -0.6536 -1.6705
 9389SOL     OW39799   3.995   0.917   8.714 -0.3900 -0.4336 -0.1400
 9389SOL    HW139800   4.028   0.990   8.663 -0.1277 -0.9294 -0.6763
 9389SOL    HW239801   4.082   0.890   8.741 -0.8012 -0.2931  1.3474
 9390SOL     OW39802   2.492   2.245   2.167 -0.2075  0.3746 -0.1502
 9390SOL    HW139803   2.450   2.170   2.125  0.6842  0.8990 -1.9972
 9390SOL    HW239804   2.422   2.309   2.179  0.3398  0.7431  1.1619
 9391SOL     OW39805   3.792   4.639   8.912  0.4522 -0.4470  0.5140
 9391SOL    HW139806   3.718   4.628   8.973 -0.0929  0.6046  0.0404
 9391SOL    HW239807   3.855   4.592   8.966  1.1697  1.4650  1.3269
 9392SOL     OW39808   3.264   2.270   8.502  0.1848  0.2972  0.4944
 9392SOL    HW139809   3.190   2.232   8.550  0.2461 -0.7562 -0.2528
 9392SOL    HW239810   3.337   2.208   8.501  1.9836  2.4492 -1.3289
 9393SOL     OW39811   2.008   3.499   8.393 -0.4940  0.6901 -0.3689
 9393SOL    HW139812   1.949   3.492   8.468  0.7697  3.1231  0.8455
 9393SOL    HW239813   2.057   3.417   8.386 -0.7440  0.3902  1.3435
 9394SOL     OW39814   0.657   2.179   3.514  0.2013 -0.1402 -0.2538
 9394SOL    HW139815   0.678   2.264   3.552 -0.6272  0.0019 -0.1136
 9394SOL    HW239816   0.577   2.203   3.468 -0.4853  0.2333  1.1506
 9395SOL     OW39817   3.326   2.568  11.321 -0.0173  0.1191 -0.1830
 9395SOL    HW139818   3.298   2.628  11.391 -1.3282  0.1803 -0.7553
 9395SOL    HW239819   3.332   2.631  11.250 -2.1154  0.2096 -0.2810
 9396SOL     OW39820   0.635   3.472  13.758 -0.4319  0.4501  0.0340
 9396SOL    HW139821   0.580   3.442  13.686  0.8298 -0.7771 -0.4107
 9396SOL    HW239822   0.606   3.421  13.834 -2.3248 -0.4013 -1.2834
 9397SOL     OW39823   4.588   1.586   6.658 -0.0669 -0.4516 -0.3919
 9397SOL    HW139824   4.620   1.558   6.572  1.4498  2.0797 -0.6749
 9397SOL    HW239825   4.496   1.607   6.643 -0.0288  0.3966  0.5619
 9398SOL     OW39826   3.934   2.257   8.149 -0.2528 -0.1098  0.1132
 9398SOL    HW139827   3.929   2.296   8.236  0.1557 -1.5341  0.7888
 9398SOL    HW239828   3.872   2.185   8.163 -1.4764  1.4234  2.5474
 9399SOL     OW39829   2.309   3.222   2.518 -0.0519  0.2680  0.3182
 9399SOL    HW139830   2.379   3.184   2.572 -0.1523  0.2838  0.4603
 9399SOL    HW239831   2.236   3.175   2.558  0.5355 -0.4873  0.5084
 9400SOL     OW39832   2.799   2.480   5.758  0.0203  0.5808  0.0671
 9400SOL    HW139833   2.757   2.464   5.673 -3.4835 -0.9593  2.0718
 9400SOL    HW239834   2.775   2.401   5.806  1.8845  0.2069  0.3695
 9401SOL     OW39835   3.186   3.362   7.438  0.3814  0.1934 -0.8074
 9401SOL    HW139836   3.201   3.325   7.351 -0.2198 -1.8422 -0.0530
 9401SOL    HW239837   3.170   3.450   7.405  2.2150  1.2731  1.1209
 9402SOL     OW39838   3.664   4.099   5.363 -0.6268 -0.0307 -0.3195
 9402SOL    HW139839   3.676   4.165   5.294  1.8652 -1.2905 -1.0978
 9402SOL    HW239840   3.669   4.017   5.314  1.0723  0.3343 -0.7633
 9403SOL     OW39841   1.874   4.198  17.482 -0.5818  0.0109  0.3360
 9403SOL    HW139842   1.834   4.111  17.484  1.3902 -0.8915  0.0187
 9403SOL    HW239843   1.926   4.197  17.562  3.0097  1.9091 -2.0015
 9404SOL     OW39844   0.777   3.139   3.034 -0.0613  0.2272 -0.2206
 9404SOL    HW139845   0.831   3.164   3.109  0.4517 -1.3844 -0.0732
 9404SOL    HW239846   0.694   3.118   3.077  0.8204  1.5298  2.0908
 9405SOL     OW39847   4.362   3.602   4.642 -0.7516  0.2461  0.1630
 9405SOL    HW139848   4.430   3.636   4.584 -0.8974  0.2334 -0.0131
 9405SOL    HW239849   4.316   3.535   4.592  1.0234 -1.2451  0.5638
 9406SOL     OW39850   2.967   3.328  14.104 -0.2571  0.5181 -0.1246
 9406SOL    HW139851   2.893   3.334  14.043 -0.5241  0.8499  0.2395
 9406SOL    HW239852   3.013   3.409  14.082 -0.0312  0.5550  0.4839
 9407SOL     OW39853   1.564   1.700  13.121  0.3623 -0.2520  0.0606
 9407SOL    HW139854   1.566   1.796  13.114 -1.3679 -0.3067 -1.1314
 9407SOL    HW239855   1.478   1.675  13.087  0.5519  0.9546 -1.2990
 9408SOL     OW39856   4.192   1.942   0.713  0.4803 -0.3511  0.4360
 9408SOL    HW139857   4.189   1.907   0.802 -0.0585  0.5171  0.7594
 9408SOL    HW239858   4.104   1.981   0.709 -0.6009 -2.9878 -1.5024
 9409SOL     OW39859   3.704   4.553   2.403  0.4816 -0.3801  0.2735
 9409SOL    HW139860   3.713   4.545   2.498 -2.8810  0.2402  0.6152
 9409SOL    HW239861   3.799   4.550   2.390  0.9626 -0.9820  3.7660
 9410SOL     OW39862   2.943   4.635  17.340  0.0087 -0.2811  0.1898
 9410SOL    HW139863   2.892   4.588  17.406  1.0768 -0.3289  0.9816
 9410SOL    HW239864   2.878   4.682  17.288  1.2524  0.6485 -0.5295
 9411SOL     OW39865   2.122   1.113   6.546  0.4570 -0.1793 -0.1094
 9411SOL    HW139866   2.121   1.037   6.604 -2.4596  0.2727  0.4497
 9411SOL    HW239867   2.175   1.070   6.479 -1.0038  0.3408 -1.5948
 9412SOL     OW39868   2.940   2.972   1.918 -0.3558  0.3052  0.1453
 9412SOL    HW139869   2.899   2.897   1.876 -0.0150  0.5356 -0.5911
 9412SOL    HW239870   3.033   2.949   1.918 -0.0499  1.5183  0.3605
 9413SOL     OW39871   3.207   2.261  15.304  0.1748  0.3011 -0.5977
 9413SOL    HW139872   3.193   2.204  15.228  0.0202  1.0377 -1.1140
 9413SOL    HW239873   3.197   2.204  15.381  1.6081  0.9850  0.0972
 9414SOL     OW39874   0.381   3.896  13.403 -0.1809  0.2082  0.4925
 9414SOL    HW139875   0.375   3.982  13.446 -0.4849 -0.1753  1.2187
 9414SOL    HW239876   0.335   3.909  13.319  0.4661 -0.8794 -0.0166
 9415SOL     OW39877   1.885   2.798   6.633 -0.2731  0.0041  0.1784
 9415SOL    HW139878   1.918   2.733   6.695 -1.5149  2.3600  3.2729
 9415SOL    HW239879   1.791   2.783   6.634 -0.2170 -0.3332  0.3782
 9416SOL     OW39880   3.369   1.754  12.799 -0.1849  0.3792 -0.4413
 9416SOL    HW139881   3.320   1.673  12.807  1.8375 -0.6240  1.8737
 9416SOL    HW239882   3.400   1.758  12.890 -1.2773 -2.1880  0.0389
 9417SOL     OW39883   0.287   0.407   5.575  0.3495  0.1091 -0.3544
 9417SOL    HW139884   0.327   0.383   5.491 -1.8322 -0.3989 -1.2339
 9417SOL    HW239885   0.260   0.320   5.603  0.0691  0.4665  0.4875
 9418SOL     OW39886   3.870   3.511   2.073 -0.6122 -0.3570  0.5471
 9418SOL    HW139887   3.803   3.534   2.137 -1.6379  1.9003 -1.3320
 9418SOL    HW239888   3.945   3.508   2.132 -1.5547 -0.8980  1.7123
 9419SOL     OW39889   4.154   1.001   4.633 -0.8106 -0.0704  0.1273
 9419SOL    HW139890   4.082   0.955   4.588 -0.3841 -1.6223  1.0325
 9419SOL    HW239891   4.195   1.041   4.557 -0.3191 -0.0101  0.4251
 9420SOL     OW39892   0.797   1.533  12.370 -0.3038 -0.1281 -0.1603
 9420SOL    HW139893   0.833   1.599  12.311 -0.4411 -0.6055 -0.7666
 9420SOL    HW239894   0.711   1.565  12.397  0.5703  1.1649  1.1439
 9421SOL     OW39895   1.303   2.323   3.827 -0.1031  0.0084  0.1225
 9421SOL    HW139896   1.370   2.385   3.855 -1.3993  2.1273 -1.5313
 9421SOL    HW239897   1.228   2.362   3.873  0.3372  0.4645  0.4599
 9422SOL     OW39898   3.507   2.617   8.602  0.0387  0.3714 -1.1298
 9422SOL    HW139899   3.423   2.592   8.641  0.6030 -2.1671 -1.5074
 9422SOL    HW239900   3.504   2.568   8.519  0.6101 -1.9198  0.1919
 9423SOL     OW39901   1.582   3.726   4.645  0.5865  0.0208 -0.0307
 9423SOL    HW139902   1.666   3.769   4.630  0.9477  0.5035  3.4815
 9423SOL    HW239903   1.520   3.787   4.606  1.9675  1.2727 -0.2750
 9424SOL     OW39904   2.592   1.730  13.965 -0.3207 -0.6569 -0.2414
 9424SOL    HW139905   2.682   1.704  13.945  0.9112  1.6249  2.2284
 9424SOL    HW239906   2.615   1.817  13.999 -1.5153 -0.0836 -0.9150
 9425SOL     OW39907   0.748   3.837   5.947  0.2991 -0.2408  0.2196
 9425SOL    HW139908   0.777   3.758   5.992 -0.1121  0.0831  1.0476
 9425SOL    HW239909   0.658   3.827   5.978  0.2338  0.9658  0.4108
 9426SOL     OW39910   2.536   2.033   3.387 -0.0438 -0.3038  0.6373
 9426SOL    HW139911   2.459   1.989   3.348 -0.9240  0.6358  1.3281
 9426SOL    HW239912   2.601   2.033   3.317 -0.8111 -0.3599 -0.0822
 9427SOL     OW39913   0.196   1.754   7.919 -0.2870  0.2099 -0.0479
 9427SOL    HW139914   0.130   1.692   7.889  0.7130  0.1624 -2.1454
 9427SOL    HW239915   0.273   1.703   7.941 -1.3281 -0.6999  1.4979
 9428SOL     OW39916   2.796   2.986   7.552 -0.0542  0.1537 -0.1087
 9428SOL    HW139917   2.742   3.065   7.557  2.7665  1.9968  1.2004
 9428SOL    HW239918   2.828   2.976   7.641 -0.1329  0.4416 -0.0489
 9429SOL     OW39919   2.985   2.130   1.862 -0.0885  0.6146 -0.2460
 9429SOL    HW139920   3.033   2.204   1.825  1.3831 -0.2275 -0.0247
 9429SOL    HW239921   3.057   2.067   1.872  0.8428  1.5983 -0.7175
 9430SOL     OW39922   3.275   3.912   6.226  0.3077  0.1961 -0.0513
 9430SOL    HW139923   3.256   3.846   6.159  0.1740  1.3671 -1.1581
 9430SOL    HW239924   3.187   3.949   6.231  0.4075 -0.0047  3.2098
 9431SOL     OW39925   4.670   2.095   5.392 -0.2377  0.6923  0.0545
 9431SOL    HW139926   4.664   2.030   5.322 -0.2271  0.1866  0.5197
 9431SOL    HW239927   4.601   2.075   5.456 -1.8125  2.4944 -1.1037
 9432SOL     OW39928   3.758   3.116   9.289 -0.2027  0.4585  0.3609
 9432SOL    HW139929   3.664   3.102   9.278 -0.2162  0.5738  0.3281
 9432SOL    HW239930   3.756   3.206   9.320 -1.0126  0.9096 -0.9918
 9433SOL     OW39931   2.239   2.619  14.988 -0.5692  0.3390  0.2397
 9433SOL    HW139932   2.245   2.587  14.898  1.7370 -2.8560  1.5609
 9433SOL    HW239933   2.311   2.682  14.998 -0.1052 -0.1397 -0.1554
 9434SOL     OW39934   2.272   2.743   3.697  0.1567  0.3553 -0.2004
 9434SOL    HW139935   2.178   2.730   3.709  0.6148 -2.1802  0.4751
 9434SOL    HW239936   2.298   2.654   3.674  2.1332  0.9315 -0.1611
 9435SOL     OW39937   4.022   2.929   4.931  0.5109 -0.0308 -0.2404
 9435SOL    HW139938   3.933   2.908   4.901  0.2941  3.2907 -1.8379
 9435SOL    HW239939   4.039   3.022   4.921 -0.3107  0.3140  1.4957
 9436SOL     OW39940   2.773   4.351   2.422  0.0898 -0.4148  0.2917
 9436SOL    HW139941   2.825   4.421   2.383  0.2304 -0.3362  0.6137
 9436SOL    HW239942   2.720   4.398   2.486 -1.5537 -1.5271 -0.2397
 9437SOL     OW39943   0.682   4.481   5.690 -0.4804  0.4939  0.0141
 9437SOL    HW139944   0.623   4.485   5.765  0.6688 -0.5767  0.9668
 9437SOL    HW239945   0.727   4.400   5.712  0.2144  0.5156 -1.2965
 9438SOL     OW39946   1.742   2.292  10.661  0.2584 -0.7194 -0.7214
 9438SOL    HW139947   1.768   2.201  10.675 -1.8628 -0.9053  2.0554
 9438SOL    HW239948   1.746   2.338  10.745  0.7729  0.4053 -1.3630
 9439SOL     OW39949   1.936   3.867   2.409 -0.0287  0.1133 -0.0060
 9439SOL    HW139950   1.967   3.786   2.449 -0.0735 -0.3492 -0.9042
 9439SOL    HW239951   1.946   3.842   2.317 -0.9528 -0.8285  0.1451
 9440SOL     OW39952   1.316   2.151  11.163  0.3802 -0.5125  0.6805
 9440SOL    HW139953   1.383   2.097  11.122 -0.0519  0.1215 -0.8342
 9440SOL    HW239954   1.276   2.097  11.232 -0.7321 -1.0926 -0.4197
 9441SOL     OW39955   2.586   4.320   5.454  0.1309  0.4745  0.6236
 9441SOL    HW139956   2.609   4.232   5.427 -0.1238  1.5637 -3.1424
 9441SOL    HW239957   2.661   4.349   5.507  0.0481  0.0778  0.9540
 9442SOL     OW39958   2.848   1.879   4.875  0.0939  0.3382 -0.0467
 9442SOL    HW139959   2.798   1.823   4.933  1.8818 -1.7028 -0.4668
 9442SOL    HW239960   2.908   1.814   4.837 -0.3704 -0.5091  0.7024
 9443SOL     OW39961   1.604   2.367   8.343 -0.1119 -0.2667 -0.4864
 9443SOL    HW139962   1.687   2.353   8.388 -0.2844  0.8388  0.1708
 9443SOL    HW239963   1.542   2.306   8.384  0.7646  0.4765  1.9916
 9444SOL     OW39964   4.372   0.386  14.815 -0.1359 -0.3310  0.0271
 9444SOL    HW139965   4.335   0.312  14.767 -0.7949  0.7302 -1.0838
 9444SOL    HW239966   4.397   0.333  14.890 -2.6246  1.1228  1.8712
 9445SOL     OW39967   3.627   1.221   6.528 -0.5367 -0.2883 -0.1750
 9445SOL    HW139968   3.662   1.132   6.533 -1.7152 -0.7134  0.5212
 9445SOL    HW239969   3.565   1.229   6.600 -0.2085  3.8168 -0.3546
 9446SOL     OW39970   3.126   3.586  12.147  0.0786 -0.2428  0.6691
 9446SOL    HW139971   3.067   3.511  12.142  1.0371 -1.0091  0.7610
 9446SOL    HW239972   3.082   3.654  12.096  0.7504  0.0057  0.4158
 9447SOL     OW39973   3.561   0.676   7.460 -0.6830 -0.3446  0.4843
 9447SOL    HW139974   3.596   0.680   7.371  1.1426  1.9236  1.3095
 9447SOL    HW239975   3.543   0.584   7.479  1.2933 -0.8802 -0.2100
 9448SOL     OW39976   3.475   4.591  17.740  0.1241 -0.7817 -0.1744
 9448SOL    HW139977   3.424   4.672   0.002 -0.5761 -1.2626  0.8502
 9448SOL    HW239978   3.565   4.622   0.008 -0.9870  1.8688  1.7817
 9449SOL     OW39979   1.994   3.507   4.336  0.2875 -0.3613 -0.4246
 9449SOL    HW139980   1.924   3.451   4.369 -1.5233  1.0653 -1.8673
 9449SOL    HW239981   1.972   3.585   4.387  1.5333  0.0574 -0.5087
 9450SOL     OW39982   1.659   4.129   7.807  0.0483 -0.1187 -0.1643
 9450SOL    HW139983   1.698   4.160   7.726  0.5310 -1.5089 -0.4674
 9450SOL    HW239984   1.692   4.039   7.802  0.3642 -0.1186  1.7045
 9451SOL     OW39985   2.356   3.159   7.958 -0.1313 -0.4084 -0.1108
 9451SOL    HW139986   2.395   3.074   7.936  1.3684  0.3475 -0.2958
 9451SOL    HW239987   2.361   3.159   8.053 -0.5371 -1.2135 -0.0857
 9452SOL     OW39988   2.725   1.475   9.861  0.1732 -0.2191 -0.1522
 9452SOL    HW139989   2.721   1.502   9.953 -1.3062 -0.8231 -0.0464
 9452SOL    HW239990   2.654   1.411   9.861 -1.3136  1.4452  2.4417
 9453SOL     OW39991   3.714   0.168   9.791  0.0050 -0.7750 -0.3090
 9453SOL    HW139992   3.738   0.092   9.844  2.0434 -0.0026 -0.1243
 9453SOL    HW239993   3.620   0.162   9.777 -0.3722 -1.7067  2.6854
 9454SOL     OW39994   3.477   4.687   2.351  0.2171 -0.7547 -0.2590
 9454SOL    HW139995   3.466   4.661   2.260  1.2778 -1.9273 -0.0579
 9454SOL    HW239996   3.554   4.631   2.364 -0.0033 -0.6416  1.5191
 9455SOL     OW39997   3.256   3.084   4.132 -0.7583  0.1081 -0.3282
 9455SOL    HW139998   3.313   3.048   4.064 -1.1725  0.1060 -0.6805
 9455SOL    HW239999   3.197   3.011   4.147  0.1882 -0.0659  2.5248
 9456SOL     OW40000   2.115   0.064  14.650 -0.6705  0.3152  0.6688
 9456SOL    HW140001   2.166   0.141  14.675  0.9084 -0.2635 -0.7275
 9456SOL    HW240002   2.058   0.102  14.583 -0.1485  0.5376  0.3435
 9457SOL     OW40003   2.141   0.245   8.199 -0.0244 -0.0800  0.3097
 9457SOL    HW140004   2.205   0.294   8.147  0.3395 -1.2786 -0.3809
 9457SOL    HW240005   2.131   0.166   8.146 -0.9909  0.4033 -0.2351
 9458SOL     OW40006   3.282   3.238  17.619  0.1897 -0.8125 -0.0939
 9458SOL    HW140007   3.262   3.144  17.623  1.4974 -0.9809  2.5917
 9458SOL    HW240008   3.192   3.266  17.600  1.3751  1.0692 -2.9066
 9459SOL     OW40009   2.581   4.396   4.423  0.2463 -0.2575 -0.4395
 9459SOL    HW140010   2.566   4.490   4.438 -0.5293 -0.6629  1.3429
 9459SOL    HW240011   2.668   4.401   4.384 -0.4094 -0.4957 -1.9110
 9460SOL     OW40012   2.504   1.612   4.678 -0.7292  0.3170 -0.1598
 9460SOL    HW140013   2.447   1.652   4.744  0.1221  1.0231  0.1465
 9460SOL    HW240014   2.442   1.556   4.631  1.5977  0.3469 -3.2254
 9461SOL     OW40015   1.702   2.117  13.149 -0.7199 -0.5041 -0.0631
 9461SOL    HW140016   1.696   2.071  13.232 -1.6811 -0.8076 -0.2975
 9461SOL    HW240017   1.645   2.061  13.096  0.1925 -2.4134  0.9928
 9462SOL     OW40018   4.486   0.156  12.715  0.0348 -0.1311 -0.4437
 9462SOL    HW140019   4.539   0.141  12.793 -0.4858 -0.1167 -0.0877
 9462SOL    HW240020   4.561   0.176  12.659 -1.1350 -0.1280 -2.0121
 9463SOL     OW40021   2.868   0.310   3.869  0.4203 -0.6968 -0.0012
 9463SOL    HW140022   2.876   0.215   3.860  0.8835 -0.6905  0.3549
 9463SOL    HW240023   2.908   0.322   3.956  1.5930  0.9556 -0.7732
 9464SOL     OW40024   0.747   4.004  13.972 -0.0877  0.0153  0.4153
 9464SOL    HW140025   0.755   3.914  13.941 -0.5076 -0.6886  2.3174
 9464SOL    HW240026   0.674   4.038  13.920 -0.2177 -0.2373  0.4352
 9465SOL     OW40027   3.023   0.828   1.686  0.6864  0.3333  0.5110
 9465SOL    HW140028   3.099   0.853   1.738 -1.1085 -2.5242  4.5178
 9465SOL    HW240029   2.945   0.873   1.718 -0.1491  0.6921 -2.0300
 9466SOL     OW40030   3.380   3.309   2.403  0.0023 -0.1476  0.2310
 9466SOL    HW140031   3.287   3.330   2.410  0.2210  1.1442 -0.8070
 9466SOL    HW240032   3.410   3.320   2.493  0.8054  0.9135 -0.1691
 9467SOL     OW40033   3.212   2.518  10.493  0.1582  0.1784  0.3781
 9467SOL    HW140034   3.156   2.478  10.560  0.1094 -1.5405 -0.7167
 9467SOL    HW240035   3.195   2.462  10.418 -0.2990  1.0402 -0.1649
 9468SOL     OW40036   2.560   4.485  14.138  0.3878  0.1233 -0.5694
 9468SOL    HW140037   2.576   4.465  14.046  1.0362 -0.8886 -0.2374
 9468SOL    HW240038   2.518   4.402  14.164  1.9698 -0.5644 -0.2519
 9469SOL     OW40039   4.553   3.640   8.025  0.0794  0.1932  0.1215
 9469SOL    HW140040   4.614   3.595   7.967  0.4604 -0.4042  0.9979
 9469SOL    HW240041   4.469   3.638   7.979 -0.3484  1.1940  0.8511
 9470SOL     OW40042   0.945   3.515   9.415  0.2399 -0.8830 -0.2581
 9470SOL    HW140043   0.869   3.457   9.419  0.3953 -1.0724 -0.0559
 9470SOL    HW240044   0.991   3.516   9.499 -3.0545 -0.9213  1.5533
 9471SOL     OW40045   0.859   3.384   8.433  0.3962  0.2843  0.4125
 9471SOL    HW140046   0.946   3.392   8.472  0.4921  4.3633 -0.5839
 9471SOL    HW240047   0.822   3.472   8.427  0.1447  0.1124 -0.5005
 9472SOL     OW40048   1.945   4.674   2.620 -0.1744  0.3891 -0.1557
 9472SOL    HW140049   1.887   0.011   2.641  1.8390  1.4631  1.5888
 9472SOL    HW240050   1.972   4.648   2.708  1.8722  0.8368 -0.6657
 9473SOL     OW40051   2.970   0.859   4.982 -0.4210  0.0673  0.7244
 9473SOL    HW140052   2.910   0.786   4.994 -0.0523 -0.1145  1.4450
 9473SOL    HW240053   2.936   0.914   4.912 -0.3947  1.3561  1.7407
 9474SOL     OW40054   2.979   3.160   0.156  0.3242  0.3733 -0.2863
 9474SOL    HW140055   2.914   3.094   0.179 -1.1872  2.0990  0.4146
 9474SOL    HW240056   3.031   3.179   0.234 -0.7596 -2.7064  1.1921
 9475SOL     OW40057   3.015   3.320  10.816 -0.1743 -0.3045 -0.3409
 9475SOL    HW140058   2.979   3.251  10.871  0.8423 -0.7604 -0.2496
 9475SOL    HW240059   2.970   3.302  10.734  0.3597  1.9945 -1.1489
 9476SOL     OW40060   2.257   1.149  15.849 -0.0906  0.6424 -0.1507
 9476SOL    HW140061   2.259   1.238  15.885  3.0228  0.7691 -0.6553
 9476SOL    HW240062   2.346   1.119  15.870 -0.9933 -0.7198  1.7481
 9477SOL     OW40063   2.400   3.442   5.019 -0.9419  0.1412 -0.8305
 9477SOL    HW140064   2.419   3.534   5.038 -1.7427  0.0343  0.4348
 9477SOL    HW240065   2.444   3.436   4.934 -1.0912  0.0507 -0.9007
 9478SOL     OW40066   2.035   1.780  12.704  0.0060  0.0202 -0.4124
 9478SOL    HW140067   1.997   1.812  12.623  1.2220 -1.0530 -1.4102
 9478SOL    HW240068   2.119   1.826  12.705 -0.8900  1.6444  0.3810
 9479SOL     OW40069   2.535   0.031   4.692 -0.5903  0.1084  0.0056
 9479SOL    HW140070   2.615   0.082   4.682 -2.0317  1.9812 -2.0044
 9479SOL    HW240071   2.570   4.683   4.722  0.7386  1.1535  1.4046
 9480SOL     OW40072   4.497   0.436   6.893  0.4932  0.4848 -0.2921
 9480SOL    HW140073   4.538   0.350   6.885  1.0047  0.6123  0.9047
 9480SOL    HW240074   4.566   0.482   6.940  0.6311  0.2677 -0.2817
 9481SOL     OW40075   3.997   1.183   7.687  0.3177 -0.0368  0.5130
 9481SOL    HW140076   4.030   1.103   7.647  1.0414  0.2428  0.5435
 9481SOL    HW240077   3.954   1.216   7.608  0.2769  0.1802  0.6246
 9482SOL     OW40078   1.372   1.238   6.514 -0.1070  0.2729 -0.4595
 9482SOL    HW140079   1.462   1.245   6.543 -0.6932  3.2042  0.6899
 9482SOL    HW240080   1.326   1.294   6.577 -0.0249 -1.2817  0.9565
 9483SOL     OW40081   3.858   1.587   1.796  0.2189  0.3820 -0.1085
 9483SOL    HW140082   3.823   1.508   1.755  1.1943 -0.9318  1.6404
 9483SOL    HW240083   3.943   1.599   1.754 -0.6445  2.1872 -1.3583
 9484SOL     OW40084   0.817   0.222  15.354 -0.0525 -0.5156 -0.6098
 9484SOL    HW140085   0.741   0.170  15.327  0.6075 -0.6484 -2.1932
 9484SOL    HW240086   0.864   0.243  15.273  0.8692  1.4978  0.4499
 9485SOL     OW40087   4.524   2.668  12.164 -0.1560 -0.4203 -0.1291
 9485SOL    HW140088   4.618   2.679  12.148 -0.1954 -0.6257 -0.5154
 9485SOL    HW240089   4.509   2.631  12.077  0.5467 -0.6608 -0.1553
 9486SOL     OW40090   2.572   1.493  14.168  0.4674  0.5182  0.0765
 9486SOL    HW140091   2.590   1.578  14.129  0.2862 -0.2933 -1.7948
 9486SOL    HW240092   2.663   1.471  14.188 -0.0409 -2.0768 -0.4102
 9487SOL     OW40093   1.457   1.595   0.537  0.2687  0.2410 -0.5971
 9487SOL    HW140094   1.416   1.514   0.570  2.0292  0.2686  1.5991
 9487SOL    HW240095   1.493   1.574   0.451 -1.0999 -0.8994 -0.9084
 9488SOL     OW40096   2.838   0.596   4.657 -0.5033  0.0519 -0.1602
 9488SOL    HW140097   2.800   0.681   4.680 -1.8914 -0.9534  1.2493
 9488SOL    HW240098   2.820   0.541   4.733  0.9331  0.8722  0.7801
 9489SOL     OW40099   3.268   2.644   2.426  0.4418 -0.0499  0.2471
 9489SOL    HW140100   3.221   2.575   2.473 -0.5540  0.6769  0.3104
 9489SOL    HW240101   3.357   2.631   2.459  0.4873  1.3729  0.6664
 9490SOL     OW40102   2.754   1.684  14.896  0.0336  0.2219 -0.1310
 9490SOL    HW140103   2.759   1.619  14.826  3.7479  0.1257  0.2164
 9490SOL    HW240104   2.804   1.646  14.968 -0.5821  1.7522  1.1173
 9491SOL     OW40105   1.919   3.593   6.392  0.4868 -0.2064 -0.2243
 9491SOL    HW140106   2.004   3.584   6.349 -0.4053 -2.0019 -1.6634
 9491SOL    HW240107   1.923   3.679   6.432 -1.2660 -0.4960  0.5603
 9492SOL     OW40108   1.950   1.852   7.455  0.1121 -0.4797  0.2933
 9492SOL    HW140109   1.924   1.762   7.437 -0.7804 -0.1072 -0.3130
 9492SOL    HW240110   1.964   1.889   7.368  0.9567  1.0725  1.0969
 9493SOL     OW40111   4.387   0.413   8.319  0.4119  0.3286 -0.7605
 9493SOL    HW140112   4.377   0.361   8.399 -0.7302  0.5214 -0.7861
 9493SOL    HW240113   4.337   0.356   8.261  1.6828 -0.1165 -1.4188
 9494SOL     OW40114   0.726   0.157   9.949  0.6351  0.0221 -0.0564
 9494SOL    HW140115   0.663   0.092   9.918  0.8396  0.3123 -1.0946
 9494SOL    HW240116   0.701   0.148  10.041  3.0216  1.1774  0.7089
 9495SOL     OW40117   2.118   3.510   2.930  0.0847  0.1863  0.1951
 9495SOL    HW140118   2.160   3.488   3.014 -0.3481  1.7146  0.8103
 9495SOL    HW240119   2.062   3.583   2.957 -0.0817  0.3691 -0.6567
 9496SOL     OW40120   1.062   4.451   5.369 -0.0477 -0.2099  0.2654
 9496SOL    HW140121   1.136   4.391   5.357 -0.7155 -1.3660  1.8770
 9496SOL    HW240122   1.058   4.457   5.465 -0.6927 -0.2165  0.2374
 9497SOL     OW40123   1.440   4.724   2.236  0.1677  0.4154  0.0279
 9497SOL    HW140124   1.518   4.692   2.279 -0.4784  1.4576  1.9657
 9497SOL    HW240125   1.431   4.652   2.174  2.3700  0.0093  0.2049
 9498SOL     OW40126   2.147   0.012   3.566 -0.3658  0.1168  0.5036
 9498SOL    HW140127   2.067   0.065   3.560  0.9339  1.6994 -2.3142
 9498SOL    HW240128   2.158   0.017   3.661  1.8770 -0.2539  0.2420
 9499SOL     OW40129   1.178   2.456   3.227 -0.4488  0.0290 -0.2056
 9499SOL    HW140130   1.126   2.387   3.268 -0.3135 -2.5073 -4.2453
 9499SOL    HW240131   1.174   2.520   3.297  3.9187 -2.0382  1.9474
 9500SOL     OW40132   0.739   4.268   3.036 -0.8303  0.0892 -0.5557
 9500SOL    HW140133   0.792   4.348   3.043 -1.3674  0.2962  1.1759
 9500SOL    HW240134   0.718   4.253   3.128 -1.0998  0.2704 -0.5899
 9501SOL     OW40135   1.011   3.562   1.847 -0.1570 -0.1240 -0.8144
 9501SOL    HW140136   0.961   3.481   1.860  0.0434  0.1375  1.4673
 9501SOL    HW240137   0.950   3.615   1.795 -0.1798 -0.4074 -1.0771
 9502SOL     OW40138   3.975   1.213   2.219 -0.0255  0.1571 -0.1411
 9502SOL    HW140139   4.017   1.131   2.192 -2.4175  0.0706 -3.5233
 9502SOL    HW240140   3.959   1.200   2.313  0.6834  1.6675  0.1975
 9503SOL     OW40141   0.487   1.170   5.705 -0.0120  0.8712 -0.7543
 9503SOL    HW140142   0.558   1.156   5.767 -0.3579  1.8190 -0.1483
 9503SOL    HW240143   0.464   1.082   5.674 -1.7706  1.2697 -0.6007
 9504SOL     OW40144   2.669   1.738   7.484 -0.2345  0.0131 -0.1313
 9504SOL    HW140145   2.595   1.706   7.535 -0.0540  1.2617  0.9176
 9504SOL    HW240146   2.690   1.666   7.424 -3.8324 -0.5833 -0.6545
 9505SOL     OW40147   4.254   0.584   4.104 -0.0301 -0.4541  0.2033
 9505SOL    HW140148   4.193   0.511   4.119  1.5743 -1.4324  2.0480
 9505SOL    HW240149   4.189   0.641   4.063 -0.5478 -2.1172 -1.3017
 9506SOL     OW40150   4.069   0.998   2.023  0.2224  0.1893 -0.1107
 9506SOL    HW140151   4.038   0.921   1.976 -0.9631  0.7319 -0.2136
 9506SOL    HW240152   4.001   1.062   2.003  0.2067  0.0823 -0.3932
 9507SOL     OW40153   0.699   0.949   9.085 -0.5799  0.2494 -0.3769
 9507SOL    HW140154   0.672   1.031   9.043  0.7089  0.5679 -0.5630
 9507SOL    HW240155   0.624   0.890   9.087 -0.4053 -0.0012 -1.4029
 9508SOL     OW40156   4.567   1.123   8.399  0.2499 -0.0106 -0.1534
 9508SOL    HW140157   4.551   1.032   8.427 -0.7996 -0.0940 -1.0014
 9508SOL    HW240158   4.657   1.130   8.431 -0.2194  1.1203  0.9470
 9509SOL     OW40159   3.808   3.812  17.017 -0.7203  0.4027 -0.1609
 9509SOL    HW140160   3.770   3.896  17.045  2.1288  1.1075  1.5492
 9509SOL    HW240161   3.752   3.746  17.057 -1.1818 -0.4626 -2.2063
 9510SOL     OW40162   3.668   0.570  14.945 -0.2139 -0.4032 -0.2203
 9510SOL    HW140163   3.708   0.622  15.015 -0.1020  1.1120 -1.4357
 9510SOL    HW240164   3.604   0.629  14.906  0.6778  0.2599 -0.6743
 9511SOL     OW40165   3.161   1.447   2.958  0.2222  0.1889  0.5422
 9511SOL    HW140166   3.203   1.363   2.974  1.6940  0.6559 -0.8673
 9511SOL    HW240167   3.115   1.438   2.874 -0.5908 -0.2728  1.0398
 9512SOL     OW40168   1.497   2.489  15.536 -0.2089  0.1786 -0.3815
 9512SOL    HW140169   1.453   2.494  15.621  0.4566  0.0362 -0.0299
 9512SOL    HW240170   1.435   2.535  15.481 -1.1633 -0.4957  0.1332
 9513SOL     OW40171   2.794   4.096   6.069 -0.4663  0.0534 -0.3505
 9513SOL    HW140172   2.726   4.098   6.002 -0.8550  0.9844  0.0797
 9513SOL    HW240173   2.768   4.168   6.127 -0.2105 -2.1779  2.5452
 9514SOL     OW40174   1.752   3.245   7.920  0.2305 -0.3123  0.2490
 9514SOL    HW140175   1.811   3.284   7.985 -1.4263 -0.8391  2.0996
 9514SOL    HW240176   1.663   3.259   7.954 -0.1695  0.3242 -1.0436
 9515SOL     OW40177   2.754   3.410   6.276 -0.3887 -0.3887 -0.5287
 9515SOL    HW140178   2.822   3.343   6.275 -0.1369 -0.1274 -1.3019
 9515SOL    HW240179   2.793   3.489   6.312  0.0959  0.2896 -2.5120
 9516SOL     OW40180   1.317   4.395   2.940 -0.0101  0.3364 -0.5954
 9516SOL    HW140181   1.396   4.446   2.918  1.0906 -0.5298  1.4023
 9516SOL    HW240182   1.269   4.430   2.865  0.1692  0.8191 -0.4905
 9517SOL     OW40183   4.389   2.041  11.705  0.0105 -0.1561  0.1580
 9517SOL    HW140184   4.379   2.004  11.793  1.2813  0.2300  0.4607
 9517SOL    HW240185   4.374   1.958  11.660  0.2764  0.2537 -0.6840
 9518SOL     OW40186   1.998   3.528   6.048  0.2362  0.0801  0.3846
 9518SOL    HW140187   2.055   3.537   6.124 -1.5353  0.3662  1.6900
 9518SOL    HW240188   2.020   3.618   6.025 -1.9117 -0.0680 -2.1907
 9519SOL     OW40189   3.325   0.716   8.139  0.7757  0.2717  0.2452
 9519SOL    HW140190   3.328   0.782   8.209  2.0778  1.7070 -1.1519
 9519SOL    HW240191   3.409   0.672   8.151  0.2966 -0.3748  1.2544
 9520SOL     OW40192   2.846   2.256   6.263 -0.0762 -0.5234  0.0001
 9520SOL    HW140193   2.810   2.173   6.294 -0.0292 -1.1127 -1.4843
 9520SOL    HW240194   2.938   2.234   6.250 -0.1648 -2.0035  1.8886
 9521SOL     OW40195   2.112   1.040   7.028  0.1380 -0.2063 -0.1169
 9521SOL    HW140196   2.071   1.107   6.974  0.1011  0.9512  1.3431
 9521SOL    HW240197   2.167   0.994   6.965  0.0053  1.3420 -1.3643
 9522SOL     OW40198   1.180   3.310  12.198  0.4580 -0.8192  0.8306
 9522SOL    HW140199   1.089   3.287  12.217 -0.7769  2.0268 -1.6161
 9522SOL    HW240200   1.168   3.351  12.112  2.1817  2.1891  2.0083
 9523SOL     OW40201   0.588   4.476   7.985  0.3113  0.2811  0.7989
 9523SOL    HW140202   0.628   4.454   7.900 -1.1117 -0.8403  0.4089
 9523SOL    HW240203   0.625   4.563   7.995  2.1195 -0.1713 -1.8887
 9524SOL     OW40204   1.890   2.072   3.168  0.0145  0.3987  0.4032
 9524SOL    HW140205   1.955   2.003   3.155 -0.5798  0.4241 -2.7484
 9524SOL    HW240206   1.906   2.107   3.256 -0.5033 -1.3037  1.1730
 9525SOL     OW40207   4.051   3.122  12.760 -0.3317  0.2226  0.4795
 9525SOL    HW140208   3.991   3.056  12.726 -1.7844  0.8672  1.8025
 9525SOL    HW240209   3.986   3.156  12.821 -2.9850 -3.4557 -0.3254
 9526SOL     OW40210   2.681   3.890   4.180 -1.0587  0.5413 -0.6687
 9526SOL    HW140211   2.705   3.966   4.233 -0.4363 -0.3104  0.2683
 9526SOL    HW240212   2.650   3.939   4.104 -1.9332  0.0380 -0.6296
 9527SOL     OW40213   3.107   2.721   4.774  0.0434  0.2981 -0.0117
 9527SOL    HW140214   3.193   2.687   4.751 -0.1369  0.8435 -1.4965
 9527SOL    HW240215   3.077   2.655   4.836  0.9241  0.8136  0.9542
 9528SOL     OW40216   0.313   4.034  11.964 -0.2698  0.5871  0.1298
 9528SOL    HW140217   0.231   4.063  11.925  1.9440  2.9271 -2.8028
 9528SOL    HW240218   0.381   4.082  11.917  0.2252 -0.7645 -0.5394
 9529SOL     OW40219   4.156   2.044   1.377 -0.1088 -0.5992  0.7477
 9529SOL    HW140220   4.095   2.115   1.397  0.9380  0.2262  1.0562
 9529SOL    HW240221   4.230   2.091   1.337 -0.1817 -0.9670  0.1891
 9530SOL     OW40222   1.221   0.250  11.903 -0.2597 -0.1833 -0.4135
 9530SOL    HW140223   1.246   0.339  11.928 -1.7494 -0.2934  1.5741
 9530SOL    HW240224   1.126   0.258  11.913 -0.5155 -1.0351 -2.3438
 9531SOL     OW40225   2.849   0.447   9.598 -0.4882  0.7745 -0.4979
 9531SOL    HW140226   2.823   0.536   9.622 -2.4983 -0.7838  3.1726
 9531SOL    HW240227   2.818   0.431   9.509  1.1205  2.3005 -1.3381
 9532SOL     OW40228   0.576   4.075  13.782 -0.5804  0.1063  0.0679
 9532SOL    HW140229   0.525   4.154  13.767 -1.3617 -0.7567 -1.8911
 9532SOL    HW240230   0.646   4.098  13.721 -1.3305 -0.1673 -0.8918
 9533SOL     OW40231   3.868   1.558   3.796 -0.2885  0.3329  0.0665
 9533SOL    HW140232   3.791   1.556   3.739  0.0641  1.5567 -0.4560
 9533SOL    HW240233   3.820   1.559   3.879 -0.5592 -0.8780 -0.0702
 9534SOL     OW40234   1.893   1.137   8.921 -0.3498 -0.8033 -0.4924
 9534SOL    HW140235   1.887   1.211   8.862  1.1055 -0.0550  0.3009
 9534SOL    HW240236   1.803   1.105   8.920 -0.4841 -0.4382 -0.1218
 9535SOL     OW40237   4.063   1.800   2.003 -0.7617 -0.1324  0.1796
 9535SOL    HW140238   4.040   1.794   1.910  1.9797 -0.1830 -0.4989
 9535SOL    HW240239   4.004   1.734   2.037 -1.2583  1.1620  1.8260
 9536SOL     OW40240   0.482   2.846   5.777  0.0555  0.3311 -0.2116
 9536SOL    HW140241   0.440   2.901   5.711 -0.8861  1.8612  1.6700
 9536SOL    HW240242   0.423   2.771   5.765 -0.3267  0.3360  1.7189
 9537SOL     OW40243   3.703   0.161   2.362  0.1963 -0.0251  0.0281
 9537SOL    HW140244   3.757   0.209   2.426  2.2290  0.5678 -2.1350
 9537SOL    HW240245   3.761   0.093   2.330  0.6892  0.5549 -0.3180
 9538SOL     OW40246   3.902   2.183  12.186  0.0345 -0.0767  0.0948
 9538SOL    HW140247   3.894   2.253  12.250  0.2668 -0.7951  0.9109
 9538SOL    HW240248   3.810   2.161  12.175  0.5948 -1.8731 -1.0862
 9539SOL     OW40249   3.586   2.646  10.078  0.6113 -0.4074  0.0729
 9539SOL    HW140250   3.514   2.647  10.140 -1.5529  1.2887 -2.4439
 9539SOL    HW240251   3.577   2.558  10.040 -0.8284  0.2285 -1.0669
 9540SOL     OW40252   4.619   4.566  12.657 -0.1085 -0.0531  0.0682
 9540SOL    HW140253   4.565   4.599  12.585  0.7753  3.1025  0.8432
 9540SOL    HW240254   4.688   4.633  12.666 -0.9391  1.0122 -1.5315
 9541SOL     OW40255   1.290   0.528  10.405 -0.6879 -0.3838  0.2385
 9541SOL    HW140256   1.316   0.488  10.488  1.1959  0.3172 -0.0117
 9541SOL    HW240257   1.233   0.597  10.438  0.0199 -0.4069  1.4848
 9542SOL     OW40258   1.771   3.949  16.740 -0.0651 -0.3098 -0.3102
 9542SOL    HW140259   1.821   3.881  16.695 -0.4561 -0.4580 -0.5254
 9542SOL    HW240260   1.804   3.949  16.829 -1.7313 -1.3771  0.3168
 9543SOL     OW40261   1.197   1.685   0.268 -0.5111 -0.2042 -0.2889
 9543SOL    HW140262   1.180   1.771   0.230  1.7705  0.5883  0.4940
 9543SOL    HW240263   1.268   1.664   0.208  0.3996  0.1733  0.6417
 9544SOL     OW40264   3.466   0.357   0.139 -0.1746  0.5714  0.2514
 9544SOL    HW140265   3.500   0.446   0.137  0.9867  0.1530  1.7437
 9544SOL    HW240266   3.548   0.307   0.144  0.5972  2.0233  2.1319
 9545SOL     OW40267   0.527   3.746   4.880 -0.0353  0.1828  0.1359
 9545SOL    HW140268   0.568   3.710   4.958  2.3891  0.1384 -1.1768
 9545SOL    HW240269   0.591   3.735   4.810  1.3351  0.1248  1.4129
 9546SOL     OW40270   0.212   2.235   5.033 -0.1166  0.4584 -0.3283
 9546SOL    HW140271   0.178   2.146   5.021  0.1679  0.4032 -0.7306
 9546SOL    HW240272   0.137   2.282   4.997  1.3610  2.1298 -1.2786
 9547SOL     OW40273   2.534   3.714   9.657 -0.1560 -0.0788 -0.0523
 9547SOL    HW140274   2.562   3.768   9.583 -1.7587  1.7653  0.6912
 9547SOL    HW240275   2.578   3.737   9.739  1.4776  1.2437 -1.3086
 9548SOL     OW40276   2.073   0.278   5.716  0.5883 -0.0020  0.0814
 9548SOL    HW140277   2.146   0.337   5.698  0.1103  0.7458  0.5618
 9548SOL    HW240278   2.019   0.335   5.772 -0.1560 -0.9723  0.3510
 9549SOL     OW40279   2.938   4.472   5.241  0.1489  0.0113  0.4994
 9549SOL    HW140280   2.923   4.385   5.205  0.9647  0.2439 -0.3900
 9549SOL    HW240281   2.873   4.520   5.189 -1.1219 -1.4052  0.7618
 9550SOL     OW40282   3.613   4.538   5.983 -0.2107  0.5505  0.3072
 9550SOL    HW140283   3.546   4.551   5.916 -1.7972  0.4708  1.8994
 9550SOL    HW240284   3.677   4.492   5.928  0.6699  0.6941  1.2043
 9551SOL     OW40285   3.153   0.380  13.205  0.0679  0.2364 -0.1865
 9551SOL    HW140286   3.074   0.338  13.169  0.5035 -0.4223 -0.3648
 9551SOL    HW240287   3.214   0.399  13.133 -1.6012  0.6350 -1.5097
 9552SOL     OW40288   4.358   2.310   2.259  0.2410 -0.2500  0.2787
 9552SOL    HW140289   4.383   2.362   2.183  0.1180 -1.1122 -0.3454
 9552SOL    HW240290   4.319   2.376   2.317  0.3513 -0.0963  0.1764
 9553SOL     OW40291   0.494   2.341   6.137 -0.0894 -0.2261  0.3319
 9553SOL    HW140292   0.418   2.332   6.194 -1.7041 -0.2084 -1.8278
 9553SOL    HW240293   0.516   2.435   6.137  1.8227 -0.6819  1.8563
 9554SOL     OW40294   3.748   0.635   9.470 -0.7031  0.3280  0.1136
 9554SOL    HW140295   3.807   0.696   9.515  0.8295 -0.5193 -0.7825
 9554SOL    HW240296   3.741   0.560   9.529  3.3587 -2.2434 -2.6522
 9555SOL     OW40297   2.525   0.143   5.822  0.2958 -0.4215  0.0839
 9555SOL    HW140298   2.614   0.108   5.823  1.0580  1.5192  0.3812
 9555SOL    HW240299   2.506   0.148   5.728  2.8575 -0.7156 -0.4588
 9556SOL     OW40300   3.475   1.975  16.324  0.1083  0.3382 -0.6512
 9556SOL    HW140301   3.391   1.970  16.369  1.1287 -2.8539  0.9392
 9556SOL    HW240302   3.453   1.956  16.233  1.1886 -0.5673 -0.7365
 9557SOL     OW40303   1.818   4.702   6.719  0.3721  0.3725 -0.0016
 9557SOL    HW140304   1.784   4.619   6.687 -1.4453  1.9827 -2.2117
 9557SOL    HW240305   1.828   4.673   6.810  0.3795 -0.1997 -0.1858
 9558SOL     OW40306   2.663   2.721   9.445 -0.0467  0.3360 -0.3162
 9558SOL    HW140307   2.757   2.740   9.441  0.0027  0.6702  2.5780
 9558SOL    HW240308   2.670   2.667   9.523 -3.3643  1.0159  0.4338
 9559SOL     OW40309   0.015   4.730   5.478 -0.2815 -0.0412 -0.5747
 9559SOL    HW140310   4.679   4.669   5.493  0.4901 -0.6163  0.8149
 9559SOL    HW240311   0.076   4.661   5.451  1.2190  1.6624 -1.4998
 9560SOL     OW40312   0.530   1.200   3.896 -0.0583  0.0714 -0.2654
 9560SOL    HW140313   0.503   1.288   3.870 -2.1179 -0.4803 -0.0463
 9560SOL    HW240314   0.549   1.176   3.806  0.8747  2.2603 -0.6450
 9561SOL     OW40315   2.501   4.025  11.017 -0.5531 -0.7100 -0.0298
 9561SOL    HW140316   2.473   3.999  10.929 -2.0357 -1.5251  0.6718
 9561SOL    HW240317   2.418   4.038  11.064 -0.9688 -1.2255 -0.6160
 9562SOL     OW40318   1.525   4.038   1.852  0.4305 -0.8251  0.4104
 9562SOL    HW140319   1.491   3.963   1.900 -1.7021  1.6445  2.7209
 9562SOL    HW240320   1.459   4.100   1.883  0.9367  0.2467 -0.6683
 9563SOL     OW40321   1.274   1.731   3.913 -0.3594 -0.4709  0.3748
 9563SOL    HW140322   1.181   1.708   3.911 -0.3905 -0.4987  2.0401
 9563SOL    HW240323   1.272   1.824   3.893  0.0102 -0.2403  1.3685
 9564SOL     OW40324   2.096   3.635   2.472  1.0640 -0.1862  0.1634
 9564SOL    HW140325   2.148   3.604   2.546  2.6698 -0.1176 -0.9538
 9564SOL    HW240326   2.162   3.682   2.422  0.1804  0.8083 -0.0774
 9565SOL     OW40327   1.285   1.584   5.263  0.4674 -0.0499 -0.3228
 9565SOL    HW140328   1.286   1.639   5.341 -0.8554 -1.7224  0.8682
 9565SOL    HW240329   1.378   1.579   5.240  0.6989  1.7750  0.2384
 9566SOL     OW40330   2.084   4.272   9.382  0.1244 -0.1562 -1.2297
 9566SOL    HW140331   2.135   4.287   9.462  1.7855  0.0846 -2.3289
 9566SOL    HW240332   2.055   4.185   9.409  1.3697 -1.1582 -3.1300
 9567SOL     OW40333   2.527   3.541   7.933  0.7441 -0.0586  0.8079
 9567SOL    HW140334   2.455   3.509   7.879  0.6268  2.7725 -0.7398
 9567SOL    HW240335   2.489   3.588   8.007 -2.1625 -0.6094 -0.3171
 9568SOL     OW40336   2.737   2.012  15.758 -0.3318  0.2445 -0.1110
 9568SOL    HW140337   2.662   1.952  15.760 -0.0601 -0.1171 -0.7156
 9568SOL    HW240338   2.706   2.076  15.694 -0.4641  0.3229  0.0302
 9569SOL     OW40339   3.162   1.027   2.345 -0.0710 -0.1331  0.4182
 9569SOL    HW140340   3.257   1.033   2.357 -0.1368 -1.6085  1.6972
 9569SOL    HW240341   3.153   1.083   2.267 -1.0446  0.3172  0.8587
 9570SOL     OW40342   0.614   3.492   5.965  0.1163  0.5803 -0.2238
 9570SOL    HW140343   0.685   3.556   5.969  1.3278 -0.7362 -0.9251
 9570SOL    HW240344   0.599   3.453   6.052  0.0069  2.5890  0.6666
 9571SOL     OW40345   2.058   0.109   8.675 -0.3136  0.0259  0.5233
 9571SOL    HW140346   2.149   0.079   8.673 -0.6123 -0.5682 -3.0229
 9571SOL    HW240347   2.038   0.112   8.582 -1.0014 -1.2002  0.6337
   4.73571   4.73571  17.74153
